<event>
 7    1  0.2612213E-009  0.1216051E+03  0.7561462E-02  0.1240472E+00
         -1   -1    0    0    0  501 -0.00000000000E+00  0.00000000000E+00  0.67925348831E+03  0.67925348831E+03  0.00000000000E+00 0.  1.
          1   -1    0    0  501    0  0.00000000000E+00 -0.00000000000E+00 -0.42983966608E+02  0.42983966608E+02  0.00000000000E+00 0. -1.
         25    2    1    2    0    0  0.65206316672E+02  0.46060993575E+02  0.55085871928E+03  0.57049555116E+03  0.12508543647E+03 0.  0.
          5    1    3    3  502    0 -0.17110436277E+02  0.61401538053E+02  0.21162620454E+03  0.22105664151E+03  0.41800000000E+01 0.  1.
         -5    1    3    3    0  502  0.82316752949E+02 -0.15340544478E+02  0.33923251474E+03  0.34943890965E+03  0.41800000000E+01 0.  1.
        -11    1    1    2    0    0 -0.70752329476E+02 -0.27143414374E+02  0.10123952163E+03  0.12645986640E+03  0.00000000000E+00 0.  1.
         11    1    1    2    0    0  0.55460128041E+01 -0.18917579202E+02 -0.15828719217E+02  0.25282037357E+02  0.00000000000E+00 0. -1.
</event>
<event>
 7    1  0.2612213E-009  0.1823104E+03  0.7561462E-02  0.1165586E+00
         -2   -1    0    0    0  501 -0.00000000000E+00  0.00000000000E+00  0.24560391554E+03  0.24560391554E+03  0.00000000000E+00 0.  1.
          2   -1    0    0  501    0  0.00000000000E+00 -0.00000000000E+00 -0.15687874024E+03  0.15687874024E+03  0.00000000000E+00 0. -1.
         25    2    1    2    0    0 -0.15753912765E+03  0.34968721444E+02  0.21393686510E+02  0.20529470627E+03  0.12508732303E+03 0.  0.
          5    1    3    3  502    0 -0.16217561815E+03  0.51581849914E+02 -0.85936667274E+01  0.17044923546E+03  0.41800000000E+01 0. -1.
         -5    1    3    3    0  502  0.46364905007E+01 -0.16613128470E+02  0.29987353237E+02  0.34845470809E+02  0.41800000000E+01 0. -1.
        -11    1    1    2    0    0  0.78026796227E+02 -0.53990764950E+02  0.65708643489E+02  0.11541581113E+03  0.00000000000E+00 0.  1.
         11    1    1    2    0    0  0.79512331421E+02  0.19022043506E+02  0.16228453052E+01  0.81772138372E+02  0.00000000000E+00 0. -1.
</event>
<event>
 7    1  0.2612213E-009  0.1390943E+03  0.7561462E-02  0.1214553E+00
         -4   -1    0    0    0  501 -0.00000000000E+00  0.00000000000E+00  0.66796304451E+03  0.66796304451E+03  0.00000000000E+00 0.  1.
          4   -1    0    0  501    0  0.00000000000E+00 -0.00000000000E+00 -0.36401781827E+02  0.36401781827E+02  0.00000000000E+00 0. -1.
         25    2    1    2    0    0  0.77288412784E+02 -0.40887186837E+02  0.49715840299E+03  0.52005734112E+03  0.12509156484E+03 0.  0.
          5    1    3    3  502    0 -0.30801166667E+02  0.99121110455E+01  0.90404755092E+02  0.96111674404E+02  0.41800000000E+01 0.  1.
         -5    1    3    3    0  502  0.10808957945E+03 -0.50799297882E+02  0.40675364790E+03  0.42394566672E+03  0.41800000000E+01 0.  1.
        -11    1    1    2    0    0 -0.11080828620E+02  0.56877627631E+02  0.64557126474E+02  0.86749477615E+02  0.00000000000E+00 0. -1.
         11    1    1    2    0    0 -0.66207584164E+02 -0.15990440795E+02  0.69845733216E+02  0.97558007596E+02  0.00000000000E+00 0.  1.
</event>
<event>
 7    1  0.2612213E-009  0.1063367E+03  0.7561462E-02  0.1267508E+00
         -2   -1    0    0    0  501 -0.00000000000E+00  0.00000000000E+00  0.54880672684E+02  0.54880672684E+02  0.00000000000E+00 0. -1.
          2   -1    0    0  501    0  0.00000000000E+00 -0.00000000000E+00 -0.36188102602E+03  0.36188102602E+03  0.00000000000E+00 0.  1.
         25    2    1    2    0    0 -0.66518141220E+02  0.47675462707E+02 -0.11772382851E+03  0.19027310738E+03  0.12508933902E+03 0.  0.
          5    1    3    3  502    0 -0.52364503819E+02  0.66856722769E+02 -0.17033251450E+02  0.86714858557E+02  0.41800000000E+01 0. -1.
         -5    1    3    3    0  502 -0.14153637401E+02 -0.19181260063E+02 -0.10069057706E+03  0.10355824882E+03  0.41800000000E+01 0. -1.
        -11    1    1    2    0    0 -0.99418137758E+01  0.44669333411E+01  0.44645598905E+01  0.11778176839E+02  0.00000000000E+00 0. -1.
         11    1    1    2    0    0  0.76459954996E+02 -0.52142396048E+02 -0.19374108471E+03  0.21471041449E+03  0.00000000000E+00 0.  1.
</event>
<event>
 7    1  0.2612213E-009  0.1061213E+03  0.7561462E-02  0.1267926E+00
         -3   -1    0    0    0  501 -0.00000000000E+00  0.00000000000E+00  0.37863028183E+03  0.37863028183E+03  0.00000000000E+00 0. -1.
          3   -1    0    0  501    0  0.00000000000E+00 -0.00000000000E+00 -0.38212082957E+02  0.38212082957E+02  0.00000000000E+00 0.  1.
         25    2    1    2    0    0 -0.74467541139E+00  0.41118482894E+02  0.13887962034E+03  0.19137759999E+03  0.12508618091E+03 0.  0.
          5    1    3    3  502    0  0.42322297068E+02  0.51419225484E+02  0.12984990597E+03  0.14599172600E+03  0.41800000000E+01 0. -1.
         -5    1    3    3    0  502 -0.43066972479E+02 -0.10300742590E+02  0.90297143710E+01  0.45385873992E+02  0.41800000000E+01 0. -1.
        -11    1    1    2    0    0  0.36180504271E+02  0.11175454085E+02  0.78648619276E+02  0.87289890465E+02  0.00000000000E+00 0. -1.
         11    1    1    2    0    0 -0.35435828860E+02 -0.52293936979E+02  0.12288995925E+03  0.13817487433E+03  0.00000000000E+00 0.  1.
</event>
<event>
 7    1  0.2612213E-009  0.1630159E+03  0.7561462E-02  0.1185333E+00
         -3   -1    0    0    0  501 -0.00000000000E+00  0.00000000000E+00  0.21757598665E+03  0.21757598665E+03  0.00000000000E+00 0.  1.
          3   -1    0    0  501    0  0.00000000000E+00 -0.00000000000E+00 -0.13488646691E+03  0.13488646691E+03  0.00000000000E+00 0. -1.
         25    2    1    2    0    0 -0.70650044397E+02  0.10529140478E+03  0.10459166937E+02  0.17842088781E+03  0.12508761066E+03 0.  0.
          5    1    3    3  502    0  0.35851093066E+02  0.29176059478E+02  0.98645344998E+01  0.47448127061E+02  0.41800000000E+01 0. -1.
         -5    1    3    3    0  502 -0.10650113746E+03  0.76115345306E+02  0.59463243711E+00  0.13097276075E+03  0.41800000000E+01 0. -1.
        -11    1    1    2    0    0  0.20989649024E+01 -0.72725273690E+02  0.65421348252E+02  0.97843364078E+02  0.00000000000E+00 0.  1.
         11    1    1    2    0    0  0.68551079494E+02 -0.32566131094E+02  0.68090045561E+01  0.76198201667E+02  0.00000000000E+00 0. -1.
</event>
<event>
 7    1  0.2612213E-009  0.9648835E+02  0.7561462E-02  0.1287859E+00
         -1   -1    0    0    0  501 -0.00000000000E+00  0.00000000000E+00  0.31882745926E+02  0.31882745926E+02  0.00000000000E+00 0.  1.
          1   -1    0    0  501    0  0.00000000000E+00 -0.00000000000E+00 -0.53762901674E+03  0.53762901674E+03  0.00000000000E+00 0. -1.
         25    2    1    2    0    0 -0.21441349783E+01 -0.31689600921E+02 -0.42788112830E+03  0.44692215103E+03  0.12509324923E+03 0.  0.
          5    1    3    3  502    0  0.44297295894E+02 -0.25419022732E+02 -0.36397660024E+03  0.36756606897E+03  0.41800000000E+01 0.  1.
         -5    1    3    3    0  502 -0.46441430872E+02 -0.62705781892E+01 -0.63904528063E+02  0.79356082056E+02  0.41800000000E+01 0.  1.
        -11    1    1    2    0    0  0.36157311745E+02 -0.13088473729E+02 -0.31513447128E+02  0.49716764648E+02  0.00000000000E+00 0. -1.
         11    1    1    2    0    0 -0.34013176767E+02  0.44778074650E+02 -0.46351695385E+02  0.72872846988E+02  0.00000000000E+00 0.  1.
</event>
<event>
 7    1  0.2612213E-009  0.2551787E+03  0.7561462E-02  0.1110075E+00
          2   -1    0    0  501    0  0.00000000000E+00  0.00000000000E+00  0.50950232693E+03  0.50950232693E+03  0.00000000000E+00 0. -1.
         -2   -1    0    0    0  501 -0.00000000000E+00 -0.00000000000E+00 -0.15156101422E+03  0.15156101422E+03  0.00000000000E+00 0.  1.
         25    2    1    2    0    0  0.23229704515E+02 -0.25041285372E+03  0.23459398762E+03  0.36596158870E+03  0.12508928371E+03 0.  0.
          5    1    3    3  502    0 -0.14821097505E+02 -0.58861750428E+02  0.13193845790E+03  0.14529143012E+03  0.41800000000E+01 0. -1.
         -5    1    3    3    0  502  0.38050802020E+02 -0.19155110329E+03  0.10265552972E+03  0.22067015858E+03  0.41800000000E+01 0. -1.
        -11    1    1    2    0    0  0.62981960506E+01  0.13154196840E+03  0.11056671728E+03  0.17195335325E+03  0.00000000000E+00 0.  1.
         11    1    1    2    0    0 -0.29527900565E+02  0.11887088531E+03  0.12780607816E+02  0.12314839919E+03  0.00000000000E+00 0. -1.
</event>
<event>
 7    1  0.2612213E-009  0.1541937E+03  0.7561462E-02  0.1195413E+00
         -1   -1    0    0    0  501 -0.00000000000E+00  0.00000000000E+00  0.20277202238E+03  0.20277202238E+03  0.00000000000E+00 0.  1.
          1   -1    0    0  501    0  0.00000000000E+00 -0.00000000000E+00 -0.12103172809E+03  0.12103172809E+03  0.00000000000E+00 0. -1.
         25    2    1    2    0    0 -0.46953212021E+02  0.10227828618E+03  0.42507785058E+02  0.17355004857E+03  0.12508899083E+03 0.  0.
          5    1    3    3  502    0 -0.88706890929E+02  0.80624927129E+02  0.39309602431E+02  0.12622206074E+03  0.41800000000E+01 0. -1.
         -5    1    3    3    0  502  0.41753678909E+02  0.21653359053E+02  0.31981826275E+01  0.47327987838E+02  0.41800000000E+01 0. -1.
        -11    1    1    2    0    0  0.10281531007E+02 -0.10400348660E+03  0.13405013483E+02  0.10536664316E+03  0.00000000000E+00 0.  1.
         11    1    1    2    0    0  0.36671681014E+02  0.17252004140E+01  0.25827495749E+02  0.44887058731E+02  0.00000000000E+00 0. -1.
</event>
<event>
 7    1  0.2612213E-009  0.1025231E+03  0.7561462E-02  0.1275078E+00
         -2   -1    0    0    0  501 -0.00000000000E+00  0.00000000000E+00  0.17188006615E+02  0.17188006615E+02  0.00000000000E+00 0.  1.
          2   -1    0    0  501    0  0.00000000000E+00 -0.00000000000E+00 -0.10547672417E+04  0.10547672417E+04  0.00000000000E+00 0. -1.
         25    2    1    2    0    0  0.54635137423E+02  0.38989672986E+02 -0.73688803838E+03  0.75043783902E+03  0.12509107197E+03 0.  0.
          5    1    3    3  502    0  0.23819473430E+02 -0.22176522805E+02 -0.48014133413E+02  0.58154921421E+02  0.41800000000E+01 0. -1.
         -5    1    3    3    0  502  0.30815663993E+02  0.61166195790E+02 -0.68887390497E+03  0.69228291760E+03  0.41800000000E+01 0. -1.
        -11    1    1    2    0    0  0.20597859967E+02 -0.10954043800E+02 -0.13950729329E+03  0.14144450428E+03  0.00000000000E+00 0. -1.
         11    1    1    2    0    0 -0.75232997390E+02 -0.28035629186E+02 -0.16118390344E+03  0.18007290504E+03  0.00000000000E+00 0.  1.
</event>
<event>
 7    1  0.3097329E-009  0.1473919E+03  0.7561462E-02  0.1203715E+00
          1   -1    0    0  501    0  0.00000000000E+00  0.00000000000E+00  0.63843191282E+03  0.63843191282E+03  0.00000000000E+00 0. -1.
         -1   -1    0    0    0  501 -0.00000000000E+00 -0.00000000000E+00 -0.51034269302E+02  0.51034269302E+02  0.00000000000E+00 0.  1.
         25    2    1    2    0    0  0.13684217824E+03 -0.62585362123E+01  0.22899318041E+03  0.29470759955E+03  0.12509892700E+03 0.  0.
          5    1    3    3  502    0  0.61471575931E+02 -0.36942567502E+02  0.26736737151E+02  0.76653985249E+02  0.41800000000E+01 0.  1.
         -5    1    3    3    0  502  0.75370602309E+02  0.30684031290E+02  0.20225644326E+03  0.21805361430E+03  0.41800000000E+01 0.  1.
        -11    1    1    2    0    0 -0.78386289571E+02  0.21045225669E+02  0.96935079338E+02  0.12642674370E+03  0.00000000000E+00 0.  1.
         11    1    1    2    0    0 -0.58455888669E+02 -0.14786689456E+02  0.26146938377E+03  0.26833183887E+03  0.00000000000E+00 0. -1.
</event>
<event>
 7    1  0.2612213E-009  0.1169814E+03  0.7561462E-02  0.1248162E+00
         -1   -1    0    0    0  501 -0.00000000000E+00  0.00000000000E+00  0.48672908960E+03  0.48672908960E+03  0.00000000000E+00 0.  1.
          1   -1    0    0  501    0  0.00000000000E+00 -0.00000000000E+00 -0.38989110529E+02  0.38989110529E+02  0.00000000000E+00 0. -1.
         25    2    1    2    0    0 -0.50947969441E+02  0.52507664067E+02  0.33364837724E+03  0.36376059963E+03  0.12509110212E+03 0.  0.
          5    1    3    3  502    0 -0.33774122548E+01 -0.26449317207E+02  0.12733054010E+02  0.29842526010E+02  0.41800000000E+01 0.  1.
         -5    1    3    3    0  502 -0.47570557186E+02  0.78956981274E+02  0.32091532323E+03  0.33391807362E+03  0.41800000000E+01 0.  1.
        -11    1    1    2    0    0  0.11372755289E+02 -0.70366874720E+02  0.76032908577E+02  0.10422015068E+03  0.00000000000E+00 0. -1.
         11    1    1    2    0    0  0.39575214152E+02  0.17859210652E+02  0.38058693253E+02  0.57737449826E+02  0.00000000000E+00 0.  1.
</event>
<event>
 7    1  0.2612213E-009  0.1264315E+03  0.7561462E-02  0.1232849E+00
          1   -1    0    0  501    0  0.00000000000E+00  0.00000000000E+00  0.46814325632E+02  0.46814325632E+02  0.00000000000E+00 0. -1.
         -1   -1    0    0    0  501 -0.00000000000E+00 -0.00000000000E+00 -0.48750277914E+03  0.48750277914E+03  0.00000000000E+00 0.  1.
         25    2    1    2    0    0 -0.99274762292E+02  0.29907834860E+02 -0.26206739118E+03  0.30833960246E+03  0.12507612046E+03 0.  0.
          5    1    3    3  502    0 -0.19107977560E+02 -0.14896514587E+02  0.56928035762E+01  0.25236904838E+02  0.41800000000E+01 0. -1.
         -5    1    3    3    0  502 -0.80166784732E+02  0.44804349446E+02 -0.26776019476E+03  0.28310269762E+03  0.41800000000E+01 0. -1.
        -11    1    1    2    0    0  0.10960037214E+02 -0.45379358586E+02 -0.80535029802E+02  0.93087591153E+02  0.00000000000E+00 0.  1.
         11    1    1    2    0    0  0.88314725078E+02  0.15471523726E+02 -0.98086032527E+02  0.13288991116E+03  0.00000000000E+00 0. -1.
</event>
<event>
 7    1  0.2612213E-009  0.1561752E+03  0.7561462E-02  0.1193084E+00
          2   -1    0    0  501    0  0.00000000000E+00  0.00000000000E+00  0.20595926738E+03  0.20595926738E+03  0.00000000000E+00 0. -1.
         -2   -1    0    0    0  501 -0.00000000000E+00 -0.00000000000E+00 -0.17028369137E+03  0.17028369137E+03  0.00000000000E+00 0.  1.
         25    2    1    2    0    0 -0.96737640917E+02 -0.10396270034E+03 -0.34157102492E+02  0.19231125275E+03  0.12510194263E+03 0.  0.
          5    1    3    3  502    0 -0.70571335802E+02 -0.38551774099E+02  0.40024038110E+02  0.89921903615E+02  0.41800000000E+01 0. -1.
         -5    1    3    3    0  502 -0.26166305115E+02 -0.65410926239E+02 -0.74181140602E+02  0.10238934913E+03  0.41800000000E+01 0. -1.
        -11    1    1    2    0    0  0.69382256627E+02  0.11286461760E+03  0.31806034898E+02  0.13624956256E+03  0.00000000000E+00 0.  1.
         11    1    1    2    0    0  0.27355384290E+02 -0.89019172626E+01  0.38026643603E+02  0.47682143453E+02  0.00000000000E+00 0. -1.
</event>
<event>
 7    1  0.2612213E-009  0.9059384E+02  0.7561462E-02  0.1301420E+00
          1   -1    0    0  501    0  0.00000000000E+00  0.00000000000E+00  0.14045991648E+03  0.14045991648E+03  0.00000000000E+00 0. -1.
         -1   -1    0    0    0  501 -0.00000000000E+00 -0.00000000000E+00 -0.88692879003E+02  0.88692879003E+02  0.00000000000E+00 0.  1.
         25    2    1    2    0    0 -0.45056416158E+01  0.27051997592E+02  0.49440580659E+02  0.13727245306E+03  0.12508894425E+03 0.  0.
          5    1    3    3  502    0  0.45350795421E+02  0.15007527478E+02  0.67444191046E+02  0.82753319161E+02  0.41800000000E+01 0.  1.
         -5    1    3    3    0  502 -0.49856437037E+02  0.12044470114E+02 -0.18003610387E+02  0.54519133901E+02  0.41800000000E+01 0.  1.
        -11    1    1    2    0    0 -0.12580880969E+02  0.24458523199E+02 -0.19150479691E+02  0.33514754892E+02  0.00000000000E+00 0.  1.
         11    1    1    2    0    0  0.17086522584E+02 -0.51510520791E+02  0.21476936513E+02  0.58365587534E+02  0.00000000000E+00 0. -1.
</event>
<event>
 7    1  0.2612213E-009  0.1074411E+03  0.7561462E-02  0.1265383E+00
         -2   -1    0    0    0  501 -0.00000000000E+00  0.00000000000E+00  0.68685908458E+02  0.68685908458E+02  0.00000000000E+00 0.  1.
          2   -1    0    0  501    0  0.00000000000E+00 -0.00000000000E+00 -0.27401667868E+03  0.27401667868E+03  0.00000000000E+00 0. -1.
         25    2    1    2    0    0  0.28541809723E+02  0.75588328862E+02 -0.83179171174E+02  0.17057066569E+03  0.12508935652E+03 0.  0.
          5    1    3    3  502    0  0.37043969270E+02  0.77864756685E+02  0.49593674262E+00  0.86330147377E+02  0.41800000000E+01 0.  1.
         -5    1    3    3    0  502 -0.85021595473E+01 -0.22764278230E+01 -0.83675107916E+02  0.84240518312E+02  0.41800000000E+01 0.  1.
        -11    1    1    2    0    0 -0.59981323993E+02 -0.45429572317E+02 -0.60027375732E+02  0.96254304351E+02  0.00000000000E+00 0.  1.
         11    1    1    2    0    0  0.31439514270E+02 -0.30158756545E+02 -0.62124223315E+02  0.75877617097E+02  0.00000000000E+00 0. -1.
</event>
<event>
 7    1  0.2612213E-009  0.1124013E+03  0.7561462E-02  0.1256187E+00
         -1   -1    0    0    0  501 -0.00000000000E+00  0.00000000000E+00  0.37239130854E+02  0.37239130854E+02  0.00000000000E+00 0.  1.
          1   -1    0    0  501    0  0.00000000000E+00 -0.00000000000E+00 -0.37656808661E+03  0.37656808661E+03  0.00000000000E+00 0. -1.
         25    2    1    2    0    0  0.44417047879E+02 -0.16493734697E+02 -0.19437207152E+03  0.23594713936E+03  0.12508250460E+03 0.  0.
          5    1    3    3  502    0 -0.32362219912E+02 -0.29928815986E+02 -0.28585172470E+02  0.52703242681E+02  0.41800000000E+01 0. -1.
         -5    1    3    3    0  502  0.76779267792E+02  0.13435081289E+02 -0.16578689905E+03  0.18324389668E+03  0.41800000000E+01 0. -1.
        -11    1    1    2    0    0 -0.68221145252E+02  0.30630043424E+02 -0.96923287203E+02  0.12241914810E+03  0.00000000000E+00 0. -1.
         11    1    1    2    0    0  0.23804097373E+02 -0.14136308727E+02 -0.48033597030E+02  0.55440930005E+02  0.00000000000E+00 0.  1.
</event>
<event>
 7    1  0.2612213E-009  0.9021747E+02  0.7561462E-02  0.1302326E+00
         -4   -1    0    0    0  501 -0.00000000000E+00  0.00000000000E+00  0.83643102535E+02  0.83643102535E+02  0.00000000000E+00 0. -1.
          4   -1    0    0  501    0  0.00000000000E+00 -0.00000000000E+00 -0.13892286344E+03  0.13892286344E+03  0.00000000000E+00 0.  1.
         25    2    1    2    0    0 -0.38951319884E+01 -0.88553395707E+00 -0.33267467848E+02  0.12949941902E+03  0.12508964340E+03 0.  0.
          5    1    3    3  502    0 -0.52586771579E+02  0.24116164693E+02  0.10928782408E+02  0.59024305413E+02  0.41800000000E+01 0.  1.
         -5    1    3    3    0  502  0.48691639590E+02 -0.25001698650E+02 -0.44196250255E+02  0.70475113608E+02  0.41800000000E+01 0.  1.
        -11    1    1    2    0    0 -0.30764557787E+02  0.87723285519E+01 -0.41602241585E+02  0.52480074971E+02  0.00000000000E+00 0.  1.
         11    1    1    2    0    0  0.34659689776E+02 -0.78867945948E+01  0.19589948531E+02  0.40586471980E+02  0.00000000000E+00 0. -1.
</event>
<event>
 7    1  0.2612213E-009  0.6670538E+02  0.7561462E-02  0.1371669E+00
          2   -1    0    0  501    0  0.00000000000E+00  0.00000000000E+00  0.20538699677E+02  0.20538699677E+02  0.00000000000E+00 0.  1.
         -2   -1    0    0    0  501 -0.00000000000E+00 -0.00000000000E+00 -0.61170857933E+03  0.61170857933E+03  0.00000000000E+00 0. -1.
         25    2    1    2    0    0  0.75765394414E+01 -0.25096311633E+02 -0.38401551297E+03  0.40472642138E+03  0.12509329780E+03 0.  0.
          5    1    3    3  502    0  0.36379015970E+02 -0.92842453957E+01 -0.27624911652E+02  0.46799980334E+02  0.41800000000E+01 0.  1.
         -5    1    3    3    0  502 -0.28802476529E+02 -0.15812066238E+02 -0.35639060132E+03  0.35792644105E+03  0.41800000000E+01 0.  1.
        -11    1    1    2    0    0 -0.24902779090E+02  0.34692801239E+02 -0.20279199737E+03  0.20723979603E+03  0.00000000000E+00 0. -1.
         11    1    1    2    0    0  0.17326239648E+02 -0.95964896052E+01 -0.43623693132E+01  0.20281061588E+02  0.00000000000E+00 0.  1.
</event>
<event>
 7    1  0.2612213E-009  0.1480941E+03  0.7561462E-02  0.1202835E+00
         -2   -1    0    0    0  501 -0.00000000000E+00  0.00000000000E+00  0.10765740041E+03  0.10765740041E+03  0.00000000000E+00 0.  1.
          2   -1    0    0  501    0  0.00000000000E+00 -0.00000000000E+00 -0.31098465555E+03  0.31098465555E+03  0.00000000000E+00 0. -1.
         25    2    1    2    0    0 -0.92515954428E+02  0.43379727494E+02  0.13515812793E+02  0.16208319733E+03  0.12508910057E+03 0.  0.
          5    1    3    3  502    0  0.30067265130E+02  0.14838338131E+01  0.11379484258E+02  0.32453154811E+02  0.41800000000E+01 0.  1.
         -5    1    3    3    0  502 -0.12258321956E+03  0.41895893681E+02  0.21363285350E+01  0.12963004252E+03  0.41800000000E+01 0.  1.
        -11    1    1    2    0    0  0.10586540075E+03 -0.17830499903E+02 -0.15782869865E+03  0.19088034975E+03  0.00000000000E+00 0.  1.
         11    1    1    2    0    0 -0.13349446319E+02 -0.25549227591E+02 -0.59014369282E+02  0.65678508885E+02  0.00000000000E+00 0. -1.
</event>
<event>
 7    1  0.2612213E-009  0.2414121E+03  0.7561462E-02  0.1118856E+00
          2   -1    0    0  501    0  0.00000000000E+00  0.00000000000E+00  0.10646846707E+04  0.10646846707E+04  0.00000000000E+00 0. -1.
         -2   -1    0    0    0  501 -0.00000000000E+00 -0.00000000000E+00 -0.63518844273E+02  0.63518844273E+02  0.00000000000E+00 0.  1.
         25    2    1    2    0    0  0.13982073423E+03 -0.17759126255E+03  0.36680258219E+03  0.44864215983E+03  0.12508860469E+03 0.  0.
          5    1    3    3  502    0 -0.17182142642E+02 -0.20285374181E+02  0.88272728688E+02  0.92283635935E+02  0.41800000000E+01 0. -1.
         -5    1    3    3    0  502  0.15700287688E+03 -0.15730588837E+03  0.27852985350E+03  0.35635852389E+03  0.41800000000E+01 0. -1.
        -11    1    1    2    0    0 -0.60114379978E+02  0.12333146934E+03  0.46336889746E+03  0.48325472077E+03  0.00000000000E+00 0. -1.
         11    1    1    2    0    0 -0.79706354256E+02  0.54259793212E+02  0.17099434675E+03  0.19630663435E+03  0.00000000000E+00 0.  1.
</event>
<event>
 7    1  0.2612213E-009  0.1074998E+03  0.7561462E-02  0.1265271E+00
          3   -1    0    0  501    0  0.00000000000E+00  0.00000000000E+00  0.59733776817E+02  0.59733776817E+02  0.00000000000E+00 0. -1.
         -3   -1    0    0    0  501 -0.00000000000E+00 -0.00000000000E+00 -0.34235330253E+03  0.34235330253E+03  0.00000000000E+00 0.  1.
         25    2    1    2    0    0  0.32637259551E+02 -0.79117679492E+02 -0.10249805506E+03  0.18296863168E+03  0.12508745328E+03 0.  0.
          5    1    3    3  502    0  0.30523815599E+01  0.66505966322E+00  0.27253089327E+02  0.27748200220E+02  0.41800000000E+01 0. -1.
         -5    1    3    3    0  502  0.29584877991E+02 -0.79782739155E+02 -0.12975114438E+03  0.15522043146E+03  0.41800000000E+01 0. -1.
        -11    1    1    2    0    0  0.45865006945E+01  0.86514153336E+02 -0.13070044868E+03  0.15680670267E+03  0.00000000000E+00 0.  1.
         11    1    1    2    0    0 -0.37223760246E+02 -0.73964738443E+01 -0.49421021977E+02  0.62311745004E+02  0.00000000000E+00 0. -1.
</event>
<event>
 7    1  0.2612213E-009  0.1082713E+03  0.7561462E-02  0.1263805E+00
         -2   -1    0    0    0  501 -0.00000000000E+00  0.00000000000E+00  0.53512434821E+02  0.53512434821E+02  0.00000000000E+00 0.  1.
          2   -1    0    0  501    0  0.00000000000E+00 -0.00000000000E+00 -0.25749992283E+03  0.25749992283E+03  0.00000000000E+00 0. -1.
         25    2    1    2    0    0  0.13693244248E+02  0.44303018930E+02 -0.11865949896E+03  0.17854441245E+03  0.12509103925E+03 0.  0.
          5    1    3    3  502    0 -0.80683903339E+00  0.81279819669E+02 -0.40812218544E+02  0.91050368792E+02  0.41800000000E+01 0. -1.
         -5    1    3    3    0  502  0.14500083281E+02 -0.36976800740E+02 -0.77847280413E+02  0.87494043659E+02  0.41800000000E+01 0. -1.
        -11    1    1    2    0    0  0.25723462564E+02 -0.49175551824E+02 -0.26528740597E+02  0.61511832204E+02  0.00000000000E+00 0. -1.
         11    1    1    2    0    0 -0.39416706812E+02  0.48725328945E+01 -0.58799248456E+02  0.70956112997E+02  0.00000000000E+00 0.  1.
</event>
<event>
 7    1  0.2612213E-009  0.2271813E+03  0.7561462E-02  0.1128640E+00
          2   -1    0    0  501    0  0.00000000000E+00  0.00000000000E+00  0.18038592733E+03  0.18038592733E+03  0.00000000000E+00 0. -1.
         -2   -1    0    0    0  501 -0.00000000000E+00 -0.00000000000E+00 -0.40902320050E+03  0.40902320050E+03  0.00000000000E+00 0.  1.
         25    2    1    2    0    0  0.44554641092E+01 -0.21135574625E+03 -0.26017101764E+03  0.35780909844E+03  0.12508912772E+03 0.  0.
          5    1    3    3  502    0  0.58997548988E+02 -0.12989196060E+03 -0.18781422943E+03  0.23589041818E+03  0.41800000000E+01 0. -1.
         -5    1    3    3    0  502 -0.54542084878E+02 -0.81463785658E+02 -0.72356788211E+02  0.12191868026E+03  0.41800000000E+01 0. -1.
        -11    1    1    2    0    0  0.79555389382E+01  0.17334316538E+03  0.58781877406E+02  0.18321149717E+03  0.00000000000E+00 0. -1.
         11    1    1    2    0    0 -0.12411003047E+02  0.38012580871E+02 -0.27248132943E+02  0.48388532216E+02  0.00000000000E+00 0.  1.
</event>
<event>
 7    1  0.2612213E-009  0.8317961E+02  0.7561462E-02  0.1320263E+00
         -4   -1    0    0    0  501 -0.00000000000E+00  0.00000000000E+00  0.54123089049E+02  0.54123089049E+02  0.00000000000E+00 0.  1.
          4   -1    0    0  501    0  0.00000000000E+00 -0.00000000000E+00 -0.31013496228E+03  0.31013496228E+03  0.00000000000E+00 0. -1.
         25    2    1    2    0    0 -0.52889289157E+02  0.48531607417E+02 -0.18645095647E+03  0.23572089948E+03  0.12509112460E+03 0.  0.
          5    1    3    3  502    0 -0.68114938266E+01  0.22109045976E+02 -0.18059619123E+03  0.18211991393E+03  0.41800000000E+01 0.  1.
         -5    1    3    3    0  502 -0.46077795330E+02  0.26422561441E+02 -0.58547652426E+01  0.53600985547E+02  0.41800000000E+01 0.  1.
        -11    1    1    2    0    0  0.11415116323E+02  0.11761043371E+02  0.10970493680E+02  0.19722544294E+02  0.00000000000E+00 0.  1.
         11    1    1    2    0    0  0.41474172833E+02 -0.60292650787E+02 -0.80531410435E+02  0.10881460756E+03  0.00000000000E+00 0. -1.
</event>
<event>
 7    1  0.2612213E-009  0.3756330E+03  0.7561462E-02  0.1052560E+00
         -1   -1    0    0    0  501 -0.00000000000E+00  0.00000000000E+00  0.18030994334E+03  0.18030994334E+03  0.00000000000E+00 0.  1.
          1   -1    0    0  501    0  0.00000000000E+00 -0.00000000000E+00 -0.11656788505E+04  0.11656788505E+04  0.00000000000E+00 0. -1.
         25    2    1    2    0    0 -0.18869225698E+03  0.32223846880E+03 -0.14106047077E+03  0.41831652641E+03  0.12509301034E+03 0.  0.
          5    1    3    3  502    0 -0.11773481057E+03  0.19702235525E+03 -0.20406201115E+02  0.23046296781E+03  0.41800000000E+01 0. -1.
         -5    1    3    3    0  502 -0.70957446412E+02  0.12521611355E+03 -0.12065426965E+03  0.18785355860E+03  0.41800000000E+01 0. -1.
        -11    1    1    2    0    0  0.96987961181E+02 -0.21972533602E+03 -0.61554031995E+03  0.66073880875E+03  0.00000000000E+00 0.  1.
         11    1    1    2    0    0  0.91704295798E+02 -0.10251313279E+03 -0.22876811647E+03  0.26693345870E+03  0.00000000000E+00 0. -1.
</event>
<event>
 7    1  0.2612213E-009  0.1266001E+03  0.7561462E-02  0.1232590E+00
          4   -1    0    0  501    0  0.00000000000E+00  0.00000000000E+00  0.21267044200E+03  0.21267044200E+03  0.00000000000E+00 0. -1.
         -4   -1    0    0    0  501 -0.00000000000E+00 -0.00000000000E+00 -0.10641931205E+03  0.10641931205E+03  0.00000000000E+00 0.  1.
         25    2    1    2    0    0  0.59570879318E+02 -0.70578496224E+02  0.65684964596E+02  0.16880865466E+03  0.12510728805E+03 0.  0.
          5    1    3    3  502    0  0.24994781425E+02 -0.83343233901E+02  0.89367921636E+02  0.12479956552E+03  0.41800000000E+01 0. -1.
         -5    1    3    3    0  502  0.34576097893E+02  0.12764737677E+02 -0.23682957039E+02  0.44009089147E+02  0.41800000000E+01 0. -1.
        -11    1    1    2    0    0  0.87844220501E+01  0.59020231730E+02 -0.14894116901E+02  0.61501126351E+02  0.00000000000E+00 0.  1.
         11    1    1    2    0    0 -0.68355301368E+02  0.11558264495E+02  0.55460282265E+02  0.88779973035E+02  0.00000000000E+00 0. -1.
</event>
<event>
 7    1  0.2612213E-009  0.1111737E+03  0.7561462E-02  0.1258412E+00
         -1   -1    0    0    0  501 -0.00000000000E+00  0.00000000000E+00  0.63158595517E+02  0.63158595517E+02  0.00000000000E+00 0.  1.
          1   -1    0    0  501    0  0.00000000000E+00 -0.00000000000E+00 -0.23097959133E+03  0.23097959133E+03  0.00000000000E+00 0. -1.
         25    2    1    2    0    0  0.15851141035E+02  0.50284897353E+02 -0.10909669909E+03  0.17415440671E+03  0.12509131884E+03 0.  0.
          5    1    3    3  502    0 -0.17317935638E+01 -0.32606926217E+02  0.35754301516E+01  0.33112940779E+02  0.41800000000E+01 0. -1.
         -5    1    3    3    0  502  0.17582934599E+02  0.82891823570E+02 -0.11267212924E+03  0.14104146593E+03  0.41800000000E+01 0. -1.
        -11    1    1    2    0    0  0.20575730522E+02 -0.62790049742E+02 -0.35460145333E+02  0.74989152150E+02  0.00000000000E+00 0.  1.
         11    1    1    2    0    0 -0.36426871558E+02  0.12505152389E+02 -0.23264151384E+02  0.44994627983E+02  0.00000000000E+00 0. -1.
</event>
<event>
 7    1  0.2612213E-009  0.1098581E+03  0.7561462E-02  0.1260833E+00
         -2   -1    0    0    0  501 -0.00000000000E+00  0.00000000000E+00  0.87152364664E+02  0.87152364664E+02  0.00000000000E+00 0.  1.
          2   -1    0    0  501    0  0.00000000000E+00 -0.00000000000E+00 -0.16530632501E+03  0.16530632501E+03  0.00000000000E+00 0. -1.
         25    2    1    2    0    0  0.10436138655E+02 -0.31079087166E+02 -0.25889900306E+01  0.12933470342E+03  0.12508373192E+03 0.  0.
          5    1    3    3  502    0  0.58074253390E+02 -0.48575271533E+02  0.11027951094E+02  0.76624173840E+02  0.41800000000E+01 0. -1.
         -5    1    3    3    0  502 -0.47638114735E+02  0.17496184367E+02 -0.13616941125E+02  0.52710529579E+02  0.41800000000E+01 0. -1.
        -11    1    1    2    0    0  0.33794381811E+02 -0.71081250080E+01 -0.46329047907E+02  0.57783789795E+02  0.00000000000E+00 0. -1.
         11    1    1    2    0    0 -0.44230520465E+02  0.38187212174E+02 -0.29235922406E+02  0.65340196458E+02  0.00000000000E+00 0.  1.
</event>
<event>
 7    1  0.2612213E-009  0.1455892E+03  0.7561462E-02  0.1206000E+00
         -4   -1    0    0    0  501 -0.00000000000E+00  0.00000000000E+00  0.13520116561E+03  0.13520116561E+03  0.00000000000E+00 0.  1.
          4   -1    0    0  501    0  0.00000000000E+00 -0.00000000000E+00 -0.26498997835E+03  0.26498997835E+03  0.00000000000E+00 0. -1.
         25    2    1    2    0    0  0.48445945122E+02  0.12144799100E+03 -0.15572711574E+03  0.23872683795E+03  0.12507175727E+03 0.  0.
          5    1    3    3  502    0 -0.18300476959E+01  0.31259954886E+01  0.20114439963E+02  0.20861064627E+02  0.41800000000E+01 0. -1.
         -5    1    3    3    0  502  0.50275992818E+02  0.11832199551E+03 -0.17584155570E+03  0.21786577332E+03  0.41800000000E+01 0. -1.
        -11    1    1    2    0    0 -0.70107781763E+02 -0.61437211265E+02  0.17568311865E+01  0.93234749142E+02  0.00000000000E+00 0. -1.
         11    1    1    2    0    0  0.21661836641E+02 -0.60010779735E+02  0.24181471810E+02  0.68229556865E+02  0.00000000000E+00 0.  1.
</event>
<event>
 7    1  0.2612213E-009  0.1311606E+03  0.7561462E-02  0.1225744E+00
         -2   -1    0    0    0  501 -0.00000000000E+00  0.00000000000E+00  0.41874906663E+03  0.41874906663E+03  0.00000000000E+00 0.  1.
          2   -1    0    0  501    0  0.00000000000E+00 -0.00000000000E+00 -0.69920438154E+02  0.69920438154E+02  0.00000000000E+00 0. -1.
         25    2    1    2    0    0 -0.24516799108E+02  0.11558920823E+03  0.26787041047E+03  0.31837684925E+03  0.12508925948E+03 0.  0.
          5    1    3    3  502    0 -0.35655586636E+02  0.85712009276E+02  0.66045559261E+02  0.11400595463E+03  0.41800000000E+01 0. -1.
         -5    1    3    3    0  502  0.11138787528E+02  0.29877198950E+02  0.20182485121E+03  0.20437089462E+03  0.41800000000E+01 0. -1.
        -11    1    1    2    0    0 -0.83767732017E+01 -0.10083913632E+03  0.25842237660E+02  0.10443429987E+03  0.00000000000E+00 0. -1.
         11    1    1    2    0    0  0.32893572310E+02 -0.14750071907E+02  0.55115980350E+02  0.65858355662E+02  0.00000000000E+00 0.  1.
</event>
<event>
 7    1  0.2612213E-009  0.8827376E+02  0.7561462E-02  0.1307087E+00
         -2   -1    0    0    0  501 -0.00000000000E+00  0.00000000000E+00  0.26097302260E+03  0.26097302260E+03  0.00000000000E+00 0.  1.
          2   -1    0    0  501    0  0.00000000000E+00 -0.00000000000E+00 -0.56389884264E+02  0.56389884264E+02  0.00000000000E+00 0. -1.
         25    2    1    2    0    0 -0.32024040672E+02  0.16324660790E+01  0.56302494217E+02  0.14087415655E+03  0.12508938005E+03 0.  0.
          5    1    3    3  502    0 -0.53510298749E+01 -0.35553228990E+02  0.80989285750E+02  0.88709652342E+02  0.41800000000E+01 0.  1.
         -5    1    3    3    0  502 -0.26673010797E+02  0.37185695069E+02 -0.24686791533E+02  0.52164504205E+02  0.41800000000E+01 0.  1.
        -11    1    1    2    0    0  0.61296763787E+02 -0.13577336678E+02  0.84165620927E+02  0.10500232887E+03  0.00000000000E+00 0.  1.
         11    1    1    2    0    0 -0.29272723115E+02  0.11944870599E+02  0.64115023191E+02  0.71486421445E+02  0.00000000000E+00 0. -1.
</event>
<event>
 7    1  0.2612213E-009  0.1236003E+03  0.7561462E-02  0.1237273E+00
          2   -1    0    0  501    0  0.00000000000E+00  0.00000000000E+00  0.34321073825E+02  0.34321073825E+02  0.00000000000E+00 0. -1.
         -2   -1    0    0    0  501 -0.00000000000E+00 -0.00000000000E+00 -0.59427610373E+03  0.59427610373E+03  0.00000000000E+00 0.  1.
         25    2    1    2    0    0 -0.83774337507E+02 -0.37600416069E+02 -0.30383565132E+03  0.34116835786E+03  0.12509122464E+03 0.  0.
          5    1    3    3  502    0  0.15563601327E+02 -0.11273904191E+02  0.75441198854E+00  0.19681670138E+02  0.41800000000E+01 0. -1.
         -5    1    3    3    0  502 -0.99337938833E+02 -0.26326511878E+02 -0.30459006331E+03  0.32148668772E+03  0.41800000000E+01 0. -1.
        -11    1    1    2    0    0 -0.15165275643E+02  0.18488584306E+02 -0.90114397078E+02  0.93233137326E+02  0.00000000000E+00 0.  1.
         11    1    1    2    0    0  0.98939613149E+02  0.19111831763E+02 -0.16600498151E+03  0.19419568237E+03  0.00000000000E+00 0. -1.
</event>
<event>
 7    1  0.2612213E-009  0.1264523E+03  0.7561462E-02  0.1232817E+00
         -2   -1    0    0    0  501 -0.00000000000E+00  0.00000000000E+00  0.82677629465E+01  0.82677629465E+01  0.00000000000E+00 0.  1.
          2   -1    0    0  501    0  0.00000000000E+00 -0.00000000000E+00 -0.26857525347E+04  0.26857525347E+04  0.00000000000E+00 0. -1.
         25    2    1    2    0    0  0.75374642030E+02  0.36844510214E+01 -0.20738327091E+04  0.20789719390E+04  0.12508919212E+03 0.  0.
          5    1    3    3  502    0  0.34843503516E+02  0.61526250718E+02 -0.12936436364E+04  0.12955812902E+04  0.41800000000E+01 0. -1.
         -5    1    3    3    0  502  0.40531138513E+02 -0.57841799697E+02 -0.78018907271E+03  0.78339064876E+03  0.41800000000E+01 0. -1.
        -11    1    1    2    0    0  0.17866149656E+02 -0.27436294455E+01 -0.42235010764E+02  0.45940428168E+02  0.00000000000E+00 0.  1.
         11    1    1    2    0    0 -0.93240791686E+02 -0.94082157588E+00 -0.56141705196E+03  0.56910793054E+03  0.00000000000E+00 0. -1.
</event>
<event>
 7    1  0.2612213E-009  0.1311360E+03  0.7561462E-02  0.1225780E+00
          2   -1    0    0  501    0  0.00000000000E+00  0.00000000000E+00  0.68057595855E+03  0.68057595855E+03  0.00000000000E+00 0. -1.
         -2   -1    0    0    0  501 -0.00000000000E+00 -0.00000000000E+00 -0.31638719159E+02  0.31638719159E+02  0.00000000000E+00 0.  1.
         25    2    1    2    0    0  0.40239749720E+02  0.61090931092E+02  0.51016123170E+03  0.53034246457E+03  0.12508920048E+03 0.  0.
          5    1    3    3  502    0  0.44625724744E+02  0.97864068947E+02  0.37954947156E+03  0.39451755989E+03  0.41800000000E+01 0.  1.
         -5    1    3    3    0  502 -0.43859750249E+01 -0.36773137855E+02  0.13061176014E+03  0.13582490468E+03  0.41800000000E+01 0.  1.
        -11    1    1    2    0    0 -0.66605946842E+02 -0.61979247607E+02  0.11177184204E+03  0.14412051888E+03  0.00000000000E+00 0.  1.
         11    1    1    2    0    0  0.26366197122E+02  0.88831651516E+00  0.27004165640E+02  0.37751694251E+02  0.00000000000E+00 0. -1.
</event>
<event>
 7    1  0.2612213E-009  0.1004758E+03  0.7561462E-02  0.1279299E+00
         -2   -1    0    0    0  501 -0.00000000000E+00  0.00000000000E+00  0.11450697360E+03  0.11450697360E+03  0.00000000000E+00 0. -1.
          2   -1    0    0  501    0  0.00000000000E+00 -0.00000000000E+00 -0.21901614918E+03  0.21901614918E+03  0.00000000000E+00 0.  1.
         25    2    1    2    0    0  0.81556728180E+02 -0.35831954485E+02 -0.13116579773E+03  0.20195745464E+03  0.12508764174E+03 0.  0.
          5    1    3    3  502    0  0.79480919420E+02 -0.51805819294E+02 -0.30233490972E+02  0.99662409367E+02  0.41800000000E+01 0.  1.
         -5    1    3    3    0  502  0.20758087603E+01  0.15973864809E+02 -0.10093230676E+03  0.10229504527E+03  0.41800000000E+01 0.  1.
        -11    1    1    2    0    0 -0.37994048540E+02  0.20431174959E+02  0.60490807369E+02  0.74297499358E+02  0.00000000000E+00 0. -1.
         11    1    1    2    0    0 -0.43562679640E+02  0.15400779527E+02 -0.33834185221E+02  0.57268168794E+02  0.00000000000E+00 0.  1.
</event>
<event>
 7    1  0.2612213E-009  0.8990009E+02  0.7561462E-02  0.1303094E+00
          1   -1    0    0  501    0  0.00000000000E+00  0.00000000000E+00  0.17009273151E+02  0.17009273151E+02  0.00000000000E+00 0. -1.
         -1   -1    0    0    0  501 -0.00000000000E+00 -0.00000000000E+00 -0.78967369942E+03  0.78967369942E+03  0.00000000000E+00 0.  1.
         25    2    1    2    0    0 -0.13885948297E+02  0.14041855226E+02 -0.56402015664E+03  0.57806558031E+03  0.12510429563E+03 0.  0.
          5    1    3    3  502    0 -0.22284874240E+02  0.63617813747E+02 -0.21336236626E+03  0.22379636633E+03  0.41800000000E+01 0.  1.
         -5    1    3    3    0  502  0.83989259426E+01 -0.49575958521E+02 -0.35065779038E+03  0.35426921398E+03  0.41800000000E+01 0.  1.
        -11    1    1    2    0    0  0.33021042435E+02 -0.23433789624E+02 -0.20239340672E+03  0.20640402812E+03  0.00000000000E+00 0.  1.
         11    1    1    2    0    0 -0.19135094138E+02  0.93919343984E+01 -0.62508629092E+01  0.22213364143E+02  0.00000000000E+00 0. -1.
</event>
<event>
 7    1  0.2612213E-009  0.1672976E+03  0.7561462E-02  0.1180696E+00
         -2   -1    0    0    0  501 -0.00000000000E+00  0.00000000000E+00  0.29227580268E+03  0.29227580268E+03  0.00000000000E+00 0.  1.
          2   -1    0    0  501    0  0.00000000000E+00 -0.00000000000E+00 -0.11505948520E+03  0.11505948520E+03  0.00000000000E+00 0. -1.
         25    2    1    2    0    0  0.12328249809E+02  0.14418250537E+03  0.48399108327E+02  0.19732415645E+03  0.12511502082E+03 0.  0.
          5    1    3    3  502    0 -0.56491443564E+01  0.16216363130E+03  0.53793853303E+02  0.17099768186E+03  0.41800000000E+01 0. -1.
         -5    1    3    3    0  502  0.17977394165E+02 -0.17981125936E+02 -0.53947449761E+01  0.26326474588E+02  0.41800000000E+01 0. -1.
        -11    1    1    2    0    0  0.64944099041E+01 -0.53752539225E+02  0.33993396558E+01  0.54250053855E+02  0.00000000000E+00 0. -1.
         11    1    1    2    0    0 -0.18822659713E+02 -0.90429966144E+02  0.12541786951E+03  0.15576107757E+03  0.00000000000E+00 0.  1.
</event>
<event>
 7    1  0.2612213E-009  0.8161448E+02  0.7561462E-02  0.1324531E+00
         -1   -1    0    0    0  501 -0.00000000000E+00  0.00000000000E+00  0.15953150068E+02  0.15953150068E+02  0.00000000000E+00 0.  1.
          1   -1    0    0  501    0  0.00000000000E+00 -0.00000000000E+00 -0.86408649919E+03  0.86408649919E+03  0.00000000000E+00 0. -1.
         25    2    1    2    0    0  0.31568154212E+02 -0.30209555265E+02 -0.50445695603E+03  0.52156998913E+03  0.12509703230E+03 0.  0.
          5    1    3    3  502    0  0.11462265679E+02 -0.41724782543E+02 -0.49382835650E+03  0.49573809526E+03  0.41800000000E+01 0. -1.
         -5    1    3    3    0  502  0.20105888533E+02  0.11515227278E+02 -0.10628599530E+02  0.25831893870E+02  0.41800000000E+01 0. -1.
        -11    1    1    2    0    0 -0.55399211839E+02 -0.28348520005E+01 -0.13678539324E+03  0.14760539577E+03  0.00000000000E+00 0.  1.
         11    1    1    2    0    0  0.23831057627E+02  0.33044407266E+02 -0.20689099986E+03  0.21086426436E+03  0.00000000000E+00 0. -1.
</event>
<event>
 7    1  0.2612213E-009  0.1722273E+03  0.7561462E-02  0.1175545E+00
         -3   -1    0    0    0  501 -0.00000000000E+00  0.00000000000E+00  0.11414306298E+03  0.11414306298E+03  0.00000000000E+00 0.  1.
          3   -1    0    0  501    0  0.00000000000E+00 -0.00000000000E+00 -0.42838195823E+03  0.42838195823E+03  0.00000000000E+00 0. -1.
         25    2    1    2    0    0  0.86033849315E+02 -0.12520672627E+03 -0.20729302974E+02  0.19787953206E+03  0.12509219669E+03 0.  0.
          5    1    3    3  502    0  0.50499899353E+02 -0.14355435888E+03 -0.33136297030E+02  0.15579980863E+03  0.41800000000E+01 0. -1.
         -5    1    3    3    0  502  0.35533949962E+02  0.18347632609E+02  0.12406994056E+02  0.42079723428E+02  0.41800000000E+01 0. -1.
        -11    1    1    2    0    0 -0.90178464728E+01  0.16209749079E+02  0.36378037981E+01  0.18902675384E+02  0.00000000000E+00 0.  1.
         11    1    1    2    0    0 -0.77016002842E+02  0.10899697719E+03 -0.29714739607E+03  0.32574281377E+03  0.00000000000E+00 0. -1.
</event>
<event>
 7    1  0.2612213E-009  0.1343940E+03  0.7561462E-02  0.1221078E+00
          1   -1    0    0  501    0  0.00000000000E+00  0.00000000000E+00  0.12201984894E+04  0.12201984894E+04  0.00000000000E+00 0. -1.
         -1   -1    0    0    0  501 -0.00000000000E+00 -0.00000000000E+00 -0.27889643743E+02  0.27889643743E+02  0.00000000000E+00 0.  1.
         25    2    1    2    0    0 -0.72740175514E+02  0.32518171644E+02  0.10529435038E+04  0.10633373387E+04  0.12509080324E+03 0.  0.
          5    1    3    3  502    0 -0.91424657816E+02 -0.18744217240E+02  0.68826857893E+03  0.69457967353E+03  0.41800000000E+01 0.  1.
         -5    1    3    3    0  502  0.18684482302E+02  0.51262388884E+02  0.36467492486E+03  0.36875766516E+03  0.41800000000E+01 0.  1.
        -11    1    1    2    0    0  0.69106555827E+02  0.16861389255E+02  0.91353945756E+02  0.11578240761E+03  0.00000000000E+00 0.  1.
         11    1    1    2    0    0  0.36336196870E+01 -0.49379560900E+02  0.48011396085E+02  0.68968386821E+02  0.00000000000E+00 0. -1.
</event>
<event>
 7    1  0.2612213E-009  0.1034292E+03  0.7561462E-02  0.1273246E+00
          1   -1    0    0  501    0  0.00000000000E+00  0.00000000000E+00  0.25083482436E+02  0.25083482436E+02  0.00000000000E+00 0. -1.
         -1   -1    0    0    0  501 -0.00000000000E+00 -0.00000000000E+00 -0.55577576195E+03  0.55577576195E+03  0.00000000000E+00 0.  1.
         25    2    1    2    0    0  0.19240024922E+02  0.35191545919E+02 -0.21033724541E+03  0.24798739188E+03  0.12508943305E+03 0.  0.
          5    1    3    3  502    0  0.66459048225E+02  0.38336951254E+02 -0.88422807881E+02  0.11714346877E+03  0.41800000000E+01 0. -1.
         -5    1    3    3    0  502 -0.47219023303E+02 -0.31454053357E+01 -0.12191443753E+03  0.13084392311E+03  0.41800000000E+01 0. -1.
        -11    1    1    2    0    0 -0.39413498210E+02  0.27839782395E+01 -0.22256301924E+03  0.22604307534E+03  0.00000000000E+00 0.  1.
         11    1    1    2    0    0  0.20173473288E+02 -0.37975524158E+02 -0.97792014862E+02  0.10682877716E+03  0.00000000000E+00 0. -1.
</event>
<event>
 7    1  0.2612213E-009  0.1537925E+03  0.7561462E-02  0.1195889E+00
         -4   -1    0    0    0  501 -0.00000000000E+00  0.00000000000E+00  0.35906995723E+02  0.35906995723E+02  0.00000000000E+00 0.  1.
          4   -1    0    0  501    0  0.00000000000E+00 -0.00000000000E+00 -0.99711859877E+03  0.99711859877E+03  0.00000000000E+00 0. -1.
         25    2    1    2    0    0  0.14201353720E+01  0.12416822534E+03 -0.75641768397E+03  0.77668216836E+03  0.12509081929E+03 0.  0.
          5    1    3    3  502    0  0.53714222339E+02  0.16892698910E+02 -0.26725061786E+03  0.27315004321E+03  0.41800000000E+01 0.  1.
         -5    1    3    3    0  502 -0.52294086967E+02  0.10727552643E+03 -0.48916706611E+03  0.50353212516E+03  0.41800000000E+01 0.  1.
        -11    1    1    2    0    0  0.15098972379E+02 -0.10631932016E+03 -0.93386489529E+02  0.14231237906E+03  0.00000000000E+00 0.  1.
         11    1    1    2    0    0 -0.16519107751E+02 -0.17848905176E+02 -0.11140742955E+03  0.11403104707E+03  0.00000000000E+00 0. -1.
</event>
<event>
 7    1  0.2612213E-009  0.1425385E+03  0.7561462E-02  0.1209953E+00
          1   -1    0    0  501    0  0.00000000000E+00  0.00000000000E+00  0.31829895896E+03  0.31829895896E+03  0.00000000000E+00 0. -1.
         -1   -1    0    0    0  501 -0.00000000000E+00 -0.00000000000E+00 -0.78102602461E+02  0.78102602461E+02  0.00000000000E+00 0.  1.
         25    2    1    2    0    0 -0.11441214956E+03 -0.20956933309E+02  0.11155935545E+03  0.20401526193E+03  0.12508958506E+03 0.  0.
          5    1    3    3  502    0 -0.94326774069E+02 -0.60787763109E+02  0.11283744420E+03  0.15919313322E+03  0.41800000000E+01 0.  1.
         -5    1    3    3    0  502 -0.20085375493E+02  0.39830829800E+02 -0.12780887469E+01  0.44822128710E+02  0.41800000000E+01 0.  1.
        -11    1    1    2    0    0  0.20361647579E+02 -0.17031250099E+02 -0.24273764259E+01  0.26656187431E+02  0.00000000000E+00 0.  1.
         11    1    1    2    0    0  0.94050501983E+02  0.37988183408E+02  0.13106437747E+03  0.16573011206E+03  0.00000000000E+00 0. -1.
</event>
<event>
 7    1  0.2612213E-009  0.1239401E+03  0.7561462E-02  0.1236735E+00
         -2   -1    0    0    0  501 -0.00000000000E+00  0.00000000000E+00  0.91907341520E+02  0.91907341520E+02  0.00000000000E+00 0.  1.
          2   -1    0    0  501    0  0.00000000000E+00 -0.00000000000E+00 -0.23206505936E+03  0.23206505936E+03  0.00000000000E+00 0. -1.
         25    2    1    2    0    0 -0.50237583144E+02 -0.69772412540E+02 -0.23537588882E+02  0.15360091376E+03  0.12508884165E+03 0.  0.
          5    1    3    3  502    0 -0.75399345383E+02 -0.34125389264E+02  0.26573704871E+02  0.87024351001E+02  0.41800000000E+01 0. -1.
         -5    1    3    3    0  502  0.25161762239E+02 -0.35647023276E+02 -0.50111293753E+02  0.66576562760E+02  0.41800000000E+01 0. -1.
        -11    1    1    2    0    0  0.42281269822E+02  0.90003634767E+02 -0.10847296660E+03  0.14715551139E+03  0.00000000000E+00 0. -1.
         11    1    1    2    0    0  0.79563133219E+01 -0.20231222228E+02 -0.81471623579E+01  0.23215975728E+02  0.00000000000E+00 0.  1.
</event>
<event>
 7    1  0.2612213E-009  0.1804960E+03  0.7561462E-02  0.1167324E+00
          2   -1    0    0  501    0  0.00000000000E+00  0.00000000000E+00  0.79722884408E+03  0.79722884408E+03  0.00000000000E+00 0. -1.
         -2   -1    0    0    0  501 -0.00000000000E+00 -0.00000000000E+00 -0.41917385871E+02  0.41917385871E+02  0.00000000000E+00 0.  1.
         25    2    1    2    0    0  0.10148794339E+03  0.10434846367E+03  0.43244513894E+03  0.47312229590E+03  0.12508998426E+03 0.  0.
          5    1    3    3  502    0  0.13028793488E+03  0.80904547119E+02  0.36665817176E+03  0.39746217309E+03  0.41800000000E+01 0. -1.
         -5    1    3    3    0  502 -0.28799991488E+02  0.23443916546E+02  0.65786967182E+02  0.75660122811E+02  0.41800000000E+01 0. -1.
        -11    1    1    2    0    0 -0.56589746345E+02 -0.11121131751E+03  0.20875605999E+03  0.24320659760E+03  0.00000000000E+00 0.  1.
         11    1    1    2    0    0 -0.44898197043E+02  0.68628538437E+01  0.11411025928E+03  0.12281733645E+03  0.00000000000E+00 0. -1.
</event>
<event>
 7    1  0.2612213E-009  0.1153960E+03  0.7561462E-02  0.1250891E+00
          1   -1    0    0  501    0  0.00000000000E+00  0.00000000000E+00  0.24427338876E+03  0.24427338876E+03  0.00000000000E+00 0. -1.
         -1   -1    0    0    0  501 -0.00000000000E+00 -0.00000000000E+00 -0.71985084232E+02  0.71985084232E+02  0.00000000000E+00 0.  1.
         25    2    1    2    0    0  0.20672464258E+02 -0.62254515742E+02  0.56486575739E+02  0.15211838955E+03  0.12508515376E+03 0.  0.
          5    1    3    3  502    0  0.24055861658E+02 -0.98831376700E+02  0.53560463391E+02  0.11503269596E+03  0.41800000000E+01 0.  1.
         -5    1    3    3    0  502 -0.33833974005E+01  0.36576860959E+02  0.29261123480E+01  0.37085693590E+02  0.41800000000E+01 0.  1.
        -11    1    1    2    0    0  0.86135201473E+01  0.62138900961E+02  0.22982722354E+02  0.66810487715E+02  0.00000000000E+00 0.  1.
         11    1    1    2    0    0 -0.29285984405E+02  0.11561478074E+00  0.92819006434E+02  0.97329595729E+02  0.00000000000E+00 0. -1.
</event>
<event>
 7    1  0.2612213E-009  0.1372074E+03  0.7561462E-02  0.1217137E+00
         -2   -1    0    0    0  501 -0.00000000000E+00  0.00000000000E+00  0.17724999605E+03  0.17724999605E+03  0.00000000000E+00 0.  1.
          2   -1    0    0  501    0  0.00000000000E+00 -0.00000000000E+00 -0.13786631568E+03  0.13786631568E+03  0.00000000000E+00 0. -1.
         25    2    1    2    0    0  0.86562787201E+02 -0.60284641628E+02  0.58987103066E+02  0.17393963759E+03  0.12509262589E+03 0.  0.
          5    1    3    3  502    0  0.71497799070E+02  0.24674640624E+02  0.39299875970E+02  0.85338888047E+02  0.41800000000E+01 0.  1.
         -5    1    3    3    0  502  0.15064988131E+02 -0.84959282252E+02  0.19687227096E+02  0.88600749539E+02  0.41800000000E+01 0.  1.
        -11    1    1    2    0    0 -0.39255357758E+02  0.50905786519E+01 -0.48802642104E+02  0.62837846717E+02  0.00000000000E+00 0. -1.
         11    1    1    2    0    0 -0.47307429444E+02  0.55194062976E+02  0.29199219408E+02  0.78338827425E+02  0.00000000000E+00 0.  1.
</event>
<event>
 7    1  0.2612213E-009  0.1268191E+03  0.7561462E-02  0.1232253E+00
          2   -1    0    0  501    0  0.00000000000E+00  0.00000000000E+00  0.13102179132E+04  0.13102179132E+04  0.00000000000E+00 0. -1.
         -2   -1    0    0    0  501 -0.00000000000E+00 -0.00000000000E+00 -0.12357528288E+02  0.12357528288E+02  0.00000000000E+00 0.  1.
         25    2    1    2    0    0  0.25195535673E+02  0.47728130963E+02  0.66270694951E+03  0.67656517352E+03  0.12508854297E+03 0.  0.
          5    1    3    3  502    0 -0.49783293970E+02  0.31480937140E+02  0.26411443906E+03  0.27063505886E+03  0.41800000000E+01 0.  1.
         -5    1    3    3    0  502  0.74978829643E+02  0.16247193824E+02  0.39859251044E+03  0.40593011466E+03  0.41800000000E+01 0.  1.
        -11    1    1    2    0    0 -0.65774877578E+02 -0.20529504214E+02  0.38919134808E+03  0.39524384940E+03  0.00000000000E+00 0.  1.
         11    1    1    2    0    0  0.40579341906E+02 -0.27198626749E+02  0.24596208735E+03  0.25076641861E+03  0.00000000000E+00 0. -1.
</event>
<event>
 7    1  0.2612213E-009  0.1027014E+03  0.7561462E-02  0.1274716E+00
          2   -1    0    0  501    0  0.00000000000E+00  0.00000000000E+00  0.31885936556E+03  0.31885936556E+03  0.00000000000E+00 0. -1.
         -2   -1    0    0    0  501 -0.00000000000E+00 -0.00000000000E+00 -0.62055839620E+02  0.62055839620E+02  0.00000000000E+00 0.  1.
         25    2    1    2    0    0  0.89051897535E+02 -0.59265229597E+01  0.16025056568E+03  0.22202100298E+03  0.12509083833E+03 0.  0.
          5    1    3    3  502    0  0.93067497156E+02 -0.78728264459E+01  0.40125126521E+02  0.10174005407E+03  0.41800000000E+01 0.  1.
         -5    1    3    3    0  502 -0.40155996217E+01  0.19463034862E+01  0.12012543916E+03  0.12028094891E+03  0.41800000000E+01 0.  1.
        -11    1    1    2    0    0 -0.24845895044E+02  0.28432539301E+02  0.80609684207E+02  0.89014880664E+02  0.00000000000E+00 0. -1.
         11    1    1    2    0    0 -0.64206002491E+02 -0.22506016341E+02  0.15943276052E+02  0.69879321539E+02  0.00000000000E+00 0.  1.
</event>
<event>
 7    1  0.2612213E-009  0.1636909E+03  0.7561462E-02  0.1184592E+00
          2   -1    0    0  501    0  0.00000000000E+00  0.00000000000E+00  0.53542589334E+03  0.53542589334E+03  0.00000000000E+00 0. -1.
         -2   -1    0    0    0  501 -0.00000000000E+00 -0.00000000000E+00 -0.65548100798E+02  0.65548100798E+02  0.00000000000E+00 0.  1.
         25    2    1    2    0    0 -0.13171427560E+03  0.75199371822E+02  0.25464713997E+03  0.32170810898E+03  0.12508935035E+03 0.  0.
          5    1    3    3  502    0 -0.13959937770E+03  0.82305008091E+02  0.16490136663E+03  0.23124020785E+03  0.41800000000E+01 0.  1.
         -5    1    3    3    0  502  0.78851021014E+01 -0.71056362694E+01  0.89745773342E+02  0.90467901129E+02  0.41800000000E+01 0.  1.
        -11    1    1    2    0    0  0.22687685301E+02 -0.25234702384E+02  0.12405675451E+03  0.12861415011E+03  0.00000000000E+00 0. -1.
         11    1    1    2    0    0  0.10902659030E+03 -0.49964669438E+02  0.91173898066E+02  0.15065173505E+03  0.00000000000E+00 0.  1.
</event>
<event>
 7    1  0.2612213E-009  0.1182614E+03  0.7561462E-02  0.1245993E+00
         -2   -1    0    0    0  501 -0.00000000000E+00  0.00000000000E+00  0.19189568627E+02  0.19189568627E+02  0.00000000000E+00 0.  1.
          2   -1    0    0  501    0  0.00000000000E+00 -0.00000000000E+00 -0.10985861612E+04  0.10985861612E+04  0.00000000000E+00 0. -1.
         25    2    1    2    0    0 -0.94579019166E+02 -0.12279476876E+02 -0.54919975137E+03  0.57128228756E+03  0.12508840379E+03 0.  0.
          5    1    3    3  502    0  0.10507900898E+01  0.53038870411E+01 -0.34508648166E+03  0.34515415049E+03  0.41800000000E+01 0.  1.
         -5    1    3    3    0  502 -0.95629809256E+02 -0.17583363917E+02 -0.20411326971E+03  0.22612813707E+03  0.41800000000E+01 0.  1.
        -11    1    1    2    0    0 -0.10441951431E+02 -0.19944269913E+02 -0.98289661766E+02  0.10083484448E+03  0.00000000000E+00 0. -1.
         11    1    1    2    0    0  0.10502097060E+03  0.32223746789E+02 -0.43190717941E+03  0.44565859775E+03  0.00000000000E+00 0.  1.
</event>
<event>
 7    1  0.2612213E-009  0.9704518E+02  0.7561462E-02  0.1286635E+00
         -1   -1    0    0    0  501 -0.00000000000E+00  0.00000000000E+00  0.96558748329E+02  0.96558748329E+02  0.00000000000E+00 0.  1.
          1   -1    0    0  501    0  0.00000000000E+00 -0.00000000000E+00 -0.23356637416E+03  0.23356637416E+03  0.00000000000E+00 0. -1.
         25    2    1    2    0    0  0.53537730389E+02  0.29334899065E+02 -0.16662537433E+03  0.21711425505E+03  0.12509100487E+03 0.  0.
          5    1    3    3  502    0  0.16420969554E+02 -0.30695937605E+02  0.11173605176E+01  0.35080047336E+02  0.41800000000E+01 0. -1.
         -5    1    3    3    0  502  0.37116760835E+02  0.60030836669E+02 -0.16774273484E+03  0.18203420772E+03  0.41800000000E+01 0. -1.
        -11    1    1    2    0    0 -0.65410254527E+02 -0.36049004441E+02  0.48989068949E+02  0.89319432348E+02  0.00000000000E+00 0.  1.
         11    1    1    2    0    0  0.11872524138E+02  0.67141053766E+01 -0.19371320455E+02  0.23691435089E+02  0.00000000000E+00 0. -1.
</event>
<event>
 7    1  0.2612213E-009  0.1166886E+03  0.7561462E-02  0.1248662E+00
         -2   -1    0    0    0  501 -0.00000000000E+00  0.00000000000E+00  0.42929067984E+02  0.42929067984E+02  0.00000000000E+00 0.  1.
          2   -1    0    0  501    0  0.00000000000E+00 -0.00000000000E+00 -0.43374960523E+03  0.43374960523E+03  0.00000000000E+00 0. -1.
         25    2    1    2    0    0  0.37008490120E+02 -0.36807106391E+02 -0.10149424207E+03  0.16932668751E+03  0.12508418968E+03 0.  0.
          5    1    3    3  502    0  0.61127654720E+02  0.26680919598E+02 -0.58678571701E+02  0.88933170522E+02  0.41800000000E+01 0. -1.
         -5    1    3    3    0  502 -0.24119164601E+02 -0.63488025990E+02 -0.42815670370E+02  0.80393516992E+02  0.41800000000E+01 0. -1.
        -11    1    1    2    0    0  0.22128287850E+02 -0.88118165934E+01 -0.35380254257E+02  0.42650575918E+02  0.00000000000E+00 0.  1.
         11    1    1    2    0    0 -0.59136777970E+02  0.45618922985E+02 -0.25394604091E+03  0.26470140978E+03  0.00000000000E+00 0. -1.
</event>
<event>
 7    1  0.2612213E-009  0.7505242E+02  0.7561462E-02  0.1343709E+00
          2   -1    0    0  501    0  0.00000000000E+00  0.00000000000E+00  0.41165200601E+02  0.41165200601E+02  0.00000000000E+00 0. -1.
         -2   -1    0    0    0  501 -0.00000000000E+00 -0.00000000000E+00 -0.34709417178E+03  0.34709417178E+03  0.00000000000E+00 0.  1.
         25    2    1    2    0    0 -0.97032838336E+01 -0.48576847138E+02 -0.19797276217E+03  0.23936499281E+03  0.12509405032E+03 0.  0.
          5    1    3    3  502    0 -0.20578316475E+02  0.10641416176E+02 -0.17209502440E+03  0.17369765879E+03  0.41800000000E+01 0.  1.
         -5    1    3    3    0  502  0.10875032641E+02 -0.59218263314E+02 -0.25877737776E+02  0.65667334020E+02  0.41800000000E+01 0.  1.
        -11    1    1    2    0    0 -0.17113851832E+02  0.12200764498E+02 -0.10100701962E+03  0.10317054130E+03  0.00000000000E+00 0.  1.
         11    1    1    2    0    0  0.26817135666E+02  0.36376082641E+02 -0.69491893901E+01  0.45723838277E+02  0.00000000000E+00 0. -1.
</event>
<event>
 7    1  0.2612213E-009  0.7800278E+02  0.7561462E-02  0.1334817E+00
          2   -1    0    0  501    0  0.00000000000E+00  0.00000000000E+00  0.81263977586E+03  0.81263977586E+03  0.00000000000E+00 0. -1.
         -2   -1    0    0    0  501 -0.00000000000E+00 -0.00000000000E+00 -0.21738535451E+02  0.21738535451E+02  0.00000000000E+00 0.  1.
         25    2    1    2    0    0  0.15261309779E+02 -0.42463899530E+02  0.63681072932E+03  0.65054476226E+03  0.12507794528E+03 0.  0.
          5    1    3    3  502    0  0.78583630728E+01  0.13885424502E+02  0.66034396373E+01  0.17766167252E+02  0.41800000000E+01 0. -1.
         -5    1    3    3    0  502  0.74029467058E+01 -0.56349324031E+02  0.63020728968E+03  0.63277859501E+03  0.41800000000E+01 0. -1.
        -11    1    1    2    0    0 -0.30837969364E+01 -0.19313924797E+02  0.96630803823E+02  0.98590312618E+02  0.00000000000E+00 0. -1.
         11    1    1    2    0    0 -0.12177512842E+02  0.61777824326E+02  0.57459707268E+02  0.85243236429E+02  0.00000000000E+00 0.  1.
</event>
<event>
 7    1  0.2612213E-009  0.2139595E+03  0.7561462E-02  0.1138468E+00
          2   -1    0    0  501    0  0.00000000000E+00  0.00000000000E+00  0.75536556908E+03  0.75536556908E+03  0.00000000000E+00 0. -1.
         -2   -1    0    0    0  501 -0.00000000000E+00 -0.00000000000E+00 -0.63989161936E+02  0.63989161936E+02  0.00000000000E+00 0.  1.
         25    2    1    2    0    0  0.13567247166E+03  0.12740074519E+03  0.27946171523E+03  0.35830770291E+03  0.12509032835E+03 0.  0.
          5    1    3    3  502    0  0.13268031319E+03  0.42935907445E+02  0.16857694553E+03  0.21882234032E+03  0.41800000000E+01 0.  1.
         -5    1    3    3    0  502  0.29921584691E+01  0.84464837742E+02  0.11088476970E+03  0.13948536260E+03  0.41800000000E+01 0.  1.
        -11    1    1    2    0    0  0.11324434999E+02 -0.45392866268E+01  0.50973724336E+02  0.52413438389E+02  0.00000000000E+00 0. -1.
         11    1    1    2    0    0 -0.14699690666E+03 -0.12286145856E+03  0.36094096758E+03  0.40863358971E+03  0.00000000000E+00 0.  1.
</event>
<event>
 7    1  0.2612213E-009  0.1586394E+03  0.7561462E-02  0.1190241E+00
         -2   -1    0    0    0  501 -0.00000000000E+00  0.00000000000E+00  0.11669233374E+03  0.11669233374E+03  0.00000000000E+00 0.  1.
          2   -1    0    0  501    0  0.00000000000E+00 -0.00000000000E+00 -0.22697178412E+03  0.22697178412E+03  0.00000000000E+00 0. -1.
         25    2    1    2    0    0  0.15831136042E+02 -0.11999447766E+03 -0.52648223958E+02  0.18184920810E+03  0.12509196403E+03 0.  0.
          5    1    3    3  502    0  0.69157694360E+02 -0.67760198323E+02 -0.14744151421E+02  0.98025984142E+02  0.41800000000E+01 0. -1.
         -5    1    3    3    0  502 -0.53326558318E+02 -0.52234279335E+02 -0.37904072537E+02  0.83823223957E+02  0.41800000000E+01 0. -1.
        -11    1    1    2    0    0 -0.34172782904E+02  0.12238144569E+02  0.36860020952E+01  0.36484762372E+02  0.00000000000E+00 0.  1.
         11    1    1    2    0    0  0.18341646862E+02  0.10775633309E+03 -0.61317228520E+02  0.12533014739E+03  0.00000000000E+00 0. -1.
</event>
<event>
 7    1  0.2612213E-009  0.1614306E+03  0.7561462E-02  0.1187091E+00
          1   -1    0    0  501    0  0.00000000000E+00  0.00000000000E+00  0.60533940310E+02  0.60533940310E+02  0.00000000000E+00 0. -1.
         -1   -1    0    0    0  501 -0.00000000000E+00 -0.00000000000E+00 -0.55030382729E+03  0.55030382729E+03  0.00000000000E+00 0.  1.
         25    2    1    2    0    0  0.27567426756E+02  0.11282426676E+03 -0.12313600740E+03  0.21047613515E+03  0.12509376068E+03 0.  0.
          5    1    3    3  502    0  0.76445481504E+02  0.54174797159E+02 -0.75382618191E+02  0.12032801758E+03  0.41800000000E+01 0. -1.
         -5    1    3    3    0  502 -0.48878054748E+02  0.58649469601E+02 -0.47753389209E+02  0.90148117570E+02  0.41800000000E+01 0. -1.
        -11    1    1    2    0    0 -0.31503487739E+02  0.73690606007E+01 -0.14118065392E+03  0.14484042887E+03  0.00000000000E+00 0.  1.
         11    1    1    2    0    0  0.39360609826E+01 -0.12019332736E+03 -0.22545322567E+03  0.25552120358E+03  0.00000000000E+00 0. -1.
</event>
<event>
 7    1  0.2612213E-009  0.1063249E+03  0.7561462E-02  0.1267531E+00
          2   -1    0    0  501    0  0.00000000000E+00  0.00000000000E+00  0.18878933561E+02  0.18878933561E+02  0.00000000000E+00 0. -1.
         -2   -1    0    0    0  501 -0.00000000000E+00 -0.00000000000E+00 -0.11732133601E+04  0.11732133601E+04  0.00000000000E+00 0.  1.
         25    2    1    2    0    0  0.83529711922E+02 -0.16963294764E+02 -0.85689056202E+03  0.87015778364E+03  0.12509263372E+03 0.  0.
          5    1    3    3  502    0  0.14319347459E+02  0.20517410899E+02 -0.61960819859E+03  0.62012724503E+03  0.41800000000E+01 0.  1.
         -5    1    3    3    0  502  0.69210364463E+02 -0.37480705663E+02 -0.23728236342E+03  0.25003053861E+03  0.41800000000E+01 0.  1.
        -11    1    1    2    0    0 -0.42290805057E+02 -0.25409004417E+02 -0.62294129513E+02  0.79465012864E+02  0.00000000000E+00 0. -1.
         11    1    1    2    0    0 -0.41238906866E+02  0.42372299181E+02 -0.23514973505E+03  0.24246949720E+03  0.00000000000E+00 0.  1.
</event>
<event>
 7    1  0.2612213E-009  0.3835369E+03  0.7561462E-02  0.1049634E+00
          3   -1    0    0  501    0  0.00000000000E+00  0.00000000000E+00  0.16470034785E+04  0.16470034785E+04  0.00000000000E+00 0. -1.
         -3   -1    0    0    0  501 -0.00000000000E+00 -0.00000000000E+00 -0.94199784530E+02  0.94199784530E+02  0.00000000000E+00 0.  1.
         25    2    1    2    0    0  0.28006583495E+03 -0.24487171690E+03  0.94066516599E+03  0.10192642233E+04  0.12509825229E+03 0.  0.
          5    1    3    3  502    0  0.25343107853E+02 -0.91126258835E+02  0.21154682877E+03  0.23176669590E+03  0.41800000000E+01 0. -1.
         -5    1    3    3    0  502  0.25472272710E+03 -0.15374545807E+03  0.72911833723E+03  0.78749752740E+03  0.41800000000E+01 0. -1.
        -11    1    1    2    0    0 -0.24666676492E+02  0.65537265854E+01  0.13594374067E+02  0.28917179454E+02  0.00000000000E+00 0.  1.
         11    1    1    2    0    0 -0.25539915846E+03  0.23831799032E+03  0.59854415393E+03  0.69302186030E+03  0.00000000000E+00 0. -1.
</event>
<event>
 7    1  0.2612213E-009  0.1236082E+03  0.7561462E-02  0.1237261E+00
          2   -1    0    0  501    0  0.00000000000E+00  0.00000000000E+00  0.28866030932E+03  0.28866030932E+03  0.00000000000E+00 0. -1.
         -2   -1    0    0    0  501 -0.00000000000E+00 -0.00000000000E+00 -0.60435491930E+02  0.60435491930E+02  0.00000000000E+00 0.  1.
         25    2    1    2    0    0  0.34681363655E+02  0.60472442360E+02  0.15868974800E+03  0.21374994237E+03  0.12508752325E+03 0.  0.
          5    1    3    3  502    0 -0.34749476223E+02 -0.12520729096E+02  0.19786874321E+02  0.42110420922E+02  0.41800000000E+01 0. -1.
         -5    1    3    3    0  502  0.69430839878E+02  0.72993171456E+02  0.13890287368E+03  0.17163952145E+03  0.41800000000E+01 0. -1.
        -11    1    1    2    0    0  0.82038898687E+01 -0.65523812713E+02  0.18671525528E+02  0.68624337570E+02  0.00000000000E+00 0.  1.
         11    1    1    2    0    0 -0.42885253523E+02  0.50513703524E+01  0.50863543863E+02  0.66721521314E+02  0.00000000000E+00 0. -1.
</event>
<event>
 7    1  0.2612213E-009  0.5880356E+02  0.7561462E-02  0.1402922E+00
         -1   -1    0    0    0  501 -0.00000000000E+00  0.00000000000E+00  0.22545408656E+03  0.22545408656E+03  0.00000000000E+00 0.  1.
          1   -1    0    0  501    0  0.00000000000E+00 -0.00000000000E+00 -0.43482846872E+02  0.43482846872E+02  0.00000000000E+00 0. -1.
         25    2    1    2    0    0 -0.11280598277E+02 -0.14340778419E+02  0.13737483441E+03  0.18669359562E+03  0.12509893562E+03 0.  0.
          5    1    3    3  502    0 -0.41850971114E+02 -0.18191311728E+02  0.14713322184E+03  0.15410413678E+03  0.41800000000E+01 0.  1.
         -5    1    3    3    0  502  0.30570372837E+02  0.38505333083E+01 -0.97583874241E+01  0.32589458837E+02  0.41800000000E+01 0.  1.
        -11    1    1    2    0    0  0.41589979456E+01  0.26377083719E+02  0.57384210941E+02  0.63292933845E+02  0.00000000000E+00 0.  1.
         11    1    1    2    0    0  0.71216003313E+01 -0.12036305300E+02 -0.12787805669E+02  0.18950403963E+02  0.00000000000E+00 0. -1.
</event>
<event>
 7    1  0.2612213E-009  0.1011434E+03  0.7561462E-02  0.1277910E+00
          2   -1    0    0  501    0  0.00000000000E+00  0.00000000000E+00  0.12016004034E+03  0.12016004034E+03  0.00000000000E+00 0. -1.
         -2   -1    0    0    0  501 -0.00000000000E+00 -0.00000000000E+00 -0.12437395888E+03  0.12437395888E+03  0.00000000000E+00 0.  1.
         25    2    1    2    0    0  0.45699266324E+02  0.15301966978E+02 -0.31748203895E+02  0.13776281665E+03  0.12509225422E+03 0.  0.
          5    1    3    3  502    0  0.10083094875E+02  0.49013308059E+02  0.30235871979E+02  0.58614448077E+02  0.41800000000E+01 0. -1.
         -5    1    3    3    0  502  0.35616171448E+02 -0.33711341081E+02 -0.61984075873E+02  0.79148368574E+02  0.41800000000E+01 0. -1.
        -11    1    1    2    0    0 -0.69378947013E+02 -0.29338476141E+02  0.23764745498E+02  0.78987009055E+02  0.00000000000E+00 0.  1.
         11    1    1    2    0    0  0.23679680689E+02  0.14036509163E+02  0.37695398660E+01  0.27784173514E+02  0.00000000000E+00 0. -1.
</event>
<event>
 7    1  0.2612213E-009  0.1212157E+03  0.7561462E-02  0.1241105E+00
          1   -1    0    0  501    0  0.00000000000E+00  0.00000000000E+00  0.58170419017E+03  0.58170419017E+03  0.00000000000E+00 0. -1.
         -1   -1    0    0    0  501 -0.00000000000E+00 -0.00000000000E+00 -0.53680074655E+02  0.53680074655E+02  0.00000000000E+00 0.  1.
         25    2    1    2    0    0 -0.71236451648E+02 -0.41742686560E+02  0.48451691793E+03  0.50716932193E+03  0.12508794277E+03 0.  0.
          5    1    3    3  502    0  0.29725159685E+02  0.12982224413E+02  0.14806534093E+03  0.15163423378E+03  0.41800000000E+01 0. -1.
         -5    1    3    3    0  502 -0.10096161133E+03 -0.54724910974E+02  0.33645157700E+03  0.35553508815E+03  0.41800000000E+01 0. -1.
        -11    1    1    2    0    0  0.25370957544E+02  0.41857021208E+02 -0.17420279023E+02  0.51953458329E+02  0.00000000000E+00 0.  1.
         11    1    1    2    0    0  0.45865494104E+02 -0.11433464794E+00  0.60927476614E+02  0.76261484568E+02  0.00000000000E+00 0. -1.
</event>
<event>
 7    1  0.2612213E-009  0.1371813E+03  0.7561462E-02  0.1217173E+00
         -2   -1    0    0    0  501 -0.00000000000E+00  0.00000000000E+00  0.27245410330E+02  0.27245410330E+02  0.00000000000E+00 0.  1.
          2   -1    0    0  501    0  0.00000000000E+00 -0.00000000000E+00 -0.90671219121E+03  0.90671219121E+03  0.00000000000E+00 0. -1.
         25    2    1    2    0    0 -0.10499751061E+03  0.37931491009E+01 -0.34921461998E+03  0.38553679003E+03  0.12509556525E+03 0.  0.
          5    1    3    3  502    0 -0.10994803570E+03 -0.21286997603E+02 -0.34008090788E+03  0.35807010923E+03  0.41800000000E+01 0.  1.
         -5    1    3    3    0  502  0.49505250887E+01  0.25080146704E+02 -0.91337121010E+01  0.27466680799E+02  0.41800000000E+01 0.  1.
        -11    1    1    2    0    0  0.56286039440E+02 -0.45412248915E+02 -0.21865955140E+03  0.23030933547E+03  0.00000000000E+00 0. -1.
         11    1    1    2    0    0  0.48711471167E+02  0.41619099814E+02 -0.31159260950E+03  0.31811147603E+03  0.00000000000E+00 0.  1.
</event>
<event>
 7    1  0.2612213E-009  0.8397910E+02  0.7561462E-02  0.1318124E+00
         -2   -1    0    0    0  501 -0.00000000000E+00  0.00000000000E+00  0.59306720735E+03  0.59306720735E+03  0.00000000000E+00 0.  1.
          2   -1    0    0  501    0  0.00000000000E+00 -0.00000000000E+00 -0.20304341482E+02  0.20304341482E+02  0.00000000000E+00 0. -1.
         25    2    1    2    0    0 -0.48453012306E+02 -0.31788012178E+01  0.29408861334E+03  0.32325316147E+03  0.12508674879E+03 0.  0.
          5    1    3    3  502    0 -0.73747891556E+02  0.52782702155E+01  0.86299301391E+02  0.11371742815E+03  0.41800000000E+01 0. -1.
         -5    1    3    3    0  502  0.25294879249E+02 -0.84570714333E+01  0.20778931195E+03  0.20953573332E+03  0.41800000000E+01 0. -1.
        -11    1    1    2    0    0  0.50270975735E+02 -0.11947888549E+02  0.26384636664E+03  0.26885837951E+03  0.00000000000E+00 0.  1.
         11    1    1    2    0    0 -0.18179634285E+01  0.15126689766E+02  0.14827885886E+02  0.21260007859E+02  0.00000000000E+00 0. -1.
</event>
<event>
 7    1  0.2612213E-009  0.1130320E+03  0.7561462E-02  0.1255056E+00
          2   -1    0    0  501    0  0.00000000000E+00  0.00000000000E+00  0.90010612152E+03  0.90010612152E+03  0.00000000000E+00 0.  1.
         -2   -1    0    0    0  501 -0.00000000000E+00 -0.00000000000E+00 -0.21381390460E+02  0.21381390460E+02  0.00000000000E+00 0. -1.
         25    2    1    2    0    0  0.41276686929E+02 -0.76127255320E+02  0.48620483760E+03  0.50945244232E+03  0.12509005951E+03 0.  0.
          5    1    3    3  502    0  0.39425402170E+02 -0.15737749732E+02  0.37855099599E+02  0.57030869435E+02  0.41800000000E+01 0. -1.
         -5    1    3    3    0  502  0.18512847594E+01 -0.60389505588E+02  0.44834973800E+03  0.45242157288E+03  0.41800000000E+01 0. -1.
        -11    1    1    2    0    0  0.24003414391E+02  0.20222681457E+01  0.48994305026E+02  0.54595745217E+02  0.00000000000E+00 0. -1.
         11    1    1    2    0    0 -0.65280101321E+02  0.74104987174E+02  0.34352558843E+03  0.35743932445E+03  0.00000000000E+00 0.  1.
</event>
<event>
 7    1  0.2980100E-009  0.2048438E+03  0.7561462E-02  0.1145715E+00
          2   -1    0    0  501    0  0.00000000000E+00  0.00000000000E+00  0.11280478503E+04  0.11280478503E+04  0.00000000000E+00 0. -1.
         -2   -1    0    0    0  501 -0.00000000000E+00 -0.00000000000E+00 -0.48020704467E+02  0.48020704467E+02  0.00000000000E+00 0.  1.
         25    2    1    2    0    0  0.49712196495E+02 -0.18921284307E+03  0.40051034366E+03  0.46295592036E+03  0.12508735490E+03 0.  0.
          5    1    3    3  502    0  0.22376863253E+02 -0.31715315268E+02  0.21287736852E+03  0.21642742816E+03  0.41800000000E+01 0.  1.
         -5    1    3    3    0  502  0.27335333242E+02 -0.15749752780E+03  0.18763297514E+03  0.24652849220E+03  0.41800000000E+01 0.  1.
        -11    1    1    2    0    0  0.18782013244E+02  0.77157636121E+02  0.33827735568E+03  0.34747321364E+03  0.00000000000E+00 0. -1.
         11    1    1    2    0    0 -0.68494209739E+02  0.11205520695E+03  0.34123944650E+03  0.36563942077E+03  0.00000000000E+00 0.  1.
</event>
<event>
 7    1  0.2612213E-009  0.1001011E+03  0.7561462E-02  0.1280083E+00
         -2   -1    0    0    0  501 -0.00000000000E+00  0.00000000000E+00  0.35317351216E+02  0.35317351216E+02  0.00000000000E+00 0.  1.
          2   -1    0    0  501    0  0.00000000000E+00 -0.00000000000E+00 -0.47224763747E+03  0.47224763747E+03  0.00000000000E+00 0. -1.
         25    2    1    2    0    0 -0.36193286154E+02  0.51070960107E+02 -0.30928382804E+03  0.33944415241E+03  0.12509056476E+03 0.  0.
          5    1    3    3  502    0 -0.68308286730E+02  0.71769104375E+02 -0.24815428714E+03  0.26723556837E+03  0.41800000000E+01 0.  1.
         -5    1    3    3    0  502  0.32115000577E+02 -0.20698144268E+02 -0.61129540901E+02  0.72208584039E+02  0.41800000000E+01 0.  1.
        -11    1    1    2    0    0  0.24037326114E+02 -0.33371104564E+02 -0.25618367644E+01  0.41206633861E+02  0.00000000000E+00 0.  1.
         11    1    1    2    0    0  0.12155960040E+02 -0.17699855543E+02 -0.12508462145E+03  0.12691420241E+03  0.00000000000E+00 0. -1.
</event>
<event>
 7    1  0.2612213E-009  0.1704362E+03  0.7561462E-02  0.1177394E+00
         -1   -1    0    0    0  501 -0.00000000000E+00  0.00000000000E+00  0.23856961905E+03  0.23856961905E+03  0.00000000000E+00 0.  1.
          1   -1    0    0  501    0  0.00000000000E+00 -0.00000000000E+00 -0.16371559490E+03  0.16371559490E+03  0.00000000000E+00 0. -1.
         25    2    1    2    0    0 -0.58509518009E+02  0.15152968412E+03  0.25046036363E+01  0.20503371785E+03  0.12509174053E+03 0.  0.
          5    1    3    3  502    0 -0.43546286709E+02  0.67300557892E+02 -0.58973162473E+02  0.99603968148E+02  0.41800000000E+01 0. -1.
         -5    1    3    3    0  502 -0.14963231300E+02  0.84229126228E+02  0.61477766109E+02  0.10542974970E+03  0.41800000000E+01 0. -1.
        -11    1    1    2    0    0  0.55194056043E+02 -0.53499688056E+02  0.26313114847E+01  0.76912445317E+02  0.00000000000E+00 0. -1.
         11    1    1    2    0    0  0.33154619666E+01 -0.98029996063E+02  0.69718109028E+02  0.12033905078E+03  0.00000000000E+00 0.  1.
</event>
<event>
 7    1  0.2612213E-009  0.1019699E+03  0.7561462E-02  0.1276207E+00
         -1   -1    0    0    0  501 -0.00000000000E+00  0.00000000000E+00  0.20205872254E+02  0.20205872254E+02  0.00000000000E+00 0.  1.
          1   -1    0    0  501    0  0.00000000000E+00 -0.00000000000E+00 -0.11094159948E+04  0.11094159948E+04  0.00000000000E+00 0. -1.
         25    2    1    2    0    0 -0.14331610157E+02 -0.16350410613E+02 -0.94099789951E+03  0.94951998708E+03  0.12505370050E+03 0.  0.
          5    1    3    3  502    0  0.20759520705E+02 -0.63329681470E+02 -0.56913140634E+03  0.57303545819E+03  0.41800000000E+01 0. -1.
         -5    1    3    3    0  502 -0.35091130862E+02  0.46979270857E+02 -0.37186649316E+03  0.37648452889E+03  0.41800000000E+01 0. -1.
        -11    1    1    2    0    0  0.16272455184E+02 -0.28856239747E+02 -0.98991555906E+01  0.34575549909E+02  0.00000000000E+00 0.  1.
         11    1    1    2    0    0 -0.19408450274E+01  0.45206650361E+02 -0.13831306750E+03  0.14552633011E+03  0.00000000000E+00 0. -1.
</event>
<event>
 7    1  0.2612213E-009  0.2097525E+03  0.7561462E-02  0.1141762E+00
         -3   -1    0    0    0  501 -0.00000000000E+00  0.00000000000E+00  0.31271762470E+03  0.31271762470E+03  0.00000000000E+00 0.  1.
          3   -1    0    0  501    0  0.00000000000E+00 -0.00000000000E+00 -0.18002999604E+03  0.18002999604E+03  0.00000000000E+00 0. -1.
         25    2    1    2    0    0 -0.10028304783E+02  0.19294024485E+03  0.12913426550E+03  0.26391291175E+03  0.12509141249E+03 0.  0.
          5    1    3    3  502    0 -0.25186403206E+02  0.13966742173E+03  0.14815258137E+03  0.20520234737E+03  0.41800000000E+01 0.  1.
         -5    1    3    3    0  502  0.15158098424E+02  0.53272823126E+02 -0.19018315866E+02  0.58710564382E+02  0.41800000000E+01 0.  1.
        -11    1    1    2    0    0 -0.37734873722E+02 -0.15891849794E+03 -0.22104283417E+02  0.16482599622E+03  0.00000000000E+00 0. -1.
         11    1    1    2    0    0  0.47763178505E+02 -0.34021746910E+02  0.25657646578E+02  0.64008712779E+02  0.00000000000E+00 0.  1.
</event>
<event>
 7    1  0.2612213E-009  0.9929291E+02  0.7561462E-02  0.1281790E+00
         -1   -1    0    0    0  501 -0.00000000000E+00  0.00000000000E+00  0.15139559704E+02  0.15139559704E+02  0.00000000000E+00 0.  1.
          1   -1    0    0  501    0  0.00000000000E+00 -0.00000000000E+00 -0.10883933035E+04  0.10883933035E+04  0.00000000000E+00 0. -1.
         25    2    1    2    0    0 -0.20562662275E+02 -0.32864846966E+02 -0.84326526953E+03  0.85337378011E+03  0.12509025755E+03 0.  0.
          5    1    3    3  502    0 -0.23414569507E+02  0.29563838066E+02 -0.62895558423E+03  0.63009908897E+03  0.41800000000E+01 0. -1.
         -5    1    3    3    0  502  0.28519072322E+01 -0.62428685032E+02 -0.21430968530E+03  0.22327469114E+03  0.41800000000E+01 0. -1.
        -11    1    1    2    0    0  0.14256889846E+02 -0.30848643148E+02 -0.69264582295E+02  0.77152317222E+02  0.00000000000E+00 0.  1.
         11    1    1    2    0    0  0.63057724285E+01  0.63713490114E+02 -0.16072389200E+03  0.17300676590E+03  0.00000000000E+00 0. -1.
</event>
<event>
 7    1  0.2612213E-009  0.1342119E+03  0.7561462E-02  0.1221337E+00
          1   -1    0    0  501    0  0.00000000000E+00  0.00000000000E+00  0.14968554652E+03  0.14968554652E+03  0.00000000000E+00 0. -1.
         -1   -1    0    0    0  501 -0.00000000000E+00 -0.00000000000E+00 -0.18033952770E+03  0.18033952770E+03  0.00000000000E+00 0.  1.
         25    2    1    2    0    0 -0.11515046643E+03 -0.12421792856E+02  0.24028912425E+02  0.17215982598E+03  0.12509071185E+03 0.  0.
          5    1    3    3  502    0 -0.30699743485E+02  0.35057326436E+02 -0.35182975496E+02  0.58538914849E+02  0.41800000000E+01 0.  1.
         -5    1    3    3    0  502 -0.84450722943E+02 -0.47479119292E+02  0.59211887921E+02  0.11362091113E+03  0.41800000000E+01 0.  1.
        -11    1    1    2    0    0  0.38421914642E+02 -0.17614018439E+02  0.19907525345E+02  0.46720517288E+02  0.00000000000E+00 0. -1.
         11    1    1    2    0    0  0.76728551786E+02  0.30035811295E+02 -0.74590418953E+02  0.11114473095E+03  0.00000000000E+00 0.  1.
</event>
<event>
 7    1  0.2612213E-009  0.1603600E+03  0.7561462E-02  0.1188291E+00
         -1   -1    0    0    0  501 -0.00000000000E+00  0.00000000000E+00  0.19657774728E+02  0.19657774728E+02  0.00000000000E+00 0.  1.
          1   -1    0    0  501    0  0.00000000000E+00 -0.00000000000E+00 -0.13754378018E+04  0.13754378018E+04  0.00000000000E+00 0. -1.
         25    2    1    2    0    0  0.12239129185E+03  0.12246367845E+02 -0.71229828995E+03  0.73358396923E+03  0.12508790587E+03 0.  0.
          5    1    3    3  502    0  0.13211958142E+03  0.44325449372E+02 -0.52131835789E+03  0.53963935357E+03  0.41800000000E+01 0.  1.
         -5    1    3    3    0  502 -0.97282895695E+01 -0.32079081527E+02 -0.19097993207E+03  0.19394461566E+03  0.41800000000E+01 0.  1.
        -11    1    1    2    0    0 -0.69873102947E+02  0.33849684448E+02 -0.24687372704E+03  0.25879468456E+03  0.00000000000E+00 0.  1.
         11    1    1    2    0    0 -0.52518188904E+02 -0.46096052293E+02 -0.39660801005E+03  0.40271692271E+03  0.00000000000E+00 0. -1.
</event>
<event>
 7    1  0.2612213E-009  0.1148705E+03  0.7561462E-02  0.1251807E+00
          2   -1    0    0  501    0  0.00000000000E+00  0.00000000000E+00  0.69931485083E+03  0.69931485083E+03  0.00000000000E+00 0. -1.
         -2   -1    0    0    0  501 -0.00000000000E+00 -0.00000000000E+00 -0.21542297046E+02  0.21542297046E+02  0.00000000000E+00 0.  1.
         25    2    1    2    0    0  0.26939490613E+02  0.42713645942E+02  0.44673799353E+03  0.46666319803E+03  0.12509801690E+03 0.  0.
          5    1    3    3  502    0  0.30668221643E+02  0.81631688647E+02  0.37318098561E+03  0.38325682359E+03  0.41800000000E+01 0.  1.
         -5    1    3    3    0  502 -0.37287310304E+01 -0.38918042704E+02  0.73557007919E+02  0.83406374439E+02  0.41800000000E+01 0.  1.
        -11    1    1    2    0    0  0.31905849806E+02 -0.28030121561E+02  0.67216811854E+02  0.79509563968E+02  0.00000000000E+00 0.  1.
         11    1    1    2    0    0 -0.58845340418E+02 -0.14683524381E+02  0.16381774840E+03  0.17468438587E+03  0.00000000000E+00 0. -1.
</event>
<event>
 7    1  0.2612213E-009  0.9136430E+02  0.7561462E-02  0.1299581E+00
          2   -1    0    0  501    0  0.00000000000E+00  0.00000000000E+00  0.59587463483E+02  0.59587463483E+02  0.00000000000E+00 0. -1.
         -2   -1    0    0    0  501 -0.00000000000E+00 -0.00000000000E+00 -0.23325404238E+03  0.23325404238E+03  0.00000000000E+00 0.  1.
         25    2    1    2    0    0  0.91849698390E+01  0.13613632247E+02 -0.44458934017E+02  0.13376680841E+03  0.12508903854E+03 0.  0.
          5    1    3    3  502    0 -0.53622791127E+02  0.26095018776E+02 -0.90165157750E+01  0.60457618957E+02  0.41800000000E+01 0.  1.
         -5    1    3    3    0  502  0.62807760966E+02 -0.12481386529E+02 -0.35442418242E+02  0.73309189452E+02  0.41800000000E+01 0.  1.
        -11    1    1    2    0    0  0.13381409624E+02 -0.28675270955E+02 -0.12806826324E+03  0.13191972308E+03  0.00000000000E+00 0.  1.
         11    1    1    2    0    0 -0.22566379463E+02  0.15061638708E+02 -0.11393816372E+01  0.27154974372E+02  0.00000000000E+00 0. -1.
</event>
<event>
 7    1  0.2612213E-009  0.1238717E+03  0.7561462E-02  0.1236843E+00
          2   -1    0    0  501    0  0.00000000000E+00  0.00000000000E+00  0.16956706653E+03  0.16956706653E+03  0.00000000000E+00 0. -1.
         -2   -1    0    0    0  501 -0.00000000000E+00 -0.00000000000E+00 -0.98719989625E+02  0.98719989625E+02  0.00000000000E+00 0.  1.
         25    2    1    2    0    0 -0.56207196865E+02  0.39441251164E+02  0.57094203268E+02  0.15369815434E+03  0.12509401795E+03 0.  0.
          5    1    3    3  502    0  0.34219525759E+02  0.37503383389E+02  0.30308217436E+02  0.59275122547E+02  0.41800000000E+01 0.  1.
         -5    1    3    3    0  502 -0.90426722624E+02  0.19378677756E+01  0.26785985832E+02  0.94423031793E+02  0.41800000000E+01 0.  1.
        -11    1    1    2    0    0  0.76910900518E+02 -0.37197568256E+02  0.27365441174E+02  0.89709604131E+02  0.00000000000E+00 0. -1.
         11    1    1    2    0    0 -0.20703703653E+02 -0.22436829079E+01 -0.13612567542E+02  0.24879297679E+02  0.00000000000E+00 0.  1.
</event>
<event>
 7    1  0.2612213E-009  0.8679792E+02  0.7561462E-02  0.1310797E+00
         -2   -1    0    0    0  501 -0.00000000000E+00  0.00000000000E+00  0.55222659846E+02  0.55222659846E+02  0.00000000000E+00 0. -1.
          2   -1    0    0  501    0  0.00000000000E+00 -0.00000000000E+00 -0.32930340465E+03  0.32930340465E+03  0.00000000000E+00 0.  1.
         25    2    1    2    0    0  0.74321458714E+00  0.78870289624E+01 -0.26508633191E+03  0.29322402270E+03  0.12508719570E+03 0.  0.
          5    1    3    3  502    0 -0.90203937066E+01  0.50535640423E+02 -0.23346756692E+03  0.23908114869E+03  0.41800000000E+01 0.  1.
         -5    1    3    3    0  502  0.97636082938E+01 -0.42648611461E+02 -0.31618764991E+02  0.54142874009E+02  0.41800000000E+01 0.  1.
        -11    1    1    2    0    0  0.24642526479E+02 -0.33823291845E+02 -0.27983390221E+02  0.50342221949E+02  0.00000000000E+00 0.  1.
         11    1    1    2    0    0 -0.25385741066E+02  0.25936262883E+02  0.18988977329E+02  0.40959819846E+02  0.00000000000E+00 0. -1.
</event>
<event>
 7    1  0.2612213E-009  0.1119862E+03  0.7561462E-02  0.1256935E+00
          2   -1    0    0  501    0  0.00000000000E+00  0.00000000000E+00  0.14788150694E+03  0.14788150694E+03  0.00000000000E+00 0. -1.
         -2   -1    0    0    0  501 -0.00000000000E+00 -0.00000000000E+00 -0.11719943080E+03  0.11719943080E+03  0.00000000000E+00 0.  1.
         25    2    1    2    0    0 -0.38379462542E+02 -0.64398609694E+02  0.49487154890E+02  0.15400255395E+03  0.12509054340E+03 0.  0.
          5    1    3    3  502    0 -0.32484570547E+01 -0.78381490063E+02 -0.14186172438E+02  0.79830635386E+02  0.41800000000E+01 0.  1.
         -5    1    3    3    0  502 -0.35131005487E+02  0.13982880369E+02  0.63673327328E+02  0.74171918560E+02  0.41800000000E+01 0.  1.
        -11    1    1    2    0    0  0.62039134122E+02  0.49946113790E+02 -0.23317370826E+02  0.82988964493E+02  0.00000000000E+00 0.  1.
         11    1    1    2    0    0 -0.23659671581E+02  0.14452495904E+02  0.45122920784E+01  0.28089419306E+02  0.00000000000E+00 0. -1.
</event>
<event>
 7    1  0.2612213E-009  0.1025764E+03  0.7561462E-02  0.1274970E+00
         -1   -1    0    0    0  501 -0.00000000000E+00  0.00000000000E+00  0.13986700852E+03  0.13986700852E+03  0.00000000000E+00 0.  1.
          1   -1    0    0  501    0  0.00000000000E+00 -0.00000000000E+00 -0.13302360395E+03  0.13302360395E+03  0.00000000000E+00 0. -1.
         25    2    1    2    0    0 -0.59265530360E+02  0.41606161725E+02  0.42629041895E+02  0.15069272712E+03  0.12509031542E+03 0.  0.
          5    1    3    3  502    0 -0.61099564845E+02 -0.21915647278E+02  0.55751926857E+02  0.85669143618E+02  0.41800000000E+01 0. -1.
         -5    1    3    3    0  502  0.18340344857E+01  0.63521809003E+02 -0.13122884962E+02  0.65023583500E+02  0.41800000000E+01 0. -1.
        -11    1    1    2    0    0  0.56618711227E+02 -0.29139621490E+02 -0.64589460670E+02  0.90700575694E+02  0.00000000000E+00 0. -1.
         11    1    1    2    0    0  0.26468191333E+01 -0.12466540235E+02  0.28803823336E+02  0.31497309658E+02  0.00000000000E+00 0.  1.
</event>
<event>
 7    1  0.2612213E-009  0.1301269E+03  0.7561462E-02  0.1227268E+00
         -1   -1    0    0    0  501 -0.00000000000E+00  0.00000000000E+00  0.78034180084E+02  0.78034180084E+02  0.00000000000E+00 0.  1.
          1   -1    0    0  501    0  0.00000000000E+00 -0.00000000000E+00 -0.24821595258E+03  0.24821595258E+03  0.00000000000E+00 0. -1.
         25    2    1    2    0    0  0.58912645070E+02 -0.52811832613E+02 -0.45484122274E+02  0.15484056201E+03  0.12508798844E+03 0.  0.
          5    1    3    3  502    0 -0.54163484029E+01 -0.78251584912E+02 -0.27714579197E+02  0.83295964316E+02  0.41800000000E+01 0. -1.
         -5    1    3    3    0  502  0.64328993473E+02  0.25439752299E+02 -0.17769543076E+02  0.71544597696E+02  0.41800000000E+01 0. -1.
        -11    1    1    2    0    0  0.17754240535E+02 -0.24096550021E+01 -0.44115062553E+01  0.18452124041E+02  0.00000000000E+00 0.  1.
         11    1    1    2    0    0 -0.76666885605E+02  0.55221487615E+02 -0.12028614396E+03  0.15295744661E+03  0.00000000000E+00 0. -1.
</event>
<event>
 7    1  0.2612213E-009  0.9742639E+02  0.7561462E-02  0.1285803E+00
         -1   -1    0    0    0  501 -0.00000000000E+00  0.00000000000E+00  0.27711920228E+02  0.27711920228E+02  0.00000000000E+00 0.  1.
          1   -1    0    0  501    0  0.00000000000E+00 -0.00000000000E+00 -0.78959050757E+03  0.78959050757E+03  0.00000000000E+00 0. -1.
         25    2    1    2    0    0 -0.47292535084E+02 -0.16197551580E+02 -0.64628921682E+03  0.66017757575E+03  0.12508291327E+03 0.  0.
          5    1    3    3  502    0 -0.25220927262E+02  0.43486637139E+02 -0.12190463176E+03  0.13192950551E+03  0.41800000000E+01 0. -1.
         -5    1    3    3    0  502 -0.22071607822E+02 -0.59684188719E+02 -0.52438458507E+03  0.52824807024E+03  0.41800000000E+01 0. -1.
        -11    1    1    2    0    0  0.10020112655E+02  0.36737310771E+02 -0.10718167126E+03  0.11374508040E+03  0.00000000000E+00 0.  1.
         11    1    1    2    0    0  0.37272422429E+02 -0.20539759192E+02 -0.84076992585E+01  0.43379771648E+02  0.00000000000E+00 0. -1.
</event>
<event>
 6    1  0.2612213E-009  0.1366433E+03  0.7561462E-02  0.1217918E+00
          2   -1    0    0  501    0  0.00000000000E+00  0.00000000000E+00  0.33151722740E+03  0.33151722740E+03  0.00000000000E+00 0. -1.
         -2   -1    0    0    0  501 -0.00000000000E+00 -0.00000000000E+00 -0.86104002021E+02  0.86104002021E+02  0.00000000000E+00 0.  1.
          5    1    1    2  502    0  0.23670719709E+02  0.57989565056E+02 -0.21473919295E+02  0.66345265369E+02  0.41800000000E+01 0. -1.
         -5    1    1    2    0  502  0.75053044500E+02 -0.32816640553E+02  0.54269059224E+02  0.98348841249E+02  0.41800000000E+01 0. -1.
        -11    1    1    2    0    0 -0.13643935619E+02  0.25890047338E+02  0.93076300583E+02  0.97568689960E+02  0.00000000000E+00 0. -1.
         11    1    1    2    0    0 -0.85079828590E+02 -0.51062971842E+02  0.11954178487E+03  0.15535843284E+03  0.00000000000E+00 0.  1.
</event>
<event>
 7    1  0.2612213E-009  0.7254944E+02  0.7561462E-02  0.1351632E+00
         -3   -1    0    0    0  501 -0.00000000000E+00  0.00000000000E+00  0.86746956088E+02  0.86746956088E+02  0.00000000000E+00 0.  1.
          3   -1    0    0  501    0  0.00000000000E+00 -0.00000000000E+00 -0.18363346724E+03  0.18363346724E+03  0.00000000000E+00 0. -1.
         25    2    1    2    0    0  0.43594855720E+02  0.68389620525E+01 -0.98588354481E+02  0.16526880713E+03  0.12508729802E+03 0.  0.
          5    1    3    3  502    0 -0.20939899368E+02  0.11453837820E+02  0.19133246917E+02  0.30874314955E+02  0.41800000000E+01 0.  1.
         -5    1    3    3    0  502  0.64534755088E+02 -0.46148757679E+01 -0.11772160140E+03  0.13439449218E+03  0.41800000000E+01 0.  1.
        -11    1    1    2    0    0 -0.22364431445E+02  0.13918319994E+02 -0.43604089625E+02  0.50943145342E+02  0.00000000000E+00 0. -1.
         11    1    1    2    0    0 -0.21230424275E+02 -0.20757282046E+02  0.45305932958E+02  0.54168470848E+02  0.00000000000E+00 0.  1.
</event>
<event>
 7    1  0.2956482E-009  0.1114812E+03  0.7561462E-02  0.1257851E+00
          2   -1    0    0  501    0  0.00000000000E+00  0.00000000000E+00  0.10036334994E+04  0.10036334994E+04  0.00000000000E+00 0. -1.
         -2   -1    0    0    0  501 -0.00000000000E+00 -0.00000000000E+00 -0.15340112318E+02  0.15340112318E+02  0.00000000000E+00 0.  1.
         25    2    1    2    0    0  0.52199637950E+02  0.13820543611E+02  0.65651565403E+03  0.67050410503E+03  0.12508853363E+03 0.  0.
          5    1    3    3  502    0  0.87614057635E+02  0.80046434321E+01  0.31499164105E+03  0.32707415633E+03  0.41800000000E+01 0. -1.
         -5    1    3    3    0  502 -0.35414419684E+02  0.58159001784E+01  0.34152401299E+03  0.34342994870E+03  0.41800000000E+01 0. -1.
        -11    1    1    2    0    0 -0.26615361203E+02  0.34800345075E+02  0.21492757339E+03  0.21934744875E+03  0.00000000000E+00 0. -1.
         11    1    1    2    0    0 -0.25584276747E+02 -0.48620888685E+02  0.11685015964E+03  0.12912205792E+03  0.00000000000E+00 0.  1.
</event>
<event>
 7    1  0.2612213E-009  0.3315836E+03  0.7561462E-02  0.1070438E+00
          1   -1    0    0  501    0  0.00000000000E+00  0.00000000000E+00  0.38524678320E+03  0.38524678320E+03  0.00000000000E+00 0. -1.
         -1   -1    0    0    0  501 -0.00000000000E+00 -0.00000000000E+00 -0.29252824916E+03  0.29252824916E+03  0.00000000000E+00 0.  1.
         25    2    1    2    0    0 -0.31270081002E+03  0.65711653844E+02  0.59457698543E+02  0.34825574975E+03  0.12508809407E+03 0.  0.
          5    1    3    3  502    0 -0.14724331129E+02  0.41401019724E+02  0.83964376454E+01  0.44931313430E+02  0.41800000000E+01 0.  1.
         -5    1    3    3    0  502 -0.29797647889E+03  0.24310634120E+02  0.51061260898E+02  0.30332443632E+03  0.41800000000E+01 0.  1.
        -11    1    1    2    0    0  0.19953825813E+03 -0.50692784760E+02  0.55481995445E+02  0.21322177821E+03  0.00000000000E+00 0. -1.
         11    1    1    2    0    0  0.11316255190E+03 -0.15018869084E+02 -0.22221159948E+02  0.11629750440E+03  0.00000000000E+00 0.  1.
</event>
<event>
 7    1  0.2612213E-009  0.1153444E+03  0.7561462E-02  0.1250981E+00
         -1   -1    0    0    0  501 -0.00000000000E+00  0.00000000000E+00  0.10992853077E+03  0.10992853077E+03  0.00000000000E+00 0.  1.
          1   -1    0    0  501    0  0.00000000000E+00 -0.00000000000E+00 -0.15446265726E+03  0.15446265726E+03  0.00000000000E+00 0. -1.
         25    2    1    2    0    0 -0.56142694651E+02  0.21341072629E+02 -0.64847654468E+02  0.15317541052E+03  0.12510013811E+03 0.  0.
          5    1    3    3  502    0  0.54995361655E+01  0.54891355601E+02  0.30872022724E+01  0.55410369387E+02  0.41800000000E+01 0.  1.
         -5    1    3    3    0  502 -0.61642230816E+02 -0.33550282971E+02 -0.67934856740E+02  0.97765041133E+02  0.41800000000E+01 0.  1.
        -11    1    1    2    0    0  0.74526219196E+02 -0.34824079185E+02  0.25262051929E+01  0.82299790713E+02  0.00000000000E+00 0. -1.
         11    1    1    2    0    0 -0.18383524545E+02  0.13483006555E+02  0.17787322792E+02  0.28915986800E+02  0.00000000000E+00 0.  1.
</event>
<event>
 7    1  0.2612213E-009  0.1551484E+03  0.7561462E-02  0.1194286E+00
          2   -1    0    0  501    0  0.00000000000E+00  0.00000000000E+00  0.97698524944E+03  0.97698524944E+03  0.00000000000E+00 0. -1.
         -2   -1    0    0    0  501 -0.00000000000E+00 -0.00000000000E+00 -0.32004724271E+02  0.32004724271E+02  0.00000000000E+00 0.  1.
         25    2    1    2    0    0  0.99705705877E+02  0.95379213948E+02  0.51251123679E+03  0.54530181201E+03  0.12509147100E+03 0.  0.
          5    1    3    3  502    0  0.89656065618E+01  0.42020447391E+02  0.34310641769E+03  0.34581148963E+03  0.41800000000E+01 0. -1.
         -5    1    3    3    0  502  0.90740099316E+02  0.53358766557E+02  0.16940481909E+03  0.19949032238E+03  0.41800000000E+01 0. -1.
        -11    1    1    2    0    0 -0.14237111670E+02 -0.71687190869E+02  0.13809696049E+03  0.15624506130E+03  0.00000000000E+00 0.  1.
         11    1    1    2    0    0 -0.85468594207E+02 -0.23692023078E+02  0.29437232789E+03  0.30744310040E+03  0.00000000000E+00 0. -1.
</event>
<event>
 7    1  0.2612213E-009  0.9728044E+02  0.7561462E-02  0.1286121E+00
          2   -1    0    0  501    0  0.00000000000E+00  0.00000000000E+00  0.73349407869E+03  0.73349407869E+03  0.00000000000E+00 0. -1.
         -2   -1    0    0    0  501 -0.00000000000E+00 -0.00000000000E+00 -0.24641589147E+02  0.24641589147E+02  0.00000000000E+00 0.  1.
         25    2    1    2    0    0 -0.54256038469E+02  0.16642994493E+01  0.42717561270E+03  0.44840940652E+03  0.12508198978E+03 0.  0.
          5    1    3    3  502    0 -0.40333023462E+02  0.17872559036E+02  0.42411427549E+03  0.42642299683E+03  0.41800000000E+01 0.  1.
         -5    1    3    3    0  502 -0.13923015007E+02 -0.16208259587E+02  0.30613372093E+01  0.21986409694E+02  0.41800000000E+01 0.  1.
        -11    1    1    2    0    0 -0.47130075560E+01  0.49911711044E+02  0.99411307621E+02  0.11133732268E+03  0.00000000000E+00 0.  1.
         11    1    1    2    0    0  0.58969046025E+02 -0.51576010493E+02  0.18226556922E+03  0.19838893863E+03  0.00000000000E+00 0. -1.
</event>
<event>
 7    1  0.2612213E-009  0.1278586E+03  0.7561462E-02  0.1230668E+00
          2   -1    0    0  501    0  0.00000000000E+00  0.00000000000E+00  0.17897381889E+03  0.17897381889E+03  0.00000000000E+00 0. -1.
         -2   -1    0    0    0  501 -0.00000000000E+00 -0.00000000000E+00 -0.14048201329E+03  0.14048201329E+03  0.00000000000E+00 0.  1.
         25    2    1    2    0    0  0.52408302888E+02  0.56740643201E+02 -0.64118428411E+02  0.16037625211E+03  0.12507293303E+03 0.  0.
          5    1    3    3  502    0  0.43574567898E+02  0.91724376813E+02 -0.20617982637E+02  0.10370476304E+03  0.41800000000E+01 0.  1.
         -5    1    3    3    0  502  0.88337349901E+01 -0.34983733612E+02 -0.43500445774E+02  0.56671489074E+02  0.41800000000E+01 0.  1.
        -11    1    1    2    0    0 -0.69546228392E+02 -0.12959098398E+02  0.41645934414E+02  0.82091412267E+02  0.00000000000E+00 0.  1.
         11    1    1    2    0    0  0.17137925504E+02 -0.43781544802E+02  0.60964299595E+02  0.76988167798E+02  0.00000000000E+00 0. -1.
</event>
<event>
 7    1  0.2612213E-009  0.1041518E+03  0.7561462E-02  0.1271800E+00
          1   -1    0    0  501    0  0.00000000000E+00  0.00000000000E+00  0.11881452855E+04  0.11881452855E+04  0.00000000000E+00 0. -1.
         -1   -1    0    0    0  501 -0.00000000000E+00 -0.00000000000E+00 -0.12990706492E+02  0.12990706492E+02  0.00000000000E+00 0.  1.
         25    2    1    2    0    0 -0.35553456313E+01 -0.49201794961E+02  0.82246630633E+03  0.83338889871E+03  0.12511104802E+03 0.  0.
          5    1    3    3  502    0 -0.48688234420E+02 -0.63683188356E+01  0.14680533831E+03  0.15485599572E+03  0.41800000000E+01 0. -1.
         -5    1    3    3    0  502  0.45132888789E+02 -0.42833476126E+02  0.67566096803E+03  0.67853290299E+03  0.41800000000E+01 0. -1.
        -11    1    1    2    0    0 -0.31439801815E+02  0.52829855754E+02  0.28394048709E+03  0.29051962930E+03  0.00000000000E+00 0.  1.
         11    1    1    2    0    0  0.34995147447E+02 -0.36280607924E+01  0.68747785563E+02  0.77227463960E+02  0.00000000000E+00 0. -1.
</event>
<event>
 7    1  0.2612213E-009  0.2178796E+03  0.7561462E-02  0.1135474E+00
         -2   -1    0    0    0  501 -0.00000000000E+00  0.00000000000E+00  0.70931051782E+02  0.70931051782E+02  0.00000000000E+00 0. -1.
          2   -1    0    0  501    0  0.00000000000E+00 -0.00000000000E+00 -0.81682483150E+03  0.81682483150E+03  0.00000000000E+00 0.  1.
         25    2    1    2    0    0  0.17889760755E+03 -0.92927507819E+02 -0.52036341569E+03  0.57189704592E+03  0.12509304953E+03 0.  0.
          5    1    3    3  502    0  0.29288103713E+01 -0.51313369750E+02 -0.16930813598E+03  0.17698688413E+03  0.41800000000E+01 0.  1.
         -5    1    3    3    0  502  0.17596879718E+03 -0.41614138068E+02 -0.35105527971E+03  0.39491016179E+03  0.41800000000E+01 0.  1.
        -11    1    1    2    0    0 -0.10762493791E+03  0.41134730040E+02 -0.63838337652E+02  0.13172139777E+03  0.00000000000E+00 0. -1.
         11    1    1    2    0    0 -0.71272669645E+02  0.51792777778E+02 -0.16169202637E+03  0.18413743960E+03  0.00000000000E+00 0.  1.
</event>
<event>
 7    1  0.2612213E-009  0.1186177E+03  0.7561462E-02  0.1245395E+00
         -1   -1    0    0    0  501 -0.00000000000E+00  0.00000000000E+00  0.67484962077E+02  0.67484962077E+02  0.00000000000E+00 0.  1.
          1   -1    0    0  501    0  0.00000000000E+00 -0.00000000000E+00 -0.32788756534E+03  0.32788756534E+03  0.00000000000E+00 0. -1.
         25    2    1    2    0    0 -0.31353177847E+02 -0.61065456900E+02 -0.40779636888E+02  0.14840055017E+03  0.12509089783E+03 0.  0.
          5    1    3    3  502    0 -0.75512489434E+02 -0.61212837592E+02 -0.19619504950E+02  0.99254949101E+02  0.41800000000E+01 0. -1.
         -5    1    3    3    0  502  0.44159311588E+02  0.14738069159E+00 -0.21160131938E+02  0.49145601070E+02  0.41800000000E+01 0. -1.
        -11    1    1    2    0    0 -0.15213348874E+02  0.43037915446E+02 -0.17205419066E+03  0.17800660851E+03  0.00000000000E+00 0. -1.
         11    1    1    2    0    0  0.46566526720E+02  0.18027541454E+02 -0.47568775715E+02  0.68965368734E+02  0.00000000000E+00 0.  1.
</event>
<event>
 7    1  0.2612213E-009  0.1026179E+03  0.7561462E-02  0.1274885E+00
         -1   -1    0    0    0  501 -0.00000000000E+00  0.00000000000E+00  0.25654380863E+02  0.25654380863E+02  0.00000000000E+00 0.  1.
          1   -1    0    0  501    0  0.00000000000E+00 -0.00000000000E+00 -0.85710370756E+03  0.85710370756E+03  0.00000000000E+00 0. -1.
         25    2    1    2    0    0 -0.59840614920E+02  0.68986205969E+02 -0.57454108851E+03  0.59505068370E+03  0.12509139849E+03 0.  0.
          5    1    3    3  502    0 -0.20510311328E+02  0.50149472701E+02 -0.52927384438E+03  0.53205631020E+03  0.41800000000E+01 0.  1.
         -5    1    3    3    0  502 -0.39330303593E+02  0.18836733268E+02 -0.45267244132E+02  0.62994373497E+02  0.41800000000E+01 0.  1.
        -11    1    1    2    0    0  0.70320488696E+02 -0.65333956012E+02 -0.25917635744E+03  0.27637995802E+03  0.00000000000E+00 0. -1.
         11    1    1    2    0    0 -0.10479873775E+02 -0.36522499575E+01  0.22681192473E+01  0.11327446712E+02  0.00000000000E+00 0.  1.
</event>
<event>
 7    1  0.2612213E-009  0.1391910E+03  0.7561462E-02  0.1214422E+00
         -1   -1    0    0    0  501 -0.00000000000E+00  0.00000000000E+00  0.24145963240E+03  0.24145963240E+03  0.00000000000E+00 0.  1.
          1   -1    0    0  501    0  0.00000000000E+00 -0.00000000000E+00 -0.10213655518E+03  0.10213655518E+03  0.00000000000E+00 0. -1.
         25    2    1    2    0    0 -0.77159240133E+02  0.75917036317E+02  0.11025994652E+03  0.19880176917E+03  0.12509173784E+03 0.  0.
          5    1    3    3  502    0 -0.10989043372E+03  0.54942584281E+02  0.99762474847E+02  0.15831809365E+03  0.41800000000E+01 0. -1.
         -5    1    3    3    0  502  0.32731193585E+02  0.20974452036E+02  0.10497471674E+02  0.40483675516E+02  0.41800000000E+01 0. -1.
        -11    1    1    2    0    0  0.48511404536E+01 -0.30675461543E+02  0.48237630839E+02  0.57370606878E+02  0.00000000000E+00 0.  1.
         11    1    1    2    0    0  0.72308099680E+02 -0.45241574775E+02 -0.19174500145E+02  0.87423811534E+02  0.00000000000E+00 0. -1.
</event>
<event>
 7    1  0.2612213E-009  0.1337617E+03  0.7561462E-02  0.1221978E+00
          2   -1    0    0  501    0  0.00000000000E+00  0.00000000000E+00  0.25827348131E+04  0.25827348131E+04  0.00000000000E+00 0. -1.
         -2   -1    0    0    0  501 -0.00000000000E+00 -0.00000000000E+00 -0.39773831181E+02  0.39773831181E+02  0.00000000000E+00 0.  1.
         25    2    1    2    0    0  0.77542439207E+02 -0.64938985062E+02  0.24581210217E+04  0.24633789415E+04  0.12508777098E+03 0.  0.
          5    1    3    3  502    0  0.10890673107E+03 -0.68231106751E+02  0.18913454428E+04  0.18957112692E+04  0.41800000000E+01 0.  1.
         -5    1    3    3    0  502 -0.31364291866E+02  0.32921216892E+01  0.56677557890E+03  0.56766767225E+03  0.41800000000E+01 0.  1.
        -11    1    1    2    0    0 -0.40946437154E+02  0.56144963458E+02  0.35867190743E+01  0.69582556658E+02  0.00000000000E+00 0.  1.
         11    1    1    2    0    0 -0.36596002053E+02  0.87940216045E+01  0.81253241154E+02  0.89547146131E+02  0.00000000000E+00 0. -1.
</event>
<event>
 7    1  0.2612213E-009  0.1330589E+03  0.7561462E-02  0.1222986E+00
          1   -1    0    0  501    0  0.00000000000E+00  0.00000000000E+00  0.27088997145E+03  0.27088997145E+03  0.00000000000E+00 0. -1.
         -1   -1    0    0    0  501 -0.00000000000E+00 -0.00000000000E+00 -0.99471318669E+02  0.99471318669E+02  0.00000000000E+00 0.  1.
         25    2    1    2    0    0 -0.99480231133E+02 -0.30650678316E+02  0.18604339953E+02  0.16379915876E+03  0.12509301531E+03 0.  0.
          5    1    3    3  502    0 -0.64872875537E+02  0.44654794813E+02  0.51796895486E+00  0.78868760432E+02  0.41800000000E+01 0.  1.
         -5    1    3    3    0  502 -0.34607355596E+02 -0.75305473129E+02  0.18086370999E+02  0.84930398330E+02  0.41800000000E+01 0.  1.
        -11    1    1    2    0    0  0.56748755672E+02  0.20591000561E+02  0.15100517555E+03  0.16262525517E+03  0.00000000000E+00 0. -1.
         11    1    1    2    0    0  0.42731475461E+02  0.10059677755E+02  0.18091372732E+01  0.43936876189E+02  0.00000000000E+00 0.  1.
</event>
<event>
 7    1  0.2612213E-009  0.1725963E+03  0.7561462E-02  0.1175167E+00
          2   -1    0    0  501    0  0.00000000000E+00  0.00000000000E+00  0.11673744772E+04  0.11673744772E+04  0.00000000000E+00 0. -1.
         -2   -1    0    0    0  501 -0.00000000000E+00 -0.00000000000E+00 -0.33827048971E+02  0.33827048971E+02  0.00000000000E+00 0.  1.
         25    2    1    2    0    0  0.15703986141E+03  0.34503975588E+02  0.70099709894E+03  0.72999753535E+03  0.12508967380E+03 0.  0.
          5    1    3    3  502    0  0.11017156090E+03  0.62876290309E+02  0.30720745337E+03  0.33239297905E+03  0.41800000000E+01 0.  1.
         -5    1    3    3    0  502  0.46868300517E+02 -0.28372314720E+02  0.39378964557E+03  0.39760455630E+03  0.41800000000E+01 0.  1.
        -11    1    1    2    0    0 -0.41097308164E+02  0.36707313635E+01  0.31277343552E+02  0.51775817007E+02  0.00000000000E+00 0.  1.
         11    1    1    2    0    0 -0.11594255325E+03 -0.38174706952E+02  0.40127298571E+03  0.41942817378E+03  0.00000000000E+00 0. -1.
</event>
<event>
 7    1  0.2612213E-009  0.8199266E+02  0.7561462E-02  0.1323490E+00
         -2   -1    0    0    0  501 -0.00000000000E+00  0.00000000000E+00  0.76303226160E+02  0.76303226160E+02  0.00000000000E+00 0.  1.
          2   -1    0    0  501    0  0.00000000000E+00 -0.00000000000E+00 -0.20326757509E+03  0.20326757509E+03  0.00000000000E+00 0. -1.
         25    2    1    2    0    0  0.15136051456E+02 -0.42619921241E+02 -0.24300482364E+02  0.13521901195E+03  0.12509240588E+03 0.  0.
          5    1    3    3  502    0 -0.14851361540E+02 -0.16301208567E+02  0.47744876477E+02  0.52757349916E+02  0.41800000000E+01 0.  1.
         -5    1    3    3    0  502  0.29987412995E+02 -0.26318712674E+02 -0.72045358841E+02  0.82461662034E+02  0.41800000000E+01 0.  1.
        -11    1    1    2    0    0  0.38315718442E+02  0.14011835805E+02 -0.39007737318E+02  0.56444923536E+02  0.00000000000E+00 0. -1.
         11    1    1    2    0    0 -0.53451769897E+02  0.28608085436E+02 -0.63656129248E+02  0.87906865764E+02  0.00000000000E+00 0.  1.
</event>
<event>
 7    1  0.2612213E-009  0.1420075E+03  0.7561462E-02  0.1210653E+00
         -1   -1    0    0    0  501 -0.00000000000E+00  0.00000000000E+00  0.17025227270E+02  0.17025227270E+02  0.00000000000E+00 0. -1.
          1   -1    0    0  501    0  0.00000000000E+00 -0.00000000000E+00 -0.13621817417E+04  0.13621817417E+04  0.00000000000E+00 0.  1.
         25    2    1    2    0    0 -0.10169695672E+02 -0.92378648188E+02 -0.97605375741E+03  0.98841548930E+03  0.12508798817E+03 0.  0.
          5    1    3    3  502    0 -0.28847669796E+02 -0.11919839365E+03 -0.74971825973E+03  0.75969427171E+03  0.41800000000E+01 0.  1.
         -5    1    3    3    0  502  0.18677974124E+02  0.26819745465E+02 -0.22633549768E+03  0.22872121758E+03  0.41800000000E+01 0.  1.
        -11    1    1    2    0    0 -0.22907919364E+02  0.92482607611E+02 -0.27067455448E+03  0.28695386375E+03  0.00000000000E+00 0.  1.
         11    1    1    2    0    0  0.33077615036E+02 -0.10395942340E+00 -0.98428202544E+02  0.10383761592E+03  0.00000000000E+00 0. -1.
</event>
<event>
 7    1  0.3437889E-009  0.1243641E+03  0.7561462E-02  0.1236066E+00
          2   -1    0    0  501    0  0.00000000000E+00  0.00000000000E+00  0.48821456859E+03  0.48821456859E+03  0.00000000000E+00 0. -1.
         -2   -1    0    0    0  501 -0.00000000000E+00 -0.00000000000E+00 -0.40591027390E+02  0.40591027390E+02  0.00000000000E+00 0.  1.
         25    2    1    2    0    0 -0.44648733889E+02  0.56676918988E+02  0.14568342191E+03  0.20512512484E+03  0.12508746875E+03 0.  0.
          5    1    3    3  502    0 -0.28748595302E+02 -0.31874930738E+02  0.13530887424E+02  0.45200113450E+02  0.41800000000E+01 0.  1.
         -5    1    3    3    0  502 -0.15900138587E+02  0.88551849727E+02  0.13215253449E+03  0.15992501139E+03  0.41800000000E+01 0.  1.
        -11    1    1    2    0    0  0.72470580552E+02 -0.36324889911E+02  0.19050044780E+03  0.20703116501E+03  0.00000000000E+00 0. -1.
         11    1    1    2    0    0 -0.27821846663E+02 -0.20352029077E+02  0.11143967149E+03  0.11664930613E+03  0.00000000000E+00 0.  1.
</event>
<event>
 7    1  0.2612213E-009  0.1190880E+03  0.7561462E-02  0.1244609E+00
         -1   -1    0    0    0  501 -0.00000000000E+00  0.00000000000E+00  0.27509782739E+02  0.27509782739E+02  0.00000000000E+00 0.  1.
          1   -1    0    0  501    0  0.00000000000E+00 -0.00000000000E+00 -0.61697087326E+03  0.61697087326E+03  0.00000000000E+00 0. -1.
         25    2    1    2    0    0 -0.60735336872E+02  0.29934932237E+02 -0.25925807129E+03  0.29571430820E+03  0.12508926105E+03 0.  0.
          5    1    3    3  502    0 -0.61044884789E+02 -0.30809961520E+02 -0.19725500551E+03  0.20881269427E+03  0.41800000000E+01 0. -1.
         -5    1    3    3    0  502  0.30954791626E+00  0.60744893757E+02 -0.62003065782E+02  0.86901613932E+02  0.41800000000E+01 0. -1.
        -11    1    1    2    0    0  0.11495322314E+02  0.29462951373E+02 -0.60806140416E+02  0.68539000948E+02  0.00000000000E+00 0.  1.
         11    1    1    2    0    0  0.49240014558E+02 -0.59397883610E+02 -0.26939687881E+03  0.28022734685E+03  0.00000000000E+00 0. -1.
</event>
<event>
 7    1  0.2612213E-009  0.1115881E+03  0.7561462E-02  0.1257657E+00
         -1   -1    0    0    0  501 -0.00000000000E+00  0.00000000000E+00  0.15728361529E+03  0.15728361529E+03  0.00000000000E+00 0.  1.
          1   -1    0    0  501    0  0.00000000000E+00 -0.00000000000E+00 -0.93857624906E+02  0.93857624906E+02  0.00000000000E+00 0. -1.
         25    2    1    2    0    0  0.32157022071E+02  0.22753002041E+02 -0.30135564755E+01  0.13119159971E+03  0.12510148337E+03 0.  0.
          5    1    3    3  502    0  0.76275779319E+02  0.76913070610E+01  0.19556696920E+02  0.79228072736E+02  0.41800000000E+01 0. -1.
         -5    1    3    3    0  502 -0.44118757248E+02  0.15061694980E+02 -0.22570253395E+02  0.51963526970E+02  0.41800000000E+01 0. -1.
        -11    1    1    2    0    0 -0.46917506249E+02  0.22471588027E+02  0.39135804808E+02  0.65098662652E+02  0.00000000000E+00 0. -1.
         11    1    1    2    0    0  0.14760484179E+02 -0.45224590068E+02  0.27303742054E+02  0.54850977842E+02  0.00000000000E+00 0.  1.
</event>
<event>
 7    1  0.2612213E-009  0.1878288E+03  0.7561462E-02  0.1160434E+00
          1   -1    0    0  501    0  0.00000000000E+00  0.00000000000E+00  0.35920060914E+03  0.35920060914E+03  0.00000000000E+00 0.  1.
         -1   -1    0    0    0  501 -0.00000000000E+00 -0.00000000000E+00 -0.12538847226E+03  0.12538847226E+03  0.00000000000E+00 0. -1.
         25    2    1    2    0    0  0.16981720215E+03  0.25427814096E+02  0.18646399554E+03  0.28266614127E+03  0.12508744906E+03 0.  0.
          5    1    3    3  502    0  0.18567059323E+03  0.24741972793E+02  0.18892286993E+03  0.26607340640E+03  0.41800000000E+01 0. -1.
         -5    1    3    3    0  502 -0.15853391083E+02  0.68584130334E+00 -0.24588743945E+01  0.16592734869E+02  0.41800000000E+01 0. -1.
        -11    1    1    2    0    0 -0.13895518537E+03 -0.17728087781E+02  0.75775418038E+02  0.15926312384E+03  0.00000000000E+00 0.  1.
         11    1    1    2    0    0 -0.30862016779E+02 -0.76997263152E+01 -0.28427276705E+02  0.42659816290E+02  0.00000000000E+00 0. -1.
</event>
<event>
 7    1  0.2612213E-009  0.1078628E+03  0.7561462E-02  0.1264580E+00
          2   -1    0    0  501    0  0.00000000000E+00  0.00000000000E+00  0.50207892644E+03  0.50207892644E+03  0.00000000000E+00 0.  1.
         -2   -1    0    0    0  501 -0.00000000000E+00 -0.00000000000E+00 -0.26142548361E+02  0.26142548361E+02  0.00000000000E+00 0. -1.
         25    2    1    2    0    0  0.63991405855E+01 -0.38413521422E+02  0.29517093592E+03  0.32294352632E+03  0.12510032834E+03 0.  0.
          5    1    3    3  502    0 -0.53599815857E+02  0.50550315440E+01  0.15819605612E+03  0.16715848221E+03  0.41800000000E+01 0.  1.
         -5    1    3    3    0  502  0.59998956443E+02 -0.43468552966E+02  0.13697487980E+03  0.15578504411E+03  0.41800000000E+01 0.  1.
        -11    1    1    2    0    0 -0.10547278114E+02  0.62344263034E+02  0.16399657614E+03  0.17576384496E+03  0.00000000000E+00 0.  1.
         11    1    1    2    0    0  0.41481375283E+01 -0.23930741612E+02  0.16768866012E+02  0.29514103516E+02  0.00000000000E+00 0. -1.
</event>
<event>
 7    1  0.2612213E-009  0.1089624E+03  0.7561462E-02  0.1262503E+00
          1   -1    0    0  501    0  0.00000000000E+00  0.00000000000E+00  0.34703056747E+03  0.34703056747E+03  0.00000000000E+00 0. -1.
         -1   -1    0    0    0  501 -0.00000000000E+00 -0.00000000000E+00 -0.46557396166E+02  0.46557396166E+02  0.00000000000E+00 0.  1.
         25    2    1    2    0    0  0.21223944918E+02  0.65322956241E+02  0.13535335952E+03  0.19667257963E+03  0.12506809024E+03 0.  0.
          5    1    3    3  502    0  0.64352428053E+02  0.61715597682E+02  0.12204011505E+03  0.15119957697E+03  0.41800000000E+01 0.  1.
         -5    1    3    3    0  502 -0.43128483135E+02  0.36073585594E+01  0.13313244468E+02  0.45473002667E+02  0.41800000000E+01 0.  1.
        -11    1    1    2    0    0  0.77638766925E+01 -0.53198676082E+02  0.37661486144E+02  0.65641179580E+02  0.00000000000E+00 0. -1.
         11    1    1    2    0    0 -0.28987821610E+02 -0.12124280159E+02  0.12745832565E+03  0.13127420443E+03  0.00000000000E+00 0.  1.
</event>
<event>
 7    1  0.2612213E-009  0.1515023E+03  0.7561462E-02  0.1198639E+00
         -1   -1    0    0    0  501 -0.00000000000E+00  0.00000000000E+00  0.15938741666E+03  0.15938741666E+03  0.00000000000E+00 0.  1.
          1   -1    0    0  501    0  0.00000000000E+00 -0.00000000000E+00 -0.27954195320E+03  0.27954195320E+03  0.00000000000E+00 0. -1.
         25    2    1    2    0    0 -0.10896285190E+03  0.83942598386E+02  0.59823229507E+02  0.19530807428E+03  0.12508861728E+03 0.  0.
          5    1    3    3  502    0 -0.17997691998E+01  0.31592467415E+01  0.60786717441E+02  0.61038655182E+02  0.41800000000E+01 0.  1.
         -5    1    3    3    0  502 -0.10716308270E+03  0.80783351645E+02 -0.96348793456E+00  0.13426941910E+03  0.41800000000E+01 0.  1.
        -11    1    1    2    0    0 -0.67277998073E+01  0.11430861387E+02 -0.22956426032E+02  0.26512739928E+02  0.00000000000E+00 0. -1.
         11    1    1    2    0    0  0.11569065170E+03 -0.95373459774E+02 -0.15702134001E+03  0.21710855565E+03  0.00000000000E+00 0.  1.
</event>
<event>
 7    1  0.3406036E-009  0.1482317E+03  0.7561462E-02  0.1202663E+00
          1   -1    0    0  501    0  0.00000000000E+00  0.00000000000E+00  0.60339330297E+03  0.60339330297E+03  0.00000000000E+00 0. -1.
         -1   -1    0    0    0  501 -0.00000000000E+00 -0.00000000000E+00 -0.59861409666E+02  0.59861409666E+02  0.00000000000E+00 0.  1.
         25    2    1    2    0    0 -0.47323224202E+01  0.14592587062E+03  0.37853032897E+03  0.42455759406E+03  0.12508871307E+03 0.  0.
          5    1    3    3  502    0  0.42853291041E+01  0.66334588011E+02  0.42320129937E+02  0.78912023228E+02  0.41800000000E+01 0. -1.
         -5    1    3    3    0  502 -0.90176515244E+01  0.79591282610E+02  0.33621019903E+03  0.34564557084E+03  0.41800000000E+01 0. -1.
        -11    1    1    2    0    0  0.17952605295E+02 -0.57392707014E+02  0.12878586646E+03  0.14213380406E+03  0.00000000000E+00 0.  1.
         11    1    1    2    0    0 -0.13220282875E+02 -0.88533163607E+02  0.36215697873E+02  0.96563314514E+02  0.00000000000E+00 0. -1.
</event>
<event>
 7    1  0.2612213E-009  0.1302210E+03  0.7561462E-02  0.1227128E+00
         -3   -1    0    0    0  501 -0.00000000000E+00  0.00000000000E+00  0.82661203390E+02  0.82661203390E+02  0.00000000000E+00 0.  1.
          3   -1    0    0  501    0  0.00000000000E+00 -0.00000000000E+00 -0.22393402029E+03  0.22393402029E+03  0.00000000000E+00 0. -1.
         25    2    1    2    0    0  0.57470572651E+02  0.51811415432E+02 -0.46462669561E+02  0.15426052705E+03  0.12510092347E+03 0.  0.
          5    1    3    3  502    0  0.50259124114E+02 -0.30377625192E+02 -0.40449817789E+02  0.71431364457E+02  0.41800000000E+01 0.  1.
         -5    1    3    3    0  502  0.72114485369E+01  0.82189040624E+02 -0.60128517716E+01  0.82829162588E+02  0.41800000000E+01 0.  1.
        -11    1    1    2    0    0  0.23893480478E+02 -0.30177743868E+01 -0.23509850181E+02  0.33655882504E+02  0.00000000000E+00 0. -1.
         11    1    1    2    0    0 -0.81364053130E+02 -0.48793641045E+02 -0.71300297153E+02  0.11867881413E+03  0.00000000000E+00 0.  1.
</event>
<event>
 7    1  0.2612213E-009  0.9750127E+02  0.7561462E-02  0.1285640E+00
         -4   -1    0    0    0  501 -0.00000000000E+00  0.00000000000E+00  0.59790107196E+03  0.59790107196E+03  0.00000000000E+00 0. -1.
          4   -1    0    0  501    0  0.00000000000E+00 -0.00000000000E+00 -0.22338918370E+02  0.22338918370E+02  0.00000000000E+00 0.  1.
         25    2    1    2    0    0 -0.27548804572E+02  0.84412120601E+01  0.40494028391E+03  0.42479910599E+03  0.12508979264E+03 0.  0.
          5    1    3    3  502    0 -0.48772810853E+02 -0.46995111558E+02  0.18914467610E+03  0.20094901962E+03  0.41800000000E+01 0.  1.
         -5    1    3    3    0  502  0.21224006280E+02  0.55436323618E+02  0.21579560781E+03  0.22385008637E+03  0.41800000000E+01 0.  1.
        -11    1    1    2    0    0 -0.17923524352E+02  0.75299708840E+01  0.14019738129E+01  0.19491503721E+02  0.00000000000E+00 0.  1.
         11    1    1    2    0    0  0.45472328925E+02 -0.15971182944E+02  0.16921989587E+03  0.17594938062E+03  0.00000000000E+00 0. -1.
</event>
<event>
 7    1  0.2612213E-009  0.2148343E+03  0.7561462E-02  0.1137794E+00
          2   -1    0    0  501    0  0.00000000000E+00  0.00000000000E+00  0.94528065492E+03  0.94528065492E+03  0.00000000000E+00 0.  1.
         -2   -1    0    0    0  501 -0.00000000000E+00 -0.00000000000E+00 -0.57761896508E+02  0.57761896508E+02  0.00000000000E+00 0. -1.
         25    2    1    2    0    0 -0.83615764385E+02 -0.18309042203E+03  0.36569697360E+03  0.43577115021E+03  0.12509404528E+03 0.  0.
          5    1    3    3  502    0 -0.77879585699E+02 -0.10891656072E+03  0.12289530468E+03  0.18179322149E+03  0.41800000000E+01 0. -1.
         -5    1    3    3    0  502 -0.57361786863E+01 -0.74173861314E+02  0.24280166892E+03  0.25397792872E+03  0.41800000000E+01 0. -1.
        -11    1    1    2    0    0  0.88912981684E+02  0.85144624594E+02  0.25979295339E+03  0.28748478923E+03  0.00000000000E+00 0.  1.
         11    1    1    2    0    0 -0.52972172986E+01  0.97945797440E+02  0.26202883143E+03  0.27978661199E+03  0.00000000000E+00 0. -1.
</event>
<event>
 7    1  0.2612213E-009  0.9358185E+02  0.7561462E-02  0.1294402E+00
         -2   -1    0    0    0  501 -0.00000000000E+00  0.00000000000E+00  0.29497797580E+03  0.29497797580E+03  0.00000000000E+00 0.  1.
          2   -1    0    0  501    0  0.00000000000E+00 -0.00000000000E+00 -0.81219383459E+02  0.81219383459E+02  0.00000000000E+00 0. -1.
         25    2    1    2    0    0  0.27177214675E+02  0.63059436895E+02  0.23769666535E+03  0.27724000414E+03  0.12508885481E+03 0.  0.
          5    1    3    3  502    0 -0.13990717099E+02  0.57996410269E+02  0.32930086468E+02  0.68272884543E+02  0.41800000000E+01 0.  1.
         -5    1    3    3    0  502  0.41167931775E+02  0.50630266261E+01  0.20476657888E+03  0.20896711959E+03  0.41800000000E+01 0.  1.
        -11    1    1    2    0    0 -0.36884548436E+02 -0.20874530763E+02  0.10475639775E+02  0.43657244263E+02  0.00000000000E+00 0.  1.
         11    1    1    2    0    0  0.97073337603E+01 -0.42184906132E+02 -0.34413712780E+02  0.55300110862E+02  0.00000000000E+00 0. -1.
</event>
<event>
 7    1  0.3369087E-009  0.7855326E+02  0.7561462E-02  0.1333208E+00
          2   -1    0    0  501    0  0.00000000000E+00  0.00000000000E+00  0.36053985768E+02  0.36053985768E+02  0.00000000000E+00 0. -1.
         -2   -1    0    0    0  501 -0.00000000000E+00 -0.00000000000E+00 -0.49180371851E+03  0.49180371851E+03  0.00000000000E+00 0.  1.
         25    2    1    2    0    0 -0.70646005014E+02 -0.15821479611E+02 -0.30627467447E+03  0.33866307251E+03  0.12508926102E+03 0.  0.
          5    1    3    3  502    0 -0.33667178863E+01 -0.34921256903E+01  0.11727151231E+02  0.13361444801E+02  0.41800000000E+01 0.  1.
         -5    1    3    3    0  502 -0.67279287128E+02 -0.12329353920E+02 -0.31800182570E+03  0.32530162771E+03  0.41800000000E+01 0.  1.
        -11    1    1    2    0    0  0.52648446594E+02 -0.69999129222E+01 -0.20411344746E+02  0.56898863820E+02  0.00000000000E+00 0. -1.
         11    1    1    2    0    0  0.17997558420E+02  0.22821392533E+02 -0.12906371353E+03  0.13229576794E+03  0.00000000000E+00 0.  1.
</event>
<event>
 7    1  0.2612213E-009  0.1800331E+03  0.7561462E-02  0.1167771E+00
          1   -1    0    0  501    0  0.00000000000E+00  0.00000000000E+00  0.22888421822E+03  0.22888421822E+03  0.00000000000E+00 0. -1.
         -1   -1    0    0    0  501 -0.00000000000E+00 -0.00000000000E+00 -0.17661064879E+03  0.17661064879E+03  0.00000000000E+00 0.  1.
         25    2    1    2    0    0 -0.86890292827E+02  0.12662258030E+03  0.98457419620E+02  0.22119193782E+03  0.12509519995E+03 0.  0.
          5    1    3    3  502    0  0.30630240010E+02  0.44740510324E+02  0.33409361200E+02  0.63824624425E+02  0.41800000000E+01 0.  1.
         -5    1    3    3    0  502 -0.11752053284E+03  0.81882069972E+02  0.65048058419E+02  0.15736731340E+03  0.41800000000E+01 0.  1.
        -11    1    1    2    0    0  0.57777072877E+02 -0.38113611794E+02  0.17562345690E+02  0.71409197869E+02  0.00000000000E+00 0. -1.
         11    1    1    2    0    0  0.29113219951E+02 -0.88508968502E+02 -0.63746195885E+02  0.11289373132E+03  0.00000000000E+00 0.  1.
</event>
<event>
 7    1  0.2612213E-009  0.1574274E+03  0.7561462E-02  0.1191632E+00
         -1   -1    0    0    0  501 -0.00000000000E+00  0.00000000000E+00  0.24218619014E+02  0.24218619014E+02  0.00000000000E+00 0.  1.
          1   -1    0    0  501    0  0.00000000000E+00 -0.00000000000E+00 -0.12864164749E+04  0.12864164749E+04  0.00000000000E+00 0. -1.
         25    2    1    2    0    0  0.85589700880E+02  0.10084260304E+03 -0.83742038221E+03  0.85698015354E+03  0.12508900641E+03 0.  0.
          5    1    3    3  502    0 -0.15667539362E+02  0.21940676585E+02 -0.40425529376E+03  0.40517487584E+03  0.41800000000E+01 0. -1.
         -5    1    3    3    0  502  0.10125724024E+03  0.78901926458E+02 -0.43316508845E+03  0.45180527769E+03  0.41800000000E+01 0. -1.
        -11    1    1    2    0    0 -0.70286293742E+02 -0.14909522409E+02 -0.18254516293E+03  0.19617643451E+03  0.00000000000E+00 0. -1.
         11    1    1    2    0    0 -0.15303407138E+02 -0.85933080635E+02 -0.24223231073E+03  0.25747850586E+03  0.00000000000E+00 0.  1.
</event>
<event>
 7    1  0.2612213E-009  0.9034969E+02  0.7561462E-02  0.1302007E+00
         -1   -1    0    0    0  501 -0.00000000000E+00  0.00000000000E+00  0.49884312159E+02  0.49884312159E+02  0.00000000000E+00 0. -1.
          1   -1    0    0  501    0  0.00000000000E+00 -0.00000000000E+00 -0.26753572455E+03  0.26753572455E+03  0.00000000000E+00 0.  1.
         25    2    1    2    0    0 -0.15042467500E+02  0.31878713095E+02 -0.10029027864E+03  0.16415876852E+03  0.12508970028E+03 0.  0.
          5    1    3    3  502    0 -0.61991673121E+01  0.77269196903E+02 -0.37903284426E+02  0.86389176612E+02  0.41800000000E+01 0.  1.
         -5    1    3    3    0  502 -0.88433001882E+01 -0.45390483808E+02 -0.62386994215E+02  0.77769591909E+02  0.41800000000E+01 0.  1.
        -11    1    1    2    0    0  0.23367273521E+02 -0.39143590880E+02 -0.12923616111E+03  0.13704099940E+03  0.00000000000E+00 0.  1.
         11    1    1    2    0    0 -0.83248060208E+01  0.72648777857E+01  0.11875027363E+02  0.16220268783E+02  0.00000000000E+00 0. -1.
</event>
<event>
 7    1  0.2612213E-009  0.1104328E+03  0.7561462E-02  0.1259770E+00
          2   -1    0    0  501    0  0.00000000000E+00  0.00000000000E+00  0.14705042590E+04  0.14705042590E+04  0.00000000000E+00 0.  1.
         -2   -1    0    0    0  501 -0.00000000000E+00 -0.00000000000E+00 -0.10623732542E+02  0.10623732542E+02  0.00000000000E+00 0. -1.
         25    2    1    2    0    0 -0.30900137063E+02 -0.31995042065E+02  0.10773492700E+04  0.10854986017E+04  0.12508902273E+03 0.  0.
          5    1    3    3  502    0  0.43000660699E+02 -0.13801903543E+01  0.20663316067E+03  0.21110589104E+03  0.41800000000E+01 0.  1.
         -5    1    3    3    0  502 -0.73900797762E+02 -0.30614851711E+02  0.87071610934E+03  0.87439271070E+03  0.41800000000E+01 0.  1.
        -11    1    1    2    0    0  0.58214519034E+02  0.38836657127E+01  0.27642228194E+03  0.28251246174E+03  0.00000000000E+00 0.  1.
         11    1    1    2    0    0 -0.27314381971E+02  0.28111376352E+02  0.10610897454E+03  0.11311692809E+03  0.00000000000E+00 0. -1.
</event>
<event>
 7    1  0.2612213E-009  0.2057366E+03  0.7561462E-02  0.1144987E+00
          2   -1    0    0  501    0  0.00000000000E+00  0.00000000000E+00  0.14961419395E+04  0.14961419395E+04  0.00000000000E+00 0. -1.
         -2   -1    0    0    0  501 -0.00000000000E+00 -0.00000000000E+00 -0.33474272634E+02  0.33474272634E+02  0.00000000000E+00 0.  1.
         25    2    1    2    0    0  0.17668486873E+03  0.33585517770E+02  0.10259815670E+04  0.10491045246E+04  0.12504638250E+03 0.  0.
          5    1    3    3  502    0 -0.14907634073E+02 -0.10628715489E+02  0.15845380207E+03  0.15956279935E+03  0.41800000000E+01 0.  1.
         -5    1    3    3    0  502  0.19159250280E+03  0.44214233259E+02  0.86752776495E+03  0.88954172522E+03  0.41800000000E+01 0.  1.
        -11    1    1    2    0    0 -0.14331126603E+03  0.69924022601E+01  0.27021211807E+03  0.30594378800E+03  0.00000000000E+00 0.  1.
         11    1    1    2    0    0 -0.33373602700E+02 -0.40577920030E+02  0.16647398177E+03  0.17456789957E+03  0.00000000000E+00 0. -1.
</event>
<event>
 7    1  0.2612213E-009  0.1878179E+03  0.7561462E-02  0.1160444E+00
          1   -1    0    0  501    0  0.00000000000E+00  0.00000000000E+00  0.85900302524E+02  0.85900302524E+02  0.00000000000E+00 0. -1.
         -1   -1    0    0    0  501 -0.00000000000E+00 -0.00000000000E+00 -0.46546361297E+03  0.46546361297E+03  0.00000000000E+00 0.  1.
         25    2    1    2    0    0 -0.14313926610E+03  0.85744661723E+02 -0.21816084243E+03  0.30179813065E+03  0.12508781707E+03 0.  0.
          5    1    3    3  502    0 -0.80468012924E+02 -0.14999724036E+02 -0.13096298898E+03  0.15449553297E+03  0.41800000000E+01 0.  1.
         -5    1    3    3    0  502 -0.62671253177E+02  0.10074438576E+03 -0.87197853445E+02  0.14730259768E+03  0.41800000000E+01 0.  1.
        -11    1    1    2    0    0  0.11584642491E+03 -0.90808515457E+02 -0.88966288906E+02  0.17199296848E+03  0.00000000000E+00 0. -1.
         11    1    1    2    0    0  0.27292841191E+02  0.50638537340E+01 -0.72436179115E+02  0.77572816370E+02  0.00000000000E+00 0.  1.
</event>
<event>
 7    1  0.2612213E-009  0.1363884E+03  0.7561462E-02  0.1218273E+00
          1   -1    0    0  501    0  0.00000000000E+00  0.00000000000E+00  0.37393584480E+03  0.37393584480E+03  0.00000000000E+00 0. -1.
         -1   -1    0    0    0  501 -0.00000000000E+00 -0.00000000000E+00 -0.56002257373E+02  0.56002257373E+02  0.00000000000E+00 0.  1.
         25    2    1    2    0    0 -0.80852376003E+02  0.36618624179E+02  0.22083975176E+03  0.26889282009E+03  0.12512043157E+03 0.  0.
          5    1    3    3  502    0 -0.81179446447E+02 -0.23050094992E+02  0.17214503893E+03  0.19176234310E+03  0.41800000000E+01 0.  1.
         -5    1    3    3    0  502  0.32707044424E+00  0.59668719172E+02  0.48694712829E+02  0.77130476986E+02  0.41800000000E+01 0.  1.
        -11    1    1    2    0    0  0.16479169926E+02  0.31000451539E+02  0.25414866582E+02  0.43341740625E+02  0.00000000000E+00 0.  1.
         11    1    1    2    0    0  0.64373206078E+02 -0.67619075718E+02  0.71678969083E+02  0.11770354145E+03  0.00000000000E+00 0. -1.
</event>
<event>
 7    1  0.2612213E-009  0.1166867E+03  0.7561462E-02  0.1248665E+00
         -1   -1    0    0    0  501 -0.00000000000E+00  0.00000000000E+00  0.11802696491E+03  0.11802696491E+03  0.00000000000E+00 0.  1.
          1   -1    0    0  501    0  0.00000000000E+00 -0.00000000000E+00 -0.14510248940E+03  0.14510248940E+03  0.00000000000E+00 0. -1.
         25    2    1    2    0    0  0.56162236378E+02 -0.15274286459E+02  0.14567616028E+02  0.13872803476E+03  0.12508297874E+03 0.  0.
          5    1    3    3  502    0 -0.80839807659E+01 -0.58367802361E+02  0.16142150905E+02  0.61238815577E+02  0.41800000000E+01 0. -1.
         -5    1    3    3    0  502  0.64246217144E+02  0.43093515902E+02 -0.15745348772E+01  0.77489219186E+02  0.41800000000E+01 0. -1.
        -11    1    1    2    0    0  0.64950656082E+01  0.31451494339E+02  0.17638951403E+02  0.36640346341E+02  0.00000000000E+00 0.  1.
         11    1    1    2    0    0 -0.62657301986E+02 -0.16177207880E+02 -0.59282091922E+02  0.87761073202E+02  0.00000000000E+00 0. -1.
</event>
<event>
 7    1  0.2612213E-009  0.2134716E+03  0.7561462E-02  0.1138846E+00
         -2   -1    0    0    0  501 -0.00000000000E+00  0.00000000000E+00  0.78648324607E+02  0.78648324607E+02  0.00000000000E+00 0.  1.
          2   -1    0    0  501    0  0.00000000000E+00 -0.00000000000E+00 -0.89186675088E+03  0.89186675088E+03  0.00000000000E+00 0. -1.
         25    2    1    2    0    0 -0.90536233950E+02  0.16150824311E+03 -0.13405623068E+03  0.26057486088E+03  0.12508582209E+03 0.  0.
          5    1    3    3  502    0 -0.13608462565E+02  0.14359481954E+03 -0.89243953071E+02  0.16966619584E+03  0.41800000000E+01 0.  1.
         -5    1    3    3    0  502 -0.76927771385E+02  0.17913423572E+02 -0.44812277613E+02  0.90908665039E+02  0.41800000000E+01 0.  1.
        -11    1    1    2    0    0  0.10666074497E+03 -0.14847352151E+03 -0.56286005861E+03  0.59180431452E+03  0.00000000000E+00 0.  1.
         11    1    1    2    0    0 -0.16124511015E+02 -0.13034721606E+02 -0.11630213698E+03  0.11813590009E+03  0.00000000000E+00 0. -1.
</event>
<event>
 7    1  0.2612213E-009  0.1083269E+03  0.7561462E-02  0.1263700E+00
          1   -1    0    0  501    0  0.00000000000E+00  0.00000000000E+00  0.32639138564E+02  0.32639138564E+02  0.00000000000E+00 0. -1.
         -1   -1    0    0    0  501 -0.00000000000E+00 -0.00000000000E+00 -0.77537813525E+03  0.77537813525E+03  0.00000000000E+00 0.  1.
         25    2    1    2    0    0  0.92115497820E+02  0.17220796137E+02 -0.57376942991E+03  0.59467820899E+03  0.12509593435E+03 0.  0.
          5    1    3    3  502    0  0.66736743752E+02  0.44259029333E+01 -0.55779887087E+03  0.56180996282E+03  0.41800000000E+01 0.  1.
         -5    1    3    3    0  502  0.25378754067E+02  0.12794893204E+02 -0.15970559042E+02  0.32868246169E+02  0.41800000000E+01 0.  1.
        -11    1    1    2    0    0 -0.96897381052E+02  0.61166848456E+01 -0.16138376359E+03  0.18833808813E+03  0.00000000000E+00 0.  1.
         11    1    1    2    0    0  0.47818832323E+01 -0.23337480983E+02 -0.75858031852E+01  0.25000976698E+02  0.00000000000E+00 0. -1.
</event>
<event>
 7    1  0.2612213E-009  0.1004450E+03  0.7561462E-02  0.1279363E+00
         -1   -1    0    0    0  501 -0.00000000000E+00  0.00000000000E+00  0.43734464855E+02  0.43734464855E+02  0.00000000000E+00 0.  1.
          1   -1    0    0  501    0  0.00000000000E+00 -0.00000000000E+00 -0.35255132112E+03  0.35255132112E+03  0.00000000000E+00 0. -1.
         25    2    1    2    0    0  0.49380920065E+02  0.24054855641E+02 -0.20481450203E+03  0.24619909235E+03  0.12509157240E+03 0.  0.
          5    1    3    3  502    0 -0.26878836331E+02  0.11671465425E+02 -0.26309079558E+01  0.29716813833E+02  0.41800000000E+01 0. -1.
         -5    1    3    3    0  502  0.76259756396E+02  0.12383390216E+02 -0.20218359407E+03  0.21648227852E+03  0.41800000000E+01 0. -1.
        -11    1    1    2    0    0 -0.11325429945E+02 -0.47759407568E+02 -0.16528203058E+02  0.51791967244E+02  0.00000000000E+00 0.  1.
         11    1    1    2    0    0 -0.38055490120E+02  0.23704551927E+02 -0.87474151179E+02  0.98294726383E+02  0.00000000000E+00 0. -1.
</event>
<event>
 7    1  0.2612213E-009  0.2391462E+03  0.7561462E-02  0.1120363E+00
         -1   -1    0    0    0  501 -0.00000000000E+00  0.00000000000E+00  0.27377040468E+02  0.27377040468E+02  0.00000000000E+00 0.  1.
          1   -1    0    0  501    0  0.00000000000E+00 -0.00000000000E+00 -0.22943907220E+04  0.22943907220E+04  0.00000000000E+00 0. -1.
         25    2    1    2    0    0 -0.93973810771E+02 -0.19465191383E+03 -0.14563001511E+04  0.14775582341E+04  0.12509100852E+03 0.  0.
          5    1    3    3  502    0  0.10472726183E+02 -0.11054035528E+03 -0.52382621393E+03  0.53548130027E+03  0.41800000000E+01 0. -1.
         -5    1    3    3    0  502 -0.10444653695E+03 -0.84111558545E+02 -0.93247393716E+03  0.94207693383E+03  0.41800000000E+01 0. -1.
        -11    1    1    2    0    0  0.10932138886E+03  0.18497807531E+03 -0.70729960783E+03  0.73921633480E+03  0.00000000000E+00 0.  1.
         11    1    1    2    0    0 -0.15347578091E+02  0.96738385193E+01 -0.10341392256E+03  0.10499319352E+03  0.00000000000E+00 0. -1.
</event>
<event>
 7    1  0.2612213E-009  0.1172057E+03  0.7561462E-02  0.1247779E+00
         -1   -1    0    0    0  501 -0.00000000000E+00  0.00000000000E+00  0.57981229865E+02  0.57981229865E+02  0.00000000000E+00 0.  1.
          1   -1    0    0  501    0  0.00000000000E+00 -0.00000000000E+00 -0.46953666153E+03  0.46953666153E+03  0.00000000000E+00 0. -1.
         25    2    1    2    0    0  0.11144106516E+03 -0.12771531131E+02 -0.30479758430E+03  0.34804080953E+03  0.12509442311E+03 0.  0.
          5    1    3    3  502    0  0.34086431964E+02 -0.25510600810E+02 -0.24667980721E+03  0.25036188864E+03  0.41800000000E+01 0.  1.
         -5    1    3    3    0  502  0.77354633196E+02  0.12739069679E+02 -0.58117777091E+02  0.97678920895E+02  0.41800000000E+01 0.  1.
        -11    1    1    2    0    0 -0.49008915576E+02  0.12949296878E+02 -0.10548391727E+03  0.11703168331E+03  0.00000000000E+00 0. -1.
         11    1    1    2    0    0 -0.62432149584E+02 -0.17776574726E+00 -0.12739300928E+01  0.62445398551E+02  0.00000000000E+00 0.  1.
</event>
<event>
 7    1  0.2612213E-009  0.1080062E+03  0.7561462E-02  0.1264307E+00
         -2   -1    0    0    0  501 -0.00000000000E+00  0.00000000000E+00  0.22388104190E+02  0.22388104190E+02  0.00000000000E+00 0.  1.
          2   -1    0    0  501    0  0.00000000000E+00 -0.00000000000E+00 -0.16613383606E+04  0.16613383606E+04  0.00000000000E+00 0. -1.
         25    2    1    2    0    0 -0.85721353116E+02  0.42769686459E+02 -0.14255023280E+04  0.14341832302E+04  0.12508898542E+03 0.  0.
          5    1    3    3  502    0 -0.80081668577E+01  0.73436371700E+01 -0.80498331622E+01  0.14153867219E+02  0.41800000000E+01 0. -1.
         -5    1    3    3    0  502 -0.77713186258E+02  0.35426049289E+02 -0.14174524948E+04  0.14200293630E+04  0.41800000000E+01 0. -1.
        -11    1    1    2    0    0  0.25449343552E+02 -0.51993473441E+02 -0.15342785814E+03  0.16398505426E+03  0.00000000000E+00 0.  1.
         11    1    1    2    0    0  0.60272009564E+02  0.92237869826E+01 -0.60020070309E+02  0.85558180340E+02  0.00000000000E+00 0. -1.
</event>
<event>
 7    1  0.2612213E-009  0.2863301E+03  0.7561462E-02  0.1092281E+00
         -2   -1    0    0    0  501 -0.00000000000E+00  0.00000000000E+00  0.31273352672E+03  0.31273352672E+03  0.00000000000E+00 0.  1.
          2   -1    0    0  501    0  0.00000000000E+00 -0.00000000000E+00 -0.28180516764E+03  0.28180516764E+03  0.00000000000E+00 0. -1.
         25    2    1    2    0    0 -0.24629800442E+03 -0.12177809128E+03  0.41230051555E+02  0.30470152408E+03  0.12510192297E+03 0.  0.
          5    1    3    3  502    0 -0.10876159618E+03 -0.11049806385E+03 -0.14582898383E+02  0.15578523757E+03  0.41800000000E+01 0.  1.
         -5    1    3    3    0  502 -0.13753640824E+03 -0.11280027429E+02  0.55812949937E+02  0.14891628652E+03  0.41800000000E+01 0.  1.
        -11    1    1    2    0    0  0.21738216500E+03  0.86690553823E+02  0.20488272416E+02  0.23492557777E+03  0.00000000000E+00 0.  1.
         11    1    1    2    0    0  0.28915839421E+02  0.35087537454E+02 -0.30789964887E+02  0.54911592508E+02  0.00000000000E+00 0. -1.
</event>
<event>
 7    1  0.2612213E-009  0.1257476E+03  0.7561462E-02  0.1233906E+00
          1   -1    0    0  501    0  0.00000000000E+00  0.00000000000E+00  0.18678733700E+03  0.18678733700E+03  0.00000000000E+00 0. -1.
         -1   -1    0    0    0  501 -0.00000000000E+00 -0.00000000000E+00 -0.15601767616E+03  0.15601767616E+03  0.00000000000E+00 0.  1.
         25    2    1    2    0    0 -0.84601621774E+02  0.78575615907E+02  0.79137428534E+02  0.18772824831E+03  0.12509037053E+03 0.  0.
          5    1    3    3  502    0 -0.30805658742E+02  0.43026955306E+02 -0.29943353012E+02  0.60945748687E+02  0.41800000000E+01 0. -1.
         -5    1    3    3    0  502 -0.53795963032E+02  0.35548660601E+02  0.10908078155E+03  0.12678249963E+03  0.41800000000E+01 0. -1.
        -11    1    1    2    0    0  0.11341184572E+02  0.12522728959E+02 -0.33126009682E+02  0.37185665592E+02  0.00000000000E+00 0.  1.
         11    1    1    2    0    0  0.73260437202E+02 -0.91098344866E+02 -0.15241758009E+02  0.11789109926E+03  0.00000000000E+00 0. -1.
</event>
<event>
 7    1  0.2612213E-009  0.1471969E+03  0.7561462E-02  0.1203960E+00
          1   -1    0    0  501    0  0.00000000000E+00  0.00000000000E+00  0.65538151048E+03  0.65538151048E+03  0.00000000000E+00 0. -1.
         -1   -1    0    0    0  501 -0.00000000000E+00 -0.00000000000E+00 -0.38962612458E+02  0.38962612458E+02  0.00000000000E+00 0.  1.
         25    2    1    2    0    0 -0.70024032719E+02 -0.74542438490E+02  0.46177214026E+03  0.48922374857E+03  0.12508567603E+03 0.  0.
          5    1    3    3  502    0 -0.81554440709E+02  0.43052869314E+01  0.23540009460E+03  0.24919939654E+03  0.41800000000E+01 0.  1.
         -5    1    3    3    0  502  0.11530407990E+02 -0.78847725422E+02  0.22637204566E+03  0.24002435203E+03  0.41800000000E+01 0.  1.
        -11    1    1    2    0    0  0.31752376983E+02  0.86969236254E+02  0.90985884008E+02  0.12980867686E+03  0.00000000000E+00 0. -1.
         11    1    1    2    0    0  0.38271655736E+02 -0.12426797764E+02  0.63660873755E+02  0.75311697516E+02  0.00000000000E+00 0.  1.
</event>
<event>
 7    1  0.2612213E-009  0.1079292E+03  0.7561462E-02  0.1264453E+00
          1   -1    0    0  501    0  0.00000000000E+00  0.00000000000E+00  0.28035088819E+02  0.28035088819E+02  0.00000000000E+00 0. -1.
         -1   -1    0    0    0  501 -0.00000000000E+00 -0.00000000000E+00 -0.61907419059E+03  0.61907419059E+03  0.00000000000E+00 0.  1.
         25    2    1    2    0    0 -0.55363312576E+02  0.26714065907E+01 -0.46276036401E+03  0.48256167107E+03  0.12508548714E+03 0.  0.
          5    1    3    3  502    0 -0.88858696218E+02  0.95386296428E+01 -0.40930484582E+03  0.41896871310E+03  0.41800000000E+01 0. -1.
         -5    1    3    3    0  502  0.33495383642E+02 -0.68672230521E+01 -0.53455518197E+02  0.63592957971E+02  0.41800000000E+01 0. -1.
        -11    1    1    2    0    0  0.31092819450E+02 -0.37989503403E+02 -0.10469533220E+03  0.11563337915E+03  0.00000000000E+00 0.  1.
         11    1    1    2    0    0  0.24270493125E+02  0.35318096812E+02 -0.23583405561E+02  0.48914229185E+02  0.00000000000E+00 0. -1.
</event>
<event>
 7    1  0.2612213E-009  0.5806403E+02  0.7561462E-02  0.1406140E+00
         -3   -1    0    0    0  501 -0.00000000000E+00  0.00000000000E+00  0.90923332217E+02  0.90923332217E+02  0.00000000000E+00 0.  1.
          3   -1    0    0  501    0  0.00000000000E+00 -0.00000000000E+00 -0.14888545912E+03  0.14888545912E+03  0.00000000000E+00 0. -1.
         25    2    1    2    0    0  0.36938513179E+02 -0.34009097198E+01 -0.18534803944E+02  0.13178541133E+03  0.12509130961E+03 0.  0.
          5    1    3    3  502    0  0.41200591698E+02 -0.19051067050E+02 -0.66701250570E+02  0.80789610344E+02  0.41800000000E+01 0. -1.
         -5    1    3    3    0  502 -0.42620785193E+01  0.15650157330E+02  0.48166446625E+02  0.50995800987E+02  0.41800000000E+01 0. -1.
        -11    1    1    2    0    0 -0.14162266952E+02  0.20778173852E+02  0.26261718524E+02  0.36359045280E+02  0.00000000000E+00 0.  1.
         11    1    1    2    0    0 -0.22776246227E+02 -0.17377264132E+02 -0.65689041479E+02  0.71664334723E+02  0.00000000000E+00 0. -1.
</event>
<event>
 7    1  0.2612213E-009  0.1233875E+03  0.7561462E-02  0.1237611E+00
          2   -1    0    0  501    0  0.00000000000E+00  0.00000000000E+00  0.43488971101E+03  0.43488971101E+03  0.00000000000E+00 0. -1.
         -2   -1    0    0    0  501 -0.00000000000E+00 -0.00000000000E+00 -0.39725962046E+02  0.39725962046E+02  0.00000000000E+00 0.  1.
         25    2    1    2    0    0 -0.63093408058E+02  0.39540568841E+02  0.20432190912E+03  0.25088967265E+03  0.12511574871E+03 0.  0.
          5    1    3    3  502    0 -0.75503582967E+02 -0.12247868378E+02  0.60963130992E+02  0.97901874655E+02  0.41800000000E+01 0.  1.
         -5    1    3    3    0  502  0.12410174909E+02  0.51788437219E+02  0.14335877813E+03  0.15298779800E+03  0.41800000000E+01 0.  1.
        -11    1    1    2    0    0  0.67834415642E+02 -0.63145177002E+02  0.15249302814E+03  0.17844591605E+03  0.00000000000E+00 0.  1.
         11    1    1    2    0    0 -0.47410075839E+01  0.23604608162E+02  0.38348811703E+02  0.45280084346E+02  0.00000000000E+00 0. -1.
</event>
<event>
 7    1  0.2612213E-009  0.1019391E+03  0.7561462E-02  0.1276270E+00
         -2   -1    0    0    0  501 -0.00000000000E+00  0.00000000000E+00  0.11637415149E+03  0.11637415149E+03  0.00000000000E+00 0.  1.
          2   -1    0    0  501    0  0.00000000000E+00 -0.00000000000E+00 -0.14219317791E+03  0.14219317791E+03  0.00000000000E+00 0. -1.
         25    2    1    2    0    0  0.44742946307E+02 -0.18844998450E+02  0.35100047318E+02  0.13869968494E+03  0.12509406089E+03 0.  0.
          5    1    3    3  502    0  0.76950155099E+02 -0.16178113487E+02 -0.13793060019E+02  0.79942345665E+02  0.41800000000E+01 0.  1.
         -5    1    3    3    0  502 -0.32207208792E+02 -0.26668849628E+01  0.48893107337E+02  0.58757339274E+02  0.41800000000E+01 0.  1.
        -11    1    1    2    0    0 -0.70902942192E+01  0.45733799216E+02 -0.57016634167E+02  0.73435340502E+02  0.00000000000E+00 0. -1.
         11    1    1    2    0    0 -0.37652652088E+02 -0.26888800766E+02 -0.39024395730E+01  0.46432303954E+02  0.00000000000E+00 0.  1.
</event>
<event>
 7    1  0.2612213E-009  0.1134530E+03  0.7561462E-02  0.1254306E+00
          3   -1    0    0  501    0  0.00000000000E+00  0.00000000000E+00  0.23446795438E+03  0.23446795438E+03  0.00000000000E+00 0. -1.
         -3   -1    0    0    0  501 -0.00000000000E+00 -0.00000000000E+00 -0.88833819853E+02  0.88833819853E+02  0.00000000000E+00 0.  1.
         25    2    1    2    0    0  0.74674004977E+02 -0.97041023762E+01  0.14390516050E+03  0.20500301438E+03  0.12508862484E+03 0.  0.
          5    1    3    3  502    0 -0.26391832718E+02 -0.22492472754E+02  0.93031018851E+01  0.36144989549E+02  0.41800000000E+01 0. -1.
         -5    1    3    3    0  502  0.10106583769E+03  0.12788370378E+02  0.13460205861E+03  0.16885802483E+03  0.41800000000E+01 0. -1.
        -11    1    1    2    0    0 -0.48490610625E+02 -0.18165521342E+02 -0.37177893207E+02  0.63745754586E+02  0.00000000000E+00 0.  1.
         11    1    1    2    0    0 -0.26183394351E+02  0.27869623718E+02  0.38906867237E+02  0.54553005272E+02  0.00000000000E+00 0. -1.
</event>
<event>
 7    1  0.2612213E-009  0.2460672E+03  0.7561462E-02  0.1115816E+00
         -1   -1    0    0    0  501 -0.00000000000E+00  0.00000000000E+00  0.11807638508E+03  0.11807638508E+03  0.00000000000E+00 0.  1.
          1   -1    0    0  501    0  0.00000000000E+00 -0.00000000000E+00 -0.65193966000E+03  0.65193966000E+03  0.00000000000E+00 0. -1.
         25    2    1    2    0    0  0.11372123988E+03  0.21644135989E+03 -0.37475408830E+03  0.46461547006E+03  0.12509007017E+03 0.  0.
          5    1    3    3  502    0  0.64299724517E+02  0.15935380570E+03 -0.34085195781E+03  0.38174025136E+03  0.41800000000E+01 0.  1.
         -5    1    3    3    0  502  0.49421515364E+02  0.57087554181E+02 -0.33902130492E+02  0.82875218704E+02  0.41800000000E+01 0.  1.
        -11    1    1    2    0    0 -0.88808222665E+02 -0.16181697399E+03 -0.16157548939E+03  0.24531260110E+03  0.00000000000E+00 0.  1.
         11    1    1    2    0    0 -0.24913017217E+02 -0.54624385893E+02  0.24663027688E+01  0.60087973924E+02  0.00000000000E+00 0. -1.
</event>
<event>
 7    1  0.2612213E-009  0.1124568E+03  0.7561462E-02  0.1256087E+00
          3   -1    0    0  501    0  0.00000000000E+00  0.00000000000E+00  0.17924646562E+03  0.17924646562E+03  0.00000000000E+00 0. -1.
         -3   -1    0    0    0  501 -0.00000000000E+00 -0.00000000000E+00 -0.10551524931E+03  0.10551524931E+03  0.00000000000E+00 0.  1.
         25    2    1    2    0    0 -0.65875454158E+02  0.17299388815E+02  0.90642789363E+02  0.16882583328E+03  0.12508877810E+03 0.  0.
          5    1    3    3  502    0 -0.10620359457E+02 -0.42471062863E+02 -0.37217878063E+01  0.44135103038E+02  0.41800000000E+01 0. -1.
         -5    1    3    3    0  502 -0.55255094701E+02  0.59770451678E+02  0.94364577169E+02  0.12469073024E+03  0.41800000000E+01 0. -1.
        -11    1    1    2    0    0  0.32545934155E+02 -0.45382982648E+02  0.19490233761E+02  0.59149997093E+02  0.00000000000E+00 0.  1.
         11    1    1    2    0    0  0.33329520003E+02  0.28083593833E+02 -0.36401806808E+02  0.56785884559E+02  0.00000000000E+00 0. -1.
</event>
<event>
 7    1  0.2612213E-009  0.1130352E+03  0.7561462E-02  0.1255050E+00
         -1   -1    0    0    0  501 -0.00000000000E+00  0.00000000000E+00  0.63722379455E+03  0.63722379455E+03  0.00000000000E+00 0.  1.
          1   -1    0    0  501    0  0.00000000000E+00 -0.00000000000E+00 -0.28113363261E+02  0.28113363261E+02  0.00000000000E+00 0. -1.
         25    2    1    2    0    0 -0.77366664990E+02 -0.29564699249E+02  0.29820071558E+03  0.33381632664E+03  0.12509996351E+03 0.  0.
          5    1    3    3  502    0 -0.44963919068E+02 -0.60784658728E+02  0.76807343834E+02  0.10785809762E+03  0.41800000000E+01 0.  1.
         -5    1    3    3    0  502 -0.32402745922E+02  0.31219959479E+02  0.22139337174E+03  0.22595822903E+03  0.41800000000E+01 0.  1.
        -11    1    1    2    0    0  0.22623008293E+02  0.43178984946E+02  0.21314843848E+03  0.21865150828E+03  0.00000000000E+00 0.  1.
         11    1    1    2    0    0  0.54743656697E+02 -0.13614285697E+02  0.97761277230E+02  0.11286932289E+03  0.00000000000E+00 0. -1.
</event>
<event>
 7    1  0.2612213E-009  0.1598649E+03  0.7561462E-02  0.1188849E+00
         -1   -1    0    0    0  501 -0.00000000000E+00  0.00000000000E+00  0.60262423391E+02  0.60262423391E+02  0.00000000000E+00 0.  1.
          1   -1    0    0  501    0  0.00000000000E+00 -0.00000000000E+00 -0.55610907672E+03  0.55610907672E+03  0.00000000000E+00 0. -1.
         25    2    1    2    0    0  0.79085167361E+02  0.11417073908E+03 -0.34933674271E+03  0.39619792432E+03  0.12508882471E+03 0.  0.
          5    1    3    3  502    0 -0.11454169138E+02 -0.66577493494E+01  0.17467247361E+01  0.14001680768E+02  0.41800000000E+01 0. -1.
         -5    1    3    3    0  502  0.90539336498E+02  0.12082848843E+03 -0.35108346745E+03  0.38219624355E+03  0.41800000000E+01 0. -1.
        -11    1    1    2    0    0 -0.16248259813E+02 -0.83138499529E+02 -0.42549126705E+02  0.94796857723E+02  0.00000000000E+00 0.  1.
         11    1    1    2    0    0 -0.62836907547E+02 -0.31032239550E+02 -0.10396078391E+03  0.12537671806E+03  0.00000000000E+00 0. -1.
</event>
<event>
 7    1  0.2612213E-009  0.1048179E+03  0.7561462E-02  0.1270479E+00
          1   -1    0    0  501    0  0.00000000000E+00  0.00000000000E+00  0.91137899558E+02  0.91137899558E+02  0.00000000000E+00 0. -1.
         -1   -1    0    0    0  501 -0.00000000000E+00 -0.00000000000E+00 -0.13294773560E+03  0.13294773560E+03  0.00000000000E+00 0.  1.
         25    2    1    2    0    0 -0.51777167627E+01  0.16477435555E+02 -0.55668131505E+01  0.12639848366E+03  0.12508905879E+03 0.  0.
          5    1    3    3  502    0 -0.62109434856E+02  0.10900052951E+02 -0.21695149358E+02  0.66817250453E+02  0.41800000000E+01 0. -1.
         -5    1    3    3    0  502  0.56931718093E+02  0.55773826045E+01  0.16128336208E+02  0.59581233208E+02  0.41800000000E+01 0. -1.
        -11    1    1    2    0    0 -0.41163353638E+02 -0.64002947164E+01 -0.77829981160E+01  0.42378774344E+02  0.00000000000E+00 0. -1.
         11    1    1    2    0    0  0.46341070401E+02 -0.10077140839E+02 -0.28460024779E+02  0.55308377158E+02  0.00000000000E+00 0.  1.
</event>
<event>
 7    1  0.2612213E-009  0.2401660E+03  0.7561462E-02  0.1119682E+00
          1   -1    0    0  501    0  0.00000000000E+00  0.00000000000E+00  0.13757728494E+03  0.13757728494E+03  0.00000000000E+00 0. -1.
         -1   -1    0    0    0  501 -0.00000000000E+00 -0.00000000000E+00 -0.46198999385E+03  0.46198999385E+03  0.00000000000E+00 0.  1.
         25    2    1    2    0    0 -0.19869266393E+03  0.10773009307E+03 -0.12646269316E+03  0.28762065339E+03  0.12509308471E+03 0.  0.
          5    1    3    3  502    0 -0.19128764276E+03  0.12598495197E+03 -0.13482359312E+03  0.26581580852E+03  0.41800000000E+01 0. -1.
         -5    1    3    3    0  502 -0.74050211747E+01 -0.18254858896E+02  0.83608999613E+01  0.21804844876E+02  0.41800000000E+01 0. -1.
        -11    1    1    2    0    0  0.85803805238E+02 -0.19914205656E+02 -0.34097582715E+02  0.94453765024E+02  0.00000000000E+00 0. -1.
         11    1    1    2    0    0  0.11288885870E+03 -0.87815887418E+02 -0.16385243303E+03  0.21749286037E+03  0.00000000000E+00 0.  1.
</event>
<event>
 7    1  0.2612213E-009  0.2422215E+03  0.7561462E-02  0.1118322E+00
          2   -1    0    0  501    0  0.00000000000E+00  0.00000000000E+00  0.80721701557E+03  0.80721701557E+03  0.00000000000E+00 0. -1.
         -2   -1    0    0    0  501 -0.00000000000E+00 -0.00000000000E+00 -0.92853162592E+02  0.92853162592E+02  0.00000000000E+00 0.  1.
         25    2    1    2    0    0  0.10489773510E+03 -0.20696563548E+03  0.52255870132E+03  0.58528123519E+03  0.12509284089E+03 0.  0.
          5    1    3    3  502    0  0.71611452538E+02 -0.71263125583E+02  0.34376838788E+03  0.35833058774E+03  0.41800000000E+01 0. -1.
         -5    1    3    3    0  502  0.33286282560E+02 -0.13570250989E+03  0.17879031344E+03  0.22695064745E+03  0.41800000000E+01 0. -1.
        -11    1    1    2    0    0 -0.10973504531E+03  0.14731303763E+03  0.11238893151E+03  0.21534665810E+03  0.00000000000E+00 0.  1.
         11    1    1    2    0    0  0.48373102149E+01  0.59652597846E+02  0.79416220146E+02  0.99442284880E+02  0.00000000000E+00 0. -1.
</event>
<event>
 7    1  0.2612213E-009  0.1320717E+03  0.7561462E-02  0.1224414E+00
         -3   -1    0    0    0  501 -0.00000000000E+00  0.00000000000E+00  0.11084691366E+03  0.11084691366E+03  0.00000000000E+00 0.  1.
          3   -1    0    0  501    0  0.00000000000E+00 -0.00000000000E+00 -0.23077914195E+03  0.23077914195E+03  0.00000000000E+00 0. -1.
         25    2    1    2    0    0  0.84870640848E+02  0.64631451001E+02 -0.12446325010E+02  0.16487367207E+03  0.12509263207E+03 0.  0.
          5    1    3    3  502    0 -0.13609427058E+02  0.55947937871E+02  0.19434115293E+02  0.60914247053E+02  0.41800000000E+01 0. -1.
         -5    1    3    3    0  502  0.98480067907E+02  0.86835131307E+01 -0.31880440303E+02  0.10395942501E+03  0.41800000000E+01 0. -1.
        -11    1    1    2    0    0 -0.20682495721E+02 -0.23116706158E+02 -0.94183934922E+02  0.99160281011E+02  0.00000000000E+00 0. -1.
         11    1    1    2    0    0 -0.64188145128E+02 -0.41514744843E+02 -0.13301968356E+02  0.77592102539E+02  0.00000000000E+00 0.  1.
</event>
<event>
 7    1  0.3402753E-009  0.1065803E+03  0.7561462E-02  0.1267037E+00
          4   -1    0    0  501    0  0.00000000000E+00  0.00000000000E+00  0.47043194037E+03  0.47043194037E+03  0.00000000000E+00 0. -1.
         -4   -1    0    0    0  501 -0.00000000000E+00 -0.00000000000E+00 -0.47076086721E+02  0.47076086721E+02  0.00000000000E+00 0.  1.
         25    2    1    2    0    0  0.94344841772E+02 -0.24435999614E+02  0.18165077818E+03  0.24112568406E+03  0.12508606259E+03 0.  0.
          5    1    3    3  502    0  0.76107017703E+02 -0.16279263977E+02  0.23135980495E+02  0.81302143715E+02  0.41800000000E+01 0. -1.
         -5    1    3    3    0  502  0.18237824069E+02 -0.81567356367E+01  0.15851479768E+03  0.15982354034E+03  0.41800000000E+01 0. -1.
        -11    1    1    2    0    0 -0.41004623522E+02 -0.19778729955E+02  0.32317367480E+02  0.55830005818E+02  0.00000000000E+00 0.  1.
         11    1    1    2    0    0 -0.53340218250E+02  0.44214729569E+02  0.20938770799E+03  0.22055233721E+03  0.00000000000E+00 0. -1.
</event>
<event>
 7    1  0.2612213E-009  0.1340279E+03  0.7561462E-02  0.1221599E+00
         -2   -1    0    0    0  501 -0.00000000000E+00  0.00000000000E+00  0.48268164363E+03  0.48268164363E+03  0.00000000000E+00 0.  1.
          2   -1    0    0  501    0  0.00000000000E+00 -0.00000000000E+00 -0.41602578583E+02  0.41602578583E+02  0.00000000000E+00 0. -1.
         25    2    1    2    0    0 -0.56800548718E+02 -0.68538497959E+02  0.21361846858E+03  0.26306864723E+03  0.12509370488E+03 0.  0.
          5    1    3    3  502    0 -0.18014575308E+02  0.30108715727E+02  0.10693296242E+03  0.11261967208E+03  0.41800000000E+01 0.  1.
         -5    1    3    3    0  502 -0.38785973410E+02 -0.98647213687E+02  0.10668550615E+03  0.15044897515E+03  0.41800000000E+01 0.  1.
        -11    1    1    2    0    0  0.26244929964E+02  0.87046335714E+02  0.18156113605E+03  0.20305247360E+03  0.00000000000E+00 0.  1.
         11    1    1    2    0    0  0.30555618754E+02 -0.18507837755E+02  0.45899460424E+02  0.58163101387E+02  0.00000000000E+00 0. -1.
</event>
<event>
 7    1  0.2612213E-009  0.2050932E+03  0.7561462E-02  0.1145512E+00
          2   -1    0    0  501    0  0.00000000000E+00  0.00000000000E+00  0.23903749913E+04  0.23903749913E+04  0.00000000000E+00 0. -1.
         -2   -1    0    0    0  501 -0.00000000000E+00 -0.00000000000E+00 -0.28650763720E+02  0.28650763720E+02  0.00000000000E+00 0.  1.
         25    2    1    2    0    0  0.82068188345E+02 -0.15513840838E+03  0.19607659501E+04  0.19725753831E+04  0.12508963910E+03 0.  0.
          5    1    3    3  502    0  0.11342957592E+03 -0.13599291880E+03  0.15283501967E+04  0.15385812097E+04  0.41800000000E+01 0.  1.
         -5    1    3    3    0  502 -0.31361387571E+02 -0.19145489574E+02  0.43241575336E+03  0.43399417341E+03  0.41800000000E+01 0.  1.
        -11    1    1    2    0    0 -0.10032294882E+03  0.11951866273E+03  0.32829613871E+03  0.36349382318E+03  0.00000000000E+00 0.  1.
         11    1    1    2    0    0  0.18254760479E+02  0.35619745648E+02  0.72662138749E+02  0.82956548673E+02  0.00000000000E+00 0. -1.
</event>
<event>
 7    1  0.2612213E-009  0.2989816E+03  0.7561462E-02  0.1085751E+00
         -1   -1    0    0    0  501 -0.00000000000E+00  0.00000000000E+00  0.67495191357E+03  0.67495191357E+03  0.00000000000E+00 0.  1.
          1   -1    0    0  501    0  0.00000000000E+00 -0.00000000000E+00 -0.15569446479E+03  0.15569446479E+03  0.00000000000E+00 0. -1.
         25    2    1    2    0    0  0.75100404797E+02  0.27285815501E+03  0.11837270850E+03  0.33128724988E+03  0.12508996865E+03 0.  0.
          5    1    3    3  502    0 -0.24513141856E+02  0.11844127769E+03  0.75180620004E+02  0.14247395695E+03  0.41800000000E+01 0. -1.
         -5    1    3    3    0  502  0.99613546652E+02  0.15441687732E+03  0.43192088499E+02  0.18881329293E+03  0.41800000000E+01 0. -1.
        -11    1    1    2    0    0 -0.80186264292E+02 -0.14930424598E+03  0.27405392412E+03  0.32222220310E+03  0.00000000000E+00 0. -1.
         11    1    1    2    0    0  0.50858594950E+01 -0.12355390904E+03  0.12683081616E+03  0.17713692538E+03  0.00000000000E+00 0.  1.
</event>
<event>
 7    1  0.2612213E-009  0.3337936E+03  0.7561462E-02  0.1069471E+00
         -1   -1    0    0    0  501 -0.00000000000E+00  0.00000000000E+00  0.79287741263E+02  0.79287741263E+02  0.00000000000E+00 0.  1.
          1   -1    0    0  501    0  0.00000000000E+00 -0.00000000000E+00 -0.17853371295E+04  0.17853371295E+04  0.00000000000E+00 0. -1.
         25    2    1    2    0    0  0.19340198528E+03 -0.25682453670E+03 -0.12671358185E+04  0.13132570698E+04  0.12509107935E+03 0.  0.
          5    1    3    3  502    0  0.80131757174E+02 -0.20218748708E+03 -0.86251982640E+03  0.88952729119E+03  0.41800000000E+01 0. -1.
         -5    1    3    3    0  502  0.11327022810E+03 -0.54637049619E+02 -0.40461599212E+03  0.42372977857E+03  0.41800000000E+01 0. -1.
        -11    1    1    2    0    0 -0.11196259255E+03  0.11378886836E+03 -0.28151664848E+03  0.32362810765E+03  0.00000000000E+00 0. -1.
         11    1    1    2    0    0 -0.81439392727E+02  0.14303566834E+03 -0.15739692120E+03  0.22773969331E+03  0.00000000000E+00 0.  1.
</event>
<event>
 7    1  0.2612213E-009  0.1542808E+03  0.7561462E-02  0.1195309E+00
          2   -1    0    0  501    0  0.00000000000E+00  0.00000000000E+00  0.42491576782E+03  0.42491576782E+03  0.00000000000E+00 0. -1.
         -2   -1    0    0    0  501 -0.00000000000E+00 -0.00000000000E+00 -0.57160735493E+02  0.57160735493E+02  0.00000000000E+00 0.  1.
         25    2    1    2    0    0 -0.37349531320E+02 -0.10453420508E+03  0.18670665023E+03  0.25065868599E+03  0.12509203054E+03 0.  0.
          5    1    3    3  502    0 -0.46386151497E+02  0.11967698667E+02  0.74029675608E+02  0.88276645455E+02  0.41800000000E+01 0. -1.
         -5    1    3    3    0  502  0.90366201770E+01 -0.11650190374E+03  0.11267697462E+03  0.16238204054E+03  0.41800000000E+01 0. -1.
        -11    1    1    2    0    0 -0.30407662149E+02  0.28079468300E+02  0.61997177710E+02  0.74543494024E+02  0.00000000000E+00 0. -1.
         11    1    1    2    0    0  0.67757193469E+02  0.76454736777E+02  0.11905120439E+03  0.15687432330E+03  0.00000000000E+00 0.  1.
</event>
<event>
 7    1  0.2968924E-009  0.1224715E+03  0.7561462E-02  0.1239075E+00
          1   -1    0    0  501    0  0.00000000000E+00  0.00000000000E+00  0.57254962278E+03  0.57254962278E+03  0.00000000000E+00 0. -1.
         -1   -1    0    0    0  501 -0.00000000000E+00 -0.00000000000E+00 -0.33631894031E+02  0.33631894031E+02  0.00000000000E+00 0.  1.
         25    2    1    2    0    0  0.65188875690E+01 -0.84963293724E+02  0.26221415831E+03  0.30276319099E+03  0.12509207737E+03 0.  0.
          5    1    3    3  502    0  0.24355628137E+01 -0.11682919014E+03  0.18284120549E+03  0.21703310913E+03  0.41800000000E+01 0. -1.
         -5    1    3    3    0  502  0.40833247552E+01  0.31865896413E+02  0.79372952824E+02  0.85730081857E+02  0.41800000000E+01 0. -1.
        -11    1    1    2    0    0  0.15508047351E+02  0.61536586680E+02  0.25910182348E+03  0.26676020311E+03  0.00000000000E+00 0. -1.
         11    1    1    2    0    0 -0.22026934919E+02  0.23426707044E+02  0.17601746954E+02  0.36658122711E+02  0.00000000000E+00 0.  1.
</event>
<event>
 7    1  0.2612213E-009  0.1171931E+03  0.7561462E-02  0.1247801E+00
         -1   -1    0    0    0  501 -0.00000000000E+00  0.00000000000E+00  0.11980376361E+03  0.11980376361E+03  0.00000000000E+00 0.  1.
          1   -1    0    0  501    0  0.00000000000E+00 -0.00000000000E+00 -0.13590871640E+03  0.13590871640E+03  0.00000000000E+00 0. -1.
         25    2    1    2    0    0 -0.34434904873E+01 -0.66134244826E+02 -0.29891162673E+02  0.14466119434E+03  0.12509110111E+03 0.  0.
          5    1    3    3  502    0 -0.12371328605E+02 -0.10269984976E+03 -0.24735749426E+02  0.10644077514E+03  0.41800000000E+01 0.  1.
         -5    1    3    3    0  502  0.89278381175E+01  0.36565604938E+02 -0.51554132471E+01  0.38220419198E+02  0.41800000000E+01 0.  1.
        -11    1    1    2    0    0  0.30327457505E+02  0.12131467815E+02  0.34270839363E+02  0.47343612248E+02  0.00000000000E+00 0.  1.
         11    1    1    2    0    0 -0.26883967018E+02  0.54002777012E+02 -0.20484629488E+02  0.63707673422E+02  0.00000000000E+00 0. -1.
</event>
<event>
 7    1  0.2612213E-009  0.1269033E+03  0.7561462E-02  0.1232124E+00
          2   -1    0    0  501    0  0.00000000000E+00  0.00000000000E+00  0.40778944376E+03  0.40778944376E+03  0.00000000000E+00 0. -1.
         -2   -1    0    0    0  501 -0.00000000000E+00 -0.00000000000E+00 -0.40708966594E+02  0.40708966594E+02  0.00000000000E+00 0.  1.
         25    2    1    2    0    0  0.67190310636E+02 -0.36363712543E+01  0.17913761392E+03  0.22861578373E+03  0.12508849191E+03 0.  0.
          5    1    3    3  502    0 -0.15821890170E+02  0.41912998505E+02  0.77712338442E+02  0.89798171464E+02  0.41800000000E+01 0.  1.
         -5    1    3    3    0  502  0.83012200806E+02 -0.45549369760E+02  0.10142527548E+03  0.13881761226E+03  0.41800000000E+01 0.  1.
        -11    1    1    2    0    0  0.19821780419E+02  0.16858377171E+02  0.46811842585E+02  0.53557972945E+02  0.00000000000E+00 0.  1.
         11    1    1    2    0    0 -0.87012091055E+02 -0.13222005916E+02  0.14113102066E+03  0.16632465368E+03  0.00000000000E+00 0. -1.
</event>
<event>
 7    1  0.2612213E-009  0.1252792E+03  0.7561462E-02  0.1234634E+00
         -4   -1    0    0    0  501 -0.00000000000E+00  0.00000000000E+00  0.73051979310E+02  0.73051979310E+02  0.00000000000E+00 0.  1.
          4   -1    0    0  501    0  0.00000000000E+00 -0.00000000000E+00 -0.29877786839E+03  0.29877786839E+03  0.00000000000E+00 0. -1.
         25    2    1    2    0    0  0.71103309635E+02 -0.48003841684E+02 -0.58109038130E+02  0.16243587692E+03  0.12509478143E+03 0.  0.
          5    1    3    3  502    0  0.75206341068E+02  0.32125350313E+01  0.11030727500E+02  0.76193592036E+02  0.41800000000E+01 0. -1.
         -5    1    3    3    0  502 -0.41030314328E+01 -0.51216376715E+02 -0.69139765629E+02  0.86242284884E+02  0.41800000000E+01 0. -1.
        -11    1    1    2    0    0  0.18889762615E+02 -0.45130613608E+01 -0.14721769125E+02  0.24370501445E+02  0.00000000000E+00 0.  1.
         11    1    1    2    0    0 -0.89993072251E+02  0.52516903045E+02 -0.15289508182E+03  0.18502346933E+03  0.00000000000E+00 0. -1.
</event>
<event>
 7    1  0.2612213E-009  0.9490080E+02  0.7561462E-02  0.1291400E+00
         -2   -1    0    0    0  501 -0.00000000000E+00  0.00000000000E+00  0.25245785865E+03  0.25245785865E+03  0.00000000000E+00 0.  1.
          2   -1    0    0  501    0  0.00000000000E+00 -0.00000000000E+00 -0.72232401379E+02  0.72232401379E+02  0.00000000000E+00 0. -1.
         25    2    1    2    0    0 -0.54024370788E+01  0.47245948151E+02  0.17726245710E+03  0.22210561574E+03  0.12509020707E+03 0.  0.
          5    1    3    3  502    0  0.49352152871E+02  0.24755432640E+02  0.14354553436E+03  0.15385466932E+03  0.41800000000E+01 0. -1.
         -5    1    3    3    0  502 -0.54754589950E+02  0.22490515512E+02  0.33716922740E+02  0.68250946423E+02  0.41800000000E+01 0. -1.
        -11    1    1    2    0    0  0.26059852109E+02 -0.29659100048E+01  0.35310639364E+02  0.43985835975E+02  0.00000000000E+00 0.  1.
         11    1    1    2    0    0 -0.20657415030E+02 -0.44280038147E+02 -0.32347639192E+02  0.58598808309E+02  0.00000000000E+00 0. -1.
</event>
<event>
 7    1  0.2612213E-009  0.1097041E+03  0.7561462E-02  0.1261119E+00
          1   -1    0    0  501    0  0.00000000000E+00  0.00000000000E+00  0.51088313170E+02  0.51088313170E+02  0.00000000000E+00 0. -1.
         -1   -1    0    0    0  501 -0.00000000000E+00 -0.00000000000E+00 -0.29268237265E+03  0.29268237265E+03  0.00000000000E+00 0.  1.
         25    2    1    2    0    0 -0.13492993952E+02 -0.49960940987E+02 -0.16418161661E+03  0.21279409683E+03  0.12509023903E+03 0.  0.
          5    1    3    3  502    0 -0.65831553780E+02 -0.49280233462E+02 -0.90993244644E+02  0.12271747167E+03  0.41800000000E+01 0. -1.
         -5    1    3    3    0  502  0.52338559828E+02 -0.68070752458E+00 -0.73188371968E+02  0.90076625153E+02  0.41800000000E+01 0. -1.
        -11    1    1    2    0    0  0.40069740499E+02  0.20953973523E+02 -0.79630111174E+02  0.91572963890E+02  0.00000000000E+00 0.  1.
         11    1    1    2    0    0 -0.26576746546E+02  0.29006967464E+02  0.22176683081E+01  0.39403625102E+02  0.00000000000E+00 0. -1.
</event>
<event>
 7    1  0.2612213E-009  0.1250457E+03  0.7561462E-02  0.1234998E+00
         -2   -1    0    0    0  501 -0.00000000000E+00  0.00000000000E+00  0.34433778653E+02  0.34433778653E+02  0.00000000000E+00 0.  1.
          2   -1    0    0  501    0  0.00000000000E+00 -0.00000000000E+00 -0.70800838669E+03  0.70800838669E+03  0.00000000000E+00 0. -1.
         25    2    1    2    0    0  0.69963753537E+02 -0.68754695361E+02 -0.23163432070E+03  0.28093265085E+03  0.12508621364E+03 0.  0.
          5    1    3    3  502    0  0.18561644972E+01 -0.44729223083E+02 -0.19447542832E+03  0.19960539413E+03  0.41800000000E+01 0.  1.
         -5    1    3    3    0  502  0.68107589040E+02 -0.24025472278E+02 -0.37158892379E+02  0.81327256722E+02  0.41800000000E+01 0.  1.
        -11    1    1    2    0    0 -0.51083305337E+02 -0.97832004942E+01 -0.16156844614E+03  0.16973384425E+03  0.00000000000E+00 0. -1.
         11    1    1    2    0    0 -0.18880448200E+02  0.78537895855E+02 -0.28037184119E+03  0.29177567024E+03  0.00000000000E+00 0.  1.
</event>
<event>
 7    1  0.2612213E-009  0.1215539E+03  0.7561462E-02  0.1240555E+00
          1   -1    0    0  501    0  0.00000000000E+00  0.00000000000E+00  0.17678108439E+03  0.17678108439E+03  0.00000000000E+00 0. -1.
         -1   -1    0    0    0  501 -0.00000000000E+00 -0.00000000000E+00 -0.13365387035E+03  0.13365387035E+03  0.00000000000E+00 0.  1.
         25    2    1    2    0    0 -0.10217398214E+03 -0.15648228983E+02 -0.10801423428E+02  0.16263114907E+03  0.12509128749E+03 0.  0.
          5    1    3    3  502    0 -0.58516455802E+02  0.79319659692E+00 -0.67273144647E+02  0.89263391999E+02  0.41800000000E+01 0.  1.
         -5    1    3    3    0  502 -0.43657526335E+02 -0.16441425580E+02  0.56471721219E+02  0.73367757075E+02  0.41800000000E+01 0.  1.
        -11    1    1    2    0    0  0.72788959735E+02  0.53024672276E+02  0.36331156856E+02  0.97107164966E+02  0.00000000000E+00 0. -1.
         11    1    1    2    0    0  0.29385022402E+02 -0.37376443293E+02  0.17597480616E+02  0.50696640705E+02  0.00000000000E+00 0.  1.
</event>
<event>
 7    1  0.2612213E-009  0.1044911E+03  0.7561462E-02  0.1271125E+00
         -1   -1    0    0    0  501 -0.00000000000E+00  0.00000000000E+00  0.39678887838E+02  0.39678887838E+02  0.00000000000E+00 0.  1.
          1   -1    0    0  501    0  0.00000000000E+00 -0.00000000000E+00 -0.48680008365E+03  0.48680008365E+03  0.00000000000E+00 0. -1.
         25    2    1    2    0    0 -0.41366667843E+02  0.11412139746E+02 -0.10238648656E+03  0.16724773077E+03  0.12508945869E+03 0.  0.
          5    1    3    3  502    0 -0.73814217645E+02 -0.53241019422E+01 -0.10704706266E+03  0.13020534095E+03  0.41800000000E+01 0.  1.
         -5    1    3    3    0  502  0.32447549802E+02  0.16736241688E+02  0.46605760974E+01  0.37042389820E+02  0.41800000000E+01 0.  1.
        -11    1    1    2    0    0  0.26577369681E+02 -0.50088440064E+02 -0.15540744931E+03  0.16542878742E+03  0.00000000000E+00 0.  1.
         11    1    1    2    0    0  0.14789298162E+02  0.38676300318E+02 -0.18932725994E+03  0.19380245330E+03  0.00000000000E+00 0. -1.
</event>
<event>
 7    1  0.2612213E-009  0.7152293E+02  0.7561462E-02  0.1354989E+00
         -2   -1    0    0    0  501 -0.00000000000E+00  0.00000000000E+00  0.44611923794E+02  0.44611923794E+02  0.00000000000E+00 0.  1.
          2   -1    0    0  501    0  0.00000000000E+00 -0.00000000000E+00 -0.30881464234E+03  0.30881464234E+03  0.00000000000E+00 0. -1.
         25    2    1    2    0    0  0.18719368488E+02  0.25026866812E+02 -0.20357518401E+03  0.24096402811E+03  0.12507617071E+03 0.  0.
          5    1    3    3  502    0 -0.23919774452E+02  0.17378031211E+02  0.28547991387E+01  0.29996230709E+02  0.41800000000E+01 0. -1.
         -5    1    3    3    0  502  0.42639142940E+02  0.76488356005E+01 -0.20642998315E+03  0.21096779740E+03  0.41800000000E+01 0. -1.
        -11    1    1    2    0    0  0.22488427483E+02 -0.23009449230E+01  0.12250178451E+02  0.25711681981E+02  0.00000000000E+00 0.  1.
         11    1    1    2    0    0 -0.41207795972E+02 -0.22725921889E+02 -0.72877712993E+02  0.86750856051E+02  0.00000000000E+00 0. -1.
</event>
<event>
 7    1  0.2612213E-009  0.1279881E+03  0.7561462E-02  0.1230472E+00
         -1   -1    0    0    0  501 -0.00000000000E+00  0.00000000000E+00  0.26805705524E+03  0.26805705524E+03  0.00000000000E+00 0. -1.
          1   -1    0    0  501    0  0.00000000000E+00 -0.00000000000E+00 -0.83268971729E+02  0.83268971729E+02  0.00000000000E+00 0.  1.
         25    2    1    2    0    0  0.51539765286E+02 -0.87206828628E+02  0.83613155404E+02  0.18138292996E+03  0.12508888504E+03 0.  0.
          5    1    3    3  502    0  0.25352460621E+02  0.22324294855E+02 -0.93426497668E+01  0.35297009859E+02  0.41800000000E+01 0. -1.
         -5    1    3    3    0  502  0.26187304665E+02 -0.10953112348E+03  0.92955805170E+02  0.14608592010E+03  0.41800000000E+01 0. -1.
        -11    1    1    2    0    0 -0.39158301405E+02  0.26491562294E+02 -0.44471051050E+01  0.47486336830E+02  0.00000000000E+00 0.  1.
         11    1    1    2    0    0 -0.12381463881E+02  0.60715266334E+02  0.10562203322E+03  0.12245676018E+03  0.00000000000E+00 0. -1.
</event>
<event>
 7    1  0.2612213E-009  0.2106512E+03  0.7561462E-02  0.1141051E+00
          2   -1    0    0  501    0  0.00000000000E+00  0.00000000000E+00  0.80804228382E+03  0.80804228382E+03  0.00000000000E+00 0. -1.
         -2   -1    0    0    0  501 -0.00000000000E+00 -0.00000000000E+00 -0.57926073278E+02  0.57926073278E+02  0.00000000000E+00 0.  1.
         25    2    1    2    0    0  0.14169648091E+03  0.11388126957E+03  0.47802632841E+03  0.52649982864E+03  0.12508422220E+03 0.  0.
          5    1    3    3  502    0 -0.23021028745E+02  0.21328710841E+02  0.66151324562E+02  0.73337247098E+02  0.41800000000E+01 0. -1.
         -5    1    3    3    0  502  0.16471750965E+03  0.92552558733E+02  0.41187500385E+03  0.45316258154E+03  0.41800000000E+01 0. -1.
        -11    1    1    2    0    0 -0.11166947720E+03 -0.36224933563E+02  0.18396655858E+03  0.21823384849E+03  0.00000000000E+00 0. -1.
         11    1    1    2    0    0 -0.30027003710E+02 -0.77656336011E+02  0.88123323547E+02  0.12123467997E+03  0.00000000000E+00 0.  1.
</event>
<event>
 7    1  0.2612213E-009  0.1175162E+03  0.7561462E-02  0.1247252E+00
          2   -1    0    0  501    0  0.00000000000E+00  0.00000000000E+00  0.37787440654E+02  0.37787440654E+02  0.00000000000E+00 0. -1.
         -2   -1    0    0    0  501 -0.00000000000E+00 -0.00000000000E+00 -0.38520914987E+03  0.38520914987E+03  0.00000000000E+00 0.  1.
         25    2    1    2    0    0  0.21332067836E+02  0.41784423804E+02 -0.23444807462E+03  0.26984860237E+03  0.12510544879E+03 0.  0.
          5    1    3    3  502    0  0.28819774664E+02  0.84667457886E+02 -0.14820226693E+03  0.17314890170E+03  0.41800000000E+01 0.  1.
         -5    1    3    3    0  502 -0.74877068283E+01 -0.42883034082E+02 -0.86245807681E+02  0.96699700663E+02  0.41800000000E+01 0.  1.
        -11    1    1    2    0    0 -0.13756381011E+02  0.28197408017E+02 -0.22952369519E+02  0.38873424135E+02  0.00000000000E+00 0. -1.
         11    1    1    2    0    0 -0.75756868252E+01 -0.69981831821E+02 -0.90021265085E+02  0.11427456403E+03  0.00000000000E+00 0.  1.
</event>
<event>
 7    1  0.2612213E-009  0.9723422E+02  0.7561462E-02  0.1286222E+00
         -3   -1    0    0    0  501 -0.00000000000E+00  0.00000000000E+00  0.28922822727E+02  0.28922822727E+02  0.00000000000E+00 0.  1.
          3   -1    0    0  501    0  0.00000000000E+00 -0.00000000000E+00 -0.46661088774E+03  0.46661088774E+03  0.00000000000E+00 0. -1.
         25    2    1    2    0    0  0.10688284109E+02  0.65102646008E+00 -0.16124772099E+03  0.20436242084E+03  0.12509399776E+03 0.  0.
          5    1    3    3  502    0 -0.44840856269E+02  0.16674779043E+02 -0.20617523211E+02  0.52261891570E+02  0.41800000000E+01 0.  1.
         -5    1    3    3    0  502  0.55529140378E+02 -0.16023752583E+02 -0.14063019778E+03  0.15210052928E+03  0.41800000000E+01 0.  1.
        -11    1    1    2    0    0  0.38598908729E+01  0.42647705292E+02 -0.97431404604E+02  0.10642651985E+03  0.00000000000E+00 0.  1.
         11    1    1    2    0    0 -0.14548174982E+02 -0.43298731752E+02 -0.17900893942E+03  0.18474476978E+03  0.00000000000E+00 0. -1.
</event>
<event>
 7    1  0.2612213E-009  0.1182136E+03  0.7561462E-02  0.1246074E+00
         -3   -1    0    0    0  501 -0.00000000000E+00  0.00000000000E+00  0.50287011085E+02  0.50287011085E+02  0.00000000000E+00 0.  1.
          3   -1    0    0  501    0  0.00000000000E+00 -0.00000000000E+00 -0.43087594751E+03  0.43087594751E+03  0.00000000000E+00 0. -1.
         25    2    1    2    0    0 -0.15620522473E+02 -0.96211136964E+02 -0.24421647934E+03  0.29117740271E+03  0.12506801137E+03 0.  0.
          5    1    3    3  502    0  0.21416135221E+02 -0.82445835067E+02 -0.23554557280E+03  0.25050979189E+03  0.41800000000E+01 0. -1.
         -5    1    3    3    0  502 -0.37036657694E+02 -0.13765301897E+02 -0.86709065419E+01  0.40667610819E+02  0.41800000000E+01 0. -1.
        -11    1    1    2    0    0 -0.18673436263E+02  0.53315379269E+02 -0.17663201766E+02  0.59187968246E+02  0.00000000000E+00 0.  1.
         11    1    1    2    0    0  0.34293958735E+02  0.42895757696E+02 -0.11870925532E+03  0.13079758764E+03  0.00000000000E+00 0. -1.
</event>
<event>
 7    1  0.2612213E-009  0.1425825E+03  0.7561462E-02  0.1209896E+00
          1   -1    0    0  501    0  0.00000000000E+00  0.00000000000E+00  0.11423302159E+03  0.11423302159E+03  0.00000000000E+00 0. -1.
         -1   -1    0    0    0  501 -0.00000000000E+00 -0.00000000000E+00 -0.25756213518E+03  0.25756213518E+03  0.00000000000E+00 0.  1.
         25    2    1    2    0    0 -0.88303112721E+01 -0.10923339151E+03 -0.15575070001E+03  0.22784962183E+03  0.12508901389E+03 0.  0.
          5    1    3    3  502    0 -0.47650227841E+02 -0.27490346330E+02 -0.97451778587E+01  0.56024139852E+02  0.41800000000E+01 0. -1.
         -5    1    3    3    0  502  0.38819916569E+02 -0.81743045183E+02 -0.14600552215E+03  0.17182548198E+03  0.41800000000E+01 0. -1.
        -11    1    1    2    0    0  0.28824968601E+02  0.47916606374E+00  0.16642822220E+02  0.33288015057E+02  0.00000000000E+00 0. -1.
         11    1    1    2    0    0 -0.19994657329E+02  0.10875422545E+03 -0.42212358034E+01  0.11065751988E+03  0.00000000000E+00 0.  1.
</event>
<event>
 7    1  0.2612213E-009  0.7618214E+02  0.7561462E-02  0.1340249E+00
         -1   -1    0    0    0  501 -0.00000000000E+00  0.00000000000E+00  0.40753326025E+02  0.40753326025E+02  0.00000000000E+00 0.  1.
          1   -1    0    0  501    0  0.00000000000E+00 -0.00000000000E+00 -0.33971982338E+03  0.33971982338E+03  0.00000000000E+00 0. -1.
         25    2    1    2    0    0 -0.14843307509E+02 -0.94721572734E+01 -0.20073904680E+03  0.23717830459E+03  0.12508931894E+03 0.  0.
          5    1    3    3  502    0  0.16252323862E+02 -0.29810047439E+02 -0.12672150149E+01  0.34232370545E+02  0.41800000000E+01 0.  1.
         -5    1    3    3    0  502 -0.31095631372E+02  0.20337890165E+02 -0.19947183179E+03  0.20294593404E+03  0.41800000000E+01 0.  1.
        -11    1    1    2    0    0  0.47074708589E+02 -0.33056034181E+00 -0.98972090894E+02  0.10959750104E+03  0.00000000000E+00 0. -1.
         11    1    1    2    0    0 -0.32231401079E+02  0.98027176152E+01  0.74464034574E+00  0.33697343774E+02  0.00000000000E+00 0.  1.
</event>
<event>
 7    1  0.2612213E-009  0.1400149E+03  0.7561462E-02  0.1213309E+00
          4   -1    0    0  501    0  0.00000000000E+00  0.00000000000E+00  0.13945653263E+03  0.13945653263E+03  0.00000000000E+00 0. -1.
         -4   -1    0    0    0  501 -0.00000000000E+00 -0.00000000000E+00 -0.23955160030E+03  0.23955160030E+03  0.00000000000E+00 0.  1.
         25    2    1    2    0    0 -0.11857971619E+03 -0.19820053942E+02  0.34100926249E+02  0.17682777629E+03  0.12510477875E+03 0.  0.
          5    1    3    3  502    0 -0.15872659747E+02 -0.27643639108E+02  0.62165424705E+02  0.69986602570E+02  0.41800000000E+01 0.  1.
         -5    1    3    3    0  502 -0.10270705645E+03  0.78235851660E+01 -0.28064498456E+02  0.10684117372E+03  0.41800000000E+01 0.  1.
        -11    1    1    2    0    0  0.69487200617E+02 -0.29238136799E+02 -0.98786263491E+02  0.12426610780E+03  0.00000000000E+00 0.  1.
         11    1    1    2    0    0  0.49092515575E+02  0.49058190741E+02 -0.35409730424E+02  0.77914248845E+02  0.00000000000E+00 0. -1.
</event>
<event>
 7    1  0.2612213E-009  0.1412320E+03  0.7561462E-02  0.1211681E+00
         -1   -1    0    0    0  501 -0.00000000000E+00  0.00000000000E+00  0.30217044301E+02  0.30217044301E+02  0.00000000000E+00 0.  1.
          1   -1    0    0  501    0  0.00000000000E+00 -0.00000000000E+00 -0.91856379550E+03  0.91856379550E+03  0.00000000000E+00 0. -1.
         25    2    1    2    0    0  0.72239804993E+02  0.82537637694E+02 -0.66857856667E+03  0.68896552947E+03  0.12508057377E+03 0.  0.
          5    1    3    3  502    0  0.39780921867E+02  0.10032489303E+03 -0.61042037043E+03  0.61990169135E+03  0.41800000000E+01 0.  1.
         -5    1    3    3    0  502  0.32458883126E+02 -0.17787255340E+02 -0.58158196239E+02  0.69063838121E+02  0.41800000000E+01 0.  1.
        -11    1    1    2    0    0 -0.32624117695E+02 -0.91026002806E+02 -0.13730156460E+03  0.16793387355E+03  0.00000000000E+00 0.  1.
         11    1    1    2    0    0 -0.39615687298E+02  0.84883651126E+01 -0.82466619929E+02  0.91881436780E+02  0.00000000000E+00 0. -1.
</event>
<event>
 6    1  0.2773554E-009  0.1189998E+03  0.7561462E-02  0.1244756E+00
         -2   -1    0    0    0  501 -0.00000000000E+00  0.00000000000E+00  0.36848596724E+02  0.36848596724E+02  0.00000000000E+00 0.  1.
          2   -1    0    0  501    0  0.00000000000E+00 -0.00000000000E+00 -0.42844952499E+03  0.42844952499E+03  0.00000000000E+00 0. -1.
          5    1    1    2  502    0  0.12460535415E+00  0.54425463872E+02 -0.97051186403E+02  0.11134878458E+03  0.41800000000E+01 0. -1.
         -5    1    1    2    0  502  0.50460476994E+02 -0.61159238029E+02 -0.19104747335E+03  0.20688963630E+03  0.41800000000E+01 0. -1.
        -11    1    1    2    0    0  0.16149290185E+01  0.41348973655E+02 -0.34560123022E+02  0.53914262689E+02  0.00000000000E+00 0.  1.
         11    1    1    2    0    0 -0.52200011367E+02 -0.34615199497E+02 -0.68942145490E+02  0.93145438148E+02  0.00000000000E+00 0. -1.
</event>
<event>
 7    1  0.2612213E-009  0.1011755E+03  0.7561462E-02  0.1277843E+00
          2   -1    0    0  501    0  0.00000000000E+00  0.00000000000E+00  0.21438710862E+03  0.21438710862E+03  0.00000000000E+00 0. -1.
         -2   -1    0    0    0  501 -0.00000000000E+00 -0.00000000000E+00 -0.77716995088E+02  0.77716995088E+02  0.00000000000E+00 0.  1.
         25    2    1    2    0    0  0.96731168382E+01  0.27879869443E+02  0.14310822682E+03  0.19234847092E+03  0.12508842222E+03 0.  0.
          5    1    3    3  502    0  0.56295528790E+02  0.14246935993E+02  0.12910139694E+03  0.14162204927E+03  0.41800000000E+01 0. -1.
         -5    1    3    3    0  502 -0.46622411952E+02  0.13632933450E+02  0.14006829885E+02  0.50726421656E+02  0.41800000000E+01 0. -1.
        -11    1    1    2    0    0  0.21951077633E+02  0.25305252163E+02 -0.16034445569E+02  0.37139050082E+02  0.00000000000E+00 0.  1.
         11    1    1    2    0    0 -0.31624194471E+02 -0.53185121605E+02  0.95963322768E+01  0.62616582702E+02  0.00000000000E+00 0. -1.
</event>
<event>
 7    1  0.2612213E-009  0.2980277E+03  0.7561462E-02  0.1086231E+00
         -2   -1    0    0    0  501 -0.00000000000E+00  0.00000000000E+00  0.86189838579E+02  0.86189838579E+02  0.00000000000E+00 0.  1.
          2   -1    0    0  501    0  0.00000000000E+00 -0.00000000000E+00 -0.14584403098E+04  0.14584403098E+04  0.00000000000E+00 0. -1.
         25    2    1    2    0    0 -0.25177951264E+03  0.15924253196E+03 -0.10405562036E+04  0.10895675476E+04  0.12509644657E+03 0.  0.
          5    1    3    3  502    0 -0.13297645577E+03  0.88917523992E+02 -0.76232996586E+03  0.77894384465E+03  0.41800000000E+01 0.  1.
         -5    1    3    3    0  502 -0.11880305687E+03  0.70325007967E+02 -0.27822623778E+03  0.31062370299E+03  0.41800000000E+01 0.  1.
        -11    1    1    2    0    0  0.30804858977E+02 -0.18941757713E+02 -0.96923661078E+02  0.10345011164E+03  0.00000000000E+00 0.  1.
         11    1    1    2    0    0  0.22097465367E+03 -0.14030077425E+03 -0.23477060650E+03  0.35161248910E+03  0.00000000000E+00 0. -1.
</event>
<event>
 6    1  0.2612213E-009  0.1020491E+03  0.7561462E-02  0.1276045E+00
         -1   -1    0    0    0  501 -0.00000000000E+00  0.00000000000E+00  0.90973505368E+02  0.90973505368E+02  0.00000000000E+00 0.  1.
          1   -1    0    0  501    0  0.00000000000E+00 -0.00000000000E+00 -0.13719250694E+03  0.13719250694E+03  0.00000000000E+00 0. -1.
          5    1    1    2  502    0 -0.62192582962E+01 -0.50957804309E+02 -0.25387437034E+02  0.57422742471E+02  0.41800000000E+01 0.  1.
         -5    1    1    2    0  502  0.30891709240E+02  0.65059758149E+02  0.51157668341E+01  0.72323670402E+02  0.41800000000E+01 0.  1.
        -11    1    1    2    0    0 -0.18615095944E+02 -0.45139223828E+02  0.10729979201E+02  0.49992037150E+02  0.00000000000E+00 0.  1.
         11    1    1    2    0    0 -0.60573549992E+01  0.31037269988E+02 -0.36677310569E+02  0.48427562281E+02  0.00000000000E+00 0. -1.
</event>
<event>
 7    1  0.2612213E-009  0.1940415E+03  0.7561462E-02  0.1154866E+00
          2   -1    0    0  501    0  0.00000000000E+00  0.00000000000E+00  0.10529441145E+04  0.10529441145E+04  0.00000000000E+00 0. -1.
         -2   -1    0    0    0  501 -0.00000000000E+00 -0.00000000000E+00 -0.43111253483E+02  0.43111253483E+02  0.00000000000E+00 0.  1.
         25    2    1    2    0    0  0.16735805957E+03  0.66474862054E+02  0.46367073959E+03  0.51289851195E+03  0.12508677558E+03 0.  0.
          5    1    3    3  502    0  0.77947725632E+02 -0.13617046701E+02  0.29745113337E+03  0.30782449713E+03  0.41800000000E+01 0.  1.
         -5    1    3    3    0  502  0.89410333940E+02  0.80091908754E+02  0.16621960622E+03  0.20507401482E+03  0.41800000000E+01 0.  1.
        -11    1    1    2    0    0 -0.12547772463E+02  0.10018959455E+02  0.79396195062E+01  0.17912668709E+02  0.00000000000E+00 0.  1.
         11    1    1    2    0    0 -0.15481028711E+03 -0.76493821509E+02  0.53822250187E+03  0.56524418727E+03  0.00000000000E+00 0. -1.
</event>
<event>
 7    1  0.2612213E-009  0.9236947E+02  0.7561462E-02  0.1297213E+00
          1   -1    0    0  501    0  0.00000000000E+00  0.00000000000E+00  0.23648137153E+03  0.23648137153E+03  0.00000000000E+00 0. -1.
         -1   -1    0    0    0  501 -0.00000000000E+00 -0.00000000000E+00 -0.10093038874E+03  0.10093038874E+03  0.00000000000E+00 0.  1.
         25    2    1    2    0    0  0.39239942209E+02  0.43770049247E+02  0.17370609824E+03  0.22198364143E+03  0.12508932097E+03 0.  0.
          5    1    3    3  502    0  0.69624161148E+02  0.28483166510E+02  0.42764308378E+02  0.86631824759E+02  0.41800000000E+01 0.  1.
         -5    1    3    3    0  502 -0.30384218939E+02  0.15286882737E+02  0.13094178986E+03  0.13535181667E+03  0.41800000000E+01 0.  1.
        -11    1    1    2    0    0 -0.83502947091E+00 -0.35920186711E+02 -0.60457842307E+02  0.70328570183E+02  0.00000000000E+00 0.  1.
         11    1    1    2    0    0 -0.38404912739E+02 -0.78498625363E+01  0.22302726860E+02  0.45099548664E+02  0.00000000000E+00 0. -1.
</event>
<event>
 6    1  0.2612213E-009  0.1406999E+03  0.7561462E-02  0.1212390E+00
          4   -1    0    0  501    0  0.00000000000E+00  0.00000000000E+00  0.80445242487E+02  0.80445242487E+02  0.00000000000E+00 0. -1.
         -4   -1    0    0    0  501 -0.00000000000E+00 -0.00000000000E+00 -0.44372737104E+03  0.44372737104E+03  0.00000000000E+00 0.  1.
          5    1    1    2  502    0 -0.66281598798E+02 -0.25289441923E+02 -0.10426311685E+03  0.12617874681E+03  0.41800000000E+01 0. -1.
         -5    1    1    2    0  502 -0.21492830916E+02  0.81742353109E+02 -0.24462510173E+03  0.25884873356E+03  0.41800000000E+01 0. -1.
        -11    1    1    2    0    0  0.11000934880E+02 -0.47101904636E+02  0.22627131456E+02  0.53400347064E+02  0.00000000000E+00 0. -1.
         11    1    1    2    0    0  0.76773494834E+02 -0.93510065496E+01 -0.37021041433E+02  0.85744786088E+02  0.00000000000E+00 0.  1.
</event>
<event>
 7    1  0.2612213E-009  0.2430245E+03  0.7561462E-02  0.1117794E+00
         -2   -1    0    0    0  501 -0.00000000000E+00  0.00000000000E+00  0.32580231577E+02  0.32580231577E+02  0.00000000000E+00 0.  1.
          2   -1    0    0  501    0  0.00000000000E+00 -0.00000000000E+00 -0.21002972158E+04  0.21002972158E+04  0.00000000000E+00 0. -1.
         25    2    1    2    0    0 -0.50669677646E+02  0.22974520540E+03 -0.11968567532E+04  0.12261576978E+04  0.12508531690E+03 0.  0.
          5    1    3    3  502    0 -0.50138494205E+02  0.87272427257E+02 -0.26570865047E+03  0.28416351718E+03  0.41800000000E+01 0. -1.
         -5    1    3    3    0  502 -0.53118344128E+00  0.14247277814E+03 -0.93114810271E+03  0.94199418058E+03  0.41800000000E+01 0. -1.
        -11    1    1    2    0    0 -0.63147815360E+01 -0.10982872590E+03 -0.27375913366E+03  0.29503608044E+03  0.00000000000E+00 0. -1.
         11    1    1    2    0    0  0.56984459182E+02 -0.11991647950E+03 -0.59710109737E+03  0.61168366916E+03  0.00000000000E+00 0.  1.
</event>
<event>
 7    1  0.2612213E-009  0.1680438E+03  0.7561462E-02  0.1179903E+00
          2   -1    0    0  501    0  0.00000000000E+00  0.00000000000E+00  0.68197978582E+03  0.68197978582E+03  0.00000000000E+00 0.  1.
         -2   -1    0    0    0  501 -0.00000000000E+00 -0.00000000000E+00 -0.68093087160E+02  0.68093087160E+02  0.00000000000E+00 0. -1.
         25    2    1    2    0    0  0.61396680150E+02 -0.15316016935E+03  0.47158542579E+03  0.51504160258E+03  0.12508976284E+03 0.  0.
          5    1    3    3  502    0 -0.11508755516E+01 -0.21190756157E+02  0.30249888363E+00  0.21631841498E+02  0.41800000000E+01 0.  1.
         -5    1    3    3    0  502  0.62547555702E+02 -0.13196941319E+03  0.47128292691E+03  0.49340976109E+03  0.41800000000E+01 0.  1.
        -11    1    1    2    0    0 -0.12335439266E+02  0.75474280402E+02  0.14834565464E+02  0.77901183538E+02  0.00000000000E+00 0.  1.
         11    1    1    2    0    0 -0.49061240884E+02  0.77685888946E+02  0.12746670741E+03  0.15713008686E+03  0.00000000000E+00 0. -1.
</event>
<event>
 7    1  0.2612213E-009  0.7990986E+02  0.7561462E-02  0.1329307E+00
          3   -1    0    0  501    0  0.00000000000E+00  0.00000000000E+00  0.19242744551E+03  0.19242744551E+03  0.00000000000E+00 0. -1.
         -3   -1    0    0    0  501 -0.00000000000E+00 -0.00000000000E+00 -0.55537795965E+02  0.55537795965E+02  0.00000000000E+00 0.  1.
         25    2    1    2    0    0  0.43845916748E+01  0.30277091888E+02  0.56608939634E+02  0.14066301614E+03  0.12508231340E+03 0.  0.
          5    1    3    3  502    0 -0.39887135854E+02 -0.33487294237E+01  0.72299816233E+02  0.82746198841E+02  0.41800000000E+01 0. -1.
         -5    1    3    3    0  502  0.44271727529E+02  0.33625821311E+02 -0.15690876599E+02  0.57916817296E+02  0.41800000000E+01 0. -1.
        -11    1    1    2    0    0  0.14462193743E+02  0.11182670814E+02  0.43995478563E+01  0.18803276197E+02  0.00000000000E+00 0.  1.
         11    1    1    2    0    0 -0.18846785418E+02 -0.41459762702E+02  0.75881162053E+02  0.88498949138E+02  0.00000000000E+00 0. -1.
</event>
<event>
 7    1  0.2612213E-009  0.2874541E+03  0.7561462E-02  0.1091686E+00
          2   -1    0    0  501    0  0.00000000000E+00  0.00000000000E+00  0.62429701514E+03  0.62429701514E+03  0.00000000000E+00 0. -1.
         -2   -1    0    0    0  501 -0.00000000000E+00 -0.00000000000E+00 -0.19482887707E+03  0.19482887707E+03  0.00000000000E+00 0.  1.
         25    2    1    2    0    0  0.21802509218E+03  0.18689439855E+03  0.41083179200E+03  0.51662395132E+03  0.12511230449E+03 0.  0.
          5    1    3    3  502    0  0.14197620469E+03  0.11516637642E+03  0.15318314827E+03  0.23854367791E+03  0.41800000000E+01 0. -1.
         -5    1    3    3    0  502  0.76048887490E+02  0.71728022131E+02  0.25764864373E+03  0.27808027341E+03  0.41800000000E+01 0. -1.
        -11    1    1    2    0    0 -0.31832359446E+02 -0.33172804133E+02 -0.31721043852E+02  0.55856590166E+02  0.00000000000E+00 0.  1.
         11    1    1    2    0    0 -0.18619273274E+03 -0.15372159442E+03  0.50357389925E+02  0.24664535073E+03  0.00000000000E+00 0. -1.
</event>
<event>
 7    1  0.2612213E-009  0.1403401E+03  0.7561462E-02  0.1212872E+00
          2   -1    0    0  501    0  0.00000000000E+00  0.00000000000E+00  0.10875758758E+03  0.10875758758E+03  0.00000000000E+00 0.  1.
         -2   -1    0    0    0  501 -0.00000000000E+00 -0.00000000000E+00 -0.26451100109E+03  0.26451100109E+03  0.00000000000E+00 0. -1.
         25    2    1    2    0    0  0.34846498824E+02  0.90255521875E+02  0.12965398013E+02  0.15867127103E+03  0.12509249776E+03 0.  0.
          5    1    3    3  502    0 -0.40067103142E+02  0.69426172529E+02  0.72517294634E+01  0.80594206779E+02  0.41800000000E+01 0. -1.
         -5    1    3    3    0  502  0.74913601967E+02  0.20829349346E+02  0.57136685496E+01  0.78077064251E+02  0.41800000000E+01 0. -1.
        -11    1    1    2    0    0 -0.56168212830E+02 -0.43118090985E+02 -0.13615316495E+03  0.15346570375E+03  0.00000000000E+00 0. -1.
         11    1    1    2    0    0  0.21321714005E+02 -0.47137430890E+02 -0.32565646582E+02  0.61131613886E+02  0.00000000000E+00 0.  1.
</event>
<event>
 7    1  0.2612213E-009  0.8655923E+02  0.7561462E-02  0.1311405E+00
          2   -1    0    0  501    0  0.00000000000E+00  0.00000000000E+00  0.57514816461E+03  0.57514816461E+03  0.00000000000E+00 0. -1.
         -2   -1    0    0    0  501 -0.00000000000E+00 -0.00000000000E+00 -0.28313333687E+02  0.28313333687E+02  0.00000000000E+00 0.  1.
         25    2    1    2    0    0 -0.20214137865E+02 -0.63870451107E+02  0.32338255647E+03  0.35314491420E+03  0.12508799583E+03 0.  0.
          5    1    3    3  502    0 -0.39159393052E+02 -0.37307751500E+02  0.31440198970E+03  0.31904766088E+03  0.41800000000E+01 0. -1.
         -5    1    3    3    0  502  0.18945255187E+02 -0.26562699606E+02  0.89805667719E+01  0.34097253321E+02  0.41800000000E+01 0. -1.
        -11    1    1    2    0    0 -0.18421325359E+02  0.15526332869E+02  0.68495337064E+01  0.25046523758E+02  0.00000000000E+00 0.  1.
         11    1    1    2    0    0  0.38635463224E+02  0.48344118237E+02  0.21660274075E+03  0.22527006035E+03  0.00000000000E+00 0. -1.
</event>
<event>
 7    1  0.2612213E-009  0.9108045E+02  0.7561462E-02  0.1300256E+00
         -2   -1    0    0    0  501 -0.00000000000E+00  0.00000000000E+00  0.87605413118E+03  0.87605413118E+03  0.00000000000E+00 0.  1.
          2   -1    0    0  501    0  0.00000000000E+00 -0.00000000000E+00 -0.14168053340E+02  0.14168053340E+02  0.00000000000E+00 0. -1.
         25    2    1    2    0    0  0.83713476953E+01  0.12833083116E+02  0.47420269311E+03  0.49066430694E+03  0.12509396658E+03 0.  0.
          5    1    3    3  502    0  0.94397978792E+01 -0.35560275219E+02  0.40160822161E+03  0.40331164008E+03  0.41800000000E+01 0. -1.
         -5    1    3    3    0  502 -0.10684501838E+01  0.48393358335E+02  0.72594471500E+02  0.87352666869E+02  0.41800000000E+01 0. -1.
        -11    1    1    2    0    0 -0.38194335154E+02  0.27009257099E+02  0.19854303517E+03  0.20397951863E+03  0.00000000000E+00 0.  1.
         11    1    1    2    0    0  0.29822987459E+02 -0.39842340215E+02  0.18914034956E+03  0.19557835894E+03  0.00000000000E+00 0. -1.
</event>
<event>
 7    1  0.2612213E-009  0.9803520E+02  0.7561462E-02  0.1284483E+00
          3   -1    0    0  501    0  0.00000000000E+00  0.00000000000E+00  0.20308134331E+03  0.20308134331E+03  0.00000000000E+00 0. -1.
         -3   -1    0    0    0  501 -0.00000000000E+00 -0.00000000000E+00 -0.79300266972E+02  0.79300266972E+02  0.00000000000E+00 0.  1.
         25    2    1    2    0    0  0.60292559752E+02 -0.47124391725E+01  0.40794620220E+02  0.14480850868E+03  0.12509157966E+03 0.  0.
          5    1    3    3  502    0  0.18242421567E+02  0.57198654501E+02  0.35016618126E+02  0.69628356051E+02  0.41800000000E+01 0. -1.
         -5    1    3    3    0  502  0.42050138185E+02 -0.61911093673E+02  0.57780020944E+01  0.75180152630E+02  0.41800000000E+01 0. -1.
        -11    1    1    2    0    0 -0.24178942788E+02 -0.17522066455E+01  0.95717177072E+02  0.98739401907E+02  0.00000000000E+00 0. -1.
         11    1    1    2    0    0 -0.36113616965E+02  0.64646458180E+01 -0.12730720955E+02  0.38833699693E+02  0.00000000000E+00 0.  1.
</event>
<event>
 7    1  0.2612213E-009  0.1098206E+03  0.7561462E-02  0.1260903E+00
         -1   -1    0    0    0  501 -0.00000000000E+00  0.00000000000E+00  0.19044113508E+02  0.19044113508E+02  0.00000000000E+00 0.  1.
          1   -1    0    0  501    0  0.00000000000E+00 -0.00000000000E+00 -0.85757263731E+03  0.85757263731E+03  0.00000000000E+00 0. -1.
         25    2    1    2    0    0  0.11486427137E+02 -0.50737534248E+02 -0.62101423356E+03  0.63561996854E+03  0.12509128961E+03 0.  0.
          5    1    3    3  502    0  0.19194598937E+02  0.35551077406E+02 -0.31309442256E+03  0.31571807293E+03  0.41800000000E+01 0. -1.
         -5    1    3    3    0  502 -0.77081718001E+01 -0.86288611653E+02 -0.30791981100E+03  0.31990189561E+03  0.41800000000E+01 0. -1.
        -11    1    1    2    0    0 -0.12955470448E+02 -0.18748381853E+02 -0.11439111740E+03  0.11663907483E+03  0.00000000000E+00 0. -1.
         11    1    1    2    0    0  0.14690433111E+01  0.69485916101E+02 -0.10312317285E+03  0.12435770745E+03  0.00000000000E+00 0.  1.
</event>
<event>
 7    1  0.2612213E-009  0.1254212E+03  0.7561462E-02  0.1234413E+00
          2   -1    0    0  501    0  0.00000000000E+00  0.00000000000E+00  0.13874576000E+03  0.13874576000E+03  0.00000000000E+00 0. -1.
         -2   -1    0    0    0  501 -0.00000000000E+00 -0.00000000000E+00 -0.12751782714E+03  0.12751782714E+03  0.00000000000E+00 0.  1.
         25    2    1    2    0    0 -0.75798576914E+02 -0.11121095329E+02  0.20429085162E+01  0.14672992937E+03  0.12512551967E+03 0.  0.
          5    1    3    3  502    0 -0.83266540915E+02  0.38889273545E+02  0.17594147683E+02  0.93662793389E+02  0.41800000000E+01 0. -1.
         -5    1    3    3    0  502  0.74679640005E+01 -0.50010368874E+02 -0.15551239167E+02  0.53067135977E+02  0.41800000000E+01 0. -1.
        -11    1    1    2    0    0  0.91216578137E+02  0.14401441077E+02 -0.12005082143E+02  0.93123507394E+02  0.00000000000E+00 0.  1.
         11    1    1    2    0    0 -0.15418001223E+02 -0.32803457480E+01  0.21190106494E+02  0.26410150381E+02  0.00000000000E+00 0. -1.
</event>
<event>
 7    1  0.2612213E-009  0.1315070E+03  0.7561462E-02  0.1225237E+00
          1   -1    0    0  501    0  0.00000000000E+00  0.00000000000E+00  0.52230069160E+03  0.52230069160E+03  0.00000000000E+00 0. -1.
         -1   -1    0    0    0  501 -0.00000000000E+00 -0.00000000000E+00 -0.55954652312E+02  0.55954652312E+02  0.00000000000E+00 0.  1.
         25    2    1    2    0    0  0.41955316771E+02  0.75184351828E+02  0.78332561381E+02  0.17086412195E+03  0.12508246333E+03 0.  0.
          5    1    3    3  502    0 -0.36136166028E+02 -0.68448489883E+01  0.30036068769E+02  0.47668776783E+02  0.41800000000E+01 0.  1.
         -5    1    3    3    0  502  0.78091482799E+02  0.82029200816E+02  0.48296492612E+02  0.12319534517E+03  0.41800000000E+01 0.  1.
        -11    1    1    2    0    0 -0.42918831815E+02 -0.58406436953E+01  0.24074817865E+03  0.24461362343E+03  0.00000000000E+00 0.  1.
         11    1    1    2    0    0  0.96351504379E+00 -0.69343708133E+02  0.14726529925E+03  0.16277759853E+03  0.00000000000E+00 0. -1.
</event>
<event>
 7    1  0.2612213E-009  0.1233996E+03  0.7561462E-02  0.1237592E+00
         -2   -1    0    0    0  501 -0.00000000000E+00  0.00000000000E+00  0.14884606430E+03  0.14884606430E+03  0.00000000000E+00 0.  1.
          2   -1    0    0  501    0  0.00000000000E+00 -0.00000000000E+00 -0.13968985921E+03  0.13968985921E+03  0.00000000000E+00 0. -1.
         25    2    1    2    0    0 -0.91061449876E+02  0.36721179313E+01  0.23102306063E+02  0.15648102297E+03  0.12508765686E+03 0.  0.
          5    1    3    3  502    0 -0.41402464129E+02 -0.42417868890E+02 -0.33397138202E+02  0.68163633099E+02  0.41800000000E+01 0.  1.
         -5    1    3    3    0  502 -0.49658985747E+02  0.46089986821E+02  0.56499444265E+02  0.88317389867E+02  0.41800000000E+01 0.  1.
        -11    1    1    2    0    0  0.19657415644E+02 -0.36076358809E+02  0.21077799238E+02  0.46175656740E+02  0.00000000000E+00 0.  1.
         11    1    1    2    0    0  0.71404034232E+02  0.32404240877E+02 -0.35023900207E+02  0.85879243809E+02  0.00000000000E+00 0. -1.
</event>
<event>
 7    1  0.2612213E-009  0.1103633E+03  0.7561462E-02  0.1259899E+00
         -2   -1    0    0    0  501 -0.00000000000E+00  0.00000000000E+00  0.21273700999E+02  0.21273700999E+02  0.00000000000E+00 0.  1.
          2   -1    0    0  501    0  0.00000000000E+00 -0.00000000000E+00 -0.90805674984E+03  0.90805674984E+03  0.00000000000E+00 0. -1.
         25    2    1    2    0    0 -0.48657095948E+02 -0.59690716418E+02 -0.62140355191E+03  0.63853022943E+03  0.12509190603E+03 0.  0.
          5    1    3    3  502    0 -0.70226927566E+02 -0.45263190781E+02 -0.20658581932E+03  0.22288057551E+03  0.41800000000E+01 0. -1.
         -5    1    3    3    0  502  0.21569831619E+02 -0.14427525638E+02 -0.41481773260E+03  0.41564965393E+03  0.41800000000E+01 0. -1.
        -11    1    1    2    0    0 -0.19215132671E+02 -0.16734467543E+01 -0.99558162009E+02  0.10140931599E+03  0.00000000000E+00 0. -1.
         11    1    1    2    0    0  0.67872228618E+02  0.61364163173E+02 -0.16582133491E+03  0.18939090541E+03  0.00000000000E+00 0.  1.
</event>
<event>
 7    1  0.2612213E-009  0.1561517E+03  0.7561462E-02  0.1193111E+00
          1   -1    0    0  501    0  0.00000000000E+00  0.00000000000E+00  0.47543993785E+03  0.47543993785E+03  0.00000000000E+00 0. -1.
         -1   -1    0    0    0  501 -0.00000000000E+00 -0.00000000000E+00 -0.64036662835E+02  0.64036662835E+02  0.00000000000E+00 0.  1.
         25    2    1    2    0    0 -0.11859992169E+03  0.44168437123E+02  0.13908709777E+03  0.22584992095E+03  0.12508466637E+03 0.  0.
          5    1    3    3  502    0 -0.22662635721E+02  0.56688591927E+02  0.10801751795E+03  0.12414688114E+03  0.41800000000E+01 0. -1.
         -5    1    3    3    0  502 -0.95937285972E+02 -0.12520154805E+02  0.31069579826E+02  0.10170303981E+03  0.41800000000E+01 0. -1.
        -11    1    1    2    0    0 -0.14401210389E+02 -0.99447121358E+00  0.15308525069E+02  0.21041263590E+02  0.00000000000E+00 0.  1.
         11    1    1    2    0    0  0.13300113208E+03 -0.43173965909E+02  0.25700765217E+03  0.29258541615E+03  0.00000000000E+00 0. -1.
</event>
<event>
 7    1  0.2612213E-009  0.1001870E+03  0.7561462E-02  0.1279903E+00
         -2   -1    0    0    0  501 -0.00000000000E+00  0.00000000000E+00  0.32419141588E+02  0.32419141588E+02  0.00000000000E+00 0. -1.
          2   -1    0    0  501    0  0.00000000000E+00 -0.00000000000E+00 -0.61734348239E+03  0.61734348239E+03  0.00000000000E+00 0.  1.
         25    2    1    2    0    0 -0.31314553364E+02  0.31154467698E+01 -0.51238756795E+03  0.52837261706E+03  0.12508515262E+03 0.  0.
          5    1    3    3  502    0 -0.26909833420E+02  0.61575329065E+02 -0.21741147144E+03  0.22759806809E+03  0.41800000000E+01 0. -1.
         -5    1    3    3    0  502 -0.44047199440E+01 -0.58459882295E+02 -0.29497609652E+03  0.30077454898E+03  0.41800000000E+01 0. -1.
        -11    1    1    2    0    0  0.51399550186E+02  0.68424539451E+01 -0.82030178429E+02  0.97044747969E+02  0.00000000000E+00 0.  1.
         11    1    1    2    0    0 -0.20084996822E+02 -0.99579007148E+01  0.94934055756E+01  0.24345258952E+02  0.00000000000E+00 0. -1.
</event>
<event>
 7    1  0.2612213E-009  0.1261831E+03  0.7561462E-02  0.1233232E+00
         -2   -1    0    0    0  501 -0.00000000000E+00  0.00000000000E+00  0.20370130167E+02  0.20370130167E+02  0.00000000000E+00 0.  1.
          2   -1    0    0  501    0  0.00000000000E+00 -0.00000000000E+00 -0.11176569597E+04  0.11176569597E+04  0.00000000000E+00 0. -1.
         25    2    1    2    0    0  0.92824811935E+02 -0.48116098520E+02 -0.65293650455E+03  0.67298325969E+03  0.12509510063E+03 0.  0.
          5    1    3    3  502    0 -0.19938796441E+02 -0.25570498455E+02 -0.54262369842E+02  0.63350478890E+02  0.41800000000E+01 0. -1.
         -5    1    3    3    0  502  0.11276360838E+03 -0.22545600064E+02 -0.59867413471E+03  0.60963278080E+03  0.41800000000E+01 0. -1.
        -11    1    1    2    0    0 -0.31101921674E+02  0.17794557072E+02 -0.35464263014E+02  0.50415173751E+02  0.00000000000E+00 0.  1.
         11    1    1    2    0    0 -0.61722890261E+02  0.30321541448E+02 -0.40888606194E+03  0.41462865640E+03  0.00000000000E+00 0. -1.
</event>
<event>
 7    1  0.2612213E-009  0.2914881E+03  0.7561462E-02  0.1089575E+00
          1   -1    0    0  501    0  0.00000000000E+00  0.00000000000E+00  0.74750214609E+03  0.74750214609E+03  0.00000000000E+00 0. -1.
         -1   -1    0    0    0  501 -0.00000000000E+00 -0.00000000000E+00 -0.14431550722E+03  0.14431550722E+03  0.00000000000E+00 0.  1.
         25    2    1    2    0    0 -0.31876752926E+02  0.27633692615E+03  0.12480532893E+03  0.32954808675E+03  0.12508935693E+03 0.  0.
          5    1    3    3  502    0 -0.54531600361E+02  0.49406155577E+02  0.10612294871E+02  0.74463124090E+02  0.41800000000E+01 0.  1.
         -5    1    3    3    0  502  0.22654847436E+02  0.22693077057E+03  0.11419303406E+03  0.25508496266E+03  0.41800000000E+01 0.  1.
        -11    1    1    2    0    0 -0.91779476383E+01 -0.84394083213E+02  0.23336506020E+03  0.24832609071E+03  0.00000000000E+00 0. -1.
         11    1    1    2    0    0  0.41054700564E+02 -0.19194284294E+03  0.24501624974E+03  0.31394347585E+03  0.00000000000E+00 0.  1.
</event>
<event>
 7    1  0.2612213E-009  0.1395023E+03  0.7561462E-02  0.1214000E+00
          1   -1    0    0  501    0  0.00000000000E+00  0.00000000000E+00  0.56805841768E+03  0.56805841768E+03  0.00000000000E+00 0. -1.
         -1   -1    0    0    0  501 -0.00000000000E+00 -0.00000000000E+00 -0.47897324877E+02  0.47897324877E+02  0.00000000000E+00 0.  1.
         25    2    1    2    0    0  0.11169162507E+03  0.52509150769E+02  0.25711207666E+03  0.31142608937E+03  0.12508940463E+03 0.  0.
          5    1    3    3  502    0  0.11412067808E+03  0.65844245479E+02  0.26443000406E+03  0.29546521500E+03  0.41800000000E+01 0.  1.
         -5    1    3    3    0  502 -0.24290530046E+01 -0.13335094709E+02 -0.73179273986E+01  0.15960874375E+02  0.41800000000E+01 0.  1.
        -11    1    1    2    0    0 -0.26059836192E+02 -0.38107401437E+02  0.17452116499E+03  0.18052403202E+03  0.00000000000E+00 0. -1.
         11    1    1    2    0    0 -0.85631788883E+02 -0.14401749332E+02  0.88527851156E+02  0.12400562117E+03  0.00000000000E+00 0.  1.
</event>
<event>
 7    1  0.2892119E-009  0.1714062E+03  0.7561462E-02  0.1176389E+00
         -2   -1    0    0    0  501 -0.00000000000E+00  0.00000000000E+00  0.30260807533E+03  0.30260807533E+03  0.00000000000E+00 0.  1.
          2   -1    0    0  501    0  0.00000000000E+00 -0.00000000000E+00 -0.12766073879E+03  0.12766073879E+03  0.00000000000E+00 0. -1.
         25    2    1    2    0    0  0.15780448299E+03 -0.15621220899E+02  0.13616919702E+03  0.24359379969E+03  0.12509840782E+03 0.  0.
          5    1    3    3  502    0  0.36314374567E+02  0.36324768510E+02 -0.30329351730E+01  0.51622608451E+02  0.41800000000E+01 0. -1.
         -5    1    3    3    0  502  0.12149010842E+03 -0.51945989409E+02  0.13920213219E+03  0.19197119124E+03  0.41800000000E+01 0. -1.
        -11    1    1    2    0    0 -0.12542600115E+03  0.17547749834E+02 -0.11148426565E+02  0.12713729863E+03  0.00000000000E+00 0. -1.
         11    1    1    2    0    0 -0.32378481842E+02 -0.19265289345E+01  0.49926566088E+02  0.59537715790E+02  0.00000000000E+00 0.  1.
</event>
<event>
 7    1  0.2612213E-009  0.2612937E+03  0.7561462E-02  0.1106368E+00
          1   -1    0    0  501    0  0.00000000000E+00  0.00000000000E+00  0.20881963294E+03  0.20881963294E+03  0.00000000000E+00 0. -1.
         -1   -1    0    0    0  501 -0.00000000000E+00 -0.00000000000E+00 -0.33416350153E+03  0.33416350153E+03  0.00000000000E+00 0.  1.
         25    2    1    2    0    0  0.87847350477E+01  0.24109701684E+03 -0.71704576042E+02  0.28106077691E+03  0.12509464814E+03 0.  0.
          5    1    3    3  502    0 -0.36916751397E+02  0.16585665973E+02  0.84898753643E+00  0.40695503798E+02  0.41800000000E+01 0. -1.
         -5    1    3    3    0  502  0.45701486445E+02  0.22451135087E+03 -0.72553563578E+02  0.24036527312E+03  0.41800000000E+01 0. -1.
        -11    1    1    2    0    0 -0.38193413255E+02 -0.18991596735E+03 -0.59381062935E+02  0.20261520699E+03  0.00000000000E+00 0.  1.
         11    1    1    2    0    0  0.29408678208E+02 -0.51181049495E+02  0.57417703922E+01  0.59307150568E+02  0.00000000000E+00 0. -1.
</event>
<event>
 7    1  0.2612213E-009  0.1119667E+03  0.7561462E-02  0.1256971E+00
         -1   -1    0    0    0  501 -0.00000000000E+00  0.00000000000E+00  0.91973939925E+02  0.91973939925E+02  0.00000000000E+00 0.  1.
          1   -1    0    0  501    0  0.00000000000E+00 -0.00000000000E+00 -0.45538885422E+03  0.45538885422E+03  0.00000000000E+00 0. -1.
         25    2    1    2    0    0 -0.36592971321E+02  0.47252990381E+02  0.27490041104E+02  0.14133421351E+03  0.12509103445E+03 0.  0.
          5    1    3    3  502    0 -0.24799131334E+02  0.78422526301E+02  0.54054853730E+02  0.98511365629E+02  0.41800000000E+01 0.  1.
         -5    1    3    3    0  502 -0.11793839987E+02 -0.31169535921E+02 -0.26564812625E+02  0.42822847885E+02  0.41800000000E+01 0.  1.
        -11    1    1    2    0    0  0.52606521789E+02  0.54684299771E+01 -0.22812912360E+03  0.23417994555E+03  0.00000000000E+00 0. -1.
         11    1    1    2    0    0 -0.16013550468E+02 -0.52721420358E+02 -0.16277583180E+03  0.17184863509E+03  0.00000000000E+00 0.  1.
</event>
<event>
 7    1  0.2612213E-009  0.2136393E+03  0.7561462E-02  0.1138716E+00
          2   -1    0    0  501    0  0.00000000000E+00  0.00000000000E+00  0.16182630581E+04  0.16182630581E+04  0.00000000000E+00 0. -1.
         -2   -1    0    0    0  501 -0.00000000000E+00 -0.00000000000E+00 -0.32088571962E+02  0.32088571962E+02  0.00000000000E+00 0.  1.
         25    2    1    2    0    0 -0.98369263652E+02 -0.16402529185E+03  0.10325480108E+04  0.10575368694E+04  0.12509207448E+03 0.  0.
          5    1    3    3  502    0  0.27962142660E+02 -0.14530524980E+02  0.18146104767E+03  0.18422432467E+03  0.41800000000E+01 0.  1.
         -5    1    3    3    0  502 -0.12633140631E+03 -0.14949476687E+03  0.85108696318E+03  0.87331254476E+03  0.41800000000E+01 0.  1.
        -11    1    1    2    0    0  0.29348470470E+02  0.10114778023E+02  0.18293471664E+03  0.18554986393E+03  0.00000000000E+00 0.  1.
         11    1    1    2    0    0  0.69020793182E+02  0.15391051382E+03  0.37069175869E+03  0.40726489674E+03  0.00000000000E+00 0. -1.
</event>
<event>
 7    1  0.2612213E-009  0.1120941E+03  0.7561462E-02  0.1256740E+00
         -2   -1    0    0    0  501 -0.00000000000E+00  0.00000000000E+00  0.10051803979E+03  0.10051803979E+03  0.00000000000E+00 0.  1.
          2   -1    0    0  501    0  0.00000000000E+00 -0.00000000000E+00 -0.17349162648E+03  0.17349162648E+03  0.00000000000E+00 0. -1.
         25    2    1    2    0    0 -0.33000402543E+02  0.40471273718E+02  0.13786393019E+02  0.13625032821E+03  0.12508851562E+03 0.  0.
          5    1    3    3  502    0  0.38105985713E+02  0.49085487194E+01 -0.26660971066E+02  0.46951461914E+02  0.41800000000E+01 0. -1.
         -5    1    3    3    0  502 -0.71106388256E+02  0.35562724998E+02  0.40447364086E+02  0.89298866295E+02  0.41800000000E+01 0. -1.
        -11    1    1    2    0    0  0.32778220511E+02 -0.69529310423E+02 -0.71295569093E+02  0.10484176134E+03  0.00000000000E+00 0. -1.
         11    1    1    2    0    0  0.22218203289E+00  0.29058036705E+02 -0.15464410620E+02  0.32917576731E+02  0.00000000000E+00 0.  1.
</event>
<event>
 7    1  0.2612213E-009  0.1070771E+03  0.7561462E-02  0.1266080E+00
          1   -1    0    0  501    0  0.00000000000E+00  0.00000000000E+00  0.98020581775E+03  0.98020581775E+03  0.00000000000E+00 0. -1.
         -1   -1    0    0    0  501 -0.00000000000E+00 -0.00000000000E+00 -0.14708019430E+02  0.14708019430E+02  0.00000000000E+00 0.  1.
         25    2    1    2    0    0  0.48917831515E+01  0.43523323371E+02  0.60584213380E+03  0.62016937143E+03  0.12508856441E+03 0.  0.
          5    1    3    3  502    0  0.61159946743E+02  0.43221869866E+02  0.38456546931E+03  0.39181212552E+03  0.41800000000E+01 0. -1.
         -5    1    3    3    0  502 -0.56268163591E+02  0.30145350498E+00  0.22127666450E+03  0.22835724591E+03  0.41800000000E+01 0. -1.
        -11    1    1    2    0    0 -0.75252859061E+01  0.18848470733E+02  0.17076044830E+02  0.26523312085E+02  0.00000000000E+00 0.  1.
         11    1    1    2    0    0  0.26335027546E+01 -0.62371794104E+02  0.34257961969E+03  0.34822115367E+03  0.00000000000E+00 0. -1.
</event>
<event>
 7    1  0.2612213E-009  0.1275470E+03  0.7561462E-02  0.1231142E+00
         -1   -1    0    0    0  501 -0.00000000000E+00  0.00000000000E+00  0.19795592333E+03  0.19795592333E+03  0.00000000000E+00 0.  1.
          1   -1    0    0  501    0  0.00000000000E+00 -0.00000000000E+00 -0.10500460903E+03  0.10500460903E+03  0.00000000000E+00 0. -1.
         25    2    1    2    0    0  0.43604664042E+01 -0.81521594096E+02  0.27481000593E+02  0.15188444966E+03  0.12509555022E+03 0.  0.
          5    1    3    3  502    0 -0.44340457087E+02  0.80174993265E+01  0.20365256636E+02  0.49624313678E+02  0.41800000000E+01 0. -1.
         -5    1    3    3    0  502  0.48700923491E+02 -0.89539093422E+02  0.71157439568E+01  0.10226013599E+03  0.41800000000E+01 0. -1.
        -11    1    1    2    0    0  0.25638820636E+02  0.56670719031E+01  0.64345801667E+02  0.69497100801E+02  0.00000000000E+00 0.  1.
         11    1    1    2    0    0 -0.29999287040E+02  0.75854522192E+02  0.11245120358E+01  0.81578981897E+02  0.00000000000E+00 0. -1.
</event>
<event>
 7    1  0.2646215E-009  0.1911734E+03  0.7561462E-02  0.1157407E+00
         -2   -1    0    0    0  501 -0.00000000000E+00  0.00000000000E+00  0.30935967475E+02  0.30935967475E+02  0.00000000000E+00 0.  1.
          2   -1    0    0  501    0  0.00000000000E+00 -0.00000000000E+00 -0.12921728794E+04  0.12921728794E+04  0.00000000000E+00 0. -1.
         25    2    1    2    0    0  0.68141760020E+02  0.15216556215E+03 -0.72002903729E+03  0.74959128284E+03  0.12509044332E+03 0.  0.
          5    1    3    3  502    0  0.16912246213E+02  0.15532486577E+03 -0.51511180143E+03  0.53830240420E+03  0.41800000000E+01 0.  1.
         -5    1    3    3    0  502  0.51229513807E+02 -0.31593036234E+01 -0.20491723586E+03  0.21128887864E+03  0.41800000000E+01 0.  1.
        -11    1    1    2    0    0 -0.51343196478E+02 -0.52326843374E+02 -0.12264622991E+03  0.14288568883E+03  0.00000000000E+00 0.  1.
         11    1    1    2    0    0 -0.16798563541E+02 -0.99838718772E+02 -0.41856164472E+03  0.43063187519E+03  0.00000000000E+00 0. -1.
</event>
<event>
 7    1  0.2612213E-009  0.1157674E+03  0.7561462E-02  0.1250248E+00
          2   -1    0    0  501    0  0.00000000000E+00  0.00000000000E+00  0.12344591909E+04  0.12344591909E+04  0.00000000000E+00 0. -1.
         -2   -1    0    0    0  501 -0.00000000000E+00 -0.00000000000E+00 -0.14097868492E+02  0.14097868492E+02  0.00000000000E+00 0.  1.
         25    2    1    2    0    0  0.72588437121E+02 -0.22177842612E+02  0.69621910189E+03  0.71142794007E+03  0.12509091961E+03 0.  0.
          5    1    3    3  502    0 -0.18520381267E+02 -0.31462478703E+02  0.39139853278E+03  0.39311979847E+03  0.41800000000E+01 0.  1.
         -5    1    3    3    0  502  0.91108818388E+02  0.92846360908E+01  0.30482056911E+03  0.31830814160E+03  0.41800000000E+01 0.  1.
        -11    1    1    2    0    0 -0.77180651319E+02  0.38432756580E+02  0.50162362275E+03  0.50897955619E+03  0.00000000000E+00 0. -1.
         11    1    1    2    0    0  0.45922141983E+01 -0.16254913968E+02  0.22518597781E+02  0.28149563147E+02  0.00000000000E+00 0.  1.
</event>
<event>
 7    1  0.2612213E-009  0.1575343E+03  0.7561462E-02  0.1191509E+00
         -2   -1    0    0    0  501 -0.00000000000E+00  0.00000000000E+00  0.30256515204E+03  0.30256515204E+03  0.00000000000E+00 0.  1.
          2   -1    0    0  501    0  0.00000000000E+00 -0.00000000000E+00 -0.88066329291E+02  0.88066329291E+02  0.00000000000E+00 0. -1.
         25    2    1    2    0    0 -0.11982519246E+02  0.11788228552E+03  0.81726469446E+02  0.19069970013E+03  0.12508935133E+03 0.  0.
          5    1    3    3  502    0  0.18271084044E+02  0.13565635938E+03  0.66072152462E+02  0.15205091938E+03  0.41800000000E+01 0. -1.
         -5    1    3    3    0  502 -0.30253603290E+02 -0.17774073864E+02  0.15654316984E+02  0.38648780757E+02  0.41800000000E+01 0. -1.
        -11    1    1    2    0    0  0.45102373274E+02 -0.50523709996E+02  0.92816626914E+02  0.11489906692E+03  0.00000000000E+00 0.  1.
         11    1    1    2    0    0 -0.33119854028E+02 -0.67358575521E+02  0.39955726394E+02  0.85032714285E+02  0.00000000000E+00 0. -1.
</event>
<event>
 7    1  0.2612213E-009  0.2377630E+03  0.7561462E-02  0.1121292E+00
          2   -1    0    0  501    0  0.00000000000E+00  0.00000000000E+00  0.24499989344E+03  0.24499989344E+03  0.00000000000E+00 0. -1.
         -2   -1    0    0    0  501 -0.00000000000E+00 -0.00000000000E+00 -0.25305033130E+03  0.25305033130E+03  0.00000000000E+00 0.  1.
         25    2    1    2    0    0 -0.17557383030E+03 -0.58887012805E+02 -0.74257734328E+02  0.23549082448E+03  0.12509143514E+03 0.  0.
          5    1    3    3  502    0  0.29528620541E+01 -0.42071151101E+02 -0.29943000466E+01  0.42486931897E+02  0.41800000000E+01 0. -1.
         -5    1    3    3    0  502 -0.17852669235E+03 -0.16815861704E+02 -0.71263434282E+02  0.19300389258E+03  0.41800000000E+01 0. -1.
        -11    1    1    2    0    0  0.10040997938E+02 -0.53023926045E+02  0.89382676969E+01  0.54701471665E+02  0.00000000000E+00 0. -1.
         11    1    1    2    0    0  0.16553283236E+03  0.11191093885E+03  0.57269028778E+02  0.20785792860E+03  0.00000000000E+00 0.  1.
</event>
<event>
 7    1  0.2612213E-009  0.8668369E+02  0.7561462E-02  0.1311087E+00
          1   -1    0    0  501    0  0.00000000000E+00  0.00000000000E+00  0.39593856571E+03  0.39593856571E+03  0.00000000000E+00 0. -1.
         -1   -1    0    0    0  501 -0.00000000000E+00 -0.00000000000E+00 -0.64732021276E+02  0.64732021276E+02  0.00000000000E+00 0.  1.
         25    2    1    2    0    0  0.32910567935E+02  0.17268111313E+02  0.34196459502E+03  0.36601664919E+03  0.12508840909E+03 0.  0.
          5    1    3    3  502    0  0.75019871283E+02 -0.11401855586E+02  0.24337907755E+03  0.25496829447E+03  0.41800000000E+01 0. -1.
         -5    1    3    3    0  502 -0.42109303348E+02  0.28669966899E+02  0.98585517471E+02  0.11104835472E+03  0.41800000000E+01 0. -1.
        -11    1    1    2    0    0 -0.23414569878E+01 -0.15458052914E+02  0.35721689310E+02  0.38993241823E+02  0.00000000000E+00 0. -1.
         11    1    1    2    0    0 -0.30569110947E+02 -0.18100583990E+01 -0.46479739895E+02  0.55660695973E+02  0.00000000000E+00 0.  1.
</event>
<event>
 7    1  0.2612213E-009  0.9998271E+02  0.7561462E-02  0.1280332E+00
          1   -1    0    0  501    0  0.00000000000E+00  0.00000000000E+00  0.10072007580E+03  0.10072007580E+03  0.00000000000E+00 0. -1.
         -1   -1    0    0    0  501 -0.00000000000E+00 -0.00000000000E+00 -0.12471622875E+03  0.12471622875E+03  0.00000000000E+00 0.  1.
         25    2    1    2    0    0  0.20038775196E+02 -0.13790550427E+02 -0.24630728832E+01  0.12745830325E+03  0.12509124888E+03 0.  0.
          5    1    3    3  502    0 -0.13624531852E+02  0.39070193034E+02  0.34973428866E+02  0.54338945321E+02  0.41800000000E+01 0. -1.
         -5    1    3    3    0  502  0.33663307048E+02 -0.52860743461E+02 -0.37436501749E+02  0.73119357928E+02  0.41800000000E+01 0. -1.
        -11    1    1    2    0    0  0.69926663491E+01  0.49941518061E+02 -0.12203242447E+02  0.51884214701E+02  0.00000000000E+00 0.  1.
         11    1    1    2    0    0 -0.27031441545E+02 -0.36150967634E+02 -0.93298376163E+01  0.46093786597E+02  0.00000000000E+00 0. -1.
</event>
<event>
 7    1  0.2612213E-009  0.1185783E+03  0.7561462E-02  0.1245461E+00
         -1   -1    0    0    0  501 -0.00000000000E+00  0.00000000000E+00  0.30535859810E+03  0.30535859810E+03  0.00000000000E+00 0. -1.
          1   -1    0    0  501    0  0.00000000000E+00 -0.00000000000E+00 -0.52650025933E+02  0.52650025933E+02  0.00000000000E+00 0.  1.
         25    2    1    2    0    0  0.39869927043E+02 -0.40980049578E+02  0.18422801873E+03  0.22990545805E+03  0.12509029223E+03 0.  0.
          5    1    3    3  502    0 -0.45090445756E+02 -0.80035473034E+01  0.69286483103E+02  0.83158247990E+02  0.41800000000E+01 0. -1.
         -5    1    3    3    0  502  0.84960372800E+02 -0.32976502274E+02  0.11494153563E+03  0.14674721006E+03  0.41800000000E+01 0. -1.
        -11    1    1    2    0    0  0.25554424013E+02  0.14307197772E+02 -0.59664988765E+00  0.29293010869E+02  0.00000000000E+00 0.  1.
         11    1    1    2    0    0 -0.65424351056E+02  0.26672851806E+02  0.69077203329E+02  0.98810155117E+02  0.00000000000E+00 0. -1.
</event>
<event>
 6    1  0.2612213E-009  0.8724178E+02  0.7561462E-02  0.1309672E+00
          2   -1    0    0  501    0  0.00000000000E+00  0.00000000000E+00  0.13513894997E+04  0.13513894997E+04  0.00000000000E+00 0. -1.
         -2   -1    0    0    0  501 -0.00000000000E+00 -0.00000000000E+00 -0.16663135985E+02  0.16663135985E+02  0.00000000000E+00 0.  1.
          5    1    1    2  502    0  0.31200966446E+02  0.16229680298E+02  0.77613507466E+02  0.85312553420E+02  0.41800000000E+01 0.  1.
         -5    1    1    2    0  502  0.27818943484E+02 -0.48929805879E+02  0.10070984191E+04  0.10086786989E+04  0.41800000000E+01 0.  1.
        -11    1    1    2    0    0 -0.67269151423E+02  0.26474142583E+02  0.25314317503E+03  0.26326314976E+03  0.00000000000E+00 0. -1.
         11    1    1    2    0    0  0.82492414938E+01  0.62259829977E+01 -0.31287378112E+01  0.10798233643E+02  0.00000000000E+00 0.  1.
</event>
<event>
 7    1  0.2612213E-009  0.9397438E+02  0.7561462E-02  0.1293503E+00
         -1   -1    0    0    0  501 -0.00000000000E+00  0.00000000000E+00  0.25421420011E+02  0.25421420011E+02  0.00000000000E+00 0.  1.
          1   -1    0    0  501    0  0.00000000000E+00 -0.00000000000E+00 -0.51606760167E+03  0.51606760167E+03  0.00000000000E+00 0. -1.
         25    2    1    2    0    0 -0.30963480104E+02 -0.15424537221E+02 -0.24966179781E+03  0.28137907705E+03  0.12508604345E+03 0.  0.
          5    1    3    3  502    0  0.31160332339E+02 -0.16448063863E+02 -0.19596804104E+03  0.19915433871E+03  0.41800000000E+01 0.  1.
         -5    1    3    3    0  502 -0.62123812443E+02  0.10235266420E+01 -0.53693756767E+02  0.82224738340E+02  0.41800000000E+01 0.  1.
        -11    1    1    2    0    0  0.35293429759E+02  0.46746838049E+02 -0.10244541992E+03  0.11800829256E+03  0.00000000000E+00 0. -1.
         11    1    1    2    0    0 -0.43299496548E+01 -0.31322300829E+02 -0.13853896393E+03  0.14210165207E+03  0.00000000000E+00 0.  1.
</event>
<event>
 7    1  0.2612213E-009  0.2046283E+03  0.7561462E-02  0.1145892E+00
          2   -1    0    0  501    0  0.00000000000E+00  0.00000000000E+00  0.25443258781E+03  0.25443258781E+03  0.00000000000E+00 0. -1.
         -2   -1    0    0    0  501 -0.00000000000E+00 -0.00000000000E+00 -0.20636448658E+03  0.20636448658E+03  0.00000000000E+00 0.  1.
         25    2    1    2    0    0 -0.17442256565E+03 -0.62957034242E+02 -0.53696957147E+02  0.23003749960E+03  0.12508824265E+03 0.  0.
          5    1    3    3  502    0  0.11064642657E+02  0.17679692428E+02 -0.29996414721E+01  0.21481808361E+02  0.41800000000E+01 0.  1.
         -5    1    3    3    0  502 -0.18548720831E+03 -0.80636726670E+02 -0.50697315674E+02  0.20855569124E+03  0.41800000000E+01 0.  1.
        -11    1    1    2    0    0  0.12077242743E+03  0.48266870189E+02  0.19588810954E+02  0.13152715119E+03  0.00000000000E+00 0.  1.
         11    1    1    2    0    0  0.53650138215E+02  0.14690164053E+02  0.82176247430E+02  0.99232423593E+02  0.00000000000E+00 0. -1.
</event>
<event>
 7    1  0.2612213E-009  0.9294279E+02  0.7561462E-02  0.1295878E+00
         -2   -1    0    0    0  501 -0.00000000000E+00  0.00000000000E+00  0.93870849484E+02  0.93870849484E+02  0.00000000000E+00 0.  1.
          2   -1    0    0  501    0  0.00000000000E+00 -0.00000000000E+00 -0.18850102524E+03  0.18850102524E+03  0.00000000000E+00 0. -1.
         25    2    1    2    0    0  0.31123311701E+02  0.55574566698E+02 -0.10094764876E+03  0.17290110231E+03  0.12508865014E+03 0.  0.
          5    1    3    3  502    0  0.21855408897E+02 -0.22797631247E+01 -0.11106524561E+03  0.11329526645E+03  0.41800000000E+01 0. -1.
         -5    1    3    3    0  502  0.92679028041E+01  0.57854329823E+02  0.10117596852E+02  0.59605835853E+02  0.41800000000E+01 0. -1.
        -11    1    1    2    0    0 -0.54528875247E+02 -0.12790475408E+02 -0.12170902697E+02  0.57316013201E+02  0.00000000000E+00 0. -1.
         11    1    1    2    0    0  0.23405563546E+02 -0.42784091291E+02  0.18488375704E+02  0.52154759214E+02  0.00000000000E+00 0.  1.
</event>
<event>
 7    1  0.2612213E-009  0.1045872E+03  0.7561462E-02  0.1270935E+00
          2   -1    0    0  501    0  0.00000000000E+00  0.00000000000E+00  0.20422426098E+03  0.20422426098E+03  0.00000000000E+00 0. -1.
         -2   -1    0    0    0  501 -0.00000000000E+00 -0.00000000000E+00 -0.82000855777E+02  0.82000855777E+02  0.00000000000E+00 0.  1.
         25    2    1    2    0    0  0.55889035096E+02  0.32267317047E+02  0.47249146233E+02  0.14848590277E+03  0.12510322741E+03 0.  0.
          5    1    3    3  502    0  0.91130784229E+02  0.18481574032E+02  0.74011780290E+01  0.93373648579E+02  0.41800000000E+01 0. -1.
         -5    1    3    3    0  502 -0.35241749133E+02  0.13785743015E+02  0.39847968204E+02  0.55112254195E+02  0.41800000000E+01 0. -1.
        -11    1    1    2    0    0 -0.50544439035E+02 -0.42786899756E+02  0.45997213480E+01  0.66382351153E+02  0.00000000000E+00 0.  1.
         11    1    1    2    0    0 -0.53445960609E+01  0.10519582709E+02  0.70374537625E+02  0.71356862833E+02  0.00000000000E+00 0. -1.
</event>
<event>
 6    1  0.2612213E-009  0.1359776E+03  0.7561462E-02  0.1218846E+00
          1   -1    0    0  501    0  0.00000000000E+00  0.00000000000E+00  0.48353700248E+02  0.48353700248E+02  0.00000000000E+00 0. -1.
         -1   -1    0    0    0  501 -0.00000000000E+00 -0.00000000000E+00 -0.51299688120E+03  0.51299688120E+03  0.00000000000E+00 0.  1.
          5    1    1    2  502    0  0.12648500398E+03 -0.95422062813E+01 -0.23769136773E+03  0.26945160721E+03  0.41800000000E+01 0.  1.
         -5    1    1    2    0  502 -0.49025181937E+01  0.14078659496E+02  0.91516018325E+01  0.17985203750E+02  0.41800000000E+01 0.  1.
        -11    1    1    2    0    0 -0.50343406824E+02 -0.23909945997E+02 -0.54825268609E+02  0.78178988266E+02  0.00000000000E+00 0. -1.
         11    1    1    2    0    0 -0.71239078964E+02  0.19373492782E+02 -0.18127814645E+03  0.19573478223E+03  0.00000000000E+00 0.  1.
</event>
<event>
 7    1  0.2612213E-009  0.1163839E+03  0.7561462E-02  0.1249185E+00
          1   -1    0    0  501    0  0.00000000000E+00  0.00000000000E+00  0.69111374090E+02  0.69111374090E+02  0.00000000000E+00 0. -1.
         -1   -1    0    0    0  501 -0.00000000000E+00 -0.00000000000E+00 -0.25534509540E+03  0.25534509540E+03  0.00000000000E+00 0.  1.
         25    2    1    2    0    0  0.55656472291E+02 -0.52682590324E+02 -0.11133723207E+03  0.18416380658E+03  0.12508888911E+03 0.  0.
          5    1    3    3  502    0  0.77986349835E+02 -0.45136108667E+02 -0.23627864360E+02  0.93246380308E+02  0.41800000000E+01 0.  1.
         -5    1    3    3    0  502 -0.22329877545E+02 -0.75464816575E+01 -0.87709367709E+02  0.90917426275E+02  0.41800000000E+01 0.  1.
        -11    1    1    2    0    0 -0.26612301769E+02 -0.24491990749E+02 -0.22507345213E+02  0.42598741822E+02  0.00000000000E+00 0.  1.
         11    1    1    2    0    0 -0.29044170522E+02  0.77174581073E+02 -0.52389144028E+02  0.97693921086E+02  0.00000000000E+00 0. -1.
</event>
<event>
 7    1  0.2612213E-009  0.8956178E+02  0.7561462E-02  0.1303916E+00
          2   -1    0    0  501    0  0.00000000000E+00  0.00000000000E+00  0.43211359115E+02  0.43211359115E+02  0.00000000000E+00 0. -1.
         -2   -1    0    0    0  501 -0.00000000000E+00 -0.00000000000E+00 -0.34334797863E+03  0.34334797863E+03  0.00000000000E+00 0.  1.
         25    2    1    2    0    0  0.18706243039E+01  0.56517795161E+02 -0.18382367221E+03  0.22942865904E+03  0.12509439124E+03 0.  0.
          5    1    3    3  502    0 -0.26919683588E+02 -0.13822587898E+02 -0.86963178673E-01  0.30548539462E+02  0.41800000000E+01 0. -1.
         -5    1    3    3    0  502  0.28790307892E+02  0.70340383058E+02 -0.18373670903E+03  0.19888011957E+03  0.41800000000E+01 0. -1.
        -11    1    1    2    0    0 -0.15656424811E+02 -0.56542599178E+02 -0.12686198538E+03  0.13977178719E+03  0.00000000000E+00 0.  1.
         11    1    1    2    0    0  0.13785800507E+02  0.24804017626E-01  0.10549038065E+02  0.17358891524E+02  0.00000000000E+00 0. -1.
</event>
<event>
 7    1  0.2612213E-009  0.1967800E+03  0.7561462E-02  0.1152485E+00
         -2   -1    0    0    0  501 -0.00000000000E+00  0.00000000000E+00  0.70567979474E+02  0.70567979474E+02  0.00000000000E+00 0.  1.
          2   -1    0    0  501    0  0.00000000000E+00 -0.00000000000E+00 -0.70084201751E+03  0.70084201751E+03  0.00000000000E+00 0. -1.
         25    2    1    2    0    0 -0.97116592022E+02 -0.14456166094E+03 -0.18021844762E+03  0.28010800395E+03  0.12510834805E+03 0.  0.
          5    1    3    3  502    0 -0.86111419408E+02 -0.42886151010E+02 -0.14047324978E+03  0.17030738329E+03  0.41800000000E+01 0. -1.
         -5    1    3    3    0  502 -0.11005172615E+02 -0.10167550993E+03 -0.39745197842E+02  0.10980062065E+03  0.41800000000E+01 0. -1.
        -11    1    1    2    0    0  0.64658179482E+02  0.14874237077E+03 -0.39844521725E+03  0.43019014887E+03  0.00000000000E+00 0. -1.
         11    1    1    2    0    0  0.32458412540E+02 -0.41807098214E+01 -0.51610373167E+02  0.61111844168E+02  0.00000000000E+00 0.  1.
</event>
<event>
 7    1  0.2612213E-009  0.1054641E+03  0.7561462E-02  0.1269208E+00
         -2   -1    0    0    0  501 -0.00000000000E+00  0.00000000000E+00  0.76384414048E+02  0.76384414048E+02  0.00000000000E+00 0.  1.
          2   -1    0    0  501    0  0.00000000000E+00 -0.00000000000E+00 -0.25194345706E+03  0.25194345706E+03  0.00000000000E+00 0. -1.
         25    2    1    2    0    0  0.53593259059E+02  0.28097705169E+02 -0.22688521321E+02  0.14079932867E+03  0.12509182029E+03 0.  0.
          5    1    3    3  502    0  0.74927237127E+02  0.75509862681E+01 -0.57544203991E+02  0.94867887455E+02  0.41800000000E+01 0.  1.
         -5    1    3    3    0  502 -0.21333978068E+02  0.20546718901E+02  0.34855682671E+02  0.45931441217E+02  0.41800000000E+01 0.  1.
        -11    1    1    2    0    0  0.24087555027E+02 -0.74791087530E+01 -0.57635035665E+02  0.62912198428E+02  0.00000000000E+00 0. -1.
         11    1    1    2    0    0 -0.77680814086E+02 -0.20618596416E+02 -0.95235486022E+02  0.12461634401E+03  0.00000000000E+00 0.  1.
</event>
<event>
 7    1  0.2612213E-009  0.1767353E+03  0.7561462E-02  0.1171001E+00
         -1   -1    0    0    0  501 -0.00000000000E+00  0.00000000000E+00  0.19335072888E+03  0.19335072888E+03  0.00000000000E+00 0.  1.
          1   -1    0    0  501    0  0.00000000000E+00 -0.00000000000E+00 -0.19264656433E+03  0.19264656433E+03  0.00000000000E+00 0. -1.
         25    2    1    2    0    0  0.63658691323E+02  0.14653293533E+03  0.29846941683E+00  0.20290778411E+03  0.12508856723E+03 0.  0.
          5    1    3    3  502    0  0.33312075186E+02  0.14296895115E+03 -0.39957140378E+02  0.15219678319E+03  0.41800000000E+01 0.  1.
         -5    1    3    3    0  502  0.30346616137E+02  0.35639841804E+01  0.40255609794E+02  0.50711000918E+02  0.41800000000E+01 0.  1.
        -11    1    1    2    0    0 -0.66465607943E+02 -0.61064552800E+02 -0.25403618525E+02  0.93765134683E+02  0.00000000000E+00 0.  1.
         11    1    1    2    0    0  0.28069166200E+01 -0.85468382535E+02  0.25809313660E+02  0.89324374421E+02  0.00000000000E+00 0. -1.
</event>
<event>
 7    1  0.2612213E-009  0.1094906E+03  0.7561462E-02  0.1261516E+00
         -1   -1    0    0    0  501 -0.00000000000E+00  0.00000000000E+00  0.22736611122E+02  0.22736611122E+02  0.00000000000E+00 0.  1.
          1   -1    0    0  501    0  0.00000000000E+00 -0.00000000000E+00 -0.81309766680E+03  0.81309766680E+03  0.00000000000E+00 0. -1.
         25    2    1    2    0    0 -0.10638760939E+02  0.78995857036E+02 -0.36184188571E+03  0.39106399946E+03  0.12509185727E+03 0.  0.
          5    1    3    3  502    0 -0.35203513573E+02  0.33094824647E+02 -0.34341784419E+02  0.59425460397E+02  0.41800000000E+01 0. -1.
         -5    1    3    3    0  502  0.24564752634E+02  0.45901032390E+02 -0.32750010129E+03  0.33163853906E+03  0.41800000000E+01 0. -1.
        -11    1    1    2    0    0  0.48776615577E+02 -0.35025661434E+02 -0.19065440681E+03  0.19988761348E+03  0.00000000000E+00 0.  1.
         11    1    1    2    0    0 -0.38137854638E+02 -0.43970195602E+02 -0.23786476315E+03  0.24488266498E+03  0.00000000000E+00 0. -1.
</event>
<event>
 7    1  0.3121399E-009  0.1214627E+03  0.7561462E-02  0.1240703E+00
         -2   -1    0    0    0  501 -0.00000000000E+00  0.00000000000E+00  0.24184020620E+02  0.24184020620E+02  0.00000000000E+00 0. -1.
          2   -1    0    0  501    0  0.00000000000E+00 -0.00000000000E+00 -0.82709602312E+03  0.82709602312E+03  0.00000000000E+00 0.  1.
         25    2    1    2    0    0 -0.74046984791E+02  0.50546955580E+02 -0.41560693833E+03  0.44318734742E+03  0.12509175454E+03 0.  0.
          5    1    3    3  502    0 -0.10584328610E+03  0.45831167930E+02 -0.26355418854E+03  0.28771788242E+03  0.41800000000E+01 0. -1.
         -5    1    3    3    0  502  0.31796301313E+02  0.47157876492E+01 -0.15205274979E+03  0.15546946500E+03  0.41800000000E+01 0. -1.
        -11    1    1    2    0    0  0.56463293401E+02 -0.20098033507E+02 -0.35601568300E+03  0.36102520826E+03  0.00000000000E+00 0.  1.
         11    1    1    2    0    0  0.17583691390E+02 -0.30448922073E+02 -0.31289381169E+02  0.47067488060E+02  0.00000000000E+00 0. -1.
</event>
<event>
 7    1  0.2612213E-009  0.1008533E+03  0.7561462E-02  0.1278512E+00
          1   -1    0    0  501    0  0.00000000000E+00  0.00000000000E+00  0.11246543495E+03  0.11246543495E+03  0.00000000000E+00 0. -1.
         -1   -1    0    0    0  501 -0.00000000000E+00 -0.00000000000E+00 -0.14119521395E+03  0.14119521395E+03  0.00000000000E+00 0.  1.
         25    2    1    2    0    0  0.12596402957E+02 -0.33650439919E+02  0.36015986544E+02  0.13504239276E+03  0.12509306568E+03 0.  0.
          5    1    3    3  502    0  0.70495059275E+01 -0.81386820912E+02  0.25372559767E+02  0.85643151162E+02  0.41800000000E+01 0. -1.
         -5    1    3    3    0  502  0.55468970299E+01  0.47736380993E+02  0.10643426777E+02  0.49399241599E+02  0.41800000000E+01 0. -1.
        -11    1    1    2    0    0  0.20405824734E+02  0.32832143373E+02  0.73266687037E+01  0.39344979297E+02  0.00000000000E+00 0. -1.
         11    1    1    2    0    0 -0.33002227691E+02  0.81829654516E+00 -0.72072434251E+02  0.79273276838E+02  0.00000000000E+00 0.  1.
</event>
<event>
 7    1  0.2612213E-009  0.1040214E+03  0.7561462E-02  0.1272060E+00
         -2   -1    0    0    0  501 -0.00000000000E+00  0.00000000000E+00  0.17734700179E+02  0.17734700179E+02  0.00000000000E+00 0.  1.
          2   -1    0    0  501    0  0.00000000000E+00 -0.00000000000E+00 -0.81536639095E+03  0.81536639095E+03  0.00000000000E+00 0. -1.
         25    2    1    2    0    0  0.40779713294E+02 -0.15733823226E+02 -0.54470317296E+03  0.56058802578E+03  0.12508736867E+03 0.  0.
          5    1    3    3  502    0 -0.18837318511E+02 -0.49780742280E+02 -0.35096593958E+03  0.35500356339E+03  0.41800000000E+01 0.  1.
         -5    1    3    3    0  502  0.59617031806E+02  0.34046919054E+02 -0.19373723338E+03  0.20558446239E+03  0.41800000000E+01 0.  1.
        -11    1    1    2    0    0 -0.31271276757E+01  0.40618893874E+02 -0.49356463787E+02  0.63997921721E+02  0.00000000000E+00 0.  1.
         11    1    1    2    0    0 -0.37652585619E+02 -0.24885070648E+02 -0.20357205402E+03  0.20851514363E+03  0.00000000000E+00 0. -1.
</event>
<event>
 7    1  0.2612213E-009  0.1279772E+03  0.7561462E-02  0.1230488E+00
         -2   -1    0    0    0  501 -0.00000000000E+00  0.00000000000E+00  0.16678342471E+02  0.16678342471E+02  0.00000000000E+00 0.  1.
          2   -1    0    0  501    0  0.00000000000E+00 -0.00000000000E+00 -0.10782277277E+04  0.10782277277E+04  0.00000000000E+00 0. -1.
         25    2    1    2    0    0  0.37886317841E+02  0.64879928384E+02 -0.52497386059E+03  0.54487587901E+03  0.12508953209E+03 0.  0.
          5    1    3    3  502    0 -0.42402109414E+02  0.19657440837E+02 -0.26259766341E+03  0.26675711629E+03  0.41800000000E+01 0.  1.
         -5    1    3    3    0  502  0.80288427255E+02  0.45222487547E+02 -0.26237619718E+03  0.27811876272E+03  0.41800000000E+01 0.  1.
        -11    1    1    2    0    0  0.28578995644E+02 -0.90266945408E+01 -0.83597349566E+02  0.88807415574E+02  0.00000000000E+00 0.  1.
         11    1    1    2    0    0 -0.66465313485E+02 -0.55853233843E+02 -0.45297817511E+03  0.46122277562E+03  0.00000000000E+00 0. -1.
</event>
<event>
 7    1  0.2612213E-009  0.1030983E+03  0.7561462E-02  0.1273912E+00
         -2   -1    0    0    0  501 -0.00000000000E+00  0.00000000000E+00  0.20128852738E+03  0.20128852738E+03  0.00000000000E+00 0. -1.
          2   -1    0    0  501    0  0.00000000000E+00 -0.00000000000E+00 -0.63782431486E+02  0.63782431486E+02  0.00000000000E+00 0.  1.
         25    2    1    2    0    0  0.23267649005E+01  0.30664566175E+02  0.70480709106E+02  0.14683560558E+03  0.12508970884E+03 0.  0.
          5    1    3    3  502    0 -0.43138997669E+02  0.43550176318E+02 -0.52015529552E+00  0.61443746132E+02  0.41800000000E+01 0. -1.
         -5    1    3    3    0  502  0.45465762570E+02 -0.12885610144E+02  0.71000864402E+02  0.85391859452E+02  0.41800000000E+01 0. -1.
        -11    1    1    2    0    0 -0.33350195129E+02  0.19277317443E+02  0.24083497125E+02  0.45429784467E+02  0.00000000000E+00 0.  1.
         11    1    1    2    0    0  0.31023430229E+02 -0.49941883618E+02  0.42941889662E+02  0.72805568813E+02  0.00000000000E+00 0. -1.
</event>
<event>
 7    1  0.2612213E-009  0.9319814E+02  0.7561462E-02  0.1295287E+00
          1   -1    0    0  501    0  0.00000000000E+00  0.00000000000E+00  0.30104273762E+03  0.30104273762E+03  0.00000000000E+00 0. -1.
         -1   -1    0    0    0  501 -0.00000000000E+00 -0.00000000000E+00 -0.56317362881E+02  0.56317362881E+02  0.00000000000E+00 0.  1.
         25    2    1    2    0    0  0.17761298196E+02  0.59304481915E+02  0.81095985760E+02  0.16142083083E+03  0.12509052894E+03 0.  0.
          5    1    3    3  502    0 -0.99069688120E+01  0.46730109433E+02  0.10954626921E+03  0.11958138926E+03  0.41800000000E+01 0.  1.
         -5    1    3    3    0  502  0.27668267008E+02  0.12574372482E+02 -0.28450283453E+02  0.41839441573E+02  0.41800000000E+01 0.  1.
        -11    1    1    2    0    0  0.18506676474E+02 -0.67998440579E+02  0.10868426588E+03  0.12953206030E+03  0.00000000000E+00 0.  1.
         11    1    1    2    0    0 -0.36267974670E+02  0.86939586637E+01  0.54945123102E+02  0.66407209372E+02  0.00000000000E+00 0. -1.
</event>
<event>
 7    1  0.2644061E-009  0.2565390E+03  0.7561462E-02  0.1109241E+00
         -2   -1    0    0    0  501 -0.00000000000E+00  0.00000000000E+00  0.17266672494E+03  0.17266672494E+03  0.00000000000E+00 0.  1.
          2   -1    0    0  501    0  0.00000000000E+00 -0.00000000000E+00 -0.47052888090E+03  0.47052888090E+03  0.00000000000E+00 0. -1.
         25    2    1    2    0    0 -0.24579700091E+03  0.58943277205E+02 -0.69494870175E+02  0.29045888112E+03  0.12508536707E+03 0.  0.
          5    1    3    3  502    0 -0.11123097554E+03  0.58358380532E+02  0.22120103390E+02  0.12761191900E+03  0.41800000000E+01 0. -1.
         -5    1    3    3    0  502 -0.13456602537E+03  0.58489667241E+00 -0.91614973564E+02  0.16284696212E+03  0.41800000000E+01 0. -1.
        -11    1    1    2    0    0  0.14008860302E+03 -0.33684733893E+02 -0.68782288972E+02  0.15965738714E+03  0.00000000000E+00 0.  1.
         11    1    1    2    0    0  0.10570839789E+03 -0.25258543311E+02 -0.15958499681E+03  0.19307933758E+03  0.00000000000E+00 0. -1.
</event>
<event>
 7    1  0.2612213E-009  0.8279949E+02  0.7561462E-02  0.1321290E+00
         -1   -1    0    0    0  501 -0.00000000000E+00  0.00000000000E+00  0.21547067036E+02  0.21547067036E+02  0.00000000000E+00 0.  1.
          1   -1    0    0  501    0  0.00000000000E+00 -0.00000000000E+00 -0.70387479435E+03  0.70387479435E+03  0.00000000000E+00 0. -1.
         25    2    1    2    0    0 -0.52924185440E+01 -0.54602481010E+02 -0.43975662258E+03  0.46048193560E+03  0.12509310645E+03 0.  0.
          5    1    3    3  502    0  0.87571081934E+01 -0.40644507215E+02 -0.33063296013E+02  0.53285240488E+02  0.41800000000E+01 0.  1.
         -5    1    3    3    0  502 -0.14049526737E+02 -0.13957973795E+02 -0.40669332657E+03  0.40719669511E+03  0.41800000000E+01 0.  1.
        -11    1    1    2    0    0 -0.30088729588E+02 -0.84654796131E+01 -0.47163906248E+02  0.56581181022E+02  0.00000000000E+00 0.  1.
         11    1    1    2    0    0  0.35381148132E+02  0.63067960623E+02 -0.19540719848E+03  0.20835874476E+03  0.00000000000E+00 0. -1.
</event>
<event>
 7    1  0.2612213E-009  0.1323372E+03  0.7561462E-02  0.1224028E+00
          1   -1    0    0  501    0  0.00000000000E+00  0.00000000000E+00  0.10936258922E+03  0.10936258922E+03  0.00000000000E+00 0. -1.
         -1   -1    0    0    0  501 -0.00000000000E+00 -0.00000000000E+00 -0.26309189750E+03  0.26309189750E+03  0.00000000000E+00 0.  1.
         25    2    1    2    0    0 -0.60017148046E+02 -0.45895596229E+02  0.34238713276E+02  0.15009358020E+03  0.12508928618E+03 0.  0.
          5    1    3    3  502    0 -0.89227347023E+02 -0.65227519998E+02  0.29718596201E+02  0.11452866969E+03  0.41800000000E+01 0.  1.
         -5    1    3    3    0  502  0.29210198977E+02  0.19331923770E+02  0.45201170748E+01  0.35564910506E+02  0.41800000000E+01 0.  1.
        -11    1    1    2    0    0  0.48337101518E+02 -0.19676106276E+02 -0.81743878502E+02  0.96982917124E+02  0.00000000000E+00 0.  1.
         11    1    1    2    0    0  0.11680046528E+02  0.65571702505E+02 -0.10622414306E+03  0.12537798940E+03  0.00000000000E+00 0. -1.
</event>
<event>
 7    1  0.2612213E-009  0.9489145E+02  0.7561462E-02  0.1291421E+00
          1   -1    0    0  501    0  0.00000000000E+00  0.00000000000E+00  0.37414222808E+03  0.37414222808E+03  0.00000000000E+00 0. -1.
         -1   -1    0    0    0  501 -0.00000000000E+00 -0.00000000000E+00 -0.42414262307E+02  0.42414262307E+02  0.00000000000E+00 0.  1.
         25    2    1    2    0    0 -0.55930835243E+01  0.47316421923E+02  0.24606323336E+03  0.28011607179E+03  0.12509105681E+03 0.  0.
          5    1    3    3  502    0 -0.27475780525E+00  0.86633745419E+02  0.12122834416E+03  0.14906127990E+03  0.41800000000E+01 0. -1.
         -5    1    3    3    0  502 -0.53183257191E+01 -0.39317323496E+02  0.12483488920E+03  0.13105479189E+03  0.41800000000E+01 0. -1.
        -11    1    1    2    0    0  0.20087446993E+02 -0.86714035499E+01 -0.15743397462E+02  0.26954653214E+02  0.00000000000E+00 0.  1.
         11    1    1    2    0    0 -0.14494363469E+02 -0.38645018373E+02  0.10140812987E+03  0.10948576538E+03  0.00000000000E+00 0. -1.
</event>
<event>
 7    1  0.3133664E-009  0.2373859E+03  0.7561462E-02  0.1121547E+00
          1   -1    0    0  501    0  0.00000000000E+00  0.00000000000E+00  0.10165339751E+04  0.10165339751E+04  0.00000000000E+00 0. -1.
         -1   -1    0    0    0  501 -0.00000000000E+00 -0.00000000000E+00 -0.70988535668E+02  0.70988535668E+02  0.00000000000E+00 0.  1.
         25    2    1    2    0    0 -0.42298876664E+01  0.22980450172E+03  0.31158855716E+03  0.40689694749E+03  0.12509874487E+03 0.  0.
          5    1    3    3  502    0 -0.44113445757E+02  0.12471533448E+03  0.95249219837E+02  0.16306378209E+03  0.41800000000E+01 0. -1.
         -5    1    3    3    0  502  0.39883558091E+02  0.10508916724E+03  0.21633933732E+03  0.24383316540E+03  0.41800000000E+01 0. -1.
        -11    1    1    2    0    0 -0.11315023776E+01 -0.11757463402E+03  0.44966535800E+03  0.46478383045E+03  0.00000000000E+00 0. -1.
         11    1    1    2    0    0  0.53613900440E+01 -0.11222986770E+03  0.18429152424E+03  0.21584173279E+03  0.00000000000E+00 0.  1.
</event>
<event>
 7    1  0.2612213E-009  0.1411471E+03  0.7561462E-02  0.1211794E+00
         -1   -1    0    0    0  501 -0.00000000000E+00  0.00000000000E+00  0.15427003474E+03  0.15427003474E+03  0.00000000000E+00 0.  1.
          1   -1    0    0  501    0  0.00000000000E+00 -0.00000000000E+00 -0.17402864438E+03  0.17402864438E+03  0.00000000000E+00 0. -1.
         25    2    1    2    0    0 -0.10218592445E+02 -0.12076428593E+03 -0.75212396638E-01  0.17417741452E+03  0.12509729687E+03 0.  0.
          5    1    3    3  502    0  0.43212918340E+02 -0.56540958415E+02  0.39654822765E+02  0.81573363658E+02  0.41800000000E+01 0.  1.
         -5    1    3    3    0  502 -0.53431510785E+02 -0.64223327517E+02 -0.39730035162E+02  0.92604050862E+02  0.41800000000E+01 0.  1.
        -11    1    1    2    0    0 -0.15106636935E+02  0.43101284703E+02  0.33504765857E+02  0.56643627688E+02  0.00000000000E+00 0.  1.
         11    1    1    2    0    0  0.25325229380E+02  0.77663001229E+02 -0.53188163100E+02  0.97477636907E+02  0.00000000000E+00 0. -1.
</event>
<event>
 7    1  0.2612213E-009  0.2415957E+03  0.7561462E-02  0.1118734E+00
         -1   -1    0    0    0  501 -0.00000000000E+00  0.00000000000E+00  0.67566134176E+02  0.67566134176E+02  0.00000000000E+00 0.  1.
          1   -1    0    0  501    0  0.00000000000E+00 -0.00000000000E+00 -0.19272916704E+04  0.19272916704E+04  0.00000000000E+00 0. -1.
         25    2    1    2    0    0  0.93700133405E+02 -0.19598001951E+03 -0.16813740597E+04  0.16999573522E+04  0.12509351524E+03 0.  0.
          5    1    3    3  502    0 -0.70851874799E+01 -0.12521271789E+03 -0.95453731922E+03  0.96274991082E+03  0.41800000000E+01 0.  1.
         -5    1    3    3    0  502  0.10078532088E+03 -0.70767301617E+02 -0.72683674049E+03  0.73720744137E+03  0.41800000000E+01 0.  1.
        -11    1    1    2    0    0 -0.86054162676E+02  0.77640116420E+02 -0.96392252662E+02  0.15074738129E+03  0.00000000000E+00 0.  1.
         11    1    1    2    0    0 -0.76459707287E+01  0.11833990309E+03 -0.81959223841E+02  0.14415307109E+03  0.00000000000E+00 0. -1.
</event>
<event>
 7    1  0.2612213E-009  0.2016367E+03  0.7561462E-02  0.1148365E+00
         -2   -1    0    0    0  501 -0.00000000000E+00  0.00000000000E+00  0.15637101459E+03  0.15637101459E+03  0.00000000000E+00 0.  1.
          2   -1    0    0  501    0  0.00000000000E+00 -0.00000000000E+00 -0.44007684480E+03  0.44007684480E+03  0.00000000000E+00 0. -1.
         25    2    1    2    0    0 -0.84504027107E+02 -0.17611540471E+03 -0.30111185006E+03  0.38009609093E+03  0.12508847159E+03 0.  0.
          5    1    3    3  502    0 -0.39916151381E+00 -0.79833034137E+02 -0.20519114669E+03  0.22021433139E+03  0.41800000000E+01 0. -1.
         -5    1    3    3    0  502 -0.84104865593E+02 -0.96282370573E+02 -0.95920703363E+02  0.15988175954E+03  0.41800000000E+01 0. -1.
        -11    1    1    2    0    0  0.56181363340E+02  0.11091984232E+03  0.54980231245E+02  0.13594992768E+03  0.00000000000E+00 0.  1.
         11    1    1    2    0    0  0.28322663767E+02  0.65195562388E+02 -0.37574211397E+02  0.80401840775E+02  0.00000000000E+00 0. -1.
</event>
<event>
 7    1  0.2612213E-009  0.1180617E+03  0.7561462E-02  0.1246329E+00
          2   -1    0    0  501    0  0.00000000000E+00  0.00000000000E+00  0.53785873484E+02  0.53785873484E+02  0.00000000000E+00 0. -1.
         -2   -1    0    0    0  501 -0.00000000000E+00 -0.00000000000E+00 -0.31361994853E+03  0.31361994853E+03  0.00000000000E+00 0.  1.
         25    2    1    2    0    0  0.23565619880E+02  0.49188230741E+02 -0.20911970972E+03  0.24970696769E+03  0.12509075201E+03 0.  0.
          5    1    3    3  502    0 -0.41372114610E+02 -0.12588454731E+02 -0.44312647375E+02  0.62058071008E+02  0.41800000000E+01 0. -1.
         -5    1    3    3    0  502  0.64937734489E+02  0.61776685473E+02 -0.16480706234E+03  0.18764889668E+03  0.41800000000E+01 0. -1.
        -11    1    1    2    0    0 -0.27588272550E+01 -0.72012981103E+02 -0.21547223561E+02  0.75218105655E+02  0.00000000000E+00 0. -1.
         11    1    1    2    0    0 -0.20806792625E+02  0.22824750362E+02 -0.29167141763E+02  0.42480748664E+02  0.00000000000E+00 0.  1.
</event>
<event>
 7    1  0.2612213E-009  0.9352846E+02  0.7561462E-02  0.1294525E+00
         -2   -1    0    0    0  501 -0.00000000000E+00  0.00000000000E+00  0.23652176520E+02  0.23652176520E+02  0.00000000000E+00 0.  1.
          2   -1    0    0  501    0  0.00000000000E+00 -0.00000000000E+00 -0.53816946004E+03  0.53816946004E+03  0.00000000000E+00 0. -1.
         25    2    1    2    0    0 -0.29297900470E+02 -0.62840696238E+01 -0.27720025354E+03  0.30559122048E+03  0.12509259359E+03 0.  0.
          5    1    3    3  502    0  0.19297124242E+02 -0.48391857420E+02 -0.19067747118E+03  0.19771070098E+03  0.41800000000E+01 0. -1.
         -5    1    3    3    0  502 -0.48595024712E+02  0.42107787797E+02 -0.86522782364E+02  0.10788051950E+03  0.41800000000E+01 0. -1.
        -11    1    1    2    0    0 -0.11721906699E+02  0.23193615984E+02 -0.16017876632E+02  0.30527353159E+02  0.00000000000E+00 0.  1.
         11    1    1    2    0    0  0.41019807169E+02 -0.16909546360E+02 -0.22129915335E+03  0.22570306292E+03  0.00000000000E+00 0. -1.
</event>
<event>
 7    1  0.2612213E-009  0.8758072E+02  0.7561462E-02  0.1308818E+00
          2   -1    0    0  501    0  0.00000000000E+00  0.00000000000E+00  0.41258900678E+03  0.41258900678E+03  0.00000000000E+00 0. -1.
         -2   -1    0    0    0  501 -0.00000000000E+00 -0.00000000000E+00 -0.29544351473E+02  0.29544351473E+02  0.00000000000E+00 0.  1.
         25    2    1    2    0    0  0.14013763600E+02 -0.65034993761E+01  0.19927870098E+03  0.23578923645E+03  0.12508350127E+03 0.  0.
          5    1    3    3  502    0 -0.27583848788E+02  0.30774102832E+02  0.16493654165E+03  0.17008659351E+03  0.41800000000E+01 0. -1.
         -5    1    3    3    0  502  0.41597612388E+02 -0.37277602208E+02  0.34342159326E+02  0.65702642945E+02  0.41800000000E+01 0. -1.
        -11    1    1    2    0    0  0.31308715947E+02  0.78146496466E+01  0.23855100397E+02  0.40129418863E+02  0.00000000000E+00 0.  1.
         11    1    1    2    0    0 -0.45322479547E+02 -0.13111502705E+01  0.15991085393E+03  0.16621470294E+03  0.00000000000E+00 0. -1.
</event>
<event>
 7    1  0.2612213E-009  0.1114831E+03  0.7561462E-02  0.1257848E+00
          2   -1    0    0  501    0  0.00000000000E+00  0.00000000000E+00  0.12084089457E+03  0.12084089457E+03  0.00000000000E+00 0. -1.
         -2   -1    0    0    0  501 -0.00000000000E+00 -0.00000000000E+00 -0.18541761819E+03  0.18541761819E+03  0.00000000000E+00 0.  1.
         25    2    1    2    0    0  0.67368520045E+02 -0.39673655354E+02  0.32579532238E+02  0.15106993281E+03  0.12509269465E+03 0.  0.
          5    1    3    3  502    0  0.10171016307E+03 -0.40186667754E+02  0.10314919791E+02  0.10992631854E+03  0.41800000000E+01 0.  1.
         -5    1    3    3    0  502 -0.34341643027E+02  0.51301240074E+00  0.22264612447E+02  0.41143614267E+02  0.41800000000E+01 0.  1.
        -11    1    1    2    0    0 -0.22946993095E+02  0.19604897731E+02 -0.10184131077E+03  0.10621943836E+03  0.00000000000E+00 0.  1.
         11    1    1    2    0    0 -0.44421526950E+02  0.20068757623E+02  0.46850549132E+01  0.48969141596E+02  0.00000000000E+00 0. -1.
</event>
<event>
 7    1  0.2612213E-009  0.8604177E+02  0.7561462E-02  0.1312730E+00
          1   -1    0    0  501    0  0.00000000000E+00  0.00000000000E+00  0.69388306509E+03  0.69388306509E+03  0.00000000000E+00 0. -1.
         -1   -1    0    0    0  501 -0.00000000000E+00 -0.00000000000E+00 -0.18331043374E+02  0.18331043374E+02  0.00000000000E+00 0.  1.
         25    2    1    2    0    0  0.29971984783E+02 -0.13907860112E+01  0.34752982361E+03  0.37057284020E+03  0.12508795879E+03 0.  0.
          5    1    3    3  502    0  0.46370863123E+02  0.26517335346E+02  0.32839831037E+03  0.33274066279E+03  0.41800000000E+01 0.  1.
         -5    1    3    3    0  502 -0.16398878340E+02 -0.27908121358E+02  0.19131513247E+02  0.37832177411E+02  0.41800000000E+01 0.  1.
        -11    1    1    2    0    0  0.26794033366E+02 -0.87771162001E+01  0.47376086670E+02  0.55131221472E+02  0.00000000000E+00 0.  1.
         11    1    1    2    0    0 -0.56766018149E+02  0.10167902211E+02  0.28064611143E+03  0.28651004680E+03  0.00000000000E+00 0. -1.
</event>
<event>
 7    1  0.2612213E-009  0.8819840E+02  0.7561462E-02  0.1307274E+00
          2   -1    0    0  501    0  0.00000000000E+00  0.00000000000E+00  0.25843496009E+03  0.25843496009E+03  0.00000000000E+00 0. -1.
         -2   -1    0    0    0  501 -0.00000000000E+00 -0.00000000000E+00 -0.63883634671E+02  0.63883634671E+02  0.00000000000E+00 0.  1.
         25    2    1    2    0    0 -0.20005327132E+02 -0.60769962033E+02  0.89418703202E+02  0.16654614869E+03  0.12509481908E+03 0.  0.
          5    1    3    3  502    0 -0.14618625537E+02 -0.70546578330E+02  0.11645286914E+03  0.13700097466E+03  0.41800000000E+01 0. -1.
         -5    1    3    3    0  502 -0.53867015953E+01  0.97766162966E+01 -0.27034165940E+02  0.29545174028E+02  0.41800000000E+01 0. -1.
        -11    1    1    2    0    0 -0.95288487038E+01  0.62022557367E+02  0.20323839963E+02  0.65959495532E+02  0.00000000000E+00 0. -1.
         11    1    1    2    0    0  0.29534175836E+02 -0.12525953334E+01  0.84808782250E+02  0.89812950537E+02  0.00000000000E+00 0.  1.
</event>
<event>
 7    1  0.2612213E-009  0.1217636E+03  0.7561462E-02  0.1240216E+00
          2   -1    0    0  501    0  0.00000000000E+00  0.00000000000E+00  0.46467677995E+03  0.46467677995E+03  0.00000000000E+00 0. -1.
         -2   -1    0    0    0  501 -0.00000000000E+00 -0.00000000000E+00 -0.39677750802E+02  0.39677750802E+02  0.00000000000E+00 0.  1.
         25    2    1    2    0    0  0.30182819505E+02 -0.65635276496E+02  0.30173062401E+03  0.33452904523E+03  0.12509724427E+03 0.  0.
          5    1    3    3  502    0 -0.21992601820E+02 -0.72141398753E+02  0.24795017825E+03  0.25920034576E+03  0.41800000000E+01 0. -1.
         -5    1    3    3    0  502  0.52175421325E+02  0.65061222569E+01  0.53780445757E+02  0.75328699465E+02  0.41800000000E+01 0. -1.
        -11    1    1    2    0    0  0.92773476160E+01  0.74274801911E+02  0.66323615553E+02  0.10000818645E+03  0.00000000000E+00 0.  1.
         11    1    1    2    0    0 -0.39460167121E+02 -0.86395254146E+01  0.56944789590E+02  0.69817299075E+02  0.00000000000E+00 0. -1.
</event>
<event>
 7    1  0.2612213E-009  0.9351155E+02  0.7561462E-02  0.1294564E+00
          3   -1    0    0  501    0  0.00000000000E+00  0.00000000000E+00  0.51751871801E+02  0.51751871801E+02  0.00000000000E+00 0. -1.
         -3   -1    0    0    0  501 -0.00000000000E+00 -0.00000000000E+00 -0.32636596795E+03  0.32636596795E+03  0.00000000000E+00 0.  1.
         25    2    1    2    0    0  0.13059411625E+02 -0.23936566202E+02 -0.25105593441E+03  0.28181680107E+03  0.12509244473E+03 0.  0.
          5    1    3    3  502    0  0.27375571803E+02  0.38221594053E+02 -0.18068331796E+03  0.18674647513E+03  0.41800000000E+01 0. -1.
         -5    1    3    3    0  502 -0.14316160178E+02 -0.62158160255E+02 -0.70372616453E+02  0.95070325943E+02  0.41800000000E+01 0. -1.
        -11    1    1    2    0    0 -0.13110788940E+02 -0.24328454839E+02  0.17688586767E+02  0.32812384907E+02  0.00000000000E+00 0. -1.
         11    1    1    2    0    0  0.51377315033E-01  0.48265021041E+02 -0.41246748500E+02  0.63488653770E+02  0.00000000000E+00 0.  1.
</event>
<event>
 7    1  0.2612213E-009  0.7900600E+02  0.7561462E-02  0.1331896E+00
         -2   -1    0    0    0  501 -0.00000000000E+00  0.00000000000E+00  0.19597913761E+03  0.19597913761E+03  0.00000000000E+00 0. -1.
          2   -1    0    0  501    0  0.00000000000E+00 -0.00000000000E+00 -0.10252473188E+03  0.10252473188E+03  0.00000000000E+00 0.  1.
         25    2    1    2    0    0  0.52489504606E+02 -0.10422593682E+02  0.12424356601E+03  0.18424824049E+03  0.12508865606E+03 0.  0.
          5    1    3    3  502    0  0.45307862019E+02 -0.10468853500E+02 -0.11634057125E+02  0.48116763602E+02  0.41800000000E+01 0. -1.
         -5    1    3    3    0  502  0.71816425868E+01  0.46259817974E-01  0.13587762313E+03  0.13613147688E+03  0.41800000000E+01 0. -1.
        -11    1    1    2    0    0 -0.77336413788E+02  0.44827989477E+01 -0.39893258685E+02  0.87134886655E+02  0.00000000000E+00 0.  1.
         11    1    1    2    0    0  0.24846909182E+02  0.59397947341E+01  0.91040984084E+01  0.27120742342E+02  0.00000000000E+00 0. -1.
</event>
<event>
 7    1  0.2612213E-009  0.1215614E+03  0.7561462E-02  0.1240543E+00
         -2   -1    0    0    0  501 -0.00000000000E+00  0.00000000000E+00  0.90754902485E+02  0.90754902485E+02  0.00000000000E+00 0.  1.
          2   -1    0    0  501    0  0.00000000000E+00 -0.00000000000E+00 -0.20246469308E+03  0.20246469308E+03  0.00000000000E+00 0. -1.
         25    2    1    2    0    0  0.84644699540E+01 -0.81388800385E+02 -0.60568451782E+02  0.16125715143E+03  0.12505817628E+03 0.  0.
          5    1    3    3  502    0  0.17004241111E+02 -0.99830162592E+02 -0.82779380762E+02  0.13086292010E+03  0.41800000000E+01 0. -1.
         -5    1    3    3    0  502 -0.85397711568E+01  0.18441362207E+02  0.22210928980E+02  0.30394231321E+02  0.41800000000E+01 0. -1.
        -11    1    1    2    0    0  0.19881887450E+02  0.89383682675E+02 -0.44322786520E+02  0.10173122226E+03  0.00000000000E+00 0.  1.
         11    1    1    2    0    0 -0.28346357404E+02 -0.79948822899E+01 -0.68185522876E+01  0.30231221877E+02  0.00000000000E+00 0. -1.
</event>
<event>
 7    1  0.2612213E-009  0.1163877E+03  0.7561462E-02  0.1249178E+00
          2   -1    0    0  501    0  0.00000000000E+00  0.00000000000E+00  0.84100419914E+03  0.84100419914E+03  0.00000000000E+00 0. -1.
         -2   -1    0    0    0  501 -0.00000000000E+00 -0.00000000000E+00 -0.32938539803E+02  0.32938539803E+02  0.00000000000E+00 0.  1.
         25    2    1    2    0    0 -0.85310931136E+01 -0.10015503585E+03  0.65839396664E+03  0.67767080053E+03  0.12510510714E+03 0.  0.
          5    1    3    3  502    0 -0.27262368523E+02 -0.29411740525E+02  0.51548687402E+03  0.51706138601E+03  0.41800000000E+01 0. -1.
         -5    1    3    3    0  502  0.18731275409E+02 -0.70743295323E+02  0.14290709262E+03  0.16060941452E+03  0.41800000000E+01 0. -1.
        -11    1    1    2    0    0  0.27304896351E+02  0.96158104446E+02  0.14566416371E+03  0.17666348520E+03  0.00000000000E+00 0.  1.
         11    1    1    2    0    0 -0.18773803237E+02  0.39969314017E+01  0.40075289900E+01  0.19608453209E+02  0.00000000000E+00 0. -1.
</event>
<event>
 7    1  0.2612213E-009  0.9106748E+02  0.7561462E-02  0.1300287E+00
          1   -1    0    0  501    0  0.00000000000E+00  0.00000000000E+00  0.46888557477E+03  0.46888557477E+03  0.00000000000E+00 0. -1.
         -1   -1    0    0    0  501 -0.00000000000E+00 -0.00000000000E+00 -0.30522620806E+02  0.30522620806E+02  0.00000000000E+00 0.  1.
         25    2    1    2    0    0  0.24725833950E+02 -0.10272923308E+02  0.34012849873E+03  0.36338818192E+03  0.12508667114E+03 0.  0.
          5    1    3    3  502    0 -0.10021396269E+02 -0.40430612621E+02  0.34386097581E+02  0.54175076621E+02  0.41800000000E+01 0. -1.
         -5    1    3    3    0  502  0.34747230219E+02  0.30157689313E+02  0.30574240115E+03  0.30921310530E+03  0.41800000000E+01 0. -1.
        -11    1    1    2    0    0 -0.57194703372E+02 -0.64381517723E+01  0.59172820910E+02  0.82547602185E+02  0.00000000000E+00 0. -1.
         11    1    1    2    0    0  0.32468869422E+02  0.16711075080E+02  0.39061634330E+02  0.53472411470E+02  0.00000000000E+00 0.  1.
</event>
<event>
 7    1  0.2612213E-009  0.1382520E+03  0.7561462E-02  0.1215701E+00
         -2   -1    0    0    0  501 -0.00000000000E+00  0.00000000000E+00  0.41654797497E+03  0.41654797497E+03  0.00000000000E+00 0.  1.
          2   -1    0    0  501    0  0.00000000000E+00 -0.00000000000E+00 -0.52230729170E+02  0.52230729170E+02  0.00000000000E+00 0. -1.
         25    2    1    2    0    0  0.43702333882E+01 -0.97993195383E+02  0.16761743723E+03  0.23100856207E+03  0.12509030820E+03 0.  0.
          5    1    3    3  502    0  0.57164927981E+02 -0.82113789754E+02  0.83692385208E+02  0.13050820358E+03  0.41800000000E+01 0. -1.
         -5    1    3    3    0  502 -0.52794694593E+02 -0.15879405629E+02  0.83925052021E+02  0.10050035849E+03  0.41800000000E+01 0. -1.
        -11    1    1    2    0    0 -0.30235271982E+02  0.88500758178E+02  0.18604659392E+03  0.20823037958E+03  0.00000000000E+00 0.  1.
         11    1    1    2    0    0  0.25865038594E+02  0.94924372053E+01  0.10653214643E+02  0.29539762487E+02  0.00000000000E+00 0. -1.
</event>
<event>
 7    1  0.2612213E-009  0.9428184E+02  0.7561462E-02  0.1292802E+00
         -4   -1    0    0    0  501 -0.00000000000E+00  0.00000000000E+00  0.18691595453E+02  0.18691595453E+02  0.00000000000E+00 0.  1.
          4   -1    0    0  501    0  0.00000000000E+00 -0.00000000000E+00 -0.62113966787E+03  0.62113966787E+03  0.00000000000E+00 0. -1.
         25    2    1    2    0    0  0.15790355865E+02 -0.75706979992E+01 -0.34464335885E+03  0.36706112968E+03  0.12509267489E+03 0.  0.
          5    1    3    3  502    0 -0.28713094772E+02  0.36596018414E+02 -0.24386343737E+03  0.24829530576E+03  0.41800000000E+01 0.  1.
         -5    1    3    3    0  502  0.44503450637E+02 -0.44166716413E+02 -0.10077992148E+03  0.11876582392E+03  0.41800000000E+01 0.  1.
        -11    1    1    2    0    0  0.31299618478E+02  0.62237298225E+01 -0.47301191689E+02  0.57059650060E+02  0.00000000000E+00 0.  1.
         11    1    1    2    0    0 -0.47089974343E+02  0.13469681767E+01 -0.21050352188E+03  0.21571048359E+03  0.00000000000E+00 0. -1.
</event>
<event>
 7    1  0.2612213E-009  0.7334428E+02  0.7561462E-02  0.1349076E+00
         -1   -1    0    0    0  501 -0.00000000000E+00  0.00000000000E+00  0.14550200366E+03  0.14550200366E+03  0.00000000000E+00 0.  1.
          1   -1    0    0  501    0  0.00000000000E+00 -0.00000000000E+00 -0.11333963809E+03  0.11333963809E+03  0.00000000000E+00 0. -1.
         25    2    1    2    0    0 -0.43734419019E+02 -0.50163319792E+02  0.58959050195E+01  0.14181671567E+03  0.12509261005E+03 0.  0.
          5    1    3    3  502    0 -0.12766291709E+02 -0.41575971690E+02  0.62697921978E+02  0.76420163873E+02  0.41800000000E+01 0. -1.
         -5    1    3    3    0  502 -0.30968127311E+02 -0.85873481022E+01 -0.56802016958E+02  0.65396551798E+02  0.41800000000E+01 0. -1.
        -11    1    1    2    0    0  0.19191710613E+02  0.60758439561E+01 -0.33329457021E+02  0.38937004781E+02  0.00000000000E+00 0. -1.
         11    1    1    2    0    0  0.24542708407E+02  0.44087475836E+02  0.59595917568E+02  0.78087921296E+02  0.00000000000E+00 0.  1.
</event>
<event>
 7    1  0.2612213E-009  0.2349727E+03  0.7561462E-02  0.1123188E+00
          1   -1    0    0  501    0  0.00000000000E+00  0.00000000000E+00  0.23856039113E+03  0.23856039113E+03  0.00000000000E+00 0. -1.
         -1   -1    0    0    0  501 -0.00000000000E+00 -0.00000000000E+00 -0.25755251393E+03  0.25755251393E+03  0.00000000000E+00 0.  1.
         25    2    1    2    0    0  0.21380373244E+03 -0.58843941119E+02 -0.26819898000E+02  0.25600665937E+03  0.12508180245E+03 0.  0.
          5    1    3    3  502    0  0.14967560083E+02  0.19711165707E+02  0.25590166668E+02  0.35845319617E+02  0.41800000000E+01 0. -1.
         -5    1    3    3    0  502  0.19883617235E+03 -0.78555106826E+02 -0.52410064667E+02  0.22016133976E+03  0.41800000000E+01 0. -1.
        -11    1    1    2    0    0 -0.12766134545E+03  0.67550571784E+02 -0.26727852994E+02  0.14688388950E+03  0.00000000000E+00 0.  1.
         11    1    1    2    0    0 -0.86142386990E+02 -0.87066306656E+01  0.34555628195E+02  0.93222356191E+02  0.00000000000E+00 0. -1.
</event>
<event>
 7    1  0.2612213E-009  0.1203179E+03  0.7561462E-02  0.1242573E+00
          1   -1    0    0  501    0  0.00000000000E+00  0.00000000000E+00  0.11300660881E+04  0.11300660881E+04  0.00000000000E+00 0. -1.
         -1   -1    0    0    0  501 -0.00000000000E+00 -0.00000000000E+00 -0.13215868771E+02  0.13215868771E+02  0.00000000000E+00 0.  1.
         25    2    1    2    0    0 -0.20577520142E+02  0.51824451726E+02  0.62390576789E+03  0.63876088763E+03  0.12509139149E+03 0.  0.
          5    1    3    3  502    0  0.10180777439E+02 -0.37487478271E+02  0.12461295328E+03  0.13059410316E+03  0.41800000000E+01 0. -1.
         -5    1    3    3    0  502 -0.30758297580E+02  0.89311929997E+02  0.49929281461E+03  0.50816678447E+03  0.41800000000E+01 0. -1.
        -11    1    1    2    0    0  0.17525098758E+02  0.24778723269E+02  0.16136401225E+03  0.16419335754E+03  0.00000000000E+00 0.  1.
         11    1    1    2    0    0  0.30524213843E+01 -0.76603174995E+02  0.33158043917E+03  0.34032771168E+03  0.00000000000E+00 0. -1.
</event>
<event>
 7    1  0.2612213E-009  0.9464074E+02  0.7561462E-02  0.1291987E+00
         -1   -1    0    0    0  501 -0.00000000000E+00  0.00000000000E+00  0.21222295999E+02  0.21222295999E+02  0.00000000000E+00 0.  1.
          1   -1    0    0  501    0  0.00000000000E+00 -0.00000000000E+00 -0.68333882655E+03  0.68333882655E+03  0.00000000000E+00 0. -1.
         25    2    1    2    0    0  0.50641980534E+02  0.16323134690E+02 -0.36373487515E+03  0.38830594540E+03  0.12508953958E+03 0.  0.
          5    1    3    3  502    0  0.66729298853E+02 -0.17306506211E+02 -0.33218779791E+03  0.33929120231E+03  0.41800000000E+01 0. -1.
         -5    1    3    3    0  502 -0.16087318319E+02  0.33629640901E+02 -0.31547077239E+02  0.49014743090E+02  0.41800000000E+01 0. -1.
        -11    1    1    2    0    0 -0.20817653293E+02 -0.39689071018E+02 -0.25389973732E+03  0.25782488953E+03  0.00000000000E+00 0. -1.
         11    1    1    2    0    0 -0.29824327241E+02  0.23365936328E+02 -0.44481918073E+02  0.58430287620E+02  0.00000000000E+00 0.  1.
</event>
<event>
 7    1  0.2612213E-009  0.9057709E+02  0.7561462E-02  0.1301460E+00
          2   -1    0    0  501    0  0.00000000000E+00  0.00000000000E+00  0.38987021305E+03  0.38987021305E+03  0.00000000000E+00 0. -1.
         -2   -1    0    0    0  501 -0.00000000000E+00 -0.00000000000E+00 -0.33157493671E+02  0.33157493671E+02  0.00000000000E+00 0.  1.
         25    2    1    2    0    0  0.21646572084E+02 -0.25721148156E+02  0.19322143590E+03  0.23262057964E+03  0.12509060411E+03 0.  0.
          5    1    3    3  502    0  0.66016525131E+01 -0.64532795687E+02  0.17556414471E+03  0.18721192495E+03  0.41800000000E+01 0.  1.
         -5    1    3    3    0  502  0.15044919571E+02  0.38811647532E+02  0.17657291188E+02  0.45408654694E+02  0.41800000000E+01 0.  1.
        -11    1    1    2    0    0  0.24002032586E+02  0.72744607341E+01  0.12613560396E+03  0.12860484413E+03  0.00000000000E+00 0.  1.
         11    1    1    2    0    0 -0.45648604671E+02  0.18446687422E+02  0.37355679522E+02  0.61802282950E+02  0.00000000000E+00 0. -1.
</event>
<event>
 7    1  0.2612213E-009  0.9877273E+02  0.7561462E-02  0.1282898E+00
          1   -1    0    0  501    0  0.00000000000E+00  0.00000000000E+00  0.17591419283E+02  0.17591419283E+02  0.00000000000E+00 0. -1.
         -1   -1    0    0    0  501 -0.00000000000E+00 -0.00000000000E+00 -0.74875900163E+03  0.74875900163E+03  0.00000000000E+00 0.  1.
         25    2    1    2    0    0  0.55223298525E+01  0.35188583632E+02 -0.46545070496E+03  0.48328058874E+03  0.12508811358E+03 0.  0.
          5    1    3    3  502    0  0.53693938784E+02  0.29598059825E+02 -0.12415753916E+03  0.13853393497E+03  0.41800000000E+01 0. -1.
         -5    1    3    3    0  502 -0.48171608932E+02  0.55905238064E+01 -0.34129316580E+03  0.34474665377E+03  0.41800000000E+01 0. -1.
        -11    1    1    2    0    0 -0.26803276831E+02  0.16530474998E+02 -0.16396194661E+03  0.16695865413E+03  0.00000000000E+00 0.  1.
         11    1    1    2    0    0  0.21280946979E+02 -0.51719058630E+02 -0.10175493078E+03  0.11611117805E+03  0.00000000000E+00 0. -1.
</event>
<event>
 7    1  0.2612213E-009  0.1647782E+03  0.7561462E-02  0.1183405E+00
         -2   -1    0    0    0  501 -0.00000000000E+00  0.00000000000E+00  0.21567677060E+02  0.21567677060E+02  0.00000000000E+00 0.  1.
          2   -1    0    0  501    0  0.00000000000E+00 -0.00000000000E+00 -0.15028693522E+04  0.15028693522E+04  0.00000000000E+00 0. -1.
         25    2    1    2    0    0  0.78476394114E+02 -0.10462057467E+03 -0.10288561857E+04  0.10446510679E+04  0.12508714450E+03 0.  0.
          5    1    3    3  502    0  0.93540547836E+02 -0.31548423563E+02 -0.43315361790E+03  0.44427994128E+03  0.41800000000E+01 0. -1.
         -5    1    3    3    0  502 -0.15064153722E+02 -0.73072151102E+02 -0.59570256778E+03  0.60037112660E+03  0.41800000000E+01 0. -1.
        -11    1    1    2    0    0 -0.57024145871E+02  0.11777972693E+03 -0.33449796040E+03  0.35918338325E+03  0.00000000000E+00 0.  1.
         11    1    1    2    0    0 -0.21452248243E+02 -0.13159152261E+02 -0.11794752901E+03  0.12060257809E+03  0.00000000000E+00 0. -1.
</event>
<event>
 7    1  0.2612213E-009  0.1407002E+03  0.7561462E-02  0.1212390E+00
         -3   -1    0    0    0  501 -0.00000000000E+00  0.00000000000E+00  0.54475581394E+02  0.54475581394E+02  0.00000000000E+00 0.  1.
          3   -1    0    0  501    0  0.00000000000E+00 -0.00000000000E+00 -0.43502631027E+03  0.43502631027E+03  0.00000000000E+00 0. -1.
         25    2    1    2    0    0  0.37399481082E+02 -0.97927436495E+02 -0.25143489210E+03  0.29975891033E+03  0.12508954935E+03 0.  0.
          5    1    3    3  502    0 -0.83127478318E+01  0.21384780493E+02 -0.94554671245E+02  0.97388237830E+02  0.41800000000E+01 0.  1.
         -5    1    3    3    0  502  0.45712228914E+02 -0.11931221699E+03 -0.15688022085E+03  0.20237067250E+03  0.41800000000E+01 0.  1.
        -11    1    1    2    0    0 -0.33175357785E+02  0.96745802809E+00 -0.72827097821E+01  0.33979084758E+02  0.00000000000E+00 0.  1.
         11    1    1    2    0    0 -0.42241232972E+01  0.96959978467E+02 -0.12183312700E+03  0.15576389657E+03  0.00000000000E+00 0. -1.
</event>
<event>
 7    1  0.2976231E-009  0.6608939E+02  0.7561462E-02  0.1373920E+00
         -3   -1    0    0    0  501 -0.00000000000E+00  0.00000000000E+00  0.33168738583E+03  0.33168738583E+03  0.00000000000E+00 0.  1.
          3   -1    0    0  501    0  0.00000000000E+00 -0.00000000000E+00 -0.39462710125E+02  0.39462710125E+02  0.00000000000E+00 0. -1.
         25    2    1    2    0    0  0.19559210684E+02  0.47910378857E+01  0.21577162346E+03  0.25022019243E+03  0.12508890616E+03 0.  0.
          5    1    3    3  502    0  0.37620720071E+02 -0.34485650912E+02  0.29803668647E+02  0.59247867155E+02  0.41800000000E+01 0. -1.
         -5    1    3    3    0  502 -0.18061509388E+02  0.39276688798E+02  0.18596795481E+03  0.19097232528E+03  0.41800000000E+01 0. -1.
        -11    1    1    2    0    0  0.35433253362E+01  0.96609436579E+01 -0.19030209398E+02  0.21634182594E+02  0.00000000000E+00 0. -1.
         11    1    1    2    0    0 -0.23102536020E+02 -0.14451981544E+02  0.95483261640E+02  0.99295720928E+02  0.00000000000E+00 0.  1.
</event>
<event>
 7    1  0.2612213E-009  0.1010288E+03  0.7561462E-02  0.1278147E+00
          2   -1    0    0  501    0  0.00000000000E+00  0.00000000000E+00  0.11220326723E+04  0.11220326723E+04  0.00000000000E+00 0. -1.
         -2   -1    0    0    0  501 -0.00000000000E+00 -0.00000000000E+00 -0.13826955913E+02  0.13826955913E+02  0.00000000000E+00 0.  1.
         25    2    1    2    0    0  0.61826499045E+01  0.37020987138E+02  0.85931002564E+03  0.86917788271E+03  0.12509073900E+03 0.  0.
          5    1    3    3  502    0 -0.44098204281E+02  0.38416209344E+02  0.69046531710E+03  0.69295041906E+03  0.41800000000E+01 0. -1.
         -5    1    3    3    0  502  0.50280854185E+02 -0.13952222063E+01  0.16884470854E+03  0.17622746365E+03  0.41800000000E+01 0. -1.
        -11    1    1    2    0    0  0.25483871909E+02  0.16786709879E+02  0.53951692962E+02  0.61983921540E+02  0.00000000000E+00 0.  1.
         11    1    1    2    0    0 -0.31666521813E+02 -0.53807697017E+02  0.19494399784E+03  0.20469782401E+03  0.00000000000E+00 0. -1.
</event>
<event>
 7    1  0.2612213E-009  0.1643438E+03  0.7561462E-02  0.1183878E+00
          1   -1    0    0  501    0  0.00000000000E+00  0.00000000000E+00  0.77577492150E+03  0.77577492150E+03  0.00000000000E+00 0. -1.
         -1   -1    0    0    0  501 -0.00000000000E+00 -0.00000000000E+00 -0.43837874288E+02  0.43837874288E+02  0.00000000000E+00 0.  1.
         25    2    1    2    0    0  0.95378033538E+02  0.11393782504E+03  0.38345624388E+03  0.42984373829E+03  0.12509257021E+03 0.  0.
          5    1    3    3  502    0  0.37956367612E+02  0.83108142787E+02  0.86830877305E+02  0.12611392823E+03  0.41800000000E+01 0.  1.
         -5    1    3    3    0  502  0.57421665926E+02  0.30829682256E+02  0.29662536657E+03  0.30372981006E+03  0.41800000000E+01 0.  1.
        -11    1    1    2    0    0 -0.29112933238E+02  0.10490151841E+02  0.92472831326E+02  0.97513233465E+02  0.00000000000E+00 0.  1.
         11    1    1    2    0    0 -0.66265100300E+02 -0.12442797688E+03  0.25600797201E+03  0.29225582403E+03  0.00000000000E+00 0. -1.
</event>
<event>
 7    1  0.3125755E-009  0.2413190E+03  0.7561462E-02  0.1118917E+00
         -2   -1    0    0    0  501 -0.00000000000E+00  0.00000000000E+00  0.12322754304E+03  0.12322754304E+03  0.00000000000E+00 0.  1.
          2   -1    0    0  501    0  0.00000000000E+00 -0.00000000000E+00 -0.49406826609E+03  0.49406826609E+03  0.00000000000E+00 0. -1.
         25    2    1    2    0    0  0.57388847151E+02  0.20968764637E+03 -0.24218191243E+03  0.34865582030E+03  0.12508562468E+03 0.  0.
          5    1    3    3  502    0  0.31769456356E+02 -0.62083667303E+01 -0.23162623922E+02  0.40022765042E+02  0.41800000000E+01 0.  1.
         -5    1    3    3    0  502  0.25619390794E+02  0.21589601310E+03 -0.21901928851E+03  0.30863305526E+03  0.41800000000E+01 0.  1.
        -11    1    1    2    0    0  0.97528829567E+01 -0.12059327544E+03 -0.44561334524E+02  0.12893242161E+03  0.00000000000E+00 0. -1.
         11    1    1    2    0    0 -0.67141730107E+02 -0.89094370927E+02 -0.84097476091E+02  0.13970756722E+03  0.00000000000E+00 0.  1.
</event>
<event>
 7    1  0.2612213E-009  0.9856328E+02  0.7561462E-02  0.1283347E+00
         -2   -1    0    0    0  501 -0.00000000000E+00  0.00000000000E+00  0.49406638749E+02  0.49406638749E+02  0.00000000000E+00 0.  1.
          2   -1    0    0  501    0  0.00000000000E+00 -0.00000000000E+00 -0.30245305553E+03  0.30245305553E+03  0.00000000000E+00 0. -1.
         25    2    1    2    0    0  0.23782736270E+02  0.38049122931E+02 -0.93449869012E+02  0.16246063184E+03  0.12508886673E+03 0.  0.
          5    1    3    3  502    0  0.22051102465E+02  0.66753861921E+02 -0.64320595302E+01  0.70718971932E+02  0.41800000000E+01 0. -1.
         -5    1    3    3    0  502  0.17316338048E+01 -0.28704738990E+02 -0.87017809482E+02  0.91741659911E+02  0.41800000000E+01 0. -1.
        -11    1    1    2    0    0 -0.49681866666E+02 -0.48762811284E+02 -0.85985612652E+02  0.11063283971E+03  0.00000000000E+00 0.  1.
         11    1    1    2    0    0  0.25899130397E+02  0.10713688353E+02 -0.73610935115E+02  0.78766222722E+02  0.00000000000E+00 0. -1.
</event>
<event>
 6    1  0.2612213E-009  0.1270365E+03  0.7561462E-02  0.1231920E+00
          1   -1    0    0  501    0  0.00000000000E+00  0.00000000000E+00  0.29648025909E+02  0.29648025909E+02  0.00000000000E+00 0. -1.
         -1   -1    0    0    0  501 -0.00000000000E+00 -0.00000000000E+00 -0.58958901783E+03  0.58958901783E+03  0.00000000000E+00 0.  1.
          5    1    1    2  502    0 -0.74191793110E+02 -0.67229615967E+02 -0.22340683299E+03  0.24485164662E+03  0.41800000000E+01 0.  1.
         -5    1    1    2    0  502  0.30448905157E+01  0.43447839749E+02 -0.65854709145E+02  0.79065170927E+02  0.41800000000E+01 0.  1.
        -11    1    1    2    0    0 -0.17153380354E+02 -0.38641334779E+01 -0.96512684646E+02  0.98101316417E+02  0.00000000000E+00 0.  1.
         11    1    1    2    0    0  0.88300282949E+02  0.27645909696E+02 -0.17416676514E+03  0.19721890977E+03  0.00000000000E+00 0. -1.
</event>
<event>
 7    1  0.2612213E-009  0.9368292E+02  0.7561462E-02  0.1294170E+00
          1   -1    0    0  501    0  0.00000000000E+00  0.00000000000E+00  0.35415819909E+03  0.35415819909E+03  0.00000000000E+00 0. -1.
         -1   -1    0    0    0  501 -0.00000000000E+00 -0.00000000000E+00 -0.40214808076E+02  0.40214808076E+02  0.00000000000E+00 0.  1.
         25    2    1    2    0    0  0.29089069386E+02 -0.16446707445E+02  0.11570306477E+03  0.17364099077E+03  0.12508927346E+03 0.  0.
          5    1    3    3  502    0 -0.14833444438E+02 -0.50523853130E+02  0.10404623370E+03  0.11668668286E+03  0.41800000000E+01 0.  1.
         -5    1    3    3    0  502  0.43922513823E+02  0.34077145685E+02  0.11656831065E+02  0.56954307906E+02  0.41800000000E+01 0.  1.
        -11    1    1    2    0    0  0.17710417134E+02  0.25580206308E+02  0.14890294441E+03  0.15211867960E+03  0.00000000000E+00 0. -1.
         11    1    1    2    0    0 -0.46799486519E+02 -0.91334988635E+01  0.49337381832E+02  0.68613336794E+02  0.00000000000E+00 0.  1.
</event>
<event>
 7    1  0.2612213E-009  0.1058881E+03  0.7561462E-02  0.1268380E+00
         -4   -1    0    0    0  501 -0.00000000000E+00  0.00000000000E+00  0.22342187222E+03  0.22342187222E+03  0.00000000000E+00 0. -1.
          4   -1    0    0  501    0  0.00000000000E+00 -0.00000000000E+00 -0.82171031090E+02  0.82171031090E+02  0.00000000000E+00 0.  1.
         25    2    1    2    0    0  0.10293929001E+02  0.23846196140E+02 -0.11664453087E+02  0.12829306298E+03  0.12509374284E+03 0.  0.
          5    1    3    3  502    0 -0.35895759008E+02 -0.32833875357E+02  0.13827370828E+02  0.50746797630E+02  0.41800000000E+01 0. -1.
         -5    1    3    3    0  502  0.46189688009E+02  0.56680071497E+02 -0.25491823914E+02  0.77546265350E+02  0.41800000000E+01 0. -1.
        -11    1    1    2    0    0  0.34254373270E+02 -0.28981592115E+02  0.74577219341E+02  0.87034800019E+02  0.00000000000E+00 0.  1.
         11    1    1    2    0    0 -0.44548302272E+02  0.51353959754E+01  0.78338074875E+02  0.90265040310E+02  0.00000000000E+00 0. -1.
</event>
<event>
 7    1  0.2612213E-009  0.1255228E+03  0.7561462E-02  0.1234254E+00
          1   -1    0    0  501    0  0.00000000000E+00  0.00000000000E+00  0.25825912706E+03  0.25825912706E+03  0.00000000000E+00 0. -1.
         -1   -1    0    0    0  501 -0.00000000000E+00 -0.00000000000E+00 -0.67018992057E+02  0.67018992057E+02  0.00000000000E+00 0.  1.
         25    2    1    2    0    0  0.29882878830E+02  0.58340232573E+02  0.64455726223E+02  0.15523819964E+03  0.12509112199E+03 0.  0.
          5    1    3    3  502    0 -0.47735323993E+02  0.32165875508E+02  0.37826021718E+02  0.69004239166E+02  0.41800000000E+01 0. -1.
         -5    1    3    3    0  502  0.77618202822E+02  0.26174357064E+02  0.26629704505E+02  0.86233960475E+02  0.41800000000E+01 0. -1.
        -11    1    1    2    0    0 -0.58732901264E+02 -0.17450265536E+02  0.85376237625E+02  0.10508647586E+03  0.00000000000E+00 0. -1.
         11    1    1    2    0    0  0.28850022434E+02 -0.40889967037E+02  0.41408171153E+02  0.64953443611E+02  0.00000000000E+00 0.  1.
</event>
<event>
 7    1  0.2612213E-009  0.9488842E+02  0.7561462E-02  0.1291428E+00
         -1   -1    0    0    0  501 -0.00000000000E+00  0.00000000000E+00  0.10711188970E+03  0.10711188970E+03  0.00000000000E+00 0.  1.
          1   -1    0    0  501    0  0.00000000000E+00 -0.00000000000E+00 -0.12710989320E+03  0.12710989320E+03  0.00000000000E+00 0. -1.
         25    2    1    2    0    0  0.18114023752E+02  0.41383592035E+02 -0.16332841726E+02  0.13399921395E+03  0.12509319755E+03 0.  0.
          5    1    3    3  502    0  0.67194813674E+02  0.26122416595E+02 -0.33556380576E+02  0.79630563924E+02  0.41800000000E+01 0. -1.
         -5    1    3    3    0  502 -0.49080789922E+02  0.15261175439E+02  0.17223538851E+02  0.54368650026E+02  0.41800000000E+01 0. -1.
        -11    1    1    2    0    0  0.17528983271E+01  0.10391149437E+02  0.32400318837E+02  0.34070945098E+02  0.00000000000E+00 0.  1.
         11    1    1    2    0    0 -0.19866922079E+02 -0.51774741471E+02 -0.36065480612E+02  0.66151623859E+02  0.00000000000E+00 0. -1.
</event>
<event>
 7    1  0.2612213E-009  0.1560622E+03  0.7561462E-02  0.1193216E+00
          2   -1    0    0  501    0  0.00000000000E+00  0.00000000000E+00  0.17156995778E+03  0.17156995778E+03  0.00000000000E+00 0. -1.
         -2   -1    0    0    0  501 -0.00000000000E+00 -0.00000000000E+00 -0.24433741854E+03  0.24433741854E+03  0.00000000000E+00 0.  1.
         25    2    1    2    0    0 -0.73955712460E+02  0.12558901628E+03  0.57018933923E+02  0.20035300472E+03  0.12509244285E+03 0.  0.
          5    1    3    3  502    0  0.15660999670E+02  0.33305772912E+02  0.61249896662E+02  0.71579072787E+02  0.41800000000E+01 0. -1.
         -5    1    3    3    0  502 -0.89616712130E+02  0.92283243366E+02 -0.42309627391E+01  0.12877393193E+03  0.41800000000E+01 0. -1.
        -11    1    1    2    0    0  0.68078687753E+02 -0.10644607597E+03 -0.54424230389E+02  0.13757714806E+03  0.00000000000E+00 0. -1.
         11    1    1    2    0    0  0.58770247070E+01 -0.19142940311E+02 -0.75362164295E+02  0.77977223536E+02  0.00000000000E+00 0.  1.
</event>
<event>
 7    1  0.2612213E-009  0.1967810E+03  0.7561462E-02  0.1152484E+00
          2   -1    0    0  501    0  0.00000000000E+00  0.00000000000E+00  0.18718468118E+04  0.18718468118E+04  0.00000000000E+00 0.  1.
         -2   -1    0    0    0  501 -0.00000000000E+00 -0.00000000000E+00 -0.29233819330E+02  0.29233819330E+02  0.00000000000E+00 0. -1.
         25    2    1    2    0    0  0.16767869975E+03  0.32636460719E+02  0.14340726544E+04  0.14496182564E+04  0.12508967358E+03 0.  0.
          5    1    3    3  502    0  0.93200014009E+02  0.80341606372E+02  0.85146088798E+03  0.86031629793E+03  0.41800000000E+01 0. -1.
         -5    1    3    3    0  502  0.74478685741E+02 -0.47705145653E+02  0.58261176640E+03  0.58930195850E+03  0.41800000000E+01 0. -1.
        -11    1    1    2    0    0 -0.88207115191E+02 -0.48787599213E+02  0.15180763637E+03  0.18222591327E+03  0.00000000000E+00 0. -1.
         11    1    1    2    0    0 -0.79471584559E+02  0.16151138494E+02  0.25673270174E+03  0.26923646144E+03  0.00000000000E+00 0.  1.
</event>
<event>
 7    1  0.2612213E-009  0.1333572E+03  0.7561462E-02  0.1222558E+00
         -2   -1    0    0    0  501 -0.00000000000E+00  0.00000000000E+00  0.14985640349E+02  0.14985640349E+02  0.00000000000E+00 0. -1.
          2   -1    0    0  501    0  0.00000000000E+00 -0.00000000000E+00 -0.12907260452E+04  0.12907260452E+04  0.00000000000E+00 0.  1.
         25    2    1    2    0    0  0.85718275747E+02  0.54575725888E+01 -0.71747508048E+03  0.73334606839E+03  0.12509419258E+03 0.  0.
          5    1    3    3  502    0 -0.27136151748E+02 -0.40642681876E+00 -0.28539371665E+03  0.28671167018E+03  0.41800000000E+01 0. -1.
         -5    1    3    3    0  502  0.11285442749E+03  0.58639994075E+01 -0.43208136383E+03  0.44663439821E+03  0.41800000000E+01 0. -1.
        -11    1    1    2    0    0 -0.39052997261E+02  0.43552951746E+02 -0.24800604477E+03  0.25481168427E+03  0.00000000000E+00 0. -1.
         11    1    1    2    0    0 -0.46665278486E+02 -0.49010524335E+02 -0.31025927962E+03  0.31755393290E+03  0.00000000000E+00 0.  1.
</event>
<event>
 7    1  0.2612213E-009  0.9946828E+02  0.7561462E-02  0.1281418E+00
         -2   -1    0    0    0  501 -0.00000000000E+00  0.00000000000E+00  0.22116357661E+03  0.22116357661E+03  0.00000000000E+00 0.  1.
          2   -1    0    0  501    0  0.00000000000E+00 -0.00000000000E+00 -0.70385167176E+02  0.70385167176E+02  0.00000000000E+00 0. -1.
         25    2    1    2    0    0 -0.15118538503E+02 -0.56935721022E+02  0.67842560794E+02  0.15401009495E+03  0.12508497014E+03 0.  0.
          5    1    3    3  502    0 -0.58449571020E+02 -0.22505223587E+01  0.30804739817E+01  0.58722899479E+02  0.41800000000E+01 0.  1.
         -5    1    3    3    0  502  0.43331032517E+02 -0.54685198664E+02  0.64762086813E+02  0.95287195468E+02  0.41800000000E+01 0.  1.
        -11    1    1    2    0    0  0.20518611674E+02  0.94221189067E+01  0.86680404932E+02  0.89572776829E+02  0.00000000000E+00 0.  1.
         11    1    1    2    0    0 -0.54000731706E+01  0.47513602116E+02 -0.37445562877E+01  0.47965872014E+02  0.00000000000E+00 0. -1.
</event>
<event>
 7    1  0.3489547E-009  0.1074547E+03  0.7561462E-02  0.1265357E+00
         -2   -1    0    0    0  501 -0.00000000000E+00  0.00000000000E+00  0.20716979317E+02  0.20716979317E+02  0.00000000000E+00 0. -1.
          2   -1    0    0  501    0  0.00000000000E+00 -0.00000000000E+00 -0.86935588964E+03  0.86935588964E+03  0.00000000000E+00 0.  1.
         25    2    1    2    0    0 -0.72754349788E+02  0.30490819154E+02 -0.46554657848E+03  0.48847093890E+03  0.12508939185E+03 0.  0.
          5    1    3    3  502    0 -0.33438431701E+02 -0.30412501679E+02 -0.53893645012E+02  0.70463084986E+02  0.41800000000E+01 0. -1.
         -5    1    3    3    0  502 -0.39315918087E+02  0.60903320834E+02 -0.41165293347E+03  0.41800785392E+03  0.41800000000E+01 0. -1.
        -11    1    1    2    0    0  0.38624772464E+02  0.13776698740E+02 -0.54051926586E+02  0.67847485169E+02  0.00000000000E+00 0. -1.
         11    1    1    2    0    0  0.34129577324E+02 -0.44267517894E+02 -0.32904040526E+03  0.33375444489E+03  0.00000000000E+00 0.  1.
</event>
<event>
 7    1  0.2612213E-009  0.1603456E+03  0.7561462E-02  0.1188307E+00
          2   -1    0    0  501    0  0.00000000000E+00  0.00000000000E+00  0.41608694373E+03  0.41608694373E+03  0.00000000000E+00 0.  1.
         -2   -1    0    0    0  501 -0.00000000000E+00 -0.00000000000E+00 -0.77976451071E+02  0.77976451071E+02  0.00000000000E+00 0. -1.
         25    2    1    2    0    0 -0.13688900697E+03  0.40625209674E+02  0.20576824303E+03  0.27995859555E+03  0.12508891836E+03 0.  0.
          5    1    3    3  502    0 -0.81350519457E+02  0.58404081620E+02  0.19674043259E+03  0.22080129977E+03  0.41800000000E+01 0.  1.
         -5    1    3    3    0  502 -0.55538487512E+02 -0.17778871946E+02  0.90278104370E+01  0.59157295780E+02  0.41800000000E+01 0.  1.
        -11    1    1    2    0    0  0.72467787333E+02  0.18242074225E+02  0.90382521483E+02  0.11727469319E+03  0.00000000000E+00 0. -1.
         11    1    1    2    0    0  0.64421219636E+02 -0.58867283899E+02  0.41959728148E+02  0.96830106059E+02  0.00000000000E+00 0.  1.
</event>
<event>
 7    1  0.2612213E-009  0.1301524E+03  0.7561462E-02  0.1227230E+00
          2   -1    0    0  501    0  0.00000000000E+00  0.00000000000E+00  0.17323918644E+03  0.17323918644E+03  0.00000000000E+00 0. -1.
         -2   -1    0    0    0  501 -0.00000000000E+00 -0.00000000000E+00 -0.20570067935E+03  0.20570067935E+03  0.00000000000E+00 0.  1.
         25    2    1    2    0    0  0.44910039530E+02 -0.70187671461E+02  0.11890915139E+03  0.19165366793E+03  0.12509404970E+03 0.  0.
          5    1    3    3  502    0 -0.25234241473E+02 -0.75516424732E+02  0.66679360831E+02  0.10393799550E+03  0.41800000000E+01 0.  1.
         -5    1    3    3    0  502  0.70144281003E+02  0.53287532707E+01  0.52229790562E+02  0.87715672436E+02  0.41800000000E+01 0.  1.
        -11    1    1    2    0    0 -0.47993333044E+02  0.83570078378E+02 -0.12873692629E+03  0.16081204621E+03  0.00000000000E+00 0.  1.
         11    1    1    2    0    0  0.30832935143E+01 -0.13382406917E+02 -0.22633718020E+02  0.26474151642E+02  0.00000000000E+00 0. -1.
</event>
<event>
 7    1  0.2612213E-009  0.7538817E+02  0.7561462E-02  0.1342673E+00
          1   -1    0    0  501    0  0.00000000000E+00  0.00000000000E+00  0.51236555302E+03  0.51236555302E+03  0.00000000000E+00 0. -1.
         -1   -1    0    0    0  501 -0.00000000000E+00 -0.00000000000E+00 -0.47710758154E+02  0.47710758154E+02  0.00000000000E+00 0.  1.
         25    2    1    2    0    0 -0.16648809829E+02  0.38530605445E+02  0.43493824046E+03  0.45451673660E+03  0.12510955363E+03 0.  0.
          5    1    3    3  502    0 -0.27333703657E+02 -0.17265193683E+02  0.35425302005E+03  0.35574976161E+03  0.41800000000E+01 0.  1.
         -5    1    3    3    0  502  0.10684893828E+02  0.55795799127E+02  0.80685220405E+02  0.98766974987E+02  0.41800000000E+01 0.  1.
        -11    1    1    2    0    0  0.10415416422E+02 -0.48418163206E+02  0.57219416546E+02  0.75676026966E+02  0.00000000000E+00 0. -1.
         11    1    1    2    0    0  0.62333934066E+01  0.98875577617E+01 -0.27502862139E+02  0.29883547609E+02  0.00000000000E+00 0.  1.
</event>
<event>
 7    1  0.2612213E-009  0.1248621E+03  0.7561462E-02  0.1235285E+00
         -1   -1    0    0    0  501 -0.00000000000E+00  0.00000000000E+00  0.14118048725E+03  0.14118048725E+03  0.00000000000E+00 0.  1.
          1   -1    0    0  501    0  0.00000000000E+00 -0.00000000000E+00 -0.17706961012E+03  0.17706961012E+03  0.00000000000E+00 0. -1.
         25    2    1    2    0    0  0.45766737218E+02  0.74562171973E+02 -0.93482234862E+02  0.17899775627E+03  0.12508859576E+03 0.  0.
          5    1    3    3  502    0 -0.11484028277E+02  0.67013154665E+02  0.10706749756E+01  0.68126826937E+02  0.41800000000E+01 0. -1.
         -5    1    3    3    0  502  0.57250765495E+02  0.75490173086E+01 -0.94552909838E+02  0.11087092933E+03  0.41800000000E+01 0. -1.
        -11    1    1    2    0    0 -0.16918437948E+02  0.19210562099E+02  0.25231143098E+02  0.35942868845E+02  0.00000000000E+00 0. -1.
         11    1    1    2    0    0 -0.28848299270E+02 -0.93772734072E+02  0.32361968899E+02  0.10330947225E+03  0.00000000000E+00 0.  1.
</event>
<event>
 7    1  0.2612213E-009  0.7779625E+02  0.7561462E-02  0.1335424E+00
          1   -1    0    0  501    0  0.00000000000E+00  0.00000000000E+00  0.28094585569E+03  0.28094585569E+03  0.00000000000E+00 0. -1.
         -1   -1    0    0    0  501 -0.00000000000E+00 -0.00000000000E+00 -0.54836728204E+02  0.54836728204E+02  0.00000000000E+00 0.  1.
         25    2    1    2    0    0  0.33749774134E+02 -0.13207271257E+02  0.61488622584E+02  0.14401750270E+03  0.12508681429E+03 0.  0.
          5    1    3    3  502    0 -0.98889944691E+01 -0.11508630441E+02  0.90215231676E+02  0.91577842367E+02  0.41800000000E+01 0.  1.
         -5    1    3    3    0  502  0.43638768603E+02 -0.16986408157E+01 -0.28726609091E+02  0.52439660332E+02  0.41800000000E+01 0.  1.
        -11    1    1    2    0    0 -0.58026603581E+02  0.31089352772E+02  0.91934677575E+02  0.11307351378E+03  0.00000000000E+00 0.  1.
         11    1    1    2    0    0  0.24276829446E+02 -0.17882081515E+02  0.72685827332E+02  0.78691567415E+02  0.00000000000E+00 0. -1.
</event>
<event>
 6    1  0.2612213E-009  0.6959149E+02  0.7561462E-02  0.1361488E+00
          3   -1    0    0  501    0  0.00000000000E+00  0.00000000000E+00  0.41029698750E+02  0.41029698750E+02  0.00000000000E+00 0. -1.
         -3   -1    0    0    0  501 -0.00000000000E+00 -0.00000000000E+00 -0.30103896931E+03  0.30103896931E+03  0.00000000000E+00 0.  1.
          5    1    1    2  502    0  0.28448678783E+02 -0.41980681779E+02 -0.19887515308E+02  0.54632322230E+02  0.41800000000E+01 0.  1.
         -5    1    1    2    0  502 -0.37281654050E+02  0.23637224657E+02 -0.15688299547E+03  0.16302879128E+03  0.41800000000E+01 0.  1.
        -11    1    1    2    0    0 -0.15132090518E+02  0.11587134983E+02 -0.94983930019E+02  0.96877184220E+02  0.00000000000E+00 0.  1.
         11    1    1    2    0    0  0.23965065784E+02  0.67563221383E+01  0.11745170235E+02  0.27530370334E+02  0.00000000000E+00 0. -1.
</event>
<event>
 7    1  0.2612213E-009  0.1672392E+03  0.7561462E-02  0.1180758E+00
         -2   -1    0    0    0  501 -0.00000000000E+00  0.00000000000E+00  0.52672862752E+02  0.52672862752E+02  0.00000000000E+00 0.  1.
          2   -1    0    0  501    0  0.00000000000E+00 -0.00000000000E+00 -0.63333593917E+03  0.63333593917E+03  0.00000000000E+00 0. -1.
         25    2    1    2    0    0  0.26796226065E+02  0.14318225000E+03 -0.30118305588E+03  0.35717519263E+03  0.12507474021E+03 0.  0.
          5    1    3    3  502    0 -0.37427297631E+02  0.74668748033E+02 -0.75379101243E+02  0.11258643722E+03  0.41800000000E+01 0. -1.
         -5    1    3    3    0  502  0.64223523697E+02  0.68513501972E+02 -0.22580395463E+03  0.24458875542E+03  0.41800000000E+01 0. -1.
        -11    1    1    2    0    0 -0.43973299146E+02 -0.79065800098E+02 -0.88143527813E+02  0.12631046385E+03  0.00000000000E+00 0.  1.
         11    1    1    2    0    0  0.17177073081E+02 -0.64116449907E+02 -0.19133649273E+03  0.20252314544E+03  0.00000000000E+00 0. -1.
</event>
<event>
 7    1  0.2612213E-009  0.9596034E+02  0.7561462E-02  0.1289028E+00
          2   -1    0    0  501    0  0.00000000000E+00  0.00000000000E+00  0.71252966898E+02  0.71252966898E+02  0.00000000000E+00 0. -1.
         -2   -1    0    0    0  501 -0.00000000000E+00 -0.00000000000E+00 -0.19315474199E+03  0.19315474199E+03  0.00000000000E+00 0.  1.
         25    2    1    2    0    0  0.47827909116E+00 -0.50962458117E+02 -0.65470843672E+02  0.15010281326E+03  0.12508805814E+03 0.  0.
          5    1    3    3  502    0  0.36775410146E+02 -0.10600872394E+02  0.24000955597E+02  0.45368794964E+02  0.41800000000E+01 0. -1.
         -5    1    3    3    0  502 -0.36297131054E+02 -0.40361585723E+02 -0.89471799269E+02  0.10473401830E+03  0.41800000000E+01 0. -1.
        -11    1    1    2    0    0 -0.19412760328E+02  0.69691655075E+02 -0.45831269301E+02  0.85640453620E+02  0.00000000000E+00 0. -1.
         11    1    1    2    0    0  0.18934481237E+02 -0.18729196957E+02 -0.10599662118E+02  0.28664442003E+02  0.00000000000E+00 0.  1.
</event>
<event>
 6    1  0.2990722E-009  0.8970969E+02  0.7561462E-02  0.1303556E+00
         -1   -1    0    0    0  501 -0.00000000000E+00  0.00000000000E+00  0.18050916537E+02  0.18050916537E+02  0.00000000000E+00 0.  1.
          1   -1    0    0  501    0  0.00000000000E+00 -0.00000000000E+00 -0.73776017160E+03  0.73776017160E+03  0.00000000000E+00 0. -1.
          5    1    1    2  502    0  0.40291552430E+02  0.39737275285E+02 -0.25971308621E+03  0.26583983861E+03  0.41800000000E+01 0.  1.
         -5    1    1    2    0  502 -0.43803720683E+02 -0.52010542661E+02 -0.26992597028E+03  0.27839066853E+03  0.41800000000E+01 0.  1.
        -11    1    1    2    0    0 -0.97332454712E+01 -0.18577937512E+02 -0.26070781660E+01  0.21134632388E+02  0.00000000000E+00 0.  1.
         11    1    1    2    0    0  0.13245413724E+02  0.30851204887E+02 -0.18746312041E+03  0.19044594861E+03  0.00000000000E+00 0. -1.
</event>
<event>
 7    1  0.2612213E-009  0.1099873E+03  0.7561462E-02  0.1260593E+00
          2   -1    0    0  501    0  0.00000000000E+00  0.00000000000E+00  0.67347457735E+02  0.67347457735E+02  0.00000000000E+00 0.  1.
         -2   -1    0    0    0  501 -0.00000000000E+00 -0.00000000000E+00 -0.39894835740E+03  0.39894835740E+03  0.00000000000E+00 0. -1.
         25    2    1    2    0    0  0.64869873948E+02  0.64541382578E+02 -0.59821190371E+02  0.16613314757E+03  0.12509179547E+03 0.  0.
          5    1    3    3  502    0  0.57120847830E+02  0.40673791522E+02 -0.97804629703E+02  0.12041746786E+03  0.41800000000E+01 0. -1.
         -5    1    3    3    0  502  0.77490261188E+01  0.23867591057E+02  0.37983439332E+02  0.45715679718E+02  0.41800000000E+01 0. -1.
        -11    1    1    2    0    0 -0.10671997005E+02 -0.69080893852E+02 -0.11925294540E+03  0.13822925306E+03  0.00000000000E+00 0.  1.
         11    1    1    2    0    0 -0.54197876944E+02  0.45395112731E+01 -0.15252676389E+03  0.16193341449E+03  0.00000000000E+00 0. -1.
</event>
<event>
 7    1  0.2612213E-009  0.9139754E+02  0.7561462E-02  0.1299502E+00
         -1   -1    0    0    0  501 -0.00000000000E+00  0.00000000000E+00  0.82413606980E+02  0.82413606980E+02  0.00000000000E+00 0.  1.
          1   -1    0    0  501    0  0.00000000000E+00 -0.00000000000E+00 -0.21724184855E+03  0.21724184855E+03  0.00000000000E+00 0. -1.
         25    2    1    2    0    0  0.13789329634E+02  0.36746329230E+02 -0.15032492183E+03  0.19946180965E+03  0.12508794131E+03 0.  0.
          5    1    3    3  502    0  0.15452168655E+01 -0.28880931684E+02  0.56363672200E+01  0.29761333061E+02  0.41800000000E+01 0. -1.
         -5    1    3    3    0  502  0.12244112769E+02  0.65627260914E+02 -0.15596128905E+03  0.16970047659E+03  0.41800000000E+01 0. -1.
        -11    1    1    2    0    0  0.28778188084E+02 -0.33245062113E+02  0.32023935108E+02  0.54396237775E+02  0.00000000000E+00 0.  1.
         11    1    1    2    0    0 -0.42567517719E+02 -0.35012671171E+01 -0.16527254847E+02  0.45797408103E+02  0.00000000000E+00 0. -1.
</event>
<event>
 7    1  0.2612213E-009  0.1088741E+03  0.7561462E-02  0.1262669E+00
         -2   -1    0    0    0  501 -0.00000000000E+00  0.00000000000E+00  0.87045814523E+02  0.87045814523E+02  0.00000000000E+00 0.  1.
          2   -1    0    0  501    0  0.00000000000E+00 -0.00000000000E+00 -0.28018895666E+03  0.28018895666E+03  0.00000000000E+00 0. -1.
         25    2    1    2    0    0 -0.84093469490E+02 -0.13165681045E+02 -0.18325424857E+02  0.15240630490E+03  0.12508722480E+03 0.  0.
          5    1    3    3  502    0  0.50675255083E+01 -0.98547388169E+01  0.42645958920E+02  0.44259980842E+02  0.41800000000E+01 0.  1.
         -5    1    3    3    0  502 -0.89160994998E+02 -0.33109422280E+01 -0.60971383777E+02  0.10814632406E+03  0.41800000000E+01 0.  1.
        -11    1    1    2    0    0  0.50301459205E+02 -0.32416981611E+02 -0.12787777970E+03  0.14118719501E+03  0.00000000000E+00 0. -1.
         11    1    1    2    0    0  0.33792010284E+02  0.45582662656E+02 -0.46939937578E+02  0.73641271266E+02  0.00000000000E+00 0.  1.
</event>
<event>
 7    1  0.2612213E-009  0.1066934E+03  0.7561462E-02  0.1266819E+00
         -1   -1    0    0    0  501 -0.00000000000E+00  0.00000000000E+00  0.12102406812E+04  0.12102406812E+04  0.00000000000E+00 0.  1.
          1   -1    0    0  501    0  0.00000000000E+00 -0.00000000000E+00 -0.23695399575E+02  0.23695399575E+02  0.00000000000E+00 0. -1.
         25    2    1    2    0    0 -0.21650136090E+02 -0.22454875347E+02  0.10898591359E+04  0.10974578905E+04  0.12509170888E+03 0.  0.
          5    1    3    3  502    0 -0.32813547760E+01 -0.69904722787E+02  0.80609339955E+03  0.80913625475E+03  0.41800000000E+01 0. -1.
         -5    1    3    3    0  502 -0.18368781314E+02  0.47449847441E+02  0.28376573633E+03  0.28832163579E+03  0.41800000000E+01 0. -1.
        -11    1    1    2    0    0  0.55517947967E+02  0.15669868165E+02  0.78574747296E+02  0.97477065135E+02  0.00000000000E+00 0.  1.
         11    1    1    2    0    0 -0.33867811877E+02  0.67850071821E+01  0.18111398417E+02  0.39001125066E+02  0.00000000000E+00 0. -1.
</event>
<event>
 7    1  0.2612213E-009  0.3123960E+03  0.7561462E-02  0.1079203E+00
          2   -1    0    0  501    0  0.00000000000E+00  0.00000000000E+00  0.94292653420E+03  0.94292653420E+03  0.00000000000E+00 0. -1.
         -2   -1    0    0    0  501 -0.00000000000E+00 -0.00000000000E+00 -0.14967375623E+03  0.14967375623E+03  0.00000000000E+00 0.  1.
         25    2    1    2    0    0  0.82070748938E+02 -0.28122294258E+03  0.68132409698E+03  0.75211178769E+03  0.12509062630E+03 0.  0.
          5    1    3    3  502    0 -0.15347328947E+02 -0.90184505234E+02  0.31053868281E+03  0.32375999044E+03  0.41800000000E+01 0. -1.
         -5    1    3    3    0  502  0.97418077885E+02 -0.19103843735E+03  0.37078541418E+03  0.42835179725E+03  0.41800000000E+01 0. -1.
        -11    1    1    2    0    0 -0.48372539876E+02  0.15376366650E+02  0.18642097210E+01  0.50791835400E+02  0.00000000000E+00 0. -1.
         11    1    1    2    0    0 -0.33698209061E+02  0.26584657593E+03  0.11006447127E+03  0.28969666733E+03  0.00000000000E+00 0.  1.
</event>
<event>
 7    1  0.2612213E-009  0.2327351E+03  0.7561462E-02  0.1124729E+00
         -2   -1    0    0    0  501 -0.00000000000E+00  0.00000000000E+00  0.52665767659E+02  0.52665767659E+02  0.00000000000E+00 0. -1.
          2   -1    0    0  501    0  0.00000000000E+00 -0.00000000000E+00 -0.11660194226E+04  0.11660194226E+04  0.00000000000E+00 0.  1.
         25    2    1    2    0    0 -0.98924392240E+01 -0.21832485042E+03 -0.47138004662E+03  0.53442255805E+03  0.12507886125E+03 0.  0.
          5    1    3    3  502    0 -0.35958409210E+02 -0.21669829602E+03 -0.44862208343E+03  0.49953018411E+03  0.41800000000E+01 0. -1.
         -5    1    3    3    0  502  0.26065969986E+02 -0.16265543950E+01 -0.22757963191E+02  0.34892373939E+02  0.41800000000E+01 0. -1.
        -11    1    1    2    0    0 -0.54559194279E+01  0.49990599732E+02 -0.28362312761E+03  0.28804670738E+03  0.00000000000E+00 0.  1.
         11    1    1    2    0    0  0.15348358652E+02  0.16833425068E+03 -0.35835048072E+03  0.39621592484E+03  0.00000000000E+00 0. -1.
</event>
<event>
 7    1  0.2612213E-009  0.1210501E+03  0.7561462E-02  0.1241375E+00
         -1   -1    0    0    0  501 -0.00000000000E+00  0.00000000000E+00  0.92560675933E+02  0.92560675933E+02  0.00000000000E+00 0.  1.
          1   -1    0    0  501    0  0.00000000000E+00 -0.00000000000E+00 -0.19605549754E+03  0.19605549754E+03  0.00000000000E+00 0. -1.
         25    2    1    2    0    0  0.66508970601E+02 -0.19374142156E+02 -0.58450757095E+02  0.15447248280E+03  0.12508579609E+03 0.  0.
          5    1    3    3  502    0  0.76521784809E+02  0.35573083206E+02 -0.20884589753E+02  0.87032558783E+02  0.41800000000E+01 0.  1.
         -5    1    3    3    0  502 -0.10012814208E+02 -0.54947225362E+02 -0.37566167342E+02  0.67439924022E+02  0.41800000000E+01 0.  1.
        -11    1    1    2    0    0  0.13742331033E+02  0.16261566537E+02  0.21193571856E+02  0.30040933682E+02  0.00000000000E+00 0.  1.
         11    1    1    2    0    0 -0.80251301633E+02  0.31125756184E+01 -0.66237636370E+02  0.10410275699E+03  0.00000000000E+00 0. -1.
</event>
<event>
 7    1  0.2612213E-009  0.1533846E+03  0.7561462E-02  0.1196375E+00
         -1   -1    0    0    0  501 -0.00000000000E+00  0.00000000000E+00  0.42723048152E+03  0.42723048152E+03  0.00000000000E+00 0.  1.
          1   -1    0    0  501    0  0.00000000000E+00 -0.00000000000E+00 -0.56377959581E+02  0.56377959581E+02  0.00000000000E+00 0. -1.
         25    2    1    2    0    0 -0.10424580179E+03 -0.29889615910E+02  0.16745580674E+03  0.23547988523E+03  0.12509497515E+03 0.  0.
          5    1    3    3  502    0 -0.40069174448E+02  0.48755198459E+02  0.53759245817E+02  0.83006849286E+02  0.41800000000E+01 0. -1.
         -5    1    3    3    0  502 -0.64176627341E+02 -0.78644814368E+02  0.11369656093E+03  0.15247303595E+03  0.41800000000E+01 0. -1.
        -11    1    1    2    0    0  0.54208899838E+02 -0.31527565978E+02  0.83563672690E+02  0.10447717278E+03  0.00000000000E+00 0.  1.
         11    1    1    2    0    0  0.50036901951E+02  0.61417181888E+02  0.11983304250E+03  0.14365138309E+03  0.00000000000E+00 0. -1.
</event>
<event>
 7    1  0.2612213E-009  0.2478538E+03  0.7561462E-02  0.1114669E+00
          2   -1    0    0  501    0  0.00000000000E+00  0.00000000000E+00  0.16244072507E+03  0.16244072507E+03  0.00000000000E+00 0. -1.
         -2   -1    0    0    0  501 -0.00000000000E+00 -0.00000000000E+00 -0.93031782832E+03  0.93031782832E+03  0.00000000000E+00 0.  1.
         25    2    1    2    0    0 -0.23105011802E+03  0.53087678221E+02 -0.79356827293E+03  0.83761595005E+03  0.12508963728E+03 0.  0.
          5    1    3    3  502    0 -0.12866243225E+03  0.56958920258E+02 -0.62206289848E+03  0.63779155069E+03  0.41800000000E+01 0. -1.
         -5    1    3    3    0  502 -0.10238768577E+03 -0.38712420363E+01 -0.17150537445E+03  0.19982439935E+03  0.41800000000E+01 0. -1.
        -11    1    1    2    0    0  0.97280510961E+02 -0.66672510703E+02  0.25615133090E+02  0.12068494744E+03  0.00000000000E+00 0. -1.
         11    1    1    2    0    0  0.13376960706E+03  0.13584832482E+02  0.76036588738E-01  0.13445765589E+03  0.00000000000E+00 0.  1.
</event>
<event>
 7    1  0.2612213E-009  0.1152580E+03  0.7561462E-02  0.1251131E+00
         -1   -1    0    0    0  501 -0.00000000000E+00  0.00000000000E+00  0.21573157815E+02  0.21573157815E+02  0.00000000000E+00 0. -1.
          1   -1    0    0  501    0  0.00000000000E+00 -0.00000000000E+00 -0.82001181506E+03  0.82001181506E+03  0.00000000000E+00 0.  1.
         25    2    1    2    0    0  0.66329542321E+02  0.12923966100E+01 -0.34970441550E+03  0.37727564902E+03  0.12506981509E+03 0.  0.
          5    1    3    3  502    0  0.47788781941E+02  0.61278521308E+02 -0.17287716134E+03  0.18958589126E+03  0.41800000000E+01 0. -1.
         -5    1    3    3    0  502  0.18540760380E+02 -0.59986124698E+02 -0.17682725416E+03  0.18768975776E+03  0.41800000000E+01 0. -1.
        -11    1    1    2    0    0  0.37145835027E+01  0.16979087410E+02 -0.10865765840E+02  0.20497619549E+02  0.00000000000E+00 0. -1.
         11    1    1    2    0    0 -0.70044125824E+02 -0.18271484020E+02 -0.43786847590E+03  0.44381170431E+03  0.00000000000E+00 0.  1.
</event>
<event>
 7    1  0.2612213E-009  0.7707935E+02  0.7561462E-02  0.1337550E+00
         -1   -1    0    0    0  501 -0.00000000000E+00  0.00000000000E+00  0.39075413617E+02  0.39075413617E+02  0.00000000000E+00 0.  1.
          1   -1    0    0  501    0  0.00000000000E+00 -0.00000000000E+00 -0.39864591869E+03  0.39864591869E+03  0.00000000000E+00 0. -1.
         25    2    1    2    0    0  0.47396155251E+02  0.93325699425E+01 -0.25798997871E+03  0.29075648325E+03  0.12508801318E+03 0.  0.
          5    1    3    3  502    0 -0.95830502515E+01 -0.25862262533E+02 -0.41568995282E+01  0.28203611279E+02  0.41800000000E+01 0. -1.
         -5    1    3    3    0  502  0.56979205503E+02  0.35194832476E+02 -0.25383307918E+03  0.26255287197E+03  0.41800000000E+01 0. -1.
        -11    1    1    2    0    0 -0.11721248942E+02 -0.18886712814E+02 -0.10731260722E+03  0.10959056194E+03  0.00000000000E+00 0. -1.
         11    1    1    2    0    0 -0.35674906309E+02  0.95541428713E+01  0.57320808639E+01  0.37374287113E+02  0.00000000000E+00 0.  1.
</event>
<event>
 7    1  0.2612213E-009  0.8544007E+02  0.7561462E-02  0.1314286E+00
          1   -1    0    0  501    0  0.00000000000E+00  0.00000000000E+00  0.11251793756E+04  0.11251793756E+04  0.00000000000E+00 0. -1.
         -1   -1    0    0    0  501 -0.00000000000E+00 -0.00000000000E+00 -0.13782370101E+02  0.13782370101E+02  0.00000000000E+00 0.  1.
         25    2    1    2    0    0  0.12488598805E+02  0.11416176074E+02  0.78231079124E+03  0.79242861177E+03  0.12508651596E+03 0.  0.
          5    1    3    3  502    0 -0.10531793288E+02  0.32367517676E+02  0.57587501544E+02  0.67025126665E+02  0.41800000000E+01 0. -1.
         -5    1    3    3    0  502  0.23020392093E+02 -0.20951341601E+02  0.72472328970E+03  0.72540348510E+03  0.41800000000E+01 0. -1.
        -11    1    1    2    0    0 -0.14519437353E+02 -0.57371316974E+02  0.14125237790E+03  0.15314867396E+03  0.00000000000E+00 0.  1.
         11    1    1    2    0    0  0.20308385472E+01  0.45955140900E+02  0.18783383635E+03  0.19338445997E+03  0.00000000000E+00 0. -1.
</event>
<event>
 7    1  0.2612213E-009  0.1006227E+03  0.7561462E-02  0.1278992E+00
         -2   -1    0    0    0  501 -0.00000000000E+00  0.00000000000E+00  0.10362396320E+03  0.10362396320E+03  0.00000000000E+00 0.  1.
          2   -1    0    0  501    0  0.00000000000E+00 -0.00000000000E+00 -0.13884937682E+03  0.13884937682E+03  0.00000000000E+00 0. -1.
         25    2    1    2    0    0  0.45329303983E+02 -0.24649546127E+02 -0.28755150105E+02  0.13833125103E+03  0.12508529262E+03 0.  0.
          5    1    3    3  502    0 -0.32234148378E+01  0.26827966211E+02 -0.56056897703E+02  0.62369690991E+02  0.41800000000E+01 0.  1.
         -5    1    3    3    0  502  0.48552718820E+02 -0.51477512338E+02  0.27301747598E+02  0.75961560037E+02  0.41800000000E+01 0.  1.
        -11    1    1    2    0    0 -0.13398999377E+02 -0.33830991178E+02  0.43237040395E+01  0.36643738415E+02  0.00000000000E+00 0.  1.
         11    1    1    2    0    0 -0.31930304605E+02  0.58480537305E+02 -0.10793967555E+02  0.67498350581E+02  0.00000000000E+00 0. -1.
</event>
<event>
 7    1  0.2612213E-009  0.1264479E+03  0.7561462E-02  0.1232824E+00
         -2   -1    0    0    0  501 -0.00000000000E+00  0.00000000000E+00  0.17624023057E+02  0.17624023057E+02  0.00000000000E+00 0.  1.
          2   -1    0    0  501    0  0.00000000000E+00 -0.00000000000E+00 -0.10490532436E+04  0.10490532436E+04  0.00000000000E+00 0. -1.
         25    2    1    2    0    0 -0.57844996794E+02  0.52995168857E+02 -0.52859066456E+03  0.54882584299E+03  0.12508870334E+03 0.  0.
          5    1    3    3  502    0 -0.33469962014E+02 -0.29037942240E+02 -0.74983140845E+02  0.87197386760E+02  0.41800000000E+01 0.  1.
         -5    1    3    3    0  502 -0.24375034780E+02  0.82033111097E+02 -0.45360752371E+03  0.46162845623E+03  0.41800000000E+01 0.  1.
        -11    1    1    2    0    0  0.81071037306E+02 -0.57048464992E+02 -0.37650691625E+03  0.38933853961E+03  0.00000000000E+00 0.  1.
         11    1    1    2    0    0 -0.23226040512E+02  0.40532961346E+01 -0.12633163978E+03  0.12851288409E+03  0.00000000000E+00 0. -1.
</event>
<event>
 7    1  0.2612213E-009  0.2921180E+03  0.7561462E-02  0.1089248E+00
          2   -1    0    0  501    0  0.00000000000E+00  0.00000000000E+00  0.17513812453E+03  0.17513812453E+03  0.00000000000E+00 0.  1.
         -2   -1    0    0    0  501 -0.00000000000E+00 -0.00000000000E+00 -0.52067781229E+03  0.52067781229E+03  0.00000000000E+00 0. -1.
         25    2    1    2    0    0 -0.19767394165E+03  0.19602933638E+03 -0.22395530293E+03  0.37855803406E+03  0.12509084505E+03 0.  0.
          5    1    3    3  502    0 -0.29451881119E+02  0.85976999739E+02 -0.12461125694E+03  0.15428835194E+03  0.41800000000E+01 0. -1.
         -5    1    3    3    0  502 -0.16822206053E+03  0.11005233664E+03 -0.99344045984E+02  0.22426968213E+03  0.41800000000E+01 0. -1.
        -11    1    1    2    0    0  0.95242277938E+02 -0.35250906975E+02 -0.30907923122E+02  0.10615562944E+03  0.00000000000E+00 0.  1.
         11    1    1    2    0    0  0.10243166371E+03 -0.16077842940E+03 -0.90676461717E+02  0.21110227332E+03  0.00000000000E+00 0. -1.
</event>
<event>
 7    1  0.2612213E-009  0.1488296E+03  0.7561462E-02  0.1201919E+00
          1   -1    0    0  501    0  0.00000000000E+00  0.00000000000E+00  0.43701809394E+03  0.43701809394E+03  0.00000000000E+00 0. -1.
         -1   -1    0    0    0  501 -0.00000000000E+00 -0.00000000000E+00 -0.63451031900E+02  0.63451031900E+02  0.00000000000E+00 0.  1.
         25    2    1    2    0    0  0.11578870569E+03 -0.79191772380E+01  0.12761141535E+03  0.21307546991E+03  0.12508694903E+03 0.  0.
          5    1    3    3  502    0  0.10217251612E+03  0.31588569134E+02  0.13302157637E+03  0.17073158153E+03  0.41800000000E+01 0.  1.
         -5    1    3    3    0  502  0.13616189567E+02 -0.39507746372E+02 -0.54101610168E+01  0.42343888389E+02  0.41800000000E+01 0.  1.
        -11    1    1    2    0    0 -0.10893370525E+03 -0.27670080251E+02  0.18832809186E+03  0.21931633698E+03  0.00000000000E+00 0.  1.
         11    1    1    2    0    0 -0.68550004395E+01  0.35589257489E+02  0.57627554827E+02  0.68077318947E+02  0.00000000000E+00 0. -1.
</event>
<event>
 7    1  0.2612213E-009  0.1018765E+03  0.7561462E-02  0.1276399E+00
         -1   -1    0    0    0  501 -0.00000000000E+00  0.00000000000E+00  0.95136302632E+01  0.95136302632E+01  0.00000000000E+00 0.  1.
          1   -1    0    0  501    0  0.00000000000E+00 -0.00000000000E+00 -0.18904050847E+04  0.18904050847E+04  0.00000000000E+00 0. -1.
         25    2    1    2    0    0  0.26608965506E+02 -0.62536291584E+01 -0.15054354870E+04  0.15108708983E+04  0.12509085032E+03 0.  0.
          5    1    3    3  502    0  0.64005066683E+02 -0.54213760761E+01 -0.43138472979E+03  0.43616086181E+03  0.41800000000E+01 0. -1.
         -5    1    3    3    0  502 -0.37396101177E+02 -0.83225308233E+00 -0.10740507572E+04  0.10747100365E+04  0.41800000000E+01 0. -1.
        -11    1    1    2    0    0  0.28832946577E+02  0.29840063167E+02 -0.16496959099E+03  0.17010800725E+03  0.00000000000E+00 0.  1.
         11    1    1    2    0    0 -0.55441912084E+02 -0.23586434009E+02 -0.21048637641E+03  0.21893980940E+03  0.00000000000E+00 0. -1.
</event>
<event>
 7    1  0.2631986E-009  0.1362219E+03  0.7561462E-02  0.1218505E+00
         -2   -1    0    0    0  501 -0.00000000000E+00  0.00000000000E+00  0.19792107349E+02  0.19792107349E+02  0.00000000000E+00 0. -1.
          2   -1    0    0  501    0  0.00000000000E+00 -0.00000000000E+00 -0.12001206324E+04  0.12001206324E+04  0.00000000000E+00 0.  1.
         25    2    1    2    0    0 -0.90486511523E+02 -0.52904637727E+02 -0.75430252107E+03  0.77175558731E+03  0.12509070223E+03 0.  0.
          5    1    3    3  502    0  0.84647090940E+01  0.28351040627E+02 -0.80146412083E+02  0.85535680125E+02  0.41800000000E+01 0. -1.
         -5    1    3    3    0  502 -0.98951220617E+02 -0.81255678354E+02 -0.67415610899E+03  0.68621990718E+03  0.41800000000E+01 0. -1.
        -11    1    1    2    0    0  0.74312578286E+02  0.18714495099E+02 -0.38419073985E+03  0.39175900271E+03  0.00000000000E+00 0.  1.
         11    1    1    2    0    0  0.16173933237E+02  0.34190142628E+02 -0.41835264162E+02  0.56398149764E+02  0.00000000000E+00 0. -1.
</event>
<event>
 7    1  0.2612213E-009  0.1093739E+03  0.7561462E-02  0.1261734E+00
         -1   -1    0    0    0  501 -0.00000000000E+00  0.00000000000E+00  0.18932383179E+02  0.18932383179E+02  0.00000000000E+00 0.  1.
          1   -1    0    0  501    0  0.00000000000E+00 -0.00000000000E+00 -0.93090703584E+03  0.93090703584E+03  0.00000000000E+00 0. -1.
         25    2    1    2    0    0  0.49944311169E+02 -0.53198312341E+02 -0.43209414566E+03  0.45571617914E+03  0.12508953021E+03 0.  0.
          5    1    3    3  502    0  0.47926740790E+01  0.21571621113E+02 -0.99188155954E+01  0.24579663649E+02  0.41800000000E+01 0. -1.
         -5    1    3    3    0  502  0.45151637090E+02 -0.74769933454E+02 -0.42217533006E+03  0.43113651550E+03  0.41800000000E+01 0. -1.
        -11    1    1    2    0    0  0.21535791241E+02  0.36594350942E+01 -0.38582429680E+02  0.44337181345E+02  0.00000000000E+00 0.  1.
         11    1    1    2    0    0 -0.71480102410E+02  0.49538877247E+02 -0.44129807732E+03  0.44978605853E+03  0.00000000000E+00 0. -1.
</event>
<event>
 7    1  0.2612213E-009  0.1329092E+03  0.7561462E-02  0.1223202E+00
         -2   -1    0    0    0  501 -0.00000000000E+00  0.00000000000E+00  0.56005098141E+02  0.56005098141E+02  0.00000000000E+00 0. -1.
          2   -1    0    0  501    0  0.00000000000E+00 -0.00000000000E+00 -0.48119267549E+03  0.48119267549E+03  0.00000000000E+00 0.  1.
         25    2    1    2    0    0 -0.87575953118E+02 -0.69723825733E+02 -0.30807990392E+03  0.35084429399E+03  0.12509009547E+03 0.  0.
          5    1    3    3  502    0 -0.32195682385E+01 -0.43459519009E+02 -0.22592261352E+03  0.23012517271E+03  0.41800000000E+01 0. -1.
         -5    1    3    3    0  502 -0.84356384879E+02 -0.26264306724E+02 -0.82157290392E+02  0.12071912128E+03  0.41800000000E+01 0. -1.
        -11    1    1    2    0    0  0.53266841578E+02  0.81459821956E+02 -0.11409294971E+03  0.14996753042E+03  0.00000000000E+00 0.  1.
         11    1    1    2    0    0  0.34309111540E+02 -0.11735996223E+02 -0.30147237151E+01  0.36385949226E+02  0.00000000000E+00 0. -1.
</event>
<event>
 7    1  0.2612213E-009  0.9910729E+02  0.7561462E-02  0.1282184E+00
         -3   -1    0    0    0  501 -0.00000000000E+00  0.00000000000E+00  0.10257951994E+03  0.10257951994E+03  0.00000000000E+00 0.  1.
          3   -1    0    0  501    0  0.00000000000E+00 -0.00000000000E+00 -0.12804751536E+03  0.12804751536E+03  0.00000000000E+00 0. -1.
         25    2    1    2    0    0 -0.15334084653E+02  0.29798446614E+02  0.46451699845E+01  0.12958500764E+03  0.12509042741E+03 0.  0.
          5    1    3    3  502    0 -0.55466876645E+02  0.25701214532E+02  0.42127777513E+02  0.74359591656E+02  0.41800000000E+01 0.  1.
         -5    1    3    3    0  502  0.40132791992E+02  0.40972320813E+01 -0.37482607528E+02  0.55225415987E+02  0.41800000000E+01 0.  1.
        -11    1    1    2    0    0  0.21056434105E+02 -0.61066620684E+02 -0.21958497511E+02  0.68225224015E+02  0.00000000000E+00 0. -1.
         11    1    1    2    0    0 -0.57223494519E+01  0.31268174070E+02 -0.81546678977E+01  0.32816803645E+02  0.00000000000E+00 0.  1.
</event>
<event>
 7    1  0.2612213E-009  0.1121190E+03  0.7561462E-02  0.1256695E+00
          1   -1    0    0  501    0  0.00000000000E+00  0.00000000000E+00  0.61505689387E+02  0.61505689387E+02  0.00000000000E+00 0. -1.
         -1   -1    0    0    0  501 -0.00000000000E+00 -0.00000000000E+00 -0.41001305948E+03  0.41001305948E+03  0.00000000000E+00 0.  1.
         25    2    1    2    0    0  0.95773115916E+02 -0.35793573653E+02 -0.27494882181E+03  0.31890215303E+03  0.12509220178E+03 0.  0.
          5    1    3    3  502    0  0.56263246652E+02  0.12749783513E+02 -0.24045624656E+03  0.24731516091E+03  0.41800000000E+01 0. -1.
         -5    1    3    3    0  502  0.39509869264E+02 -0.48543357166E+02 -0.34492575249E+02  0.71586992125E+02  0.41800000000E+01 0. -1.
        -11    1    1    2    0    0 -0.49752597674E+02  0.27690408078E+02 -0.87015258394E+02  0.10398910937E+03  0.00000000000E+00 0.  1.
         11    1    1    2    0    0 -0.46020518242E+02  0.81031655751E+01  0.13456710120E+02  0.48627486454E+02  0.00000000000E+00 0. -1.
</event>
<event>
 7    1  0.2612213E-009  0.9960603E+02  0.7561462E-02  0.1281127E+00
          3   -1    0    0  501    0  0.00000000000E+00  0.00000000000E+00  0.10821065052E+03  0.10821065052E+03  0.00000000000E+00 0. -1.
         -3   -1    0    0    0  501 -0.00000000000E+00 -0.00000000000E+00 -0.16420907889E+03  0.16420907889E+03  0.00000000000E+00 0.  1.
         25    2    1    2    0    0 -0.21345467208E+02  0.74204257777E+02 -0.34866142258E+02  0.15107637933E+03  0.12508606506E+03 0.  0.
          5    1    3    3  502    0 -0.38457082374E+02  0.74772179922E+01 -0.64810792674E+02  0.75846998758E+02  0.41800000000E+01 0.  1.
         -5    1    3    3    0  502  0.17111615166E+02  0.66727039785E+02  0.29944650416E+02  0.75229380568E+02  0.41800000000E+01 0.  1.
        -11    1    1    2    0    0  0.26696189194E+02 -0.13602148888E+02 -0.46591043028E+02  0.55393413528E+02  0.00000000000E+00 0.  1.
         11    1    1    2    0    0 -0.53507219868E+01 -0.60602108889E+02  0.25458756923E+02  0.65949936555E+02  0.00000000000E+00 0. -1.
</event>
<event>
 7    1  0.2612213E-009  0.1201320E+03  0.7561462E-02  0.1242879E+00
          2   -1    0    0  501    0  0.00000000000E+00  0.00000000000E+00  0.22462321260E+03  0.22462321260E+03  0.00000000000E+00 0. -1.
         -2   -1    0    0    0  501 -0.00000000000E+00 -0.00000000000E+00 -0.10161756429E+03  0.10161756429E+03  0.00000000000E+00 0.  1.
         25    2    1    2    0    0  0.21689528808E+02  0.15564908549E+02 -0.20081784509E+02  0.12947674921E+03  0.12509295935E+03 0.  0.
          5    1    3    3  502    0  0.61791761368E+02  0.23440542946E+02  0.22853863566E+02  0.70053210536E+02  0.41800000000E+01 0.  1.
         -5    1    3    3    0  502 -0.40102232560E+02 -0.78756343967E+01 -0.42935648075E+02  0.59423538678E+02  0.41800000000E+01 0.  1.
        -11    1    1    2    0    0 -0.75092364309E+02  0.60829784389E+01  0.97917906328E+02  0.12354668018E+03  0.00000000000E+00 0. -1.
         11    1    1    2    0    0  0.53402835501E+02 -0.21647886988E+02  0.45169526487E+02  0.73217347491E+02  0.00000000000E+00 0.  1.
</event>
<event>
 7    1  0.2612213E-009  0.1712189E+03  0.7561462E-02  0.1176583E+00
         -2   -1    0    0    0  501 -0.00000000000E+00  0.00000000000E+00  0.75428175410E+03  0.75428175410E+03  0.00000000000E+00 0. -1.
          2   -1    0    0  501    0  0.00000000000E+00 -0.00000000000E+00 -0.44484933501E+02  0.44484933501E+02  0.00000000000E+00 0.  1.
         25    2    1    2    0    0  0.94162530096E+02  0.95641780149E+02  0.51152020836E+03  0.54342827100E+03  0.12508968775E+03 0.  0.
          5    1    3    3  502    0  0.46622027161E+02  0.11941593064E+03  0.32364928791E+03  0.34813806438E+03  0.41800000000E+01 0.  1.
         -5    1    3    3    0  502  0.47540502935E+02 -0.23774150492E+02  0.18787092045E+03  0.19529020662E+03  0.41800000000E+01 0.  1.
        -11    1    1    2    0    0 -0.61990726704E+02 -0.21968530753E+01  0.74161997677E+02  0.96683391853E+02  0.00000000000E+00 0.  1.
         11    1    1    2    0    0 -0.32171803391E+02 -0.93444927074E+02  0.12411461457E+03  0.15865502475E+03  0.00000000000E+00 0. -1.
</event>
<event>
 6    1  0.2612213E-009  0.1304314E+03  0.7561462E-02  0.1226817E+00
          1   -1    0    0  501    0  0.00000000000E+00  0.00000000000E+00  0.13425413846E+03  0.13425413846E+03  0.00000000000E+00 0. -1.
         -1   -1    0    0    0  501 -0.00000000000E+00 -0.00000000000E+00 -0.14360873532E+03  0.14360873532E+03  0.00000000000E+00 0.  1.
          5    1    1    2  502    0 -0.34141073299E+02 -0.27155326239E+02  0.21791194755E+02  0.48942345653E+02  0.41800000000E+01 0. -1.
         -5    1    1    2    0  502  0.10047251645E+03 -0.16876813782E+02  0.83382842151E+01  0.10230617180E+03  0.41800000000E+01 0. -1.
        -11    1    1    2    0    0 -0.20303369584E+02 -0.24936249394E+02  0.49607128882E+01  0.32536933209E+02  0.00000000000E+00 0. -1.
         11    1    1    2    0    0 -0.46028073564E+02  0.68968389415E+02 -0.44444788720E+02  0.94077423110E+02  0.00000000000E+00 0.  1.
</event>
<event>
 7    1  0.2612213E-009  0.3030123E+03  0.7561462E-02  0.1083744E+00
         -2   -1    0    0    0  501 -0.00000000000E+00  0.00000000000E+00  0.34990375461E+03  0.34990375461E+03  0.00000000000E+00 0.  1.
          2   -1    0    0  501    0  0.00000000000E+00 -0.00000000000E+00 -0.46222024894E+03  0.46222024894E+03  0.00000000000E+00 0. -1.
         25    2    1    2    0    0  0.57453242117E+02 -0.28395551050E+03  0.20219523640E+03  0.37477860550E+03  0.12507790590E+03 0.  0.
          5    1    3    3  502    0  0.27460582325E+02 -0.27384326922E+03  0.14966418896E+03  0.31330665734E+03  0.41800000000E+01 0. -1.
         -5    1    3    3    0  502  0.29992659793E+02 -0.10112241282E+02  0.52531047443E+02  0.61471948160E+02  0.41800000000E+01 0. -1.
        -11    1    1    2    0    0  0.12473461485E+02  0.11944492606E+03 -0.88463472942E+02  0.14915918895E+03  0.00000000000E+00 0. -1.
         11    1    1    2    0    0 -0.69926703602E+02  0.16451058444E+03 -0.22604825779E+03  0.28818620911E+03  0.00000000000E+00 0.  1.
</event>
<event>
 7    1  0.2612213E-009  0.2430152E+03  0.7561462E-02  0.1117800E+00
          2   -1    0    0  501    0  0.00000000000E+00  0.00000000000E+00  0.86974723404E+03  0.86974723404E+03  0.00000000000E+00 0. -1.
         -2   -1    0    0    0  501 -0.00000000000E+00 -0.00000000000E+00 -0.74591699867E+02  0.74591699867E+02  0.00000000000E+00 0.  1.
         25    2    1    2    0    0  0.22098397551E+03  0.54825803644E+02  0.34883773326E+03  0.43494263024E+03  0.12509013261E+03 0.  0.
          5    1    3    3  502    0  0.20642385411E+03  0.81607440453E+02  0.33330582403E+03  0.40047575034E+03  0.41800000000E+01 0.  1.
         -5    1    3    3    0  502  0.14560121399E+02 -0.26781636809E+02  0.15531909233E+02  0.34466879895E+02  0.41800000000E+01 0.  1.
        -11    1    1    2    0    0 -0.16605032426E+03 -0.63226039236E+02  0.25959124879E+03  0.31457568036E+03  0.00000000000E+00 0. -1.
         11    1    1    2    0    0 -0.54933651249E+02  0.84002355916E+01  0.18672655212E+03  0.19482062330E+03  0.00000000000E+00 0.  1.
</event>
<event>
 7    1  0.2612213E-009  0.1244016E+03  0.7561462E-02  0.1236007E+00
         -3   -1    0    0    0  501 -0.00000000000E+00  0.00000000000E+00  0.23126320266E+03  0.23126320266E+03  0.00000000000E+00 0.  1.
          3   -1    0    0  501    0  0.00000000000E+00 -0.00000000000E+00 -0.87899475101E+02  0.87899475101E+02  0.00000000000E+00 0. -1.
         25    2    1    2    0    0  0.75485441382E+02 -0.38578555348E+02  0.11819810634E+03  0.19184827925E+03  0.12509441680E+03 0.  0.
          5    1    3    3  502    0  0.16518811548E+02  0.36752311813E+02  0.78207841440E+02  0.88076911964E+02  0.41800000000E+01 0. -1.
         -5    1    3    3    0  502  0.58966629834E+02 -0.75330867160E+02  0.39990264901E+02  0.10377136728E+03  0.41800000000E+01 0. -1.
        -11    1    1    2    0    0  0.74935806907E+01  0.27881532926E+02  0.32327410220E+02  0.43342762734E+02  0.00000000000E+00 0.  1.
         11    1    1    2    0    0 -0.82979022073E+02  0.10697022422E+02 -0.71617890055E+01  0.83971635774E+02  0.00000000000E+00 0. -1.
</event>
<event>
 7    1  0.2612213E-009  0.9435850E+02  0.7561462E-02  0.1292627E+00
          1   -1    0    0  501    0  0.00000000000E+00  0.00000000000E+00  0.72391215134E+02  0.72391215134E+02  0.00000000000E+00 0. -1.
         -1   -1    0    0    0  501 -0.00000000000E+00 -0.00000000000E+00 -0.16272485633E+03  0.16272485633E+03  0.00000000000E+00 0.  1.
         25    2    1    2    0    0 -0.11631811352E+01 -0.25262711231E+01 -0.65755863429E+02  0.14135083073E+03  0.12509391967E+03 0.  0.
          5    1    3    3  502    0 -0.55201891984E+02  0.22820817028E+02 -0.12329203892E+02  0.61135261814E+02  0.41800000000E+01 0.  1.
         -5    1    3    3    0  502  0.54038710849E+02 -0.25347088151E+02 -0.53426659537E+02  0.80215568920E+02  0.41800000000E+01 0.  1.
        -11    1    1    2    0    0 -0.17867976019E+02  0.30394349478E+02 -0.42769053512E+02  0.55428088416E+02  0.00000000000E+00 0.  1.
         11    1    1    2    0    0  0.19031157154E+02 -0.27868078355E+02  0.18191275749E+02  0.38337152309E+02  0.00000000000E+00 0. -1.
</event>
<event>
 7    1  0.2612213E-009  0.8182200E+02  0.7561462E-02  0.1323959E+00
         -1   -1    0    0    0  501 -0.00000000000E+00  0.00000000000E+00  0.27967269531E+03  0.27967269531E+03  0.00000000000E+00 0.  1.
          1   -1    0    0  501    0  0.00000000000E+00 -0.00000000000E+00 -0.57913388474E+02  0.57913388474E+02  0.00000000000E+00 0. -1.
         25    2    1    2    0    0 -0.56541187635E+01  0.42606378548E+02  0.18089182619E+03  0.22409033447E+03  0.12508937872E+03 0.  0.
          5    1    3    3  502    0 -0.33079213791E+02  0.42838038143E+02  0.15593032341E+02  0.56479615389E+02  0.41800000000E+01 0. -1.
         -5    1    3    3    0  502  0.27425095027E+02 -0.23165959470E+00  0.16529879385E+03  0.16761071908E+03  0.41800000000E+01 0. -1.
        -11    1    1    2    0    0  0.61441004208E+01  0.19020338011E+02 -0.18998838153E+02  0.27576785150E+02  0.00000000000E+00 0. -1.
         11    1    1    2    0    0 -0.48998165735E+00 -0.61626716559E+02  0.59866318799E+02  0.85918964161E+02  0.00000000000E+00 0.  1.
</event>
<event>
 7    1  0.2612213E-009  0.1085754E+03  0.7561462E-02  0.1263231E+00
          1   -1    0    0  501    0  0.00000000000E+00  0.00000000000E+00  0.54593961685E+03  0.54593961685E+03  0.00000000000E+00 0. -1.
         -1   -1    0    0    0  501 -0.00000000000E+00 -0.00000000000E+00 -0.26553726290E+02  0.26553726290E+02  0.00000000000E+00 0.  1.
         25    2    1    2    0    0  0.23860132907E+02 -0.45120594406E+02  0.25573745197E+03  0.28923014840E+03  0.12508900999E+03 0.  0.
          5    1    3    3  502    0  0.38681705094E+02  0.35541538828E+02  0.90904442798E+02  0.10507409487E+03  0.41800000000E+01 0.  1.
         -5    1    3    3    0  502 -0.14821572187E+02 -0.80662133234E+02  0.16483300917E+03  0.18415605353E+03  0.41800000000E+01 0.  1.
        -11    1    1    2    0    0 -0.65532531678E+01 -0.16804438997E+02  0.81400247860E+01  0.19788741764E+02  0.00000000000E+00 0.  1.
         11    1    1    2    0    0 -0.17306879740E+02  0.61925033403E+02  0.25550841380E+03  0.26347445297E+03  0.00000000000E+00 0. -1.
</event>
<event>
 7    1  0.2612213E-009  0.1629278E+03  0.7561462E-02  0.1185430E+00
         -2   -1    0    0    0  501 -0.00000000000E+00  0.00000000000E+00  0.12329441796E+04  0.12329441796E+04  0.00000000000E+00 0.  1.
          2   -1    0    0  501    0  0.00000000000E+00 -0.00000000000E+00 -0.41214500163E+02  0.41214500163E+02  0.00000000000E+00 0. -1.
         25    2    1    2    0    0 -0.14398979629E+03  0.11676317229E+02  0.99645976670E+03  0.10146170795E+04  0.12508538471E+03 0.  0.
          5    1    3    3  502    0 -0.15425935171E+03  0.13632595362E+02  0.65878692038E+03  0.67675658409E+03  0.41800000000E+01 0.  1.
         -5    1    3    3    0  502  0.10269555413E+02 -0.19562781334E+01  0.33767284632E+03  0.33786049537E+03  0.41800000000E+01 0.  1.
        -11    1    1    2    0    0  0.29532220338E+02 -0.31875438586E+02  0.10079151201E+03  0.10975939375E+03  0.00000000000E+00 0.  1.
         11    1    1    2    0    0  0.11445757596E+03  0.20199121357E+02  0.94478400746E+02  0.14978220657E+03  0.00000000000E+00 0. -1.
</event>
<event>
 7    1  0.4223698E-009  0.1580979E+03  0.7561462E-02  0.1190861E+00
          1   -1    0    0  501    0  0.00000000000E+00  0.00000000000E+00  0.80969080610E+03  0.80969080610E+03  0.00000000000E+00 0. -1.
         -1   -1    0    0    0  501 -0.00000000000E+00 -0.00000000000E+00 -0.43458954235E+02  0.43458954235E+02  0.00000000000E+00 0.  1.
         25    2    1    2    0    0 -0.12050431421E+03 -0.79995490763E+02  0.29129785965E+03  0.34845660271E+03  0.12508793968E+03 0.  0.
          5    1    3    3  502    0 -0.10006839693E+03 -0.51530955184E+02  0.29219859090E+03  0.31315589142E+03  0.41800000000E+01 0. -1.
         -5    1    3    3    0  502 -0.20435917282E+02 -0.28464535579E+02 -0.90073125712E+00  0.35300711292E+02  0.41800000000E+01 0. -1.
        -11    1    1    2    0    0  0.79286049491E+02  0.11408602957E+01  0.18149238695E+03  0.19805823822E+03  0.00000000000E+00 0.  1.
         11    1    1    2    0    0  0.41218264723E+02  0.78854630468E+02  0.29344160527E+03  0.30663491940E+03  0.00000000000E+00 0. -1.
</event>
<event>
 7    1  0.2612213E-009  0.1281261E+03  0.7561462E-02  0.1230263E+00
         -1   -1    0    0    0  501 -0.00000000000E+00  0.00000000000E+00  0.16227991301E+02  0.16227991301E+02  0.00000000000E+00 0.  1.
          1   -1    0    0  501    0  0.00000000000E+00 -0.00000000000E+00 -0.13340103784E+04  0.13340103784E+04  0.00000000000E+00 0. -1.
         25    2    1    2    0    0 -0.53671638204E+02 -0.52815930684E+02 -0.99752648681E+03  0.10081553477E+04  0.12509175001E+03 0.  0.
          5    1    3    3  502    0 -0.53044596085E+02  0.25235301727E+02 -0.60922031014E+03  0.61205997118E+03  0.41800000000E+01 0. -1.
         -5    1    3    3    0  502 -0.62704211937E+00 -0.78051232411E+02 -0.38830617667E+03  0.39609537652E+03  0.41800000000E+01 0. -1.
        -11    1    1    2    0    0  0.78339983358E+02  0.52900120600E+02 -0.27063341892E+03  0.28666709471E+03  0.00000000000E+00 0.  1.
         11    1    1    2    0    0 -0.24668345154E+02 -0.84189916638E-01 -0.49622481343E+02  0.55415927270E+02  0.00000000000E+00 0. -1.
</event>
<event>
 7    1  0.2612213E-009  0.7756238E+02  0.7561462E-02  0.1336115E+00
         -1   -1    0    0    0  501 -0.00000000000E+00  0.00000000000E+00  0.14197269735E+03  0.14197269735E+03  0.00000000000E+00 0.  1.
          1   -1    0    0  501    0  0.00000000000E+00 -0.00000000000E+00 -0.45924697587E+02  0.45924697587E+02  0.00000000000E+00 0. -1.
         25    2    1    2    0    0 -0.80731213021E+01  0.12679505701E+02  0.62771867685E+02  0.14076461846E+03  0.12509366605E+03 0.  0.
          5    1    3    3  502    0 -0.38865028372E+02 -0.45492713381E+02  0.32109533189E+02  0.68033608774E+02  0.41800000000E+01 0.  1.
         -5    1    3    3    0  502  0.30791907070E+02  0.58172219082E+02  0.30662334496E+02  0.72731009691E+02  0.41800000000E+01 0.  1.
        -11    1    1    2    0    0 -0.19047074520E+01 -0.17852923340E+02  0.83725802880E+01  0.19810474071E+02  0.00000000000E+00 0. -1.
         11    1    1    2    0    0  0.99778287541E+01  0.51734176393E+01  0.24903551793E+02  0.27322302404E+02  0.00000000000E+00 0.  1.
</event>
<event>
 7    1  0.2612213E-009  0.1051175E+03  0.7561462E-02  0.1269888E+00
          2   -1    0    0  501    0  0.00000000000E+00  0.00000000000E+00  0.42856972890E+03  0.42856972890E+03  0.00000000000E+00 0.  1.
         -2   -1    0    0    0  501 -0.00000000000E+00 -0.00000000000E+00 -0.52672284867E+02  0.52672284867E+02  0.00000000000E+00 0. -1.
         25    2    1    2    0    0 -0.50333937144E+02  0.18540428584E+02  0.34696128019E+03  0.37269837953E+03  0.12507877291E+03 0.  0.
          5    1    3    3  502    0 -0.70906142443E+02  0.49828644858E+02  0.30106133041E+03  0.31331449368E+03  0.41800000000E+01 0. -1.
         -5    1    3    3    0  502  0.20572205299E+02 -0.31288216274E+02  0.45899949779E+02  0.59383885846E+02  0.41800000000E+01 0. -1.
        -11    1    1    2    0    0 -0.10862845932E-01  0.21479344779E+02  0.37944997231E+02  0.43602582321E+02  0.00000000000E+00 0.  1.
         11    1    1    2    0    0  0.50344799989E+02 -0.40019773363E+02 -0.90088333801E+01  0.64941051923E+02  0.00000000000E+00 0. -1.
</event>
<event>
 7    1  0.2612213E-009  0.1993098E+03  0.7561462E-02  0.1150323E+00
         -2   -1    0    0    0  501 -0.00000000000E+00  0.00000000000E+00  0.46594799346E+02  0.46594799346E+02  0.00000000000E+00 0.  1.
          2   -1    0    0  501    0  0.00000000000E+00 -0.00000000000E+00 -0.10142716733E+04  0.10142716733E+04  0.00000000000E+00 0. -1.
         25    2    1    2    0    0  0.14971357889E+03 -0.81131617428E+02 -0.64470805112E+03  0.67844913947E+03  0.12509303980E+03 0.  0.
          5    1    3    3  502    0  0.14372897380E+03 -0.98984207542E+02 -0.44817801924E+03  0.48097494798E+03  0.41800000000E+01 0. -1.
         -5    1    3    3    0  502  0.59846050966E+01  0.17852590114E+02 -0.19653003188E+03  0.19747419149E+03  0.41800000000E+01 0. -1.
        -11    1    1    2    0    0 -0.14860700957E+03  0.27508675612E+02 -0.24020864935E+03  0.28379740264E+03  0.00000000000E+00 0.  1.
         11    1    1    2    0    0 -0.11065693234E+01  0.53622941816E+02 -0.82760173502E+02  0.98619930555E+02  0.00000000000E+00 0. -1.
</event>
<event>
 7    1  0.2612213E-009  0.1216576E+03  0.7561462E-02  0.1240387E+00
          1   -1    0    0  501    0  0.00000000000E+00  0.00000000000E+00  0.70269193095E+03  0.70269193095E+03  0.00000000000E+00 0. -1.
         -1   -1    0    0    0  501 -0.00000000000E+00 -0.00000000000E+00 -0.31541258334E+02  0.31541258334E+02  0.00000000000E+00 0.  1.
         25    2    1    2    0    0  0.40024598451E+02  0.79695150574E+02  0.49241724689E+03  0.51582545105E+03  0.12509142819E+03 0.  0.
          5    1    3    3  502    0 -0.13484537658E+02  0.58678916559E+02  0.41468636123E+03  0.41905524527E+03  0.41800000000E+01 0. -1.
         -5    1    3    3    0  502  0.53509136109E+02  0.21016234015E+02  0.77730885662E+02  0.96770205772E+02  0.41800000000E+01 0. -1.
        -11    1    1    2    0    0  0.96007739244E+01 -0.74846830771E+02  0.11363064559E+03  0.13640434946E+03  0.00000000000E+00 0.  1.
         11    1    1    2    0    0 -0.49625372376E+02 -0.48483198031E+01  0.65102780138E+02  0.82003388771E+02  0.00000000000E+00 0. -1.
</event>
<event>
 7    1  0.2612213E-009  0.6130245E+02  0.7561462E-02  0.1392446E+00
          3   -1    0    0  501    0  0.00000000000E+00  0.00000000000E+00  0.71249449815E+03  0.71249449815E+03  0.00000000000E+00 0. -1.
         -3   -1    0    0    0  501 -0.00000000000E+00 -0.00000000000E+00 -0.26664115689E+02  0.26664115689E+02  0.00000000000E+00 0.  1.
         25    2    1    2    0    0 -0.23809146194E+02 -0.10980593347E+02  0.58509668029E+03  0.59889391564E+03  0.12509335723E+03 0.  0.
          5    1    3    3  502    0  0.24078923964E+02  0.10565190336E+02  0.25642764009E+02  0.36965410482E+02  0.41800000000E+01 0.  1.
         -5    1    3    3    0  502 -0.47888070158E+02 -0.21545783683E+02  0.55945391629E+03  0.56192850515E+03  0.41800000000E+01 0.  1.
        -11    1    1    2    0    0  0.23227959484E+02 -0.78074414759E+01  0.11441892231E+03  0.11701360616E+03  0.00000000000E+00 0. -1.
         11    1    1    2    0    0  0.58118670985E+00  0.18788034823E+02 -0.13685220147E+02  0.23251092038E+02  0.00000000000E+00 0.  1.
</event>
<event>
 7    1  0.2612213E-009  0.7178270E+02  0.7561462E-02  0.1354134E+00
          1   -1    0    0  501    0  0.00000000000E+00  0.00000000000E+00  0.50093580382E+03  0.50093580382E+03  0.00000000000E+00 0. -1.
         -1   -1    0    0    0  501 -0.00000000000E+00 -0.00000000000E+00 -0.23700404420E+02  0.23700404420E+02  0.00000000000E+00 0.  1.
         25    2    1    2    0    0 -0.87910874655E+01 -0.74000875746E+01  0.30208890740E+03  0.32716771278E+03  0.12509580248E+03 0.  0.
          5    1    3    3  502    0 -0.14960366020E+01 -0.31017919537E+02  0.30041225932E+03  0.30204196299E+03  0.41800000000E+01 0.  1.
         -5    1    3    3    0  502 -0.72950508635E+01  0.23617831963E+02  0.16766480804E+01  0.25125749790E+02  0.41800000000E+01 0.  1.
        -11    1    1    2    0    0  0.47097628345E+02  0.11938445024E+02  0.67880830769E+02  0.83477663187E+02  0.00000000000E+00 0.  1.
         11    1    1    2    0    0 -0.38306540880E+02 -0.45383574496E+01  0.10726566123E+03  0.11399083227E+03  0.00000000000E+00 0. -1.
</event>
<event>
 7    1  0.2612213E-009  0.1298565E+03  0.7561462E-02  0.1227669E+00
          2   -1    0    0  501    0  0.00000000000E+00  0.00000000000E+00  0.16111347698E+03  0.16111347698E+03  0.00000000000E+00 0. -1.
         -2   -1    0    0    0  501 -0.00000000000E+00 -0.00000000000E+00 -0.11133027774E+03  0.11133027774E+03  0.00000000000E+00 0.  1.
         25    2    1    2    0    0 -0.71163109501E+02  0.27404328909E+02  0.22460693373E+02  0.14821221451E+03  0.12508873804E+03 0.  0.
          5    1    3    3  502    0 -0.74513550188E+02  0.66452294612E+02  0.36480985961E+02  0.10637909267E+03  0.41800000000E+01 0. -1.
         -5    1    3    3    0  502  0.33504406863E+01 -0.39047965703E+02 -0.14020292588E+02  0.41833121836E+02  0.41800000000E+01 0. -1.
        -11    1    1    2    0    0  0.49899862288E+02 -0.62108444711E+02  0.24849691651E+02  0.83456349883E+02  0.00000000000E+00 0.  1.
         11    1    1    2    0    0  0.21263247214E+02  0.34704115802E+02  0.24728142172E+01  0.40775190322E+02  0.00000000000E+00 0. -1.
</event>
<event>
 7    1  0.2612213E-009  0.1134883E+03  0.7561462E-02  0.1254243E+00
          1   -1    0    0  501    0  0.00000000000E+00  0.00000000000E+00  0.11914189494E+03  0.11914189494E+03  0.00000000000E+00 0. -1.
         -1   -1    0    0    0  501 -0.00000000000E+00 -0.00000000000E+00 -0.20547316292E+03  0.20547316292E+03  0.00000000000E+00 0.  1.
         25    2    1    2    0    0 -0.35718237428E+01 -0.74905745330E+02 -0.13259238525E+03  0.19710920812E+03  0.12509064990E+03 0.  0.
          5    1    3    3  502    0  0.30066077540E+02  0.23045523547E+02 -0.16649665079E+02  0.41590250317E+02  0.41800000000E+01 0. -1.
         -5    1    3    3    0  502 -0.33637901283E+02 -0.97951268877E+02 -0.11594272017E+03  0.15551895781E+03  0.41800000000E+01 0. -1.
        -11    1    1    2    0    0 -0.81336569013E+01  0.72882421153E+02 -0.63132912574E+01  0.73606122940E+02  0.00000000000E+00 0.  1.
         11    1    1    2    0    0  0.11705480644E+02  0.20233241769E+01  0.52574408519E+02  0.53899726798E+02  0.00000000000E+00 0. -1.
</event>
<event>
 7    1  0.2612213E-009  0.1822884E+03  0.7561462E-02  0.1165607E+00
          1   -1    0    0  501    0  0.00000000000E+00  0.00000000000E+00  0.81403734488E+03  0.81403734488E+03  0.00000000000E+00 0. -1.
         -1   -1    0    0    0  501 -0.00000000000E+00 -0.00000000000E+00 -0.53539580824E+02  0.53539580824E+02  0.00000000000E+00 0.  1.
         25    2    1    2    0    0 -0.81434595679E+02 -0.15732203211E+03  0.37578924052E+03  0.43387447412E+03  0.12509073045E+03 0.  0.
          5    1    3    3  502    0  0.58991055408E+01 -0.42473480189E+02  0.20857128985E+03  0.21297476685E+03  0.41800000000E+01 0. -1.
         -5    1    3    3    0  502 -0.87333701220E+02 -0.11484855192E+03  0.16721795067E+03  0.22089970728E+03  0.41800000000E+01 0. -1.
        -11    1    1    2    0    0  0.46710858232E+02  0.89808002362E+02  0.11357506931E+03  0.15214032317E+03  0.00000000000E+00 0.  1.
         11    1    1    2    0    0  0.34723737447E+02  0.67514029751E+02  0.27113345423E+03  0.28156212841E+03  0.00000000000E+00 0. -1.
</event>
<event>
 7    1  0.2612213E-009  0.1452189E+03  0.7561462E-02  0.1206474E+00
         -1   -1    0    0    0  501 -0.00000000000E+00  0.00000000000E+00  0.78593669943E+02  0.78593669943E+02  0.00000000000E+00 0.  1.
          1   -1    0    0  501    0  0.00000000000E+00 -0.00000000000E+00 -0.33398822185E+03  0.33398822185E+03  0.00000000000E+00 0. -1.
         25    2    1    2    0    0 -0.83768209918E+02 -0.55702430110E+02 -0.54941255973E+02  0.16966478968E+03  0.12509086911E+03 0.  0.
          5    1    3    3  502    0 -0.74774774510E+02  0.22320451394E+02 -0.92164846932E+01  0.78688534385E+02  0.41800000000E+01 0. -1.
         -5    1    3    3    0  502 -0.89934354078E+01 -0.78022881503E+02 -0.45724771280E+02  0.90976255293E+02  0.41800000000E+01 0. -1.
        -11    1    1    2    0    0  0.34551355382E+02 -0.22505567302E+02 -0.89368852857E+02  0.98423008384E+02  0.00000000000E+00 0. -1.
         11    1    1    2    0    0  0.49216854536E+02  0.78207997412E+02 -0.11108444307E+03  0.14449409373E+03  0.00000000000E+00 0.  1.
</event>
<event>
 7    1  0.2612213E-009  0.1128450E+03  0.7561462E-02  0.1255390E+00
          1   -1    0    0  501    0  0.00000000000E+00  0.00000000000E+00  0.44758081789E+03  0.44758081789E+03  0.00000000000E+00 0. -1.
         -1   -1    0    0    0  501 -0.00000000000E+00 -0.00000000000E+00 -0.32944341808E+02  0.32944341808E+02  0.00000000000E+00 0.  1.
         25    2    1    2    0    0 -0.18930702280E+02  0.44495387822E+02  0.18527189719E+03  0.22871249678E+03  0.12508205015E+03 0.  0.
          5    1    3    3  502    0 -0.53369192581E+02 -0.13702606987E+02  0.39377824464E+02  0.67853648498E+02  0.41800000000E+01 0. -1.
         -5    1    3    3    0  502  0.34438490301E+02  0.58197994809E+02  0.14589407273E+03  0.16085884828E+03  0.41800000000E+01 0. -1.
        -11    1    1    2    0    0  0.34542567607E+02  0.17517441652E+02  0.68289261448E+02  0.78507789219E+02  0.00000000000E+00 0.  1.
         11    1    1    2    0    0 -0.15611865326E+02 -0.62012829473E+02  0.16107531744E+03  0.17330487370E+03  0.00000000000E+00 0. -1.
</event>
<event>
 7    1  0.2612213E-009  0.1900425E+03  0.7561462E-02  0.1158423E+00
         -2   -1    0    0    0  501 -0.00000000000E+00  0.00000000000E+00  0.14626711619E+03  0.14626711619E+03  0.00000000000E+00 0.  1.
          2   -1    0    0  501    0  0.00000000000E+00 -0.00000000000E+00 -0.31325605370E+03  0.31325605370E+03  0.00000000000E+00 0. -1.
         25    2    1    2    0    0 -0.18317149499E+02  0.16825925895E+03 -0.16415170253E+03  0.26690873124E+03  0.12509113949E+03 0.  0.
          5    1    3    3  502    0 -0.52013376908E+01 -0.16579880665E+02 -0.40024333042E+02  0.43833389010E+02  0.41800000000E+01 0.  1.
         -5    1    3    3    0  502 -0.13115811808E+02  0.18483913962E+03 -0.12412736949E+03  0.22307534223E+03  0.41800000000E+01 0.  1.
        -11    1    1    2    0    0  0.28684551727E+02 -0.46320048186E+02  0.34716103636E+02  0.64603082150E+02  0.00000000000E+00 0.  1.
         11    1    1    2    0    0 -0.10367402227E+02 -0.12193921077E+03 -0.37553338620E+02  0.12801135650E+03  0.00000000000E+00 0. -1.
</event>
<event>
 7    1  0.2612213E-009  0.1200708E+03  0.7561462E-02  0.1242980E+00
         -1   -1    0    0    0  501 -0.00000000000E+00  0.00000000000E+00  0.75117472500E+02  0.75117472500E+02  0.00000000000E+00 0.  1.
          1   -1    0    0  501    0  0.00000000000E+00 -0.00000000000E+00 -0.23750128224E+03  0.23750128224E+03  0.00000000000E+00 0. -1.
         25    2    1    2    0    0 -0.90544261147E+01 -0.70689464093E+02 -0.53338821097E+02  0.15352879540E+03  0.12508828168E+03 0.  0.
          5    1    3    3  502    0  0.15216777494E+00 -0.10638860321E+03 -0.44440730117E+02  0.11537334588E+03  0.41800000000E+01 0. -1.
         -5    1    3    3    0  502 -0.92065938896E+01  0.35699139112E+02 -0.88980909796E+01  0.38155449512E+02  0.41800000000E+01 0. -1.
        -11    1    1    2    0    0  0.37415727450E+02  0.41144801208E+02 -0.10385540156E+03  0.11780821601E+03  0.00000000000E+00 0. -1.
         11    1    1    2    0    0 -0.28361301335E+02  0.29544662885E+02 -0.51895870853E+01  0.41281743332E+02  0.00000000000E+00 0.  1.
</event>
<event>
 7    1  0.2612213E-009  0.1562284E+03  0.7561462E-02  0.1193022E+00
          2   -1    0    0  501    0  0.00000000000E+00  0.00000000000E+00  0.12211321378E+04  0.12211321378E+04  0.00000000000E+00 0. -1.
         -2   -1    0    0    0  501 -0.00000000000E+00 -0.00000000000E+00 -0.22615362773E+02  0.22615362773E+02  0.00000000000E+00 0.  1.
         25    2    1    2    0    0 -0.10477078373E+03  0.56415244471E+02  0.78787305883E+03  0.80656694467E+03  0.12508669982E+03 0.  0.
          5    1    3    3  502    0 -0.12786170595E+03  0.36970953042E+02  0.51269971040E+03  0.52971117853E+03  0.41800000000E+01 0. -1.
         -5    1    3    3    0  502  0.23090922216E+02  0.19444291429E+02  0.27517334843E+03  0.27685576614E+03  0.41800000000E+01 0. -1.
        -11    1    1    2    0    0  0.32600785894E+02  0.24211149457E+02  0.89097671561E+02  0.97915198394E+02  0.00000000000E+00 0. -1.
         11    1    1    2    0    0  0.72169997836E+02 -0.80626393928E+02  0.32154604465E+03  0.33926535752E+03  0.00000000000E+00 0.  1.
</event>
<event>
 7    1  0.2612213E-009  0.7834977E+02  0.7561462E-02  0.1333801E+00
          3   -1    0    0  501    0  0.00000000000E+00  0.00000000000E+00  0.46039329854E+03  0.46039329854E+03  0.00000000000E+00 0. -1.
         -3   -1    0    0    0  501 -0.00000000000E+00 -0.00000000000E+00 -0.27258571319E+02  0.27258571319E+02  0.00000000000E+00 0.  1.
         25    2    1    2    0    0 -0.55971774199E+01 -0.49255435183E+01  0.31892807762E+03  0.34266417076E+03  0.12509206953E+03 0.  0.
          5    1    3    3  502    0 -0.58800704738E+02 -0.89645743510E+01  0.24003767461E+03  0.24733265878E+03  0.41800000000E+01 0. -1.
         -5    1    3    3    0  502  0.53203527318E+02  0.40390308327E+01  0.78890403010E+02  0.95331511979E+02  0.41800000000E+01 0. -1.
        -11    1    1    2    0    0  0.12962113772E+01 -0.19100602077E+02 -0.77196264245E+01  0.20642330193E+02  0.00000000000E+00 0.  1.
         11    1    1    2    0    0  0.43009660427E+01  0.24026145596E+02  0.12192627603E+03  0.12434536890E+03  0.00000000000E+00 0. -1.
</event>
<event>
 7    1  0.2612213E-009  0.1996996E+03  0.7561462E-02  0.1149993E+00
         -1   -1    0    0    0  501 -0.00000000000E+00  0.00000000000E+00  0.56838955680E+02  0.56838955680E+02  0.00000000000E+00 0.  1.
          1   -1    0    0  501    0  0.00000000000E+00 -0.00000000000E+00 -0.83341372447E+03  0.83341372447E+03  0.00000000000E+00 0. -1.
         25    2    1    2    0    0 -0.84703805695E+02 -0.16573776010E+03 -0.44786993459E+03  0.50087937053E+03  0.12509566613E+03 0.  0.
          5    1    3    3  502    0  0.18606912334E+02 -0.17625430556E+02 -0.11117553669E+02  0.28247927154E+02  0.41800000000E+01 0. -1.
         -5    1    3    3    0  502 -0.10331071803E+03 -0.14811232954E+03 -0.43675238092E+03  0.47263144337E+03  0.41800000000E+01 0. -1.
        -11    1    1    2    0    0  0.73173673951E+02  0.89086477938E+02 -0.11847696783E+03  0.16531055326E+03  0.00000000000E+00 0.  1.
         11    1    1    2    0    0  0.11530131744E+02  0.76651282160E+02 -0.21022786636E+03  0.22406275636E+03  0.00000000000E+00 0. -1.
</event>
<event>
 7    1  0.2612213E-009  0.8485031E+02  0.7561462E-02  0.1315824E+00
          1   -1    0    0  501    0  0.00000000000E+00  0.00000000000E+00  0.32448876571E+03  0.32448876571E+03  0.00000000000E+00 0. -1.
         -1   -1    0    0    0  501 -0.00000000000E+00 -0.00000000000E+00 -0.47373138875E+02  0.47373138875E+02  0.00000000000E+00 0.  1.
         25    2    1    2    0    0  0.18081870913E+02  0.48344467995E+02  0.11100968776E+03  0.17503733742E+03  0.12510306580E+03 0.  0.
          5    1    3    3  502    0  0.29132646465E+02 -0.34610167587E+01 -0.18580143912E+02  0.34976904878E+02  0.41800000000E+01 0.  1.
         -5    1    3    3    0  502 -0.11050775553E+02  0.51805484753E+02  0.12958983167E+03  0.14006043254E+03  0.41800000000E+01 0.  1.
        -11    1    1    2    0    0  0.11137060496E+01 -0.62857072098E+02  0.56231945918E+02  0.84346212693E+02  0.00000000000E+00 0.  1.
         11    1    1    2    0    0 -0.19195576962E+02  0.14512604103E+02  0.10987399316E+03  0.11247835448E+03  0.00000000000E+00 0. -1.
</event>
<event>
 7    1  0.2612213E-009  0.4357856E+03  0.7561462E-02  0.1032048E+00
          1   -1    0    0  501    0  0.00000000000E+00  0.00000000000E+00  0.35108992542E+03  0.35108992542E+03  0.00000000000E+00 0. -1.
         -1   -1    0    0    0  501 -0.00000000000E+00 -0.00000000000E+00 -0.10011782118E+04  0.10011782118E+04  0.00000000000E+00 0.  1.
         25    2    1    2    0    0 -0.42885424340E+03 -0.30184872983E+02  0.12186852395E+03  0.46403270838E+03  0.12508928282E+03 0.  0.
          5    1    3    3  502    0 -0.19059066471E+03 -0.35870820923E+02  0.11511921198E+03  0.22556910833E+03  0.41800000000E+01 0. -1.
         -5    1    3    3    0  502 -0.23826357869E+03  0.56859479406E+01  0.67493119744E+01  0.23846360004E+03  0.41800000000E+01 0. -1.
        -11    1    1    2    0    0  0.93958920325E+02  0.44618887675E+02 -0.19273241355E+03  0.21900892009E+03  0.00000000000E+00 0.  1.
         11    1    1    2    0    0  0.33489532308E+03 -0.14434014692E+02 -0.57922439683E+03  0.66922650880E+03  0.00000000000E+00 0. -1.
</event>
<event>
 7    1  0.2612213E-009  0.3359174E+03  0.7561462E-02  0.1068548E+00
          2   -1    0    0  501    0  0.00000000000E+00  0.00000000000E+00  0.25487881493E+04  0.25487881493E+04  0.00000000000E+00 0. -1.
         -2   -1    0    0    0  501 -0.00000000000E+00 -0.00000000000E+00 -0.49151897486E+02  0.49151897486E+02  0.00000000000E+00 0.  1.
         25    2    1    2    0    0 -0.22618152408E+03  0.22794726760E+03  0.89393039166E+03  0.95805876114E+03  0.12508799312E+03 0.  0.
          5    1    3    3  502    0 -0.14883769078E+03  0.21821445328E+03  0.63933414301E+03  0.69176283843E+03  0.41800000000E+01 0.  1.
         -5    1    3    3    0  502 -0.77343833302E+02  0.97328143196E+01  0.25459624865E+03  0.26629592271E+03  0.41800000000E+01 0.  1.
        -11    1    1    2    0    0  0.20079067267E+03 -0.15899788361E+03  0.13370145124E+04  0.13613247326E+04  0.00000000000E+00 0.  1.
         11    1    1    2    0    0  0.25390851408E+02 -0.68949383987E+02  0.26869134779E+03  0.27855655308E+03  0.00000000000E+00 0. -1.
</event>
<event>
 7    1  0.2612213E-009  0.1234220E+03  0.7561462E-02  0.1237556E+00
         -1   -1    0    0    0  501 -0.00000000000E+00  0.00000000000E+00  0.49746826592E+02  0.49746826592E+02  0.00000000000E+00 0.  1.
          1   -1    0    0  501    0  0.00000000000E+00 -0.00000000000E+00 -0.37553225477E+03  0.37553225477E+03  0.00000000000E+00 0. -1.
         25    2    1    2    0    0 -0.71925486954E+02  0.39379230405E+02 -0.20157122211E+03  0.25100266236E+03  0.12508948584E+03 0.  0.
          5    1    3    3  502    0 -0.10142717142E+03  0.18381209649E+01 -0.13234188630E+03  0.16680137008E+03  0.41800000000E+01 0.  1.
         -5    1    3    3    0  502  0.29501684471E+02  0.37541109440E+02 -0.69229335813E+02  0.84201292280E+02  0.41800000000E+01 0.  1.
        -11    1    1    2    0    0  0.22475619674E+02  0.12497145388E+02 -0.92313071471E+02  0.95828154981E+02  0.00000000000E+00 0. -1.
         11    1    1    2    0    0  0.49449867279E+02 -0.51876375792E+02 -0.31901134594E+02  0.78448264019E+02  0.00000000000E+00 0.  1.
</event>
<event>
 7    1  0.2612213E-009  0.1286157E+03  0.7561462E-02  0.1229524E+00
         -2   -1    0    0    0  501 -0.00000000000E+00  0.00000000000E+00  0.12313134000E+03  0.12313134000E+03  0.00000000000E+00 0.  1.
          2   -1    0    0  501    0  0.00000000000E+00 -0.00000000000E+00 -0.42927024998E+03  0.42927024998E+03  0.00000000000E+00 0. -1.
         25    2    1    2    0    0 -0.11764262724E+03 -0.29161411900E+02 -0.35279535396E+03  0.39344753837E+03  0.12508488311E+03 0.  0.
          5    1    3    3  502    0 -0.11996180327E+03 -0.37128904324E+02 -0.17513188498E+03  0.21554127057E+03  0.41800000000E+01 0. -1.
         -5    1    3    3    0  502  0.23191760307E+01  0.79674924247E+01 -0.17766346898E+03  0.17790626780E+03  0.41800000000E+01 0. -1.
        -11    1    1    2    0    0  0.13434563608E+02 -0.18694755190E+01  0.48344045565E+02  0.50210847231E+02  0.00000000000E+00 0. -1.
         11    1    1    2    0    0  0.10420806363E+03  0.31030887419E+02 -0.16876015870E+01  0.10874320438E+03  0.00000000000E+00 0.  1.
</event>
<event>
 7    1  0.2612213E-009  0.1413131E+03  0.7561462E-02  0.1211573E+00
         -2   -1    0    0    0  501 -0.00000000000E+00  0.00000000000E+00  0.38552470190E+03  0.38552470190E+03  0.00000000000E+00 0.  1.
          2   -1    0    0  501    0  0.00000000000E+00 -0.00000000000E+00 -0.77217627157E+02  0.77217627157E+02  0.00000000000E+00 0. -1.
         25    2    1    2    0    0 -0.31032228604E+02 -0.11097415169E+03  0.26057938574E+03  0.31117131240E+03  0.12509079835E+03 0.  0.
          5    1    3    3  502    0  0.18328186983E+02  0.15856661540E+02  0.11162313781E+02  0.27007884075E+02  0.41800000000E+01 0.  1.
         -5    1    3    3    0  502 -0.49360415587E+02 -0.12683081323E+03  0.24941707196E+03  0.28416342832E+03  0.41800000000E+01 0.  1.
        -11    1    1    2    0    0 -0.50251904290E+01  0.55382452434E+02  0.62525453626E+02  0.83677362097E+02  0.00000000000E+00 0.  1.
         11    1    1    2    0    0  0.36057419033E+02  0.55591699254E+02 -0.14797764616E+02  0.67893654570E+02  0.00000000000E+00 0. -1.
</event>
<event>
 7    1  0.2612213E-009  0.1531948E+03  0.7561462E-02  0.1196601E+00
         -2   -1    0    0    0  501 -0.00000000000E+00  0.00000000000E+00  0.11819921938E+03  0.11819921938E+03  0.00000000000E+00 0.  1.
          2   -1    0    0  501    0  0.00000000000E+00 -0.00000000000E+00 -0.22390392939E+03  0.22390392939E+03  0.00000000000E+00 0. -1.
         25    2    1    2    0    0 -0.11811706502E+02  0.11929366771E+03 -0.38125321254E+02  0.17739962020E+03  0.12508632843E+03 0.  0.
          5    1    3    3  502    0 -0.21328445429E+02 -0.11771441879E+02  0.21756383993E+02  0.32928438663E+02  0.41800000000E+01 0.  1.
         -5    1    3    3    0  502  0.95167389266E+01  0.13106510959E+03 -0.59881705247E+02  0.14447118153E+03  0.41800000000E+01 0.  1.
        -11    1    1    2    0    0  0.48572667689E+02 -0.40475678885E+02 -0.29120567428E+02  0.69610287135E+02  0.00000000000E+00 0.  1.
         11    1    1    2    0    0 -0.36760961187E+02 -0.78817988822E+02 -0.38458821328E+02  0.95093241438E+02  0.00000000000E+00 0. -1.
</event>
<event>
 7    1  0.2612213E-009  0.1125900E+03  0.7561462E-02  0.1255847E+00
         -1   -1    0    0    0  501 -0.00000000000E+00  0.00000000000E+00  0.87102531780E+03  0.87102531780E+03  0.00000000000E+00 0.  1.
          1   -1    0    0  501    0  0.00000000000E+00 -0.00000000000E+00 -0.14872642929E+02  0.14872642929E+02  0.00000000000E+00 0. -1.
         25    2    1    2    0    0 -0.36908689049E+02  0.13050649020E+02  0.49003776385E+03  0.50726551664E+03  0.12509485842E+03 0.  0.
          5    1    3    3  502    0 -0.61510393872E+02  0.53408873384E+02  0.35102386112E+03  0.36037655277E+03  0.41800000000E+01 0. -1.
         -5    1    3    3    0  502  0.24601704824E+02 -0.40358224364E+02  0.13901390274E+03  0.14688896387E+03  0.41800000000E+01 0. -1.
        -11    1    1    2    0    0  0.25309691716E+02  0.36975236444E+02  0.15370216363E+03  0.16010029266E+03  0.00000000000E+00 0.  1.
         11    1    1    2    0    0  0.11598997333E+02 -0.50025885464E+02  0.21241274739E+03  0.21853215143E+03  0.00000000000E+00 0. -1.
</event>
<event>
 7    1  0.2612213E-009  0.1020075E+03  0.7561462E-02  0.1276130E+00
          2   -1    0    0  501    0  0.00000000000E+00  0.00000000000E+00  0.57949603085E+02  0.57949603085E+02  0.00000000000E+00 0. -1.
         -2   -1    0    0    0  501 -0.00000000000E+00 -0.00000000000E+00 -0.25964157861E+03  0.25964157861E+03  0.00000000000E+00 0.  1.
         25    2    1    2    0    0 -0.57098963458E+02  0.15536764288E+01 -0.11843331081E+03  0.18147650215E+03  0.12507824025E+03 0.  0.
          5    1    3    3  502    0  0.29173371270E+02 -0.10175137600E+02  0.37332748748E+01  0.31401094849E+02  0.41800000000E+01 0. -1.
         -5    1    3    3    0  502 -0.86272334727E+02  0.11728814029E+02 -0.12216658569E+03  0.15007540730E+03  0.41800000000E+01 0. -1.
        -11    1    1    2    0    0  0.70923917681E+02  0.33464113338E+01 -0.23818289963E+02  0.74891331306E+02  0.00000000000E+00 0. -1.
         11    1    1    2    0    0 -0.13824954223E+02 -0.49000877625E+01 -0.59440374744E+02  0.61223348235E+02  0.00000000000E+00 0.  1.
</event>
<event>
 7    1  0.2612213E-009  0.1433195E+03  0.7561462E-02  0.1208931E+00
         -2   -1    0    0    0  501 -0.00000000000E+00  0.00000000000E+00  0.54443227760E+03  0.54443227760E+03  0.00000000000E+00 0.  1.
          2   -1    0    0  501    0  0.00000000000E+00 -0.00000000000E+00 -0.59351305494E+02  0.59351305494E+02  0.00000000000E+00 0. -1.
         25    2    1    2    0    0 -0.68384875124E+02  0.12010278467E+03  0.22849005886E+03  0.29489274785E+03  0.12511137321E+03 0.  0.
          5    1    3    3  502    0 -0.56766706287E+02  0.51678817957E+02  0.26578626304E+02  0.81345282249E+02  0.41800000000E+01 0.  1.
         -5    1    3    3    0  502 -0.11618168838E+02  0.68423966717E+02  0.20191143255E+03  0.21354746560E+03  0.41800000000E+01 0.  1.
        -11    1    1    2    0    0  0.34061895740E+02 -0.82831496867E+02  0.23904357958E+03  0.25527064569E+03  0.00000000000E+00 0.  1.
         11    1    1    2    0    0  0.34322979385E+02 -0.37271287806E+02  0.17547333669E+02  0.53620189551E+02  0.00000000000E+00 0. -1.
</event>
<event>
 7    1  0.2732831E-009  0.1221688E+03  0.7561462E-02  0.1239561E+00
          1   -1    0    0  501    0  0.00000000000E+00  0.00000000000E+00  0.13016653873E+04  0.13016653873E+04  0.00000000000E+00 0. -1.
         -1   -1    0    0    0  501 -0.00000000000E+00 -0.00000000000E+00 -0.18893147899E+02  0.18893147899E+02  0.00000000000E+00 0.  1.
         25    2    1    2    0    0  0.77134695962E+02 -0.78357456940E+02  0.79955989588E+03  0.81672101035E+03  0.12509008457E+03 0.  0.
          5    1    3    3  502    0  0.86619435767E+02 -0.76695544354E+02  0.38502685630E+03  0.40205507788E+03  0.41800000000E+01 0. -1.
         -5    1    3    3    0  502 -0.94847398050E+01 -0.16619125858E+01  0.41453303958E+03  0.41466593247E+03  0.41800000000E+01 0. -1.
        -11    1    1    2    0    0 -0.30128977523E+02  0.44130829696E+01  0.31907859765E+02  0.44106032498E+02  0.00000000000E+00 0.  1.
         11    1    1    2    0    0 -0.47005718440E+02  0.73944373970E+02  0.45130448376E+03  0.45973149236E+03  0.00000000000E+00 0. -1.
</event>
<event>
 7    1  0.2612213E-009  0.1439793E+03  0.7561462E-02  0.1208073E+00
         -3   -1    0    0    0  501 -0.00000000000E+00  0.00000000000E+00  0.78244382924E+02  0.78244382924E+02  0.00000000000E+00 0.  1.
          3   -1    0    0  501    0  0.00000000000E+00 -0.00000000000E+00 -0.35965301255E+03  0.35965301255E+03  0.00000000000E+00 0. -1.
         25    2    1    2    0    0  0.11143208698E+03 -0.25725769378E+02 -0.22399245122E+03  0.28089039441E+03  0.12509144755E+03 0.  0.
          5    1    3    3  502    0  0.11255618613E+03  0.74415485337E+01 -0.21991665268E+03  0.24719441379E+03  0.41800000000E+01 0. -1.
         -5    1    3    3    0  502 -0.11240991584E+01 -0.33167317912E+02 -0.40757985414E+01  0.33695980623E+02  0.41800000000E+01 0. -1.
        -11    1    1    2    0    0 -0.13907815328E+02  0.40657102029E+02 -0.22917762851E+00  0.42970685298E+02  0.00000000000E+00 0.  1.
         11    1    1    2    0    0 -0.97524271648E+02 -0.14931332651E+02 -0.57187000773E+02  0.11403631576E+03  0.00000000000E+00 0. -1.
</event>
<event>
 7    1  0.2612213E-009  0.1225984E+03  0.7561462E-02  0.1238871E+00
          2   -1    0    0  501    0  0.00000000000E+00  0.00000000000E+00  0.54540025077E+02  0.54540025077E+02  0.00000000000E+00 0. -1.
         -2   -1    0    0    0  501 -0.00000000000E+00 -0.00000000000E+00 -0.28794290451E+03  0.28794290451E+03  0.00000000000E+00 0.  1.
         25    2    1    2    0    0 -0.51209974517E+02 -0.34819945285E+02 -0.13230755321E+03  0.19231773173E+03  0.12508369686E+03 0.  0.
          5    1    3    3  502    0  0.29287451501E+02 -0.45798561583E+02 -0.32189242437E+02  0.63315738859E+02  0.41800000000E+01 0.  1.
         -5    1    3    3    0  502 -0.80497426018E+02  0.10978616298E+02 -0.10011831077E+03  0.12900199287E+03  0.41800000000E+01 0.  1.
        -11    1    1    2    0    0  0.54108740967E+02 -0.17542456695E+02 -0.39408145436E+02  0.69198956369E+02  0.00000000000E+00 0.  1.
         11    1    1    2    0    0 -0.28987664500E+01  0.52362401980E+02 -0.61687180788E+02  0.80966241494E+02  0.00000000000E+00 0. -1.
</event>
<event>
 7    1  0.2612213E-009  0.1176438E+03  0.7561462E-02  0.1247035E+00
         -3   -1    0    0    0  501 -0.00000000000E+00  0.00000000000E+00  0.14004711242E+03  0.14004711242E+03  0.00000000000E+00 0.  1.
          3   -1    0    0  501    0  0.00000000000E+00 -0.00000000000E+00 -0.13494347864E+03  0.13494347864E+03  0.00000000000E+00 0. -1.
         25    2    1    2    0    0  0.58413699513E+02 -0.60190564795E+02 -0.12217652774E+02  0.15110061718E+03  0.12508821324E+03 0.  0.
          5    1    3    3  502    0  0.76553421433E+02 -0.47182292565E+02 -0.52968066042E+02  0.10444943028E+03  0.41800000000E+01 0.  1.
         -5    1    3    3    0  502 -0.18139721921E+02 -0.13008272230E+02  0.40750413267E+02  0.46651186901E+02  0.41800000000E+01 0.  1.
        -11    1    1    2    0    0 -0.66256017633E+02  0.46014779283E+01  0.66788653155E+01  0.66750585867E+02  0.00000000000E+00 0. -1.
         11    1    1    2    0    0  0.78423181207E+01  0.55589086867E+02  0.10642421238E+02  0.57139388009E+02  0.00000000000E+00 0.  1.
</event>
<event>
 7    1  0.2612213E-009  0.1851054E+03  0.7561462E-02  0.1162952E+00
          1   -1    0    0  501    0  0.00000000000E+00  0.00000000000E+00  0.45897471827E+02  0.45897471827E+02  0.00000000000E+00 0. -1.
         -1   -1    0    0    0  501 -0.00000000000E+00 -0.00000000000E+00 -0.86264111361E+03  0.86264111361E+03  0.00000000000E+00 0.  1.
         25    2    1    2    0    0 -0.76100677542E+02 -0.13904711980E+03 -0.54794686382E+03  0.58396749227E+03  0.12508737673E+03 0.  0.
          5    1    3    3  502    0 -0.80880282722E+02 -0.15871714292E+03 -0.51616633918E+03  0.54605669458E+03  0.41800000000E+01 0.  1.
         -5    1    3    3    0  502  0.47796051792E+01  0.19670023129E+02 -0.31780524635E+02  0.37910797691E+02  0.41800000000E+01 0.  1.
        -11    1    1    2    0    0  0.72255167955E+02  0.64942812135E+02 -0.20442875117E+03  0.22633933032E+03  0.00000000000E+00 0. -1.
         11    1    1    2    0    0  0.38455095875E+01  0.74104307660E+02 -0.64368026788E+02  0.98231762839E+02  0.00000000000E+00 0.  1.
</event>
<event>
 7    1  0.2612213E-009  0.1558065E+03  0.7561462E-02  0.1193514E+00
         -2   -1    0    0    0  501 -0.00000000000E+00  0.00000000000E+00  0.26359663539E+03  0.26359663539E+03  0.00000000000E+00 0.  1.
          2   -1    0    0  501    0  0.00000000000E+00 -0.00000000000E+00 -0.14363940430E+03  0.14363940430E+03  0.00000000000E+00 0. -1.
         25    2    1    2    0    0 -0.12925315339E+03  0.70822884540E+02  0.13150424048E+03  0.23379945777E+03  0.12508622048E+03 0.  0.
          5    1    3    3  502    0 -0.13752580415E+03  0.61741469998E+02  0.61934305180E+02  0.16302971043E+03  0.41800000000E+01 0.  1.
         -5    1    3    3    0  502  0.82726507655E+01  0.90814145418E+01  0.69569935296E+02  0.70769747335E+02  0.41800000000E+01 0.  1.
        -11    1    1    2    0    0  0.68000478144E+02 -0.43764414630E+02  0.38766030052E+02  0.89678281104E+02  0.00000000000E+00 0.  1.
         11    1    1    2    0    0  0.61252675243E+02 -0.27058469911E+02 -0.50313039438E+02  0.83758300817E+02  0.00000000000E+00 0. -1.
</event>
<event>
 7    1  0.2612213E-009  0.9870954E+02  0.7561462E-02  0.1283033E+00
         -1   -1    0    0    0  501 -0.00000000000E+00  0.00000000000E+00  0.47452735649E+03  0.47452735649E+03  0.00000000000E+00 0.  1.
          1   -1    0    0  501    0  0.00000000000E+00 -0.00000000000E+00 -0.26451488270E+02  0.26451488270E+02  0.00000000000E+00 0. -1.
         25    2    1    2    0    0 -0.11539397622E+02 -0.23057549509E+02  0.23673071050E+03  0.26898836839E+03  0.12509398366E+03 0.  0.
          5    1    3    3  502    0  0.44065635101E+02 -0.35368108436E+02  0.17913744494E+03  0.18788395320E+03  0.41800000000E+01 0. -1.
         -5    1    3    3    0  502 -0.55605032723E+02  0.12310558927E+02  0.57593265560E+02  0.81104415189E+02  0.41800000000E+01 0. -1.
        -11    1    1    2    0    0 -0.34396434791E+02  0.11762949604E+02  0.39187810612E+02  0.53452466831E+02  0.00000000000E+00 0. -1.
         11    1    1    2    0    0  0.45935832413E+02  0.11294599905E+02  0.17215734711E+03  0.17853800954E+03  0.00000000000E+00 0.  1.
</event>
<event>
 7    1  0.2612213E-009  0.8708403E+02  0.7561462E-02  0.1310071E+00
         -2   -1    0    0    0  501 -0.00000000000E+00  0.00000000000E+00  0.80358262116E+03  0.80358262116E+03  0.00000000000E+00 0.  1.
          2   -1    0    0  501    0  0.00000000000E+00 -0.00000000000E+00 -0.15244131023E+02  0.15244131023E+02  0.00000000000E+00 0. -1.
         25    2    1    2    0    0  0.18899982358E+02 -0.12904072020E+02  0.41193946756E+03  0.43112058337E+03  0.12508840101E+03 0.  0.
          5    1    3    3  502    0  0.53207122316E+02 -0.11537210482E+02  0.38044052445E+03  0.38433913428E+03  0.41800000000E+01 0.  1.
         -5    1    3    3    0  502 -0.34307139958E+02 -0.13668615385E+01  0.31498943106E+02  0.46781449095E+02  0.41800000000E+01 0.  1.
        -11    1    1    2    0    0  0.21765261105E+02 -0.22320959636E+02  0.70126491077E+02  0.76744228323E+02  0.00000000000E+00 0. -1.
         11    1    1    2    0    0 -0.40665243464E+02  0.35225031656E+02  0.30627253150E+03  0.31096194049E+03  0.00000000000E+00 0.  1.
</event>
<event>
 7    1  0.2612213E-009  0.1702305E+03  0.7561462E-02  0.1177608E+00
         -1   -1    0    0    0  501 -0.00000000000E+00  0.00000000000E+00  0.21788630034E+03  0.21788630034E+03  0.00000000000E+00 0.  1.
          1   -1    0    0  501    0  0.00000000000E+00 -0.00000000000E+00 -0.17384720375E+03  0.17384720375E+03  0.00000000000E+00 0. -1.
         25    2    1    2    0    0 -0.48096514658E+01  0.13584153916E+03  0.11016523989E+03  0.21508008686E+03  0.12508799772E+03 0.  0.
          5    1    3    3  502    0 -0.54858702767E+02  0.32522486672E+02  0.66361323876E+02  0.92132986032E+02  0.41800000000E+01 0. -1.
         -5    1    3    3    0  502  0.50049051301E+02  0.10331905248E+03  0.43803916017E+02  0.12294710082E+03  0.41800000000E+01 0. -1.
        -11    1    1    2    0    0 -0.39563207141E+02 -0.87631186560E+02 -0.25185679277E+02  0.99392105611E+02  0.00000000000E+00 0.  1.
         11    1    1    2    0    0  0.44372858606E+02 -0.48210352597E+02 -0.40940464027E+02  0.77261311619E+02  0.00000000000E+00 0. -1.
</event>
<event>
 7    1  0.2612213E-009  0.1075417E+03  0.7561462E-02  0.1265191E+00
          2   -1    0    0  501    0  0.00000000000E+00  0.00000000000E+00  0.15792808574E+03  0.15792808574E+03  0.00000000000E+00 0. -1.
         -2   -1    0    0    0  501 -0.00000000000E+00 -0.00000000000E+00 -0.10025634061E+03  0.10025634061E+03  0.00000000000E+00 0.  1.
         25    2    1    2    0    0 -0.35693318052E+02  0.50354254543E+02  0.20882208906E+02  0.14104396441E+03  0.12509104422E+03 0.  0.
          5    1    3    3  502    0  0.25759052679E+02  0.30020505733E+01 -0.36135525398E+02  0.44674262147E+02  0.41800000000E+01 0. -1.
         -5    1    3    3    0  502 -0.61452370731E+02  0.47352203970E+02  0.57017734304E+02  0.96369702264E+02  0.41800000000E+01 0. -1.
        -11    1    1    2    0    0  0.11531485574E+02 -0.75426700284E+02  0.23059293368E+02  0.79711312158E+02  0.00000000000E+00 0. -1.
         11    1    1    2    0    0  0.24161832478E+02  0.25072445742E+02  0.13730242858E+02  0.37429149778E+02  0.00000000000E+00 0.  1.
</event>
<event>
 7    1  0.2612213E-009  0.1555137E+03  0.7561462E-02  0.1193857E+00
         -1   -1    0    0    0  501 -0.00000000000E+00  0.00000000000E+00  0.17277882300E+03  0.17277882300E+03  0.00000000000E+00 0.  1.
          1   -1    0    0  501    0  0.00000000000E+00 -0.00000000000E+00 -0.20355374609E+03  0.20355374609E+03  0.00000000000E+00 0. -1.
         25    2    1    2    0    0  0.17668530976E+01 -0.14415381203E+03 -0.65561345550E+02  0.20181548918E+03  0.12509100027E+03 0.  0.
          5    1    3    3  502    0  0.33019033191E+02 -0.98089176264E+02 -0.93367284028E+02  0.13945130039E+03  0.41800000000E+01 0.  1.
         -5    1    3    3    0  502 -0.31252180094E+02 -0.46064635763E+02  0.27805938478E+02  0.62364188788E+02  0.41800000000E+01 0.  1.
        -11    1    1    2    0    0 -0.20407490731E+02  0.11649790854E+03 -0.99806749567E+01  0.11869221645E+03  0.00000000000E+00 0. -1.
         11    1    1    2    0    0  0.18640637633E+02  0.27655903482E+02  0.44767097422E+02  0.55824863460E+02  0.00000000000E+00 0.  1.
</event>
<event>
 7    1  0.2612213E-009  0.1071619E+03  0.7561462E-02  0.1265918E+00
          1   -1    0    0  501    0  0.00000000000E+00  0.00000000000E+00  0.54530947727E+02  0.54530947727E+02  0.00000000000E+00 0. -1.
         -1   -1    0    0    0  501 -0.00000000000E+00 -0.00000000000E+00 -0.70702509114E+03  0.70702509114E+03  0.00000000000E+00 0.  1.
         25    2    1    2    0    0  0.90270496928E+02  0.38172554995E+02 -0.59454477097E+03  0.61541463964E+03  0.12508312206E+03 0.  0.
          5    1    3    3  502    0  0.77616996349E+01  0.14431674819E+02 -0.24203910483E+01  0.17083556776E+02  0.41800000000E+01 0.  1.
         -5    1    3    3    0  502  0.82508797294E+02  0.23740880176E+02 -0.59212437992E+03  0.59833108286E+03  0.41800000000E+01 0.  1.
        -11    1    1    2    0    0 -0.29088203842E+02  0.12839423278E+02 -0.58385167029E+02  0.66481592354E+02  0.00000000000E+00 0.  1.
         11    1    1    2    0    0 -0.61182293087E+02 -0.51011978273E+02  0.43579458483E+00  0.79659806877E+02  0.00000000000E+00 0. -1.
</event>
<event>
 7    1  0.2612213E-009  0.1695526E+03  0.7561462E-02  0.1178315E+00
         -1   -1    0    0    0  501 -0.00000000000E+00  0.00000000000E+00  0.18441365635E+02  0.18441365635E+02  0.00000000000E+00 0.  1.
          1   -1    0    0  501    0  0.00000000000E+00 -0.00000000000E+00 -0.21038017204E+04  0.21038017204E+04  0.00000000000E+00 0. -1.
         25    2    1    2    0    0  0.13374783471E+03  0.69137222564E+02 -0.14463151405E+04  0.14595012992E+04  0.12509243786E+03 0.  0.
          5    1    3    3  502    0  0.12611162907E+03  0.88658099882E+02 -0.14002792950E+04  0.14087455335E+04  0.41800000000E+01 0.  1.
         -5    1    3    3    0  502  0.76362056355E+01 -0.19520877318E+02 -0.46035845463E+02  0.50755765734E+02  0.41800000000E+01 0.  1.
        -11    1    1    2    0    0 -0.11473382254E+03 -0.81592031301E+02 -0.60903151701E+03  0.62509239183E+03  0.00000000000E+00 0. -1.
         11    1    1    2    0    0 -0.19014012161E+02  0.12454808737E+02 -0.30013697290E+02  0.37649395004E+02  0.00000000000E+00 0.  1.
</event>
<event>
 7    1  0.2612213E-009  0.1509882E+03  0.7561462E-02  0.1199264E+00
         -2   -1    0    0    0  501 -0.00000000000E+00  0.00000000000E+00  0.26002419019E+02  0.26002419019E+02  0.00000000000E+00 0. -1.
          2   -1    0    0  501    0  0.00000000000E+00 -0.00000000000E+00 -0.13234503482E+04  0.13234503482E+04  0.00000000000E+00 0.  1.
         25    2    1    2    0    0 -0.42417201278E+02 -0.12421635874E+03 -0.95695106522E+03  0.97397627933E+03  0.12508208793E+03 0.  0.
          5    1    3    3  502    0  0.14092434152E+02 -0.68393114964E+02 -0.73277669522E+03  0.73610826128E+03  0.41800000000E+01 0. -1.
         -5    1    3    3    0  502 -0.56509635430E+02 -0.55823243777E+02 -0.22417437001E+03  0.23786801805E+03  0.41800000000E+01 0. -1.
        -11    1    1    2    0    0  0.64123066254E+02  0.74912960808E+02 -0.16841544980E+03  0.19516014720E+03  0.00000000000E+00 0. -1.
         11    1    1    2    0    0 -0.21705864977E+02  0.49303397934E+02 -0.17208141419E+03  0.18031634072E+03  0.00000000000E+00 0.  1.
</event>
<event>
 7    1  0.2612213E-009  0.1291380E+03  0.7561462E-02  0.1228740E+00
          3   -1    0    0  501    0  0.00000000000E+00  0.00000000000E+00  0.35814212411E+03  0.35814212411E+03  0.00000000000E+00 0. -1.
         -3   -1    0    0    0  501 -0.00000000000E+00 -0.00000000000E+00 -0.63865737138E+02  0.63865737138E+02  0.00000000000E+00 0.  1.
         25    2    1    2    0    0 -0.62079318127E+02  0.32419680695E+02  0.50192659991E+02  0.15190613557E+03  0.12510512968E+03 0.  0.
          5    1    3    3  502    0  0.55029898400E+01  0.66977785641E+02  0.24857225962E+02  0.71775070527E+02  0.41800000000E+01 0. -1.
         -5    1    3    3    0  502 -0.67582307966E+02 -0.34558104946E+02  0.25335434029E+02  0.80131065043E+02  0.41800000000E+01 0. -1.
        -11    1    1    2    0    0  0.54725927918E+02 -0.63011636092E+02  0.19019005542E+03  0.20769605352E+03  0.00000000000E+00 0.  1.
         11    1    1    2    0    0  0.73533902083E+01  0.30591955397E+02  0.53893671566E+02  0.62405672157E+02  0.00000000000E+00 0. -1.
</event>
<event>
 7    1  0.2612213E-009  0.1102451E+03  0.7561462E-02  0.1260117E+00
         -2   -1    0    0    0  501 -0.00000000000E+00  0.00000000000E+00  0.85970766929E+02  0.85970766929E+02  0.00000000000E+00 0.  1.
          2   -1    0    0  501    0  0.00000000000E+00 -0.00000000000E+00 -0.16848493409E+03  0.16848493409E+03  0.00000000000E+00 0. -1.
         25    2    1    2    0    0  0.32431199995E+02  0.23561115074E+02 -0.10205645733E+02  0.13175155961E+03  0.12508960540E+03 0.  0.
          5    1    3    3  502    0  0.76394380051E+02  0.34668145149E+02  0.38790911013E+01  0.84086273191E+02  0.41800000000E+01 0.  1.
         -5    1    3    3    0  502 -0.43963180056E+02 -0.11107030074E+02 -0.14084736834E+02  0.47665286419E+02  0.41800000000E+01 0.  1.
        -11    1    1    2    0    0  0.20229201800E+02  0.15421885349E+02 -0.42415275441E+00  0.25440814821E+02  0.00000000000E+00 0.  1.
         11    1    1    2    0    0 -0.52660401795E+02 -0.38983000424E+02 -0.71884368670E+02  0.97263326585E+02  0.00000000000E+00 0. -1.
</event>
<event>
 7    1  0.2612213E-009  0.1119638E+03  0.7561462E-02  0.1256976E+00
         -2   -1    0    0    0  501 -0.00000000000E+00  0.00000000000E+00  0.13781317965E+04  0.13781317965E+04  0.00000000000E+00 0.  1.
          2   -1    0    0  501    0  0.00000000000E+00 -0.00000000000E+00 -0.97722710107E+01  0.97722710107E+01  0.00000000000E+00 0. -1.
         25    2    1    2    0    0 -0.14930201297E+02  0.38760118477E+02  0.89603252765E+03  0.90567513467E+03  0.12509157146E+03 0.  0.
          5    1    3    3  502    0  0.50268671094E+02  0.35826507593E+02  0.31867439658E+03  0.32462489334E+03  0.41800000000E+01 0.  1.
         -5    1    3    3    0  502 -0.65198872390E+02  0.29336108841E+01  0.57735813107E+03  0.58105024133E+03  0.41800000000E+01 0.  1.
        -11    1    1    2    0    0 -0.30998457768E+02 -0.40131596413E+02  0.27352962061E+03  0.27819040739E+03  0.00000000000E+00 0. -1.
         11    1    1    2    0    0  0.45928659065E+02  0.13714779360E+01  0.19879737725E+03  0.20403852547E+03  0.00000000000E+00 0.  1.
</event>
<event>
 7    1  0.2723165E-009  0.1019202E+03  0.7561462E-02  0.1276309E+00
          2   -1    0    0  501    0  0.00000000000E+00  0.00000000000E+00  0.42566051785E+03  0.42566051785E+03  0.00000000000E+00 0. -1.
         -2   -1    0    0    0  501 -0.00000000000E+00 -0.00000000000E+00 -0.37920104527E+02  0.37920104527E+02  0.00000000000E+00 0.  1.
         25    2    1    2    0    0  0.54883487413E+02  0.82946356982E-01  0.28432917740E+03  0.31543993319E+03  0.12508823388E+03 0.  0.
          5    1    3    3  502    0  0.64433830685E+02  0.39735077103E+02  0.94098701422E+02  0.12084135426E+03  0.41800000000E+01 0. -1.
         -5    1    3    3    0  502 -0.95503432724E+01 -0.39652130746E+02  0.19023047598E+03  0.19459857893E+03  0.41800000000E+01 0. -1.
        -11    1    1    2    0    0 -0.49159484724E+02  0.29206587853E+02  0.10355883844E+03  0.11829671480E+03  0.00000000000E+00 0. -1.
         11    1    1    2    0    0 -0.57240026890E+01 -0.29289534210E+02 -0.14760252448E+00  0.29843974392E+02  0.00000000000E+00 0.  1.
</event>
<event>
 7    1  0.2612213E-009  0.8230517E+02  0.7561462E-02  0.1322634E+00
          2   -1    0    0  501    0  0.00000000000E+00  0.00000000000E+00  0.42450753976E+03  0.42450753976E+03  0.00000000000E+00 0. -1.
         -2   -1    0    0    0  501 -0.00000000000E+00 -0.00000000000E+00 -0.33023131541E+02  0.33023131541E+02  0.00000000000E+00 0.  1.
         25    2    1    2    0    0 -0.46778069727E+02  0.74990233734E+00  0.23850501563E+03  0.27335229357E+03  0.12509230096E+03 0.  0.
          5    1    3    3  502    0 -0.68005242260E+02 -0.18189412909E+02  0.23381587070E+03  0.24421896222E+03  0.41800000000E+01 0.  1.
         -5    1    3    3    0  502  0.21227172534E+02  0.18939315246E+02  0.46891449371E+01  0.29133331358E+02  0.41800000000E+01 0.  1.
        -11    1    1    2    0    0  0.13768340714E+02  0.21498615122E+02 -0.58711316136E+00  0.25536294956E+02  0.00000000000E+00 0.  1.
         11    1    1    2    0    0  0.33009729012E+02 -0.22248517460E+02  0.15356650575E+03  0.15864208277E+03  0.00000000000E+00 0. -1.
</event>
<event>
 7    1  0.2612213E-009  0.1031113E+03  0.7561462E-02  0.1273886E+00
         -2   -1    0    0    0  501 -0.00000000000E+00  0.00000000000E+00  0.23887063668E+03  0.23887063668E+03  0.00000000000E+00 0.  1.
          2   -1    0    0  501    0  0.00000000000E+00 -0.00000000000E+00 -0.76984202942E+02  0.76984202942E+02  0.00000000000E+00 0. -1.
         25    2    1    2    0    0 -0.74949110974E+01 -0.71019244340E+02  0.41086542985E+02  0.14980378803E+03  0.12511260581E+03 0.  0.
          5    1    3    3  502    0 -0.21091685820E+02 -0.15547824033E+01 -0.37935694221E+02  0.43633311301E+02  0.41800000000E+01 0.  1.
         -5    1    3    3    0  502  0.13596774723E+02 -0.69464461937E+02  0.79022237206E+02  0.10617047673E+03  0.41800000000E+01 0.  1.
        -11    1    1    2    0    0 -0.27068734298E+02 -0.73984337924E+01  0.33832798587E+02  0.43955789827E+02  0.00000000000E+00 0.  1.
         11    1    1    2    0    0  0.34563645396E+02  0.78417678133E+02  0.86967092170E+02  0.12209526177E+03  0.00000000000E+00 0. -1.
</event>
<event>
 7    1  0.2612213E-009  0.9548276E+02  0.7561462E-02  0.1290092E+00
          2   -1    0    0  501    0  0.00000000000E+00  0.00000000000E+00  0.10979977358E+04  0.10979977358E+04  0.00000000000E+00 0. -1.
         -2   -1    0    0    0  501 -0.00000000000E+00 -0.00000000000E+00 -0.19788795782E+02  0.19788795782E+02  0.00000000000E+00 0.  1.
         25    2    1    2    0    0  0.44292004099E+02 -0.31134119225E+02  0.90298913481E+03  0.91321880149E+03  0.12509231313E+03 0.  0.
          5    1    3    3  502    0  0.60111545572E+02 -0.34502883782E+02  0.88819241603E+03  0.89090240049E+03  0.41800000000E+01 0.  1.
         -5    1    3    3    0  502 -0.15819541473E+02  0.33687645565E+01  0.14796718778E+02  0.22316401002E+02  0.41800000000E+01 0.  1.
        -11    1    1    2    0    0  0.24741472988E+02  0.25548660227E+02  0.48311407291E+02  0.59990554252E+02  0.00000000000E+00 0.  1.
         11    1    1    2    0    0 -0.69033477087E+02  0.55854589982E+01  0.12690839788E+03  0.14457717581E+03  0.00000000000E+00 0. -1.
</event>
<event>
 7    1  0.2612213E-009  0.1367151E+03  0.7561462E-02  0.1217819E+00
         -2   -1    0    0    0  501 -0.00000000000E+00  0.00000000000E+00  0.18173396666E+02  0.18173396666E+02  0.00000000000E+00 0.  1.
          2   -1    0    0  501    0  0.00000000000E+00 -0.00000000000E+00 -0.13857675761E+04  0.13857675761E+04  0.00000000000E+00 0. -1.
         25    2    1    2    0    0  0.43412113481E+02 -0.93450555252E+02 -0.94561914595E+03  0.95940736797E+03  0.12509720483E+03 0.  0.
          5    1    3    3  502    0 -0.15964549549E+02 -0.67160825937E+02 -0.75143177551E+03  0.75460759937E+03  0.41800000000E+01 0.  1.
         -5    1    3    3    0  502  0.59376663030E+02 -0.26289729315E+02 -0.19418737045E+03  0.20479976860E+03  0.41800000000E+01 0.  1.
        -11    1    1    2    0    0  0.28845350940E+02  0.14884435533E+02 -0.11695514762E+03  0.12137589237E+03  0.00000000000E+00 0.  1.
         11    1    1    2    0    0 -0.72257464421E+02  0.78566119720E+02 -0.30501988585E+03  0.32315771242E+03  0.00000000000E+00 0. -1.
</event>
<event>
 7    1  0.2612213E-009  0.1463665E+03  0.7561462E-02  0.1205010E+00
         -2   -1    0    0    0  501 -0.00000000000E+00  0.00000000000E+00  0.33951369861E+02  0.33951369861E+02  0.00000000000E+00 0. -1.
          2   -1    0    0  501    0  0.00000000000E+00 -0.00000000000E+00 -0.92587671044E+03  0.92587671044E+03  0.00000000000E+00 0.  1.
         25    2    1    2    0    0  0.43927620707E+02  0.11115247083E+03 -0.27686448449E+03  0.32647458457E+03  0.12508878434E+03 0.  0.
          5    1    3    3  502    0 -0.34448029822E+02  0.59110650070E+02 -0.64296510617E+02  0.93980047818E+02  0.41800000000E+01 0.  1.
         -5    1    3    3    0  502  0.78375650529E+02  0.52041820758E+02 -0.21256797387E+03  0.23249453675E+03  0.41800000000E+01 0.  1.
        -11    1    1    2    0    0  0.10928679558E+02 -0.93829542649E+01 -0.10468193067E+02  0.17806148761E+02  0.00000000000E+00 0. -1.
         11    1    1    2    0    0 -0.54856300265E+02 -0.10176951656E+03 -0.60459266302E+03  0.61554734697E+03  0.00000000000E+00 0.  1.
</event>
<event>
 7    1  0.3602469E-009  0.9485694E+02  0.7561462E-02  0.1291499E+00
         -1   -1    0    0    0  501 -0.00000000000E+00  0.00000000000E+00  0.32775779103E+02  0.32775779103E+02  0.00000000000E+00 0.  1.
          1   -1    0    0  501    0  0.00000000000E+00 -0.00000000000E+00 -0.49789766415E+03  0.49789766415E+03  0.00000000000E+00 0. -1.
         25    2    1    2    0    0  0.65955529777E+02  0.25512678501E+01 -0.23193596920E+03  0.27165834175E+03  0.12508924796E+03 0.  0.
          5    1    3    3  502    0  0.82016715391E+02  0.12168464895E+02 -0.23757700606E+03  0.25166469627E+03  0.41800000000E+01 0. -1.
         -5    1    3    3    0  502 -0.16061185614E+02 -0.96171970451E+01  0.56410368627E+01  0.19993645471E+02  0.41800000000E+01 0. -1.
        -11    1    1    2    0    0 -0.29532744868E+02  0.27453847614E+02 -0.29571450808E+02  0.50003674576E+02  0.00000000000E+00 0.  1.
         11    1    1    2    0    0 -0.36422784909E+02 -0.30005115464E+02 -0.20361446504E+03  0.20901142693E+03  0.00000000000E+00 0. -1.
</event>
<event>
 7    1  0.2612213E-009  0.1573010E+03  0.7561462E-02  0.1191778E+00
         -2   -1    0    0    0  501 -0.00000000000E+00  0.00000000000E+00  0.26891826007E+02  0.26891826007E+02  0.00000000000E+00 0.  1.
          2   -1    0    0  501    0  0.00000000000E+00 -0.00000000000E+00 -0.15719091369E+04  0.15719091369E+04  0.00000000000E+00 0. -1.
         25    2    1    2    0    0  0.13558364505E+03  0.59302236381E+02 -0.11571324390E+04  0.11732446872E+04  0.12509170447E+03 0.  0.
          5    1    3    3  502    0  0.12799461651E+03  0.43337804348E+02 -0.56935345161E+03  0.58518510951E+03  0.41800000000E+01 0.  1.
         -5    1    3    3    0  502  0.75890285464E+01  0.15964432033E+02 -0.58777898743E+03  0.58805957768E+03  0.41800000000E+01 0.  1.
        -11    1    1    2    0    0 -0.76131257816E+02 -0.66844331154E+02 -0.15568126310E+03  0.18574387932E+03  0.00000000000E+00 0.  1.
         11    1    1    2    0    0 -0.59452387238E+02  0.75420947729E+01 -0.23220360877E+03  0.23981239640E+03  0.00000000000E+00 0. -1.
</event>
<event>
 7    1  0.2612213E-009  0.1544235E+03  0.7561462E-02  0.1195140E+00
         -4   -1    0    0    0  501 -0.00000000000E+00  0.00000000000E+00  0.46339006455E+02  0.46339006455E+02  0.00000000000E+00 0.  1.
          4   -1    0    0  501    0  0.00000000000E+00 -0.00000000000E+00 -0.72859943825E+03  0.72859943825E+03  0.00000000000E+00 0. -1.
         25    2    1    2    0    0  0.36987675649E+02 -0.13716040504E+03 -0.27760815193E+03  0.33599999367E+03  0.12509454370E+03 0.  0.
          5    1    3    3  502    0 -0.19255159097E+01 -0.27158167878E+02 -0.18482439837E+03  0.18686573877E+03  0.41800000000E+01 0. -1.
         -5    1    3    3    0  502  0.38913191558E+02 -0.11000223716E+03 -0.92783753561E+02  0.14913425489E+03  0.41800000000E+01 0. -1.
        -11    1    1    2    0    0  0.15185509227E+02  0.98360181868E+02 -0.29637297547E+03  0.31263759476E+03  0.00000000000E+00 0. -1.
         11    1    1    2    0    0 -0.52173184875E+02  0.38800223168E+02 -0.10827930439E+03  0.12630085628E+03  0.00000000000E+00 0.  1.
</event>
<event>
 7    1  0.2612213E-009  0.1210422E+03  0.7561462E-02  0.1241388E+00
         -2   -1    0    0    0  501 -0.00000000000E+00  0.00000000000E+00  0.36445644356E+02  0.36445644356E+02  0.00000000000E+00 0. -1.
          2   -1    0    0  501    0  0.00000000000E+00 -0.00000000000E+00 -0.69320030320E+03  0.69320030320E+03  0.00000000000E+00 0.  1.
         25    2    1    2    0    0  0.98879149315E+02 -0.59219845134E+02 -0.38763272022E+03  0.42330890980E+03  0.12508889281E+03 0.  0.
          5    1    3    3  502    0  0.99740171192E+02 -0.55997879676E+02 -0.39664478918E+03  0.41282977783E+03  0.41800000000E+01 0.  1.
         -5    1    3    3    0  502 -0.86102187715E+00 -0.32219654574E+01  0.90120689561E+01  0.10479131975E+02  0.41800000000E+01 0.  1.
        -11    1    1    2    0    0 -0.71875092954E+02  0.19905320218E+02 -0.72496634283E+02  0.10400967620E+03  0.00000000000E+00 0. -1.
         11    1    1    2    0    0 -0.27004056361E+02  0.39314524916E+02 -0.19662530433E+03  0.20232736156E+03  0.00000000000E+00 0.  1.
</event>
<event>
 7    1  0.2612213E-009  0.1233560E+03  0.7561462E-02  0.1237661E+00
         -2   -1    0    0    0  501 -0.00000000000E+00  0.00000000000E+00  0.12349329145E+03  0.12349329145E+03  0.00000000000E+00 0.  1.
          2   -1    0    0  501    0  0.00000000000E+00 -0.00000000000E+00 -0.14396541553E+03  0.14396541553E+03  0.00000000000E+00 0. -1.
         25    2    1    2    0    0  0.76560339016E+02 -0.14252713548E+02 -0.79515807822E+01  0.14756350232E+03  0.12508850557E+03 0.  0.
          5    1    3    3  502    0  0.44601711175E+00 -0.46573296917E+02  0.30955249981E+02  0.56080039393E+02  0.41800000000E+01 0.  1.
         -5    1    3    3    0  502  0.76114321905E+02  0.32320583368E+02 -0.38906830763E+02  0.91483462922E+02  0.41800000000E+01 0.  1.
        -11    1    1    2    0    0 -0.63615718840E+02 -0.30510749120E+02  0.34460436460E+01  0.70638096748E+02  0.00000000000E+00 0.  1.
         11    1    1    2    0    0 -0.12944620177E+02  0.44763462668E+02 -0.15966586946E+02  0.49257107916E+02  0.00000000000E+00 0. -1.
</event>
<event>
 7    1  0.2612213E-009  0.1071760E+03  0.7561462E-02  0.1265891E+00
          2   -1    0    0  501    0  0.00000000000E+00  0.00000000000E+00  0.38157837236E+03  0.38157837236E+03  0.00000000000E+00 0. -1.
         -2   -1    0    0    0  501 -0.00000000000E+00 -0.00000000000E+00 -0.39602067737E+02  0.39602067737E+02  0.00000000000E+00 0.  1.
         25    2    1    2    0    0  0.43669822018E+02 -0.25850232547E+02  0.13909453875E+03  0.19382688880E+03  0.12508510796E+03 0.  0.
          5    1    3    3  502    0  0.85733924579E+02 -0.27442080211E+02  0.11131466439E+03  0.14321941384E+03  0.41800000000E+01 0. -1.
         -5    1    3    3    0  502 -0.42064102561E+02  0.15918476637E+01  0.27779874358E+02  0.50607474968E+02  0.41800000000E+01 0. -1.
        -11    1    1    2    0    0 -0.31775791513E+01  0.39177353226E+02  0.30423124346E+02  0.49704411374E+02  0.00000000000E+00 0.  1.
         11    1    1    2    0    0 -0.40492242867E+02 -0.13327120679E+02  0.17245864152E+03  0.17764913992E+03  0.00000000000E+00 0. -1.
</event>
<event>
 7    1  0.2612213E-009  0.1336319E+03  0.7561462E-02  0.1222164E+00
          2   -1    0    0  501    0  0.00000000000E+00  0.00000000000E+00  0.82909351669E+03  0.82909351669E+03  0.00000000000E+00 0. -1.
         -2   -1    0    0    0  501 -0.00000000000E+00 -0.00000000000E+00 -0.24199372134E+02  0.24199372134E+02  0.00000000000E+00 0.  1.
         25    2    1    2    0    0  0.39743106402E+02  0.80615719321E+02  0.49768991436E+03  0.52097974641E+03  0.12508491758E+03 0.  0.
          5    1    3    3  502    0  0.15899874868E+02  0.10661485881E+03  0.44161486798E+03  0.45459949203E+03  0.41800000000E+01 0.  1.
         -5    1    3    3    0  502  0.23843231533E+02 -0.25999139491E+02  0.56075046383E+02  0.66380254377E+02  0.41800000000E+01 0.  1.
        -11    1    1    2    0    0 -0.56089648824E+02 -0.17633497588E+02  0.18118865497E+03  0.19048967854E+03  0.00000000000E+00 0. -1.
         11    1    1    2    0    0  0.16346542422E+02 -0.62982221733E+02  0.12601557523E+03  0.14182346387E+03  0.00000000000E+00 0.  1.
</event>
<event>
 7    1  0.2612213E-009  0.1592385E+03  0.7561462E-02  0.1189559E+00
         -2   -1    0    0    0  501 -0.00000000000E+00  0.00000000000E+00  0.34414735125E+02  0.34414735125E+02  0.00000000000E+00 0.  1.
          2   -1    0    0  501    0  0.00000000000E+00 -0.00000000000E+00 -0.11894138274E+04  0.11894138274E+04  0.00000000000E+00 0. -1.
         25    2    1    2    0    0 -0.28281460245E+02  0.11396474538E+03 -0.97631573628E+03  0.99127581411E+03  0.12509004173E+03 0.  0.
          5    1    3    3  502    0 -0.61731805153E+02  0.12186710012E+03 -0.80034893700E+03  0.81193491070E+03  0.41800000000E+01 0. -1.
         -5    1    3    3    0  502  0.33450344908E+02 -0.79023547429E+01 -0.17596679928E+03  0.17934090341E+03  0.41800000000E+01 0. -1.
        -11    1    1    2    0    0  0.48615467771E+02 -0.22660639286E+02 -0.48969720352E+02  0.72629207560E+02  0.00000000000E+00 0.  1.
         11    1    1    2    0    0 -0.20334007526E+02 -0.91304106091E+02 -0.12971363567E+03  0.15992354089E+03  0.00000000000E+00 0. -1.
</event>
<event>
 7    1  0.2612213E-009  0.2876940E+03  0.7561462E-02  0.1091559E+00
          1   -1    0    0  501    0  0.00000000000E+00  0.00000000000E+00  0.56358032028E+03  0.56358032028E+03  0.00000000000E+00 0. -1.
         -1   -1    0    0    0  501 -0.00000000000E+00 -0.00000000000E+00 -0.15142229318E+03  0.15142229318E+03  0.00000000000E+00 0.  1.
         25    2    1    2    0    0  0.57230564415E+02 -0.26455855621E+03  0.22552135019E+03  0.37386325225E+03  0.12508910753E+03 0.  0.
          5    1    3    3  502    0  0.92883399210E+02 -0.17345104429E+03  0.17650638731E+03  0.26435689470E+03  0.41800000000E+01 0. -1.
         -5    1    3    3    0  502 -0.35652834795E+02 -0.91107511922E+02  0.49014962880E+02  0.10950635755E+03  0.41800000000E+01 0. -1.
        -11    1    1    2    0    0 -0.46817360484E+01  0.18654003110E+03  0.15278365553E+03  0.24116788188E+03  0.00000000000E+00 0. -1.
         11    1    1    2    0    0 -0.52548828366E+02  0.78018525114E+02  0.33853021379E+02  0.99971479333E+02  0.00000000000E+00 0.  1.
</event>
<event>
 7    1  0.2612213E-009  0.3199784E+03  0.7561462E-02  0.1075659E+00
         -1   -1    0    0    0  501 -0.00000000000E+00  0.00000000000E+00  0.11565922159E+04  0.11565922159E+04  0.00000000000E+00 0.  1.
          1   -1    0    0  501    0  0.00000000000E+00 -0.00000000000E+00 -0.97826102114E+02  0.97826102114E+02  0.00000000000E+00 0. -1.
         25    2    1    2    0    0 -0.30639860063E+03  0.77619370846E+02  0.61399223998E+03  0.70181851969E+03  0.12513150935E+03 0.  0.
          5    1    3    3  502    0 -0.21843817938E+03  0.30308247055E+02  0.30041791915E+03  0.37269589023E+03  0.41800000000E+01 0.  1.
         -5    1    3    3    0  502 -0.87960421258E+02  0.47311123791E+02  0.31357432083E+03  0.32912262947E+03  0.41800000000E+01 0.  1.
        -11    1    1    2    0    0  0.12708835053E+03 -0.55766224408E+02  0.13270022813E+03  0.19201737205E+03  0.00000000000E+00 0.  1.
         11    1    1    2    0    0  0.17931025010E+03 -0.21853146438E+02  0.31207364566E+03  0.36058242625E+03  0.00000000000E+00 0. -1.
</event>
<event>
 7    1  0.2612213E-009  0.1303256E+03  0.7561462E-02  0.1226973E+00
         -3   -1    0    0    0  501 -0.00000000000E+00  0.00000000000E+00  0.19047536580E+03  0.19047536580E+03  0.00000000000E+00 0.  1.
          3   -1    0    0  501    0  0.00000000000E+00 -0.00000000000E+00 -0.13096350183E+03  0.13096350183E+03  0.00000000000E+00 0. -1.
         25    2    1    2    0    0  0.81926288955E+02 -0.72425799923E+02  0.65223265358E+02  0.17849279556E+03  0.12509272723E+03 0.  0.
          5    1    3    3  502    0  0.53480316859E+02 -0.85060884325E+02 -0.59084505799E+01  0.10073668905E+03  0.41800000000E+01 0. -1.
         -5    1    3    3    0  502  0.28445972096E+02  0.12635084401E+02  0.71131715938E+02  0.77756106503E+02  0.41800000000E+01 0. -1.
        -11    1    1    2    0    0 -0.28243147483E+02  0.69385642511E+02 -0.33910390459E+02  0.82231121526E+02  0.00000000000E+00 0. -1.
         11    1    1    2    0    0 -0.53683141472E+02  0.30401574124E+01  0.28198989066E+02  0.60714950546E+02  0.00000000000E+00 0.  1.
</event>
<event>
 7    1  0.2612213E-009  0.1110581E+03  0.7561462E-02  0.1258623E+00
         -1   -1    0    0    0  501 -0.00000000000E+00  0.00000000000E+00  0.32070854503E+02  0.32070854503E+02  0.00000000000E+00 0.  1.
          1   -1    0    0  501    0  0.00000000000E+00 -0.00000000000E+00 -0.50726847214E+03  0.50726847214E+03  0.00000000000E+00 0. -1.
         25    2    1    2    0    0 -0.22591256576E+02 -0.53257281969E+02 -0.32522259673E+03  0.35322074182E+03  0.12509377312E+03 0.  0.
          5    1    3    3  502    0  0.43049964200E+02 -0.31168719946E+02 -0.22562282077E+03  0.23183597256E+03  0.41800000000E+01 0.  1.
         -5    1    3    3    0  502 -0.65641220777E+02 -0.22088562023E+02 -0.99599775958E+02  0.12138476926E+03  0.41800000000E+01 0.  1.
        -11    1    1    2    0    0  0.52609438693E+02  0.42149904732E+02 -0.13475675571E+03  0.15067763842E+03  0.00000000000E+00 0. -1.
         11    1    1    2    0    0 -0.30018182117E+02  0.11107377237E+02 -0.15218265196E+02  0.35440946408E+02  0.00000000000E+00 0.  1.
</event>
<event>
 7    1  0.2612213E-009  0.6656696E+02  0.7561462E-02  0.1372172E+00
          2   -1    0    0  501    0  0.00000000000E+00  0.00000000000E+00  0.12801993843E+04  0.12801993843E+04  0.00000000000E+00 0. -1.
         -2   -1    0    0    0  501 -0.00000000000E+00 -0.00000000000E+00 -0.10377130337E+02  0.10377130337E+02  0.00000000000E+00 0.  1.
         25    2    1    2    0    0 -0.29644030993E+02  0.21713887482E+00  0.84876106091E+03  0.85844262129E+03  0.12509828059E+03 0.  0.
          5    1    3    3  502    0 -0.10437376548E+02  0.90179561240E+01  0.63391466751E+01  0.15745461011E+02  0.41800000000E+01 0. -1.
         -5    1    3    3    0  502 -0.19206654444E+02 -0.88008172492E+01  0.84242191423E+03  0.84269716028E+03  0.41800000000E+01 0. -1.
        -11    1    1    2    0    0  0.59331538832E+02  0.18427959271E+02  0.26587234260E+03  0.27303465666E+03  0.00000000000E+00 0. -1.
         11    1    1    2    0    0 -0.29687507839E+02 -0.18645098145E+02  0.15518885047E+03  0.15909923670E+03  0.00000000000E+00 0.  1.
</event>
<event>
 7    1  0.2612213E-009  0.8335045E+02  0.7561462E-02  0.1319804E+00
          3   -1    0    0  501    0  0.00000000000E+00  0.00000000000E+00  0.15093607148E+03  0.15093607148E+03  0.00000000000E+00 0. -1.
         -3   -1    0    0    0  501 -0.00000000000E+00 -0.00000000000E+00 -0.98453789016E+02  0.98453789016E+02  0.00000000000E+00 0.  1.
         25    2    1    2    0    0  0.26930111449E+01  0.51565406280E+02  0.14689089615E+02  0.13613013816E+03  0.12509756883E+03 0.  0.
          5    1    3    3  502    0  0.95282310425E+01 -0.27319021119E+02  0.42949384621E+02  0.51954192718E+02  0.41800000000E+01 0.  1.
         -5    1    3    3    0  502 -0.68352198976E+01  0.78884427399E+02 -0.28260295005E+02  0.84175945441E+02  0.41800000000E+01 0.  1.
        -11    1    1    2    0    0 -0.14389595148E+02 -0.21061802040E+02  0.65583476531E+02  0.70369399227E+02  0.00000000000E+00 0. -1.
         11    1    1    2    0    0  0.11696584003E+02 -0.30503604240E+02 -0.27790283685E+02  0.42890323107E+02  0.00000000000E+00 0.  1.
</event>
<event>
 7    1  0.2753546E-009  0.1188107E+03  0.7561462E-02  0.1245072E+00
          3   -1    0    0  501    0  0.00000000000E+00  0.00000000000E+00  0.63603478125E+02  0.63603478125E+02  0.00000000000E+00 0. -1.
         -3   -1    0    0    0  501 -0.00000000000E+00 -0.00000000000E+00 -0.25623076791E+03  0.25623076791E+03  0.00000000000E+00 0.  1.
         25    2    1    2    0    0 -0.19358195788E+02  0.52401692592E+02 -0.60246746350E+02  0.14966008797E+03  0.12509114419E+03 0.  0.
          5    1    3    3  502    0  0.52628486383E+02  0.32677526129E+02 -0.30851006014E+02  0.69331344030E+02  0.41800000000E+01 0. -1.
         -5    1    3    3    0  502 -0.71986682172E+02  0.19724166463E+02 -0.29395740336E+02  0.80328743938E+02  0.41800000000E+01 0. -1.
        -11    1    1    2    0    0 -0.17746839420E+02  0.15391961185E+02 -0.59404705046E+02  0.63880996862E+02  0.00000000000E+00 0.  1.
         11    1    1    2    0    0  0.37105035208E+02 -0.67793653778E+02 -0.72975838387E+02  0.10629316120E+03  0.00000000000E+00 0. -1.
</event>
<event>
 7    1  0.2612213E-009  0.8269362E+02  0.7561462E-02  0.1321577E+00
         -1   -1    0    0    0  501 -0.00000000000E+00  0.00000000000E+00  0.10111649416E+03  0.10111649416E+03  0.00000000000E+00 0.  1.
          1   -1    0    0  501    0  0.00000000000E+00 -0.00000000000E+00 -0.13666350202E+03  0.13666350202E+03  0.00000000000E+00 0. -1.
         25    2    1    2    0    0  0.34933587466E+02  0.14496264977E+02 -0.47227388253E+02  0.13895326299E+03  0.12508831226E+03 0.  0.
          5    1    3    3  502    0  0.45450429568E+02  0.38505619198E+02  0.22911792775E+02  0.63959728783E+02  0.41800000000E+01 0. -1.
         -5    1    3    3    0  502 -0.10516842102E+02 -0.24009354221E+02 -0.70139181028E+02  0.74993534209E+02  0.41800000000E+01 0. -1.
        -11    1    1    2    0    0  0.21428106588E+02 -0.40820736705E+01  0.31382741408E+02  0.38219151425E+02  0.00000000000E+00 0.  1.
         11    1    1    2    0    0 -0.56361694054E+02 -0.10414191306E+02 -0.19702361011E+02  0.60607581759E+02  0.00000000000E+00 0. -1.
</event>
<event>
 7    1  0.4128187E-009  0.1144590E+03  0.7561462E-02  0.1252528E+00
          2   -1    0    0  501    0  0.00000000000E+00  0.00000000000E+00  0.36208348340E+03  0.36208348340E+03  0.00000000000E+00 0. -1.
         -2   -1    0    0    0  501 -0.00000000000E+00 -0.00000000000E+00 -0.53998611999E+02  0.53998611999E+02  0.00000000000E+00 0.  1.
         25    2    1    2    0    0 -0.71626842691E+02  0.47600830355E+02  0.19779581018E+03  0.24933298463E+03  0.12509001182E+03 0.  0.
          5    1    3    3  502    0 -0.46251389583E+02 -0.33835870814E+02  0.40331591724E+02  0.70200903720E+02  0.41800000000E+01 0.  1.
         -5    1    3    3    0  502 -0.25375453107E+02  0.81436701169E+02  0.15746421846E+03  0.17913208091E+03  0.41800000000E+01 0.  1.
        -11    1    1    2    0    0  0.32171995234E+02 -0.19519312226E+02 -0.84034273939E+01  0.38557209690E+02  0.00000000000E+00 0.  1.
         11    1    1    2    0    0  0.39454847457E+02 -0.28081518129E+02  0.11869248861E+03  0.12819190107E+03  0.00000000000E+00 0. -1.
</event>
<event>
 7    1  0.2612213E-009  0.8456388E+02  0.7561462E-02  0.1316577E+00
         -2   -1    0    0    0  501 -0.00000000000E+00  0.00000000000E+00  0.16766440202E+02  0.16766440202E+02  0.00000000000E+00 0.  1.
          2   -1    0    0  501    0  0.00000000000E+00 -0.00000000000E+00 -0.76289746252E+03  0.76289746252E+03  0.00000000000E+00 0. -1.
         25    2    1    2    0    0  0.42426751705E+01 -0.27437685048E+02 -0.49623322435E+03  0.51250739423E+03  0.12508233026E+03 0.  0.
          5    1    3    3  502    0 -0.11845041554E+02 -0.53162008909E+02 -0.91130141283E+02  0.10624819646E+03  0.41800000000E+01 0. -1.
         -5    1    3    3    0  502  0.16087716724E+02  0.25724323861E+02 -0.40510308307E+03  0.40625919777E+03  0.41800000000E+01 0. -1.
        -11    1    1    2    0    0 -0.34881671357E+02 -0.92387919511E+01 -0.50221477192E+02  0.61840787873E+02  0.00000000000E+00 0. -1.
         11    1    1    2    0    0  0.30638996187E+02  0.36676476999E+02 -0.19967632078E+03  0.20531572062E+03  0.00000000000E+00 0.  1.
</event>
<event>
 7    1  0.2612213E-009  0.9225559E+02  0.7561462E-02  0.1297480E+00
          2   -1    0    0  501    0  0.00000000000E+00  0.00000000000E+00  0.11670041010E+03  0.11670041010E+03  0.00000000000E+00 0. -1.
         -2   -1    0    0    0  501 -0.00000000000E+00 -0.00000000000E+00 -0.11267534395E+03  0.11267534395E+03  0.00000000000E+00 0.  1.
         25    2    1    2    0    0 -0.27092892341E+02 -0.14461598611E+02  0.24948065364E+02  0.13119756185E+03  0.12508889487E+03 0.  0.
          5    1    3    3  502    0  0.37842835226E+02  0.23893883984E+02  0.32235501536E+02  0.55313631494E+02  0.41800000000E+01 0. -1.
         -5    1    3    3    0  502 -0.64935727567E+02 -0.38355482595E+02 -0.72874361719E+01  0.75883930352E+02  0.41800000000E+01 0. -1.
        -11    1    1    2    0    0  0.23014108027E+02  0.35659761401E+02  0.23698320033E+02  0.48609444801E+02  0.00000000000E+00 0.  1.
         11    1    1    2    0    0  0.40787843137E+01 -0.21198162790E+02 -0.44621319245E+02  0.49568747395E+02  0.00000000000E+00 0. -1.
</event>
<event>
 7    1  0.2612213E-009  0.8574227E+02  0.7561462E-02  0.1313503E+00
         -2   -1    0    0    0  501 -0.00000000000E+00  0.00000000000E+00  0.77402980937E+02  0.77402980937E+02  0.00000000000E+00 0.  1.
          2   -1    0    0  501    0  0.00000000000E+00 -0.00000000000E+00 -0.26508319712E+03  0.26508319712E+03  0.00000000000E+00 0. -1.
         25    2    1    2    0    0  0.18916073695E+02  0.71522442904E+02 -0.35328070742E+02  0.14956239846E+03  0.12509021052E+03 0.  0.
          5    1    3    3  502    0  0.21929221931E+01 -0.20363219902E+01 -0.67320438495E+02  0.67516437659E+02  0.41800000000E+01 0. -1.
         -5    1    3    3    0  502  0.16723151502E+02  0.73558764895E+02  0.31992367752E+02  0.82045960799E+02  0.41800000000E+01 0. -1.
        -11    1    1    2    0    0  0.16242264497E+02 -0.41479972412E+02 -0.13721333991E+03  0.14426330066E+03  0.00000000000E+00 0. -1.
         11    1    1    2    0    0 -0.35158338193E+02 -0.30042470493E+02 -0.15138805529E+02  0.48660478939E+02  0.00000000000E+00 0.  1.
</event>
<event>
 7    1  0.2612213E-009  0.1638113E+03  0.7561462E-02  0.1184460E+00
          2   -1    0    0  501    0  0.00000000000E+00  0.00000000000E+00  0.14778443884E+04  0.14778443884E+04  0.00000000000E+00 0. -1.
         -2   -1    0    0    0  501 -0.00000000000E+00 -0.00000000000E+00 -0.22224175452E+02  0.22224175452E+02  0.00000000000E+00 0.  1.
         25    2    1    2    0    0 -0.42127825245E+02 -0.11190416084E+03  0.10653567108E+04  0.10793199843E+04  0.12509761118E+03 0.  0.
          5    1    3    3  502    0  0.43996138770E+02 -0.49976481841E+02  0.38759377488E+03  0.39329342188E+03  0.41800000000E+01 0.  1.
         -5    1    3    3    0  502 -0.86123964014E+02 -0.61927678995E+02  0.67776293590E+03  0.68602656238E+03  0.41800000000E+01 0.  1.
        -11    1    1    2    0    0  0.68690954789E+02  0.10786560416E+03  0.34707557475E+03  0.36988496917E+03  0.00000000000E+00 0.  1.
         11    1    1    2    0    0 -0.26563129544E+02  0.40385566721E+01  0.43187927409E+02  0.50863610421E+02  0.00000000000E+00 0. -1.
</event>
<event>
 7    1  0.2612213E-009  0.1183977E+03  0.7561462E-02  0.1245764E+00
         -1   -1    0    0    0  501 -0.00000000000E+00  0.00000000000E+00  0.50075091782E+03  0.50075091782E+03  0.00000000000E+00 0.  1.
          1   -1    0    0  501    0  0.00000000000E+00 -0.00000000000E+00 -0.31615060635E+02  0.31615060635E+02  0.00000000000E+00 0. -1.
         25    2    1    2    0    0  0.35190636743E+02  0.55642729109E+01  0.32682857076E+03  0.35175802933E+03  0.12508978571E+03 0.  0.
          5    1    3    3  502    0 -0.12293056035E+02  0.57017145392E+02  0.12285820762E+03  0.13606500533E+03  0.41800000000E+01 0. -1.
         -5    1    3    3    0  502  0.47483692778E+02 -0.51452872481E+02  0.20397036313E+03  0.21569302400E+03  0.41800000000E+01 0. -1.
        -11    1    1    2    0    0 -0.70727227719E+02 -0.12897429951E+02  0.73474706419E+02  0.10279696943E+03  0.00000000000E+00 0.  1.
         11    1    1    2    0    0  0.35536590976E+02  0.73331570402E+01  0.68832580010E+02  0.77810979696E+02  0.00000000000E+00 0. -1.
</event>
<event>
 7    1  0.3222139E-009  0.1251254E+03  0.7561462E-02  0.1234873E+00
          1   -1    0    0  501    0  0.00000000000E+00  0.00000000000E+00  0.59752163370E+03  0.59752163370E+03  0.00000000000E+00 0. -1.
         -1   -1    0    0    0  501 -0.00000000000E+00 -0.00000000000E+00 -0.27370762193E+02  0.27370762193E+02  0.00000000000E+00 0.  1.
         25    2    1    2    0    0 -0.19617555782E+02  0.63747295147E+02  0.33193081374E+03  0.36093544384E+03  0.12509102036E+03 0.  0.
          5    1    3    3  502    0  0.53113011845E+02  0.31223858048E+02  0.13474485532E+03  0.14822135398E+03  0.41800000000E+01 0. -1.
         -5    1    3    3    0  502 -0.72730567627E+02  0.32523437099E+02  0.19718595842E+03  0.21271408986E+03  0.41800000000E+01 0. -1.
        -11    1    1    2    0    0  0.53472883907E+02 -0.32065826275E+02  0.96916905937E+02  0.11524084859E+03  0.00000000000E+00 0.  1.
         11    1    1    2    0    0 -0.33855328125E+02 -0.31681468872E+02  0.14130315182E+03  0.14871610346E+03  0.00000000000E+00 0. -1.
</event>
<event>
 7    1  0.2612213E-009  0.9729581E+02  0.7561462E-02  0.1286087E+00
          1   -1    0    0  501    0  0.00000000000E+00  0.00000000000E+00  0.90410999220E+02  0.90410999220E+02  0.00000000000E+00 0. -1.
         -1   -1    0    0    0  501 -0.00000000000E+00 -0.00000000000E+00 -0.15294575857E+03  0.15294575857E+03  0.00000000000E+00 0.  1.
         25    2    1    2    0    0 -0.33862744740E+01 -0.13928145563E+02  0.10554129042E+02  0.12634437101E+03  0.12508417307E+03 0.  0.
          5    1    3    3  502    0  0.11510620035E+02 -0.60480580467E+02 -0.24137623354E+02  0.66260789675E+02  0.41800000000E+01 0.  1.
         -5    1    3    3    0  502 -0.14896894509E+02  0.46552434904E+02  0.34691752395E+02  0.60083581333E+02  0.41800000000E+01 0.  1.
        -11    1    1    2    0    0  0.42937933998E+02  0.99538799383E+01 -0.14870220313E+02  0.46517409149E+02  0.00000000000E+00 0. -1.
         11    1    1    2    0    0 -0.39551659524E+02  0.39742656244E+01 -0.58218668076E+02  0.70494977629E+02  0.00000000000E+00 0.  1.
</event>
<event>
 7    1  0.2612213E-009  0.1185291E+03  0.7561462E-02  0.1245543E+00
         -1   -1    0    0    0  501 -0.00000000000E+00  0.00000000000E+00  0.65399811358E+02  0.65399811358E+02  0.00000000000E+00 0.  1.
          1   -1    0    0  501    0  0.00000000000E+00 -0.00000000000E+00 -0.14051343743E+04  0.14051343743E+04  0.00000000000E+00 0. -1.
         25    2    1    2    0    0  0.86796726446E+02 -0.76719268712E+02 -0.13077458828E+04  0.13188098672E+04  0.12506259976E+03 0.  0.
          5    1    3    3  502    0  0.55660877407E+02 -0.65044284982E+02 -0.34523143032E+03  0.35571210994E+03  0.41800000000E+01 0.  1.
         -5    1    3    3    0  502  0.31135849039E+02 -0.11674983730E+02 -0.96251445246E+03  0.96309775721E+03  0.41800000000E+01 0.  1.
        -11    1    1    2    0    0 -0.73544895230E+02  0.52964236734E+02  0.20215332468E+02  0.92858611092E+02  0.00000000000E+00 0.  1.
         11    1    1    2    0    0 -0.13251831216E+02  0.23755031978E+02 -0.52204012666E+02  0.58865707447E+02  0.00000000000E+00 0. -1.
</event>
<event>
 7    1  0.2612213E-009  0.1310568E+03  0.7561462E-02  0.1225896E+00
          2   -1    0    0  501    0  0.00000000000E+00  0.00000000000E+00  0.78772083993E+03  0.78772083993E+03  0.00000000000E+00 0. -1.
         -2   -1    0    0    0  501 -0.00000000000E+00 -0.00000000000E+00 -0.23641133027E+02  0.23641133027E+02  0.00000000000E+00 0.  1.
         25    2    1    2    0    0 -0.66700307087E+02  0.49420399389E+02  0.41889891096E+03  0.44498676685E+03  0.12508244573E+03 0.  0.
          5    1    3    3  502    0 -0.41882791920E+02  0.87906991341E+02  0.21645500095E+03  0.23738586146E+03  0.41800000000E+01 0.  1.
         -5    1    3    3    0  502 -0.24817515168E+02 -0.38486591952E+02  0.20244391001E+03  0.20760090539E+03  0.41800000000E+01 0.  1.
        -11    1    1    2    0    0  0.16697127941E+02  0.24361891997E+02  0.50419452168E+02  0.58433013101E+02  0.00000000000E+00 0.  1.
         11    1    1    2    0    0  0.50003179146E+02 -0.73782291386E+02  0.29476134378E+03  0.30794219300E+03  0.00000000000E+00 0. -1.
</event>
<event>
 7    1  0.2612213E-009  0.1108083E+03  0.7561462E-02  0.1259080E+00
         -2   -1    0    0    0  501 -0.00000000000E+00  0.00000000000E+00  0.22518939491E+02  0.22518939491E+02  0.00000000000E+00 0. -1.
          2   -1    0    0  501    0  0.00000000000E+00 -0.00000000000E+00 -0.57220063835E+03  0.57220063835E+03  0.00000000000E+00 0.  1.
         25    2    1    2    0    0  0.16382304317E+02  0.19767529548E+02 -0.25926530972E+03  0.28900707693E+03  0.12508978605E+03 0.  0.
          5    1    3    3  502    0  0.47653379881E+02  0.59513324276E+02 -0.16917769040E+03  0.18561046229E+03  0.41800000000E+01 0. -1.
         -5    1    3    3    0  502 -0.31271075564E+02 -0.39745794729E+02 -0.90087619321E+02  0.10339661465E+03  0.41800000000E+01 0. -1.
        -11    1    1    2    0    0  0.29504390111E+02  0.18450305778E+02 -0.12873056158E+03  0.13335096664E+03  0.00000000000E+00 0.  1.
         11    1    1    2    0    0 -0.45886694428E+02 -0.38217835325E+02 -0.16168582756E+03  0.17236153427E+03  0.00000000000E+00 0. -1.
</event>
<event>
 7    1  0.2612213E-009  0.2370750E+03  0.7561462E-02  0.1121757E+00
          2   -1    0    0  501    0  0.00000000000E+00  0.00000000000E+00  0.15802517072E+03  0.15802517072E+03  0.00000000000E+00 0. -1.
         -2   -1    0    0    0  501 -0.00000000000E+00 -0.00000000000E+00 -0.39930773603E+03  0.39930773603E+03  0.00000000000E+00 0.  1.
         25    2    1    2    0    0  0.93526657249E+02 -0.20415229457E+03 -0.91872220609E+02  0.27297109995E+03  0.12508925411E+03 0.  0.
          5    1    3    3  502    0  0.36952879975E+01 -0.91794907590E+02  0.15701650123E+02  0.93295093276E+02  0.41800000000E+01 0. -1.
         -5    1    3    3    0  502  0.89831369251E+02 -0.11235738698E+03 -0.10757387073E+03  0.17967600668E+03  0.41800000000E+01 0. -1.
        -11    1    1    2    0    0 -0.54957123173E+02  0.35873880943E+02 -0.64307160180E+02  0.91883793847E+02  0.00000000000E+00 0.  1.
         11    1    1    2    0    0 -0.38569534076E+02  0.16827841363E+03 -0.85103184525E+02  0.19247801295E+03  0.00000000000E+00 0. -1.
</event>
<event>
 7    1  0.2612213E-009  0.1414521E+03  0.7561462E-02  0.1211388E+00
          1   -1    0    0  501    0  0.00000000000E+00  0.00000000000E+00  0.58249747231E+03  0.58249747231E+03  0.00000000000E+00 0. -1.
         -1   -1    0    0    0  501 -0.00000000000E+00 -0.00000000000E+00 -0.39734964994E+02  0.39734964994E+02  0.00000000000E+00 0.  1.
         25    2    1    2    0    0  0.63411897896E+02  0.74961035703E+02  0.38212316880E+03  0.41389102221E+03  0.12508971366E+03 0.  0.
          5    1    3    3  502    0  0.14673034110E+02 -0.30550556224E+02  0.40285775213E+02  0.52811461825E+02  0.41800000000E+01 0.  1.
         -5    1    3    3    0  502  0.48738863786E+02  0.10551159193E+03  0.34183739359E+03  0.36107956039E+03  0.41800000000E+01 0.  1.
        -11    1    1    2    0    0 -0.51047144760E+02  0.52328353194E+01  0.68042761397E+02  0.85223300407E+02  0.00000000000E+00 0. -1.
         11    1    1    2    0    0 -0.12364753136E+02 -0.80193871023E+02  0.92596577117E+02  0.12311811468E+03  0.00000000000E+00 0.  1.
</event>
<event>
 7    1  0.2612213E-009  0.1315302E+03  0.7561462E-02  0.1225203E+00
          2   -1    0    0  501    0  0.00000000000E+00  0.00000000000E+00  0.70178958220E+03  0.70178958220E+03  0.00000000000E+00 0. -1.
         -2   -1    0    0    0  501 -0.00000000000E+00 -0.00000000000E+00 -0.32289663212E+02  0.32289663212E+02  0.00000000000E+00 0.  1.
         25    2    1    2    0    0  0.80475755977E+02  0.45740918574E+02  0.38114825571E+03  0.41169132154E+03  0.12508865844E+03 0.  0.
          5    1    3    3  502    0  0.59880096880E+02 -0.11411079422E+02  0.62980369319E+02  0.87748721104E+02  0.41800000000E+01 0. -1.
         -5    1    3    3    0  502  0.20595659097E+02  0.57151997996E+02  0.31816788639E+03  0.32394260044E+03  0.41800000000E+01 0. -1.
        -11    1    1    2    0    0 -0.40149481049E+02  0.33411374085E+02  0.14058506992E+03  0.14997487333E+03  0.00000000000E+00 0. -1.
         11    1    1    2    0    0 -0.40326274928E+02 -0.79152292659E+02  0.14776659337E+03  0.17241305054E+03  0.00000000000E+00 0.  1.
</event>
<event>
 7    1  0.2612213E-009  0.1811955E+03  0.7561462E-02  0.1166651E+00
          2   -1    0    0  501    0  0.00000000000E+00  0.00000000000E+00  0.15033811181E+04  0.15033811181E+04  0.00000000000E+00 0. -1.
         -2   -1    0    0    0  501 -0.00000000000E+00 -0.00000000000E+00 -0.30730288219E+02  0.30730288219E+02  0.00000000000E+00 0.  1.
         25    2    1    2    0    0  0.16592644252E+03 -0.29351653328E+01  0.10751585466E+04  0.10950593127E+04  0.12509515792E+03 0.  0.
          5    1    3    3  502    0  0.81030716953E+02 -0.30518970695E+02  0.82264347823E+03  0.82719837363E+03  0.41800000000E+01 0. -1.
         -5    1    3    3    0  502  0.84895725570E+02  0.27583805362E+02  0.25251506834E+03  0.26786093906E+03  0.41800000000E+01 0. -1.
        -11    1    1    2    0    0 -0.13064212339E+03 -0.34272454784E+02  0.28102932730E+03  0.31180033412E+03  0.00000000000E+00 0.  1.
         11    1    1    2    0    0 -0.35284319138E+02  0.37207620116E+02  0.11646295600E+03  0.12725175949E+03  0.00000000000E+00 0. -1.
</event>
<event>
 7    1  0.2612213E-009  0.2708128E+03  0.7561462E-02  0.1100815E+00
         -2   -1    0    0    0  501 -0.00000000000E+00  0.00000000000E+00  0.13095053253E+04  0.13095053253E+04  0.00000000000E+00 0.  1.
          2   -1    0    0  501    0  0.00000000000E+00 -0.00000000000E+00 -0.58232134061E+02  0.58232134061E+02  0.00000000000E+00 0. -1.
         25    2    1    2    0    0  0.10569207941E+02  0.25205221548E+03  0.71401855449E+03  0.76754182209E+03  0.12512363897E+03 0.  0.
          5    1    3    3  502    0  0.88310719943E+01  0.26255882554E+03  0.62772773590E+03  0.68049592762E+03  0.41800000000E+01 0.  1.
         -5    1    3    3    0  502  0.17381359463E+01 -0.10506610055E+02  0.86290818589E+02  0.87045894471E+02  0.41800000000E+01 0.  1.
        -11    1    1    2    0    0  0.14809020360E+02 -0.71167744949E+00  0.34167632405E+02  0.37245679924E+02  0.00000000000E+00 0. -1.
         11    1    1    2    0    0 -0.25378228301E+02 -0.25134053803E+03  0.50308700436E+03  0.56294995735E+03  0.00000000000E+00 0.  1.
</event>
<event>
 7    1  0.2612213E-009  0.1551175E+03  0.7561462E-02  0.1194322E+00
         -2   -1    0    0    0  501 -0.00000000000E+00  0.00000000000E+00  0.18383390887E+02  0.18383390887E+02  0.00000000000E+00 0.  1.
          2   -1    0    0  501    0  0.00000000000E+00 -0.00000000000E+00 -0.16720246342E+04  0.16720246342E+04  0.00000000000E+00 0. -1.
         25    2    1    2    0    0 -0.11994759330E+03 -0.19655694560E+02 -0.11758818697E+04  0.11887471349E+04  0.12509119832E+03 0.  0.
          5    1    3    3  502    0 -0.11150661822E+03 -0.58969471672E+02 -0.71133107676E+03  0.72244065339E+03  0.41800000000E+01 0.  1.
         -5    1    3    3    0  502 -0.84409750839E+01  0.39313777112E+02 -0.46455079293E+03  0.46630648156E+03  0.41800000000E+01 0.  1.
        -11    1    1    2    0    0  0.58568267284E+02  0.48253334795E+02 -0.16440426124E+03  0.18107287860E+03  0.00000000000E+00 0.  1.
         11    1    1    2    0    0  0.61379326019E+02 -0.28597640235E+02 -0.31335511241E+03  0.32058801157E+03  0.00000000000E+00 0. -1.
</event>
<event>
 7    1  0.2612213E-009  0.1502888E+03  0.7561462E-02  0.1200119E+00
         -1   -1    0    0    0  501 -0.00000000000E+00  0.00000000000E+00  0.38629562226E+03  0.38629562226E+03  0.00000000000E+00 0.  1.
          1   -1    0    0  501    0  0.00000000000E+00 -0.00000000000E+00 -0.88693379725E+02  0.88693379725E+02  0.00000000000E+00 0. -1.
         25    2    1    2    0    0 -0.62482927820E+02 -0.13160594173E+03  0.11173295049E+03  0.22216296418E+03  0.12509152753E+03 0.  0.
          5    1    3    3  502    0 -0.87812889525E+01 -0.19371125421E+02 -0.27745065028E+02  0.35208132145E+02  0.41800000000E+01 0. -1.
         -5    1    3    3    0  502 -0.53701638867E+02 -0.11223481631E+03  0.13947801551E+03  0.18695483204E+03  0.41800000000E+01 0. -1.
        -11    1    1    2    0    0  0.22981165845E+02  0.10327318078E+03  0.17258271883E+03  0.20243092326E+03  0.00000000000E+00 0.  1.
         11    1    1    2    0    0  0.39501761975E+02  0.28332760955E+02  0.13286573219E+02  0.50395114548E+02  0.00000000000E+00 0. -1.
</event>
<event>
 7    1  0.2612213E-009  0.8395789E+02  0.7561462E-02  0.1318180E+00
         -1   -1    0    0    0  501 -0.00000000000E+00  0.00000000000E+00  0.21763277006E+03  0.21763277006E+03  0.00000000000E+00 0.  1.
          1   -1    0    0  501    0  0.00000000000E+00 -0.00000000000E+00 -0.62681291723E+02  0.62681291723E+02  0.00000000000E+00 0. -1.
         25    2    1    2    0    0 -0.82632210611E+01  0.36905284162E+02  0.65323920125E+02  0.14609924166E+03  0.12508993986E+03 0.  0.
          5    1    3    3  502    0  0.28550360976E+02  0.88060984879E+01  0.88960232494E+02  0.93936499018E+02  0.41800000000E+01 0. -1.
         -5    1    3    3    0  502 -0.36813582037E+02  0.28099185674E+02 -0.23636312369E+02  0.52162742646E+02  0.41800000000E+01 0. -1.
        -11    1    1    2    0    0 -0.32317685731E+02 -0.38953569283E+02  0.76089769333E+02  0.91386357669E+02  0.00000000000E+00 0.  1.
         11    1    1    2    0    0  0.40580906792E+02  0.20482851211E+01  0.13537788878E+02  0.42828462448E+02  0.00000000000E+00 0. -1.
</event>
<event>
 7    1  0.2612213E-009  0.1293929E+03  0.7561462E-02  0.1228359E+00
         -3   -1    0    0    0  501 -0.00000000000E+00  0.00000000000E+00  0.38812268642E+03  0.38812268642E+03  0.00000000000E+00 0.  1.
          3   -1    0    0  501    0  0.00000000000E+00 -0.00000000000E+00 -0.72238049190E+02  0.72238049190E+02  0.00000000000E+00 0. -1.
         25    2    1    2    0    0  0.49935177520E+02  0.11395334372E+03  0.13575774650E+03  0.22261293813E+03  0.12508983968E+03 0.  0.
          5    1    3    3  502    0  0.40338912171E+02  0.10235133083E+03  0.27824997245E+02  0.11355494543E+03  0.41800000000E+01 0.  1.
         -5    1    3    3    0  502  0.95962653483E+01  0.11602012882E+02  0.10793274925E+03  0.10905799270E+03  0.41800000000E+01 0.  1.
        -11    1    1    2    0    0  0.67600589969E+01 -0.36270968188E+02  0.11707278971E+03  0.12274901068E+03  0.00000000000E+00 0.  1.
         11    1    1    2    0    0 -0.56695236517E+02 -0.77682375529E+02  0.63054101024E+02  0.11499878681E+03  0.00000000000E+00 0. -1.
</event>
<event>
 7    1  0.2612213E-009  0.6409437E+02  0.7561462E-02  0.1381411E+00
          2   -1    0    0  501    0  0.00000000000E+00  0.00000000000E+00  0.12471344091E+03  0.12471344091E+03  0.00000000000E+00 0. -1.
         -2   -1    0    0    0  501 -0.00000000000E+00 -0.00000000000E+00 -0.10888835643E+03  0.10888835643E+03  0.00000000000E+00 0.  1.
         25    2    1    2    0    0 -0.38333632495E+02  0.24135225686E+02  0.19403986448E+02  0.13444922646E+03  0.12509237909E+03 0.  0.
          5    1    3    3  502    0 -0.35818030421E+02  0.42568020324E+02 -0.42206340078E+02  0.69955808911E+02  0.41800000000E+01 0. -1.
         -5    1    3    3    0  502 -0.25156020744E+01 -0.18432794638E+02  0.61610326527E+02  0.64493417545E+02  0.41800000000E+01 0. -1.
        -11    1    1    2    0    0  0.15762150594E+02  0.49452521910E+01 -0.42489449976E+02  0.45587874154E+02  0.00000000000E+00 0.  1.
         11    1    1    2    0    0  0.22571481901E+02 -0.29080477877E+02  0.38910548008E+02  0.53564696723E+02  0.00000000000E+00 0. -1.
</event>
<event>
 7    1  0.2612213E-009  0.1076690E+03  0.7561462E-02  0.1264948E+00
          4   -1    0    0  501    0  0.00000000000E+00  0.00000000000E+00  0.75173855009E+02  0.75173855009E+02  0.00000000000E+00 0. -1.
         -4   -1    0    0    0  501 -0.00000000000E+00 -0.00000000000E+00 -0.19487696163E+03  0.19487696163E+03  0.00000000000E+00 0.  1.
         25    2    1    2    0    0  0.13644688125E+02  0.10182636096E+02 -0.30079420993E+02  0.12977658237E+03  0.12508927281E+03 0.  0.
          5    1    3    3  502    0 -0.23685634051E+02 -0.49603196861E+02 -0.74276873150E+01  0.55624898544E+02  0.41800000000E+01 0. -1.
         -5    1    3    3    0  502  0.37330322176E+02  0.59785832956E+02 -0.22651733678E+02  0.74151683829E+02  0.41800000000E+01 0. -1.
        -11    1    1    2    0    0  0.20427890478E+02 -0.39620016591E+02 -0.55745009562E+01  0.44923484782E+02  0.00000000000E+00 0.  1.
         11    1    1    2    0    0 -0.34072578604E+02  0.29437380495E+02 -0.84049184667E+02  0.95350749480E+02  0.00000000000E+00 0. -1.
</event>
<event>
 6    1  0.2612213E-009  0.1523204E+03  0.7561462E-02  0.1197650E+00
         -2   -1    0    0    0  501 -0.00000000000E+00  0.00000000000E+00  0.43530362430E+02  0.43530362430E+02  0.00000000000E+00 0.  1.
          2   -1    0    0  501    0  0.00000000000E+00 -0.00000000000E+00 -0.72919451304E+03  0.72919451304E+03  0.00000000000E+00 0. -1.
          5    1    1    2  502    0 -0.30643529314E+02  0.70245029500E+02 -0.33684153664E+03  0.34547515578E+03  0.41800000000E+01 0.  1.
         -5    1    1    2    0  502 -0.77455835549E+02  0.14127832000E+02 -0.87240397234E+02  0.11758980146E+03  0.41800000000E+01 0.  1.
        -11    1    1    2    0    0  0.10760399650E+03 -0.57191773381E+02 -0.14242903326E+03  0.18744478792E+03  0.00000000000E+00 0.  1.
         11    1    1    2    0    0  0.49536835960E+00 -0.27181088119E+02 -0.11915318349E+03  0.12221513031E+03  0.00000000000E+00 0. -1.
</event>
<event>
 7    1  0.2612213E-009  0.1006689E+03  0.7561462E-02  0.1278896E+00
         -1   -1    0    0    0  501 -0.00000000000E+00  0.00000000000E+00  0.82005669329E+02  0.82005669329E+02  0.00000000000E+00 0.  1.
          1   -1    0    0  501    0  0.00000000000E+00 -0.00000000000E+00 -0.23168573887E+03  0.23168573887E+03  0.00000000000E+00 0. -1.
         25    2    1    2    0    0  0.67063149387E+02 -0.36088214872E+02 -0.40100512618E+02  0.15183979143E+03  0.12508975134E+03 0.  0.
          5    1    3    3  502    0  0.10027499873E+01  0.14325019237E+02 -0.63636831004E+02  0.65370714727E+02  0.41800000000E+01 0. -1.
         -5    1    3    3    0  502  0.66060399400E+02 -0.50413234109E+02  0.23536318386E+02  0.86469076700E+02  0.41800000000E+01 0. -1.
        -11    1    1    2    0    0 -0.29791118202E+02  0.54116298089E+02 -0.10274838920E+03  0.11988876480E+03  0.00000000000E+00 0. -1.
         11    1    1    2    0    0 -0.37272031185E+02 -0.18028083218E+02 -0.68311677268E+01  0.41962851972E+02  0.00000000000E+00 0.  1.
</event>
<event>
 7    1  0.2612213E-009  0.1448744E+03  0.7561462E-02  0.1206917E+00
         -2   -1    0    0    0  501 -0.00000000000E+00  0.00000000000E+00  0.68500553931E+03  0.68500553931E+03  0.00000000000E+00 0.  1.
          2   -1    0    0  501    0  0.00000000000E+00 -0.00000000000E+00 -0.38421702945E+02  0.38421702945E+02  0.00000000000E+00 0. -1.
         25    2    1    2    0    0 -0.60638322342E+02 -0.92307220351E+02  0.23911842604E+03  0.29158732159E+03  0.12509162790E+03 0.  0.
          5    1    3    3  502    0 -0.67329553202E+02  0.61604472838E+01  0.88133811806E+02  0.11115871998E+03  0.41800000000E+01 0.  1.
         -5    1    3    3    0  502  0.66912308601E+01 -0.98467667634E+02  0.15098461424E+03  0.18042860160E+03  0.41800000000E+01 0.  1.
        -11    1    1    2    0    0  0.25095523845E+02  0.82676419733E+02  0.36739798599E+03  0.37742079408E+03  0.00000000000E+00 0.  1.
         11    1    1    2    0    0  0.35542798498E+02  0.96308006172E+01  0.40067424329E+02  0.54419126582E+02  0.00000000000E+00 0. -1.
</event>
<event>
 7    1  0.2612213E-009  0.1407904E+03  0.7561462E-02  0.1212269E+00
         -2   -1    0    0    0  501 -0.00000000000E+00  0.00000000000E+00  0.62223825235E+02  0.62223825235E+02  0.00000000000E+00 0.  1.
          2   -1    0    0  501    0  0.00000000000E+00 -0.00000000000E+00 -0.77331783768E+03  0.77331783768E+03  0.00000000000E+00 0. -1.
         25    2    1    2    0    0  0.20628133481E+02 -0.10895570830E+03 -0.66262510426E+03  0.68338647059E+03  0.12509265817E+03 0.  0.
          5    1    3    3  502    0  0.67158464981E+02 -0.26911968627E+02 -0.26814138407E+03  0.27776210636E+03  0.41800000000E+01 0. -1.
         -5    1    3    3    0  502 -0.46530331499E+02 -0.82043739674E+02 -0.39448372019E+03  0.40562436424E+03  0.41800000000E+01 0. -1.
        -11    1    1    2    0    0 -0.19890602380E+02  0.31603076197E+02  0.25426425595E+02  0.45176250472E+02  0.00000000000E+00 0.  1.
         11    1    1    2    0    0 -0.73753110191E+00  0.77352632104E+02 -0.73895333783E+02  0.10697894185E+03  0.00000000000E+00 0. -1.
</event>
<event>
 7    1  0.2612213E-009  0.7493653E+02  0.7561462E-02  0.1344068E+00
         -1   -1    0    0    0  501 -0.00000000000E+00  0.00000000000E+00  0.44293082887E+02  0.44293082887E+02  0.00000000000E+00 0.  1.
          1   -1    0    0  501    0  0.00000000000E+00 -0.00000000000E+00 -0.25903679392E+03  0.25903679392E+03  0.00000000000E+00 0. -1.
         25    2    1    2    0    0  0.25552367412E+01  0.37795834743E+01 -0.12181049688E+03  0.17466259332E+03  0.12509360443E+03 0.  0.
          5    1    3    3  502    0  0.15777475759E+02  0.46097616386E+02 -0.12057389096E+03  0.13011323745E+03  0.41800000000E+01 0.  1.
         -5    1    3    3    0  502 -0.13222239018E+02 -0.42318032912E+02 -0.12366059137E+01  0.44549355869E+02  0.41800000000E+01 0.  1.
        -11    1    1    2    0    0  0.81575020427E+01 -0.28421605724E+02 -0.97076375458E+02  0.10147982649E+03  0.00000000000E+00 0. -1.
         11    1    1    2    0    0 -0.10712738784E+02  0.24642022249E+02  0.41431612990E+01  0.27187457004E+02  0.00000000000E+00 0.  1.
</event>
<event>
 7    1  0.2612213E-009  0.9423553E+02  0.7561462E-02  0.1292907E+00
          3   -1    0    0  501    0  0.00000000000E+00  0.00000000000E+00  0.18875622414E+02  0.18875622414E+02  0.00000000000E+00 0. -1.
         -3   -1    0    0    0  501 -0.00000000000E+00 -0.00000000000E+00 -0.85793832726E+03  0.85793832726E+03  0.00000000000E+00 0.  1.
         25    2    1    2    0    0 -0.84737216864E+01 -0.50632236147E+02 -0.60364611172E+03  0.61860501945E+03  0.12509242423E+03 0.  0.
          5    1    3    3  502    0 -0.45017415152E+02 -0.34084781472E+02 -0.11385912091E+03  0.12716018170E+03  0.41800000000E+01 0. -1.
         -5    1    3    3    0  502  0.36543693465E+02 -0.16547454676E+02 -0.48978699081E+03  0.49144483776E+03  0.41800000000E+01 0. -1.
        -11    1    1    2    0    0 -0.18384501340E+02 -0.12955738175E+02 -0.13179961671E+03  0.13370482417E+03  0.00000000000E+00 0.  1.
         11    1    1    2    0    0  0.26858223026E+02  0.63587974323E+02 -0.10361697642E+03  0.12450410605E+03  0.00000000000E+00 0. -1.
</event>
<event>
 7    1  0.2612213E-009  0.1547960E+03  0.7561462E-02  0.1194701E+00
          2   -1    0    0  501    0  0.00000000000E+00  0.00000000000E+00  0.11156019666E+03  0.11156019666E+03  0.00000000000E+00 0. -1.
         -2   -1    0    0    0  501 -0.00000000000E+00 -0.00000000000E+00 -0.26065988759E+03  0.26065988759E+03  0.00000000000E+00 0.  1.
         25    2    1    2    0    0  0.21559754571E+02 -0.11715689120E+03 -0.20810402487E+02  0.17398372665E+03  0.12508678632E+03 0.  0.
          5    1    3    3  502    0  0.54686543694E+02 -0.20947007806E+02  0.23087392069E+02  0.63086411134E+02  0.41800000000E+01 0. -1.
         -5    1    3    3    0  502 -0.33126789123E+02 -0.96209883396E+02 -0.43897794556E+02  0.11089731551E+03  0.41800000000E+01 0. -1.
        -11    1    1    2    0    0  0.14298449126E+02  0.11189005425E+03 -0.11033557067E+03  0.15779026600E+03  0.00000000000E+00 0.  1.
         11    1    1    2    0    0 -0.35858203697E+02  0.52668369495E+01 -0.17953717771E+02  0.40446091599E+02  0.00000000000E+00 0. -1.
</event>
<event>
 7    1  0.2612213E-009  0.1757721E+03  0.7561462E-02  0.1171959E+00
          2   -1    0    0  501    0  0.00000000000E+00  0.00000000000E+00  0.70073666858E+03  0.70073666858E+03  0.00000000000E+00 0. -1.
         -2   -1    0    0    0  501 -0.00000000000E+00 -0.00000000000E+00 -0.11914149463E+03  0.11914149463E+03  0.00000000000E+00 0.  1.
         25    2    1    2    0    0  0.10879396471E+03 -0.13286032032E+03  0.65288381211E+01  0.21253712968E+03  0.12506563993E+03 0.  0.
          5    1    3    3  502    0  0.57364431091E+02 -0.10417817541E+03 -0.51582429361E+02  0.12969961297E+03  0.41800000000E+01 0.  1.
         -5    1    3    3    0  502  0.51429533624E+02 -0.28682144910E+02  0.58111267483E+02  0.82837516705E+02  0.41800000000E+01 0.  1.
        -11    1    1    2    0    0 -0.98950255021E+01  0.26426769957E+02  0.22786374240E+02  0.36269884905E+02  0.00000000000E+00 0.  1.
         11    1    1    2    0    0 -0.98898939212E+02  0.10643355037E+03  0.55227996158E+03  0.57107114862E+03  0.00000000000E+00 0. -1.
</event>
<event>
 7    1  0.2612213E-009  0.1125414E+03  0.7561462E-02  0.1255935E+00
         -2   -1    0    0    0  501 -0.00000000000E+00  0.00000000000E+00  0.10724832768E+03  0.10724832768E+03  0.00000000000E+00 0.  1.
          2   -1    0    0  501    0  0.00000000000E+00 -0.00000000000E+00 -0.26939297368E+03  0.26939297368E+03  0.00000000000E+00 0. -1.
         25    2    1    2    0    0  0.41076453242E+02  0.12413917953E+02 -0.22289925757E+03  0.25917824116E+03  0.12509157164E+03 0.  0.
          5    1    3    3  502    0 -0.39943601615E+02  0.17303278277E+02 -0.40988649255E+02  0.59936937833E+02  0.41800000000E+01 0.  1.
         -5    1    3    3    0  502  0.81020054858E+02 -0.48893603241E+01 -0.18191060831E+03  0.19924130333E+03  0.41800000000E+01 0.  1.
        -11    1    1    2    0    0 -0.66293488636E+02 -0.26264541155E+02  0.48222118397E+02  0.86081504752E+02  0.00000000000E+00 0. -1.
         11    1    1    2    0    0  0.25217035394E+02  0.13850623203E+02  0.12532493169E+02  0.31381555445E+02  0.00000000000E+00 0.  1.
</event>
<event>
 7    1  0.2612213E-009  0.1368305E+03  0.7561462E-02  0.1217659E+00
         -2   -1    0    0    0  501 -0.00000000000E+00  0.00000000000E+00  0.98520565610E+02  0.98520565610E+02  0.00000000000E+00 0. -1.
          2   -1    0    0  501    0  0.00000000000E+00 -0.00000000000E+00 -0.56933536737E+03  0.56933536737E+03  0.00000000000E+00 0.  1.
         25    2    1    2    0    0  0.35875251033E+02  0.10528172607E+03 -0.49746604750E+03  0.52486926045E+03  0.12507596360E+03 0.  0.
          5    1    3    3  502    0  0.22694071467E+02  0.11434724644E+03 -0.49449708223E+03  0.50807002508E+03  0.41800000000E+01 0.  1.
         -5    1    3    3    0  502  0.13181179566E+02 -0.90655203672E+01 -0.29689652645E+01  0.16799235370E+02  0.41800000000E+01 0.  1.
        -11    1    1    2    0    0  0.27273245408E+02 -0.17749772456E+02  0.55613356240E+01  0.33012312722E+02  0.00000000000E+00 0.  1.
         11    1    1    2    0    0 -0.63148496442E+02 -0.87531953612E+02  0.21089910116E+02  0.10997435981E+03  0.00000000000E+00 0. -1.
</event>
<event>
 7    1  0.2612213E-009  0.2676094E+03  0.7561462E-02  0.1102656E+00
         -2   -1    0    0    0  501 -0.00000000000E+00  0.00000000000E+00  0.31376741182E+03  0.31376741182E+03  0.00000000000E+00 0.  1.
          2   -1    0    0  501    0  0.00000000000E+00 -0.00000000000E+00 -0.30674921552E+03  0.30674921552E+03  0.00000000000E+00 0. -1.
         25    2    1    2    0    0 -0.15450446186E+03 -0.19316007938E+03  0.15630273371E+03  0.31821412496E+03  0.12508892739E+03 0.  0.
          5    1    3    3  502    0 -0.92168528260E+02 -0.27230026317E+02  0.30871632304E+02  0.10102990654E+03  0.41800000000E+01 0.  1.
         -5    1    3    3    0  502 -0.62335933602E+02 -0.16593005307E+03  0.12543110141E+03  0.21718421842E+03  0.41800000000E+01 0.  1.
        -11    1    1    2    0    0  0.27739014929E+02  0.10167048155E+03 -0.46375123526E+02  0.11513901098E+03  0.00000000000E+00 0. -1.
         11    1    1    2    0    0  0.12676544693E+03  0.91489597831E+02 -0.10290941389E+03  0.18716349140E+03  0.00000000000E+00 0.  1.
</event>
<event>
 7    1  0.2612213E-009  0.1430088E+03  0.7561462E-02  0.1209337E+00
         -1   -1    0    0    0  501 -0.00000000000E+00  0.00000000000E+00  0.36349045835E+02  0.36349045835E+02  0.00000000000E+00 0.  1.
          1   -1    0    0  501    0  0.00000000000E+00 -0.00000000000E+00 -0.83812844355E+03  0.83812844355E+03  0.00000000000E+00 0. -1.
         25    2    1    2    0    0 -0.10813045998E+03 -0.74944169763E+02 -0.51895933607E+03  0.54979567606E+03  0.12509063896E+03 0.  0.
          5    1    3    3  502    0 -0.89728675100E+02 -0.61657259979E+02 -0.18251501197E+03  0.21256070859E+03  0.41800000000E+01 0. -1.
         -5    1    3    3    0  502 -0.18401784884E+02 -0.13286909785E+02 -0.33644432411E+03  0.33723496747E+03  0.41800000000E+01 0. -1.
        -11    1    1    2    0    0  0.36002234577E+02  0.73501272180E+02 -0.10759008604E+03  0.13518219010E+03  0.00000000000E+00 0.  1.
         11    1    1    2    0    0  0.72128225407E+02  0.14428975834E+01 -0.17522997561E+03  0.18949962323E+03  0.00000000000E+00 0. -1.
</event>
<event>
 7    1  0.2612213E-009  0.1268024E+03  0.7561462E-02  0.1232279E+00
          1   -1    0    0  501    0  0.00000000000E+00  0.00000000000E+00  0.16756731330E+03  0.16756731330E+03  0.00000000000E+00 0. -1.
         -1   -1    0    0    0  501 -0.00000000000E+00 -0.00000000000E+00 -0.34626839147E+03  0.34626839147E+03  0.00000000000E+00 0.  1.
         25    2    1    2    0    0  0.34629582226E+02 -0.10055783543E+03 -0.29092835386E+03  0.33406233181E+03  0.12508896123E+03 0.  0.
          5    1    3    3  502    0  0.10818327282E+02  0.84711237801E+01  0.69371874025E+01  0.15949705713E+02  0.41800000000E+01 0.  1.
         -5    1    3    3    0  502  0.23811254943E+02 -0.10902895921E+03 -0.29786554127E+03  0.31811262610E+03  0.41800000000E+01 0.  1.
        -11    1    1    2    0    0  0.21863825768E+02  0.31499675723E+02  0.26064089306E+01  0.38432405797E+02  0.00000000000E+00 0.  1.
         11    1    1    2    0    0 -0.56493407993E+02  0.69058159707E+02  0.10962086677E+03  0.14134096717E+03  0.00000000000E+00 0. -1.
</event>
<event>
 7    1  0.2612213E-009  0.1103604E+03  0.7561462E-02  0.1259904E+00
         -2   -1    0    0    0  501 -0.00000000000E+00  0.00000000000E+00  0.49710958122E+02  0.49710958122E+02  0.00000000000E+00 0.  1.
          2   -1    0    0  501    0  0.00000000000E+00 -0.00000000000E+00 -0.29163192199E+03  0.29163192199E+03  0.00000000000E+00 0. -1.
         25    2    1    2    0    0 -0.14973264271E+02  0.32597620018E+02 -0.17418205178E+03  0.21742547465E+03  0.12509055276E+03 0.  0.
          5    1    3    3  502    0 -0.29442980301E+02 -0.41120155330E+02 -0.97953750470E+02  0.11031847486E+03  0.41800000000E+01 0. -1.
         -5    1    3    3    0  502  0.14469716030E+02  0.73717775348E+02 -0.76228301307E+02  0.10710699979E+03  0.41800000000E+01 0. -1.
        -11    1    1    2    0    0  0.51132525488E+02 -0.27960546611E+02 -0.15657235038E+02  0.60344646313E+02  0.00000000000E+00 0.  1.
         11    1    1    2    0    0 -0.36159261217E+02 -0.46370734070E+01 -0.52081677049E+02  0.63572759149E+02  0.00000000000E+00 0. -1.
</event>
<event>
 7    1  0.2612213E-009  0.1122389E+03  0.7561462E-02  0.1256479E+00
          1   -1    0    0  501    0  0.00000000000E+00  0.00000000000E+00  0.18634952938E+03  0.18634952938E+03  0.00000000000E+00 0. -1.
         -1   -1    0    0    0  501 -0.00000000000E+00 -0.00000000000E+00 -0.16279680245E+03  0.16279680245E+03  0.00000000000E+00 0.  1.
         25    2    1    2    0    0 -0.47084561102E+02 -0.32342624936E+02  0.13538848805E+03  0.19297373077E+03  0.12508323944E+03 0.  0.
          5    1    3    3  502    0  0.40698722549E+02 -0.18920435811E+02  0.26079644331E+02  0.52076762158E+02  0.41800000000E+01 0. -1.
         -5    1    3    3    0  502 -0.87783283651E+02 -0.13422189125E+02  0.10930884371E+03  0.14089696861E+03  0.41800000000E+01 0. -1.
        -11    1    1    2    0    0 -0.18068288744E+02  0.73061215911E+00 -0.70513979095E+02  0.72795728584E+02  0.00000000000E+00 0.  1.
         11    1    1    2    0    0  0.65152849846E+02  0.31612012777E+02 -0.41321782021E+02  0.83376872479E+02  0.00000000000E+00 0. -1.
</event>
<event>
 7    1  0.2612213E-009  0.1062397E+03  0.7561462E-02  0.1267696E+00
         -3   -1    0    0    0  501 -0.00000000000E+00  0.00000000000E+00  0.89627814180E+02  0.89627814180E+02  0.00000000000E+00 0. -1.
          3   -1    0    0  501    0  0.00000000000E+00 -0.00000000000E+00 -0.21563802743E+03  0.21563802743E+03  0.00000000000E+00 0.  1.
         25    2    1    2    0    0  0.29268122762E+01 -0.49575329518E+02 -0.47693704030E+01  0.13467169111E+03  0.12508971967E+03 0.  0.
          5    1    3    3  502    0  0.50877511516E+02 -0.29517787536E+02 -0.40431846040E+02  0.71498444271E+02  0.41800000000E+01 0.  1.
         -5    1    3    3    0  502 -0.47950699239E+02 -0.20057541982E+02  0.35662475637E+02  0.63173246841E+02  0.41800000000E+01 0.  1.
        -11    1    1    2    0    0  0.22896026713E+02 -0.17936061246E+02 -0.84794404620E+02  0.89643858614E+02  0.00000000000E+00 0.  1.
         11    1    1    2    0    0 -0.25822838990E+02  0.67511390764E+02 -0.36446438223E+02  0.80950291880E+02  0.00000000000E+00 0. -1.
</event>
<event>
 7    1  0.2612213E-009  0.9837456E+02  0.7561462E-02  0.1283752E+00
         -2   -1    0    0    0  501 -0.00000000000E+00  0.00000000000E+00  0.38485539731E+02  0.38485539731E+02  0.00000000000E+00 0.  1.
          2   -1    0    0  501    0  0.00000000000E+00 -0.00000000000E+00 -0.32616678857E+03  0.32616678857E+03  0.00000000000E+00 0. -1.
         25    2    1    2    0    0  0.40089885139E+01  0.18485021324E+02 -0.12705134171E+03  0.17929899526E+03  0.12509323829E+03 0.  0.
          5    1    3    3  502    0 -0.49320159933E+02  0.22470440505E+02 -0.11052621378E+03  0.12317026916E+03  0.41800000000E+01 0.  1.
         -5    1    3    3    0  502  0.53329148447E+02 -0.39854191816E+01 -0.16525127934E+02  0.56128726097E+02  0.41800000000E+01 0.  1.
        -11    1    1    2    0    0 -0.17680393981E+02  0.31938345523E+02 -0.41499851312E+02  0.55271076568E+02  0.00000000000E+00 0.  1.
         11    1    1    2    0    0  0.13671405467E+02 -0.50423366847E+02 -0.11913005581E+03  0.13008225647E+03  0.00000000000E+00 0. -1.
</event>
<event>
 7    1  0.2612213E-009  0.1042222E+03  0.7561462E-02  0.1271660E+00
          2   -1    0    0  501    0  0.00000000000E+00  0.00000000000E+00  0.12530067176E+04  0.12530067176E+04  0.00000000000E+00 0. -1.
         -2   -1    0    0    0  501 -0.00000000000E+00 -0.00000000000E+00 -0.16763752253E+02  0.16763752253E+02  0.00000000000E+00 0.  1.
         25    2    1    2    0    0 -0.80721638413E+02 -0.22801047840E+02  0.87734725740E+03  0.89018070881E+03  0.12509042165E+03 0.  0.
          5    1    3    3  502    0 -0.63204957012E+02  0.20911240267E+02  0.19299993273E+03  0.20420233347E+03  0.41800000000E+01 0.  1.
         -5    1    3    3    0  502 -0.17516681401E+02 -0.43712288107E+02  0.68434732467E+03  0.68597837535E+03  0.41800000000E+01 0.  1.
        -11    1    1    2    0    0  0.23085832315E+02 -0.13115756076E+02  0.18196945152E+02  0.32188624140E+02  0.00000000000E+00 0.  1.
         11    1    1    2    0    0  0.57635806098E+02  0.35916803916E+02  0.34069876279E+03  0.34740113689E+03  0.00000000000E+00 0. -1.
</event>
<event>
 7    1  0.2612213E-009  0.1189102E+03  0.7561462E-02  0.1244906E+00
          1   -1    0    0  501    0  0.00000000000E+00  0.00000000000E+00  0.26130445424E+02  0.26130445424E+02  0.00000000000E+00 0. -1.
         -1   -1    0    0    0  501 -0.00000000000E+00 -0.00000000000E+00 -0.77170282467E+03  0.77170282467E+03  0.00000000000E+00 0.  1.
         25    2    1    2    0    0 -0.85847866495E+02  0.39179145302E+02 -0.43317033414E+03  0.46064102500E+03  0.12509497964E+03 0.  0.
          5    1    3    3  502    0 -0.63954999534E+02 -0.16326675902E+02 -0.36051849203E+03  0.36653493395E+03  0.41800000000E+01 0.  1.
         -5    1    3    3    0  502 -0.21892866961E+02  0.55505821204E+02 -0.72651842102E+02  0.94106091047E+02  0.41800000000E+01 0.  1.
        -11    1    1    2    0    0  0.65599430137E+02 -0.55448067960E+02 -0.29138080999E+03  0.30377713855E+03  0.00000000000E+00 0.  1.
         11    1    1    2    0    0  0.20248436358E+02  0.16268922658E+02 -0.21021235124E+02  0.33415106547E+02  0.00000000000E+00 0. -1.
</event>
<event>
 7    1  0.2612213E-009  0.1162696E+03  0.7561462E-02  0.1249381E+00
          2   -1    0    0  501    0  0.00000000000E+00  0.00000000000E+00  0.39526320123E+03  0.39526320123E+03  0.00000000000E+00 0.  1.
         -2   -1    0    0    0  501 -0.00000000000E+00 -0.00000000000E+00 -0.53752735309E+02  0.53752735309E+02  0.00000000000E+00 0. -1.
         25    2    1    2    0    0  0.98191837827E+02  0.29001972192E+02  0.19940240461E+03  0.25669368879E+03  0.12509028537E+03 0.  0.
          5    1    3    3  502    0  0.34145763350E+02 -0.55143464096E+01  0.17708273184E+03  0.18047744316E+03  0.41800000000E+01 0. -1.
         -5    1    3    3    0  502  0.64046074476E+02  0.34516318602E+02  0.22319672762E+02  0.76216245630E+02  0.41800000000E+01 0. -1.
        -11    1    1    2    0    0 -0.45340893395E+02  0.22860179115E+02  0.33350831623E+02  0.60750821994E+02  0.00000000000E+00 0.  1.
         11    1    1    2    0    0 -0.52850944432E+02 -0.51862151307E+02  0.10875722969E+03  0.13157142575E+03  0.00000000000E+00 0. -1.
</event>
<event>
 7    1  0.2612213E-009  0.1000990E+03  0.7561462E-02  0.1280088E+00
         -1   -1    0    0    0  501 -0.00000000000E+00  0.00000000000E+00  0.15808792713E+03  0.15808792713E+03  0.00000000000E+00 0.  1.
          1   -1    0    0  501    0  0.00000000000E+00 -0.00000000000E+00 -0.89757479777E+02  0.89757479777E+02  0.00000000000E+00 0. -1.
         25    2    1    2    0    0 -0.36022536181E+02  0.29191720142E+02  0.22718972754E+02  0.13532722684E+03  0.12509007540E+03 0.  0.
          5    1    3    3  502    0 -0.47607171529E+02  0.73163996233E+02  0.10231512265E+02  0.87986188512E+02  0.41800000000E+01 0.  1.
         -5    1    3    3    0  502  0.11584635348E+02 -0.43972276090E+02  0.12487460488E+02  0.47341038330E+02  0.41800000000E+01 0.  1.
        -11    1    1    2    0    0 -0.94320336017E+01 -0.18016709739E+02  0.60157591610E+02  0.63501975686E+02  0.00000000000E+00 0.  1.
         11    1    1    2    0    0  0.45454569782E+02 -0.11175010404E+02 -0.14546117011E+02  0.49016204379E+02  0.00000000000E+00 0. -1.
</event>
<event>
 7    1  0.2612213E-009  0.1223334E+03  0.7561462E-02  0.1239297E+00
          2   -1    0    0  501    0  0.00000000000E+00  0.00000000000E+00  0.20926673476E+03  0.20926673476E+03  0.00000000000E+00 0.  1.
         -2   -1    0    0    0  501 -0.00000000000E+00 -0.00000000000E+00 -0.90589833305E+02  0.90589833305E+02  0.00000000000E+00 0. -1.
         25    2    1    2    0    0 -0.74805305508E+02  0.33900674900E+02  0.73023684673E+02  0.16650694620E+03  0.12508802948E+03 0.  0.
          5    1    3    3  502    0 -0.65386664315E+02 -0.32927712345E+02  0.65766355061E+02  0.98500436388E+02  0.41800000000E+01 0. -1.
         -5    1    3    3    0  502 -0.94186411922E+01  0.66828387245E+02  0.72573296112E+01  0.68006509812E+02  0.41800000000E+01 0. -1.
        -11    1    1    2    0    0  0.65766725752E+02  0.28947888631E+01  0.63502033314E+02  0.91466661980E+02  0.00000000000E+00 0.  1.
         11    1    1    2    0    0  0.90385797551E+01 -0.36795463763E+02 -0.17848816529E+02  0.41882959888E+02  0.00000000000E+00 0. -1.
</event>
<event>
 7    1  0.2612213E-009  0.1051551E+03  0.7561462E-02  0.1269814E+00
         -3   -1    0    0    0  501 -0.00000000000E+00  0.00000000000E+00  0.19055227837E+03  0.19055227837E+03  0.00000000000E+00 0.  1.
          3   -1    0    0  501    0  0.00000000000E+00 -0.00000000000E+00 -0.71956289644E+02  0.71956289644E+02  0.00000000000E+00 0. -1.
         25    2    1    2    0    0  0.28368668163E+02 -0.82612736790E+01  0.30908799716E+02  0.13219510495E+03  0.12508861618E+03 0.  0.
          5    1    3    3  502    0  0.29166502092E+02  0.50211708622E+02 -0.12126658159E+02  0.59467880113E+02  0.41800000000E+01 0. -1.
         -5    1    3    3    0  502 -0.79783392868E+00 -0.58472982301E+02  0.43035457875E+02  0.72727224838E+02  0.41800000000E+01 0. -1.
        -11    1    1    2    0    0  0.98630271483E+01  0.41590714910E+02  0.24428922593E+02  0.49232500752E+02  0.00000000000E+00 0.  1.
         11    1    1    2    0    0 -0.38231695312E+02 -0.33329441231E+02  0.63258266412E+02  0.81080962307E+02  0.00000000000E+00 0. -1.
</event>
<event>
 7    1  0.2612213E-009  0.1329872E+03  0.7561462E-02  0.1223089E+00
          2   -1    0    0  501    0  0.00000000000E+00  0.00000000000E+00  0.64386083758E+02  0.64386083758E+02  0.00000000000E+00 0. -1.
         -2   -1    0    0    0  501 -0.00000000000E+00 -0.00000000000E+00 -0.35572129015E+03  0.35572129015E+03  0.00000000000E+00 0.  1.
         25    2    1    2    0    0 -0.92265517735E+02  0.10679082843E+02 -0.19718648563E+03  0.25131147145E+03  0.12509187421E+03 0.  0.
          5    1    3    3  502    0  0.52283718263E+01  0.28193000331E+02  0.17600042187E+01  0.29030176618E+02  0.41800000000E+01 0.  1.
         -5    1    3    3    0  502 -0.97493889561E+02 -0.17513917488E+02 -0.19894648985E+03  0.22228129483E+03  0.41800000000E+01 0.  1.
        -11    1    1    2    0    0  0.65021841138E+02 -0.55444304069E+02 -0.43375677500E+02  0.95829849615E+02  0.00000000000E+00 0. -1.
         11    1    1    2    0    0  0.27243676597E+02  0.44765221226E+02 -0.50773043262E+02  0.72966052847E+02  0.00000000000E+00 0.  1.
</event>
<event>
 7    1  0.2612213E-009  0.1042348E+03  0.7561462E-02  0.1271635E+00
          2   -1    0    0  501    0  0.00000000000E+00  0.00000000000E+00  0.68723420892E+03  0.68723420892E+03  0.00000000000E+00 0. -1.
         -2   -1    0    0    0  501 -0.00000000000E+00 -0.00000000000E+00 -0.28771132823E+02  0.28771132823E+02  0.00000000000E+00 0.  1.
         25    2    1    2    0    0  0.62359665029E+02 -0.61171307837E+02  0.36062649869E+03  0.39157174019E+03  0.12508516874E+03 0.  0.
          5    1    3    3  502    0 -0.66052305762E+01 -0.45300279009E+02  0.28193160235E+03  0.28565476568E+03  0.41800000000E+01 0.  1.
         -5    1    3    3    0  502  0.68964895605E+02 -0.15871028828E+02  0.78694896336E+02  0.10591697452E+03  0.41800000000E+01 0.  1.
        -11    1    1    2    0    0 -0.16065694382E+02  0.34803004663E+02  0.23479548816E+02  0.44951583756E+02  0.00000000000E+00 0.  1.
         11    1    1    2    0    0 -0.46293970646E+02  0.26368303174E+02  0.27435702859E+03  0.27948201779E+03  0.00000000000E+00 0. -1.
</event>
<event>
 7    1  0.2612213E-009  0.1459077E+03  0.7561462E-02  0.1205594E+00
         -2   -1    0    0    0  501 -0.00000000000E+00  0.00000000000E+00  0.40529759620E+03  0.40529759620E+03  0.00000000000E+00 0.  1.
          2   -1    0    0  501    0  0.00000000000E+00 -0.00000000000E+00 -0.15344314282E+03  0.15344314282E+03  0.00000000000E+00 0. -1.
         25    2    1    2    0    0  0.96686837611E+02  0.29296578885E+02 -0.95015129510E+02  0.18676731807E+03  0.12509005620E+03 0.  0.
          5    1    3    3  502    0  0.22305958260E+02  0.71238471868E+02 -0.36768320974E+02  0.83317810072E+02  0.41800000000E+01 0. -1.
         -5    1    3    3    0  502  0.74380879351E+02 -0.41941892983E+02 -0.58246808537E+02  0.10344950800E+03  0.41800000000E+01 0. -1.
        -11    1    1    2    0    0 -0.79001224272E+02 -0.57885999812E+02  0.22172490237E+03  0.24239206823E+03  0.00000000000E+00 0. -1.
         11    1    1    2    0    0 -0.17685613340E+02  0.28589420927E+02  0.12514468052E+03  0.12958135271E+03  0.00000000000E+00 0.  1.
</event>
<event>
 7    1  0.2612213E-009  0.1575480E+03  0.7561462E-02  0.1191493E+00
          3   -1    0    0  501    0  0.00000000000E+00  0.00000000000E+00  0.56460604832E+03  0.56460604832E+03  0.00000000000E+00 0. -1.
         -3   -1    0    0    0  501 -0.00000000000E+00 -0.00000000000E+00 -0.75497433244E+02  0.75497433244E+02  0.00000000000E+00 0.  1.
         25    2    1    2    0    0 -0.82318328685E+01 -0.14548892745E+03  0.40013306829E+03  0.44383734183E+03  0.12510124930E+03 0.  0.
          5    1    3    3  502    0  0.38291912837E+02 -0.54513628615E+02  0.27107787961E+03  0.27917502665E+03  0.41800000000E+01 0. -1.
         -5    1    3    3    0  502 -0.46523745705E+02 -0.90975298831E+02  0.12905518868E+03  0.16466231517E+03  0.41800000000E+01 0. -1.
        -11    1    1    2    0    0  0.22129316001E+01  0.11397740708E+03  0.10959061056E+03  0.15813237592E+03  0.00000000000E+00 0. -1.
         11    1    1    2    0    0  0.60189012684E+01  0.31511520366E+02 -0.20615063778E+02  0.38133763817E+02  0.00000000000E+00 0.  1.
</event>
<event>
 7    1  0.2612213E-009  0.1145484E+03  0.7561462E-02  0.1252371E+00
          2   -1    0    0  501    0  0.00000000000E+00  0.00000000000E+00  0.26147449405E+03  0.26147449405E+03  0.00000000000E+00 0. -1.
         -2   -1    0    0    0  501 -0.00000000000E+00 -0.00000000000E+00 -0.85481723009E+02  0.85481723009E+02  0.00000000000E+00 0.  1.
         25    2    1    2    0    0  0.42532240302E+02 -0.87312751842E+02  0.59581354078E+02  0.16917436083E+03  0.12505006401E+03 0.  0.
          5    1    3    3  502    0  0.46146456518E+02 -0.31096723610E+01 -0.22368367064E+02  0.51545918911E+02  0.41800000000E+01 0. -1.
         -5    1    3    3    0  502 -0.36142162152E+01 -0.84203079481E+02  0.81949721141E+02  0.11762844192E+03  0.41800000000E+01 0. -1.
        -11    1    1    2    0    0 -0.62119957614E+01  0.28341295601E+02 -0.12383270833E+02  0.31546209348E+02  0.00000000000E+00 0.  1.
         11    1    1    2    0    0 -0.36320244541E+02  0.58971456241E+02  0.12879468780E+03  0.14623564689E+03  0.00000000000E+00 0. -1.
</event>
<event>
 7    1  0.2612213E-009  0.1048138E+03  0.7561462E-02  0.1270487E+00
         -1   -1    0    0    0  501 -0.00000000000E+00  0.00000000000E+00  0.77255768888E+02  0.77255768888E+02  0.00000000000E+00 0.  1.
          1   -1    0    0  501    0  0.00000000000E+00 -0.00000000000E+00 -0.19800613713E+03  0.19800613713E+03  0.00000000000E+00 0. -1.
         25    2    1    2    0    0 -0.51990362655E+02 -0.13083521034E+02 -0.56479256363E+02  0.14734794427E+03  0.12508930390E+03 0.  0.
          5    1    3    3  502    0 -0.81931196122E+02  0.17628956335E+02 -0.10890556721E+02  0.84614287358E+02  0.41800000000E+01 0.  1.
         -5    1    3    3    0  502  0.29940833467E+02 -0.30712477369E+02 -0.45588699642E+02  0.62733656915E+02  0.41800000000E+01 0.  1.
        -11    1    1    2    0    0  0.29830206413E+02  0.38627821140E+02 -0.77511967789E+02  0.91597243033E+02  0.00000000000E+00 0. -1.
         11    1    1    2    0    0  0.22160156242E+02 -0.25544300106E+02  0.13240855912E+02  0.36316718710E+02  0.00000000000E+00 0.  1.
</event>
<event>
 7    1  0.2612213E-009  0.1279839E+03  0.7561462E-02  0.1230478E+00
         -1   -1    0    0    0  501 -0.00000000000E+00  0.00000000000E+00  0.27321151071E+03  0.27321151071E+03  0.00000000000E+00 0.  1.
          1   -1    0    0  501    0  0.00000000000E+00 -0.00000000000E+00 -0.92335354945E+02  0.92335354945E+02  0.00000000000E+00 0. -1.
         25    2    1    2    0    0  0.39745944529E+02  0.71931913662E+02  0.19113701254E+03  0.24276478764E+03  0.12508974476E+03 0.  0.
          5    1    3    3  502    0 -0.33833826907E+02 -0.11506658998E+01  0.12817990171E+02  0.36439335164E+02  0.41800000000E+01 0. -1.
         -5    1    3    3    0  502  0.73579771436E+02  0.73082579562E+02  0.17831902237E+03  0.20632545248E+03  0.41800000000E+01 0. -1.
        -11    1    1    2    0    0  0.25477078954E+02 -0.79200367210E+01 -0.16181921070E+02  0.31203575167E+02  0.00000000000E+00 0. -1.
         11    1    1    2    0    0 -0.65223023483E+02 -0.64011876941E+02  0.59210642954E+01  0.91578502849E+02  0.00000000000E+00 0.  1.
</event>
<event>
 7    1  0.2612213E-009  0.1173953E+03  0.7561462E-02  0.1247457E+00
          2   -1    0    0  501    0  0.00000000000E+00  0.00000000000E+00  0.28425808100E+03  0.28425808100E+03  0.00000000000E+00 0. -1.
         -2   -1    0    0    0  501 -0.00000000000E+00 -0.00000000000E+00 -0.68903149246E+02  0.68903149246E+02  0.00000000000E+00 0.  1.
         25    2    1    2    0    0 -0.30347027113E+02  0.76220308746E+02  0.69221041867E+02  0.16482294702E+03  0.12507827032E+03 0.  0.
          5    1    3    3  502    0  0.37368134348E+02  0.59100205137E+02  0.63622953120E+02  0.94628559513E+02  0.41800000000E+01 0.  1.
         -5    1    3    3    0  502 -0.67715161461E+02  0.17120103609E+02  0.55980887475E+01  0.70194387503E+02  0.41800000000E+01 0.  1.
        -11    1    1    2    0    0 -0.42123005066E+01 -0.52929763875E+02  0.22139856533E+02  0.57528050782E+02  0.00000000000E+00 0.  1.
         11    1    1    2    0    0  0.34559327620E+02 -0.23290544871E+02  0.12399403335E+03  0.13081023245E+03  0.00000000000E+00 0. -1.
</event>
<event>
 7    1  0.2612213E-009  0.2253469E+03  0.7561462E-02  0.1129958E+00
          1   -1    0    0  501    0  0.00000000000E+00  0.00000000000E+00  0.60207184016E+03  0.60207184016E+03  0.00000000000E+00 0. -1.
         -1   -1    0    0    0  501 -0.00000000000E+00 -0.00000000000E+00 -0.93548427397E+02  0.93548427397E+02  0.00000000000E+00 0.  1.
         25    2    1    2    0    0 -0.15342559540E+03 -0.12733276305E+03  0.36235500029E+03  0.43209096978E+03  0.12509362119E+03 0.  0.
          5    1    3    3  502    0 -0.17393652922E+03 -0.12142803315E+03  0.31274402935E+03  0.37792192808E+03  0.41800000000E+01 0.  1.
         -5    1    3    3    0  502  0.20510933817E+02 -0.59047298982E+01  0.49610970945E+02  0.54169041705E+02  0.41800000000E+01 0.  1.
        -11    1    1    2    0    0  0.14282093451E+03  0.71080763057E+02  0.89228300993E+02  0.18278945241E+03  0.00000000000E+00 0. -1.
         11    1    1    2    0    0  0.10604660884E+02  0.56251999989E+02  0.56940111481E+02  0.80739845372E+02  0.00000000000E+00 0.  1.
</event>
<event>
 7    1  0.2612213E-009  0.1293478E+03  0.7561462E-02  0.1228427E+00
         -2   -1    0    0    0  501 -0.00000000000E+00  0.00000000000E+00  0.23538782036E+02  0.23538782036E+02  0.00000000000E+00 0.  1.
          2   -1    0    0  501    0  0.00000000000E+00 -0.00000000000E+00 -0.84614522409E+03  0.84614522409E+03  0.00000000000E+00 0. -1.
         25    2    1    2    0    0  0.54439003019E+02  0.70268494476E+02 -0.39830255109E+03  0.42683968291E+03  0.12508367735E+03 0.  0.
          5    1    3    3  502    0 -0.29493284071E+02  0.27609776118E+02 -0.42579949498E+02  0.58844524315E+02  0.41800000000E+01 0.  1.
         -5    1    3    3    0  502  0.83932287090E+02  0.42658718358E+02 -0.35572260159E+03  0.36799515860E+03  0.41800000000E+01 0.  1.
        -11    1    1    2    0    0  0.22342676388E+02 -0.29181816361E+02 -0.86250255500E+02  0.93754360795E+02  0.00000000000E+00 0. -1.
         11    1    1    2    0    0 -0.76781679407E+02 -0.41086678115E+02 -0.33805363546E+03  0.34908996242E+03  0.00000000000E+00 0.  1.
</event>
<event>
 7    1  0.2612213E-009  0.7539461E+02  0.7561462E-02  0.1342653E+00
         -1   -1    0    0    0  501 -0.00000000000E+00  0.00000000000E+00  0.29938686927E+02  0.29938686927E+02  0.00000000000E+00 0.  1.
          1   -1    0    0  501    0  0.00000000000E+00 -0.00000000000E+00 -0.65436727588E+03  0.65436727588E+03  0.00000000000E+00 0. -1.
         25    2    1    2    0    0 -0.42643840101E+02 -0.37689924903E+02 -0.50049824176E+03  0.51902624386E+03  0.12510285477E+03 0.  0.
          5    1    3    3  502    0 -0.28395508758E+02 -0.56012654474E+02 -0.48855157167E+03  0.49258890868E+03  0.41800000000E+01 0.  1.
         -5    1    3    3    0  502 -0.14248331343E+02  0.18322729572E+02 -0.11946670099E+02  0.26437335181E+02  0.41800000000E+01 0.  1.
        -11    1    1    2    0    0  0.21912263435E+02  0.77129668197E+00 -0.12085400033E+03  0.12282683576E+03  0.00000000000E+00 0. -1.
         11    1    1    2    0    0  0.20731576666E+02  0.36918628221E+02 -0.30763468597E+01  0.42452883185E+02  0.00000000000E+00 0.  1.
</event>
<event>
 7    1  0.2612213E-009  0.1243199E+03  0.7561462E-02  0.1236136E+00
         -2   -1    0    0    0  501 -0.00000000000E+00  0.00000000000E+00  0.30364278485E+02  0.30364278485E+02  0.00000000000E+00 0.  1.
          2   -1    0    0  501    0  0.00000000000E+00 -0.00000000000E+00 -0.67993508671E+03  0.67993508671E+03  0.00000000000E+00 0. -1.
         25    2    1    2    0    0  0.28753605093E+02 -0.82535730254E+02 -0.45288544571E+03  0.47790336463E+03  0.12508989734E+03 0.  0.
          5    1    3    3  502    0 -0.19479808834E+02 -0.96960576675E+02 -0.25150481658E+03  0.27028311368E+03  0.41800000000E+01 0.  1.
         -5    1    3    3    0  502  0.48233413928E+02  0.14424846421E+02 -0.20138062913E+03  0.20762025094E+03  0.41800000000E+01 0.  1.
        -11    1    1    2    0    0 -0.67954838055E+00  0.67090235515E+02 -0.53908920424E+02  0.86068189180E+02  0.00000000000E+00 0.  1.
         11    1    1    2    0    0 -0.28074056713E+02  0.15445494739E+02 -0.14277644210E+03  0.14632781139E+03  0.00000000000E+00 0. -1.
</event>
<event>
 7    1  0.2612213E-009  0.1122725E+03  0.7561462E-02  0.1256418E+00
          2   -1    0    0  501    0  0.00000000000E+00  0.00000000000E+00  0.34255473288E+02  0.34255473288E+02  0.00000000000E+00 0. -1.
         -2   -1    0    0    0  501 -0.00000000000E+00 -0.00000000000E+00 -0.40372295833E+03  0.40372295833E+03  0.00000000000E+00 0.  1.
         25    2    1    2    0    0 -0.32175747761E+02  0.18617041011E+01 -0.26437077540E+03  0.29424175576E+03  0.12509020450E+03 0.  0.
          5    1    3    3  502    0 -0.73585281539E+02 -0.26978508877E+02 -0.16480268909E+03  0.18253775591E+03  0.41800000000E+01 0.  1.
         -5    1    3    3    0  502  0.41409533777E+02  0.28840212978E+02 -0.99568086305E+02  0.11170399985E+03  0.41800000000E+01 0.  1.
        -11    1    1    2    0    0  0.45911136751E+02  0.33928597275E+02 -0.46091284937E+02  0.73371579906E+02  0.00000000000E+00 0. -1.
         11    1    1    2    0    0 -0.13735388990E+02 -0.35790301376E+02 -0.59005424712E+02  0.70365095954E+02  0.00000000000E+00 0.  1.
</event>
<event>
 6    1  0.2612213E-009  0.6105348E+02  0.7561462E-02  0.1393463E+00
          2   -1    0    0  501    0  0.00000000000E+00  0.00000000000E+00  0.11003737312E+04  0.11003737312E+04  0.00000000000E+00 0. -1.
         -2   -1    0    0    0  501 -0.00000000000E+00 -0.00000000000E+00 -0.18360666199E+02  0.18360666199E+02  0.00000000000E+00 0.  1.
          5    1    1    2  502    0 -0.53420695630E+02  0.26289239113E+02  0.87951710745E+03  0.88153996478E+03  0.41800000000E+01 0. -1.
         -5    1    1    2    0  502  0.30204421105E+01 -0.33446365178E+01 -0.21476383076E+01  0.65110993142E+01  0.41800000000E+01 0. -1.
        -11    1    1    2    0    0  0.14429391240E+02 -0.11731408281E+02 -0.36992228050E+01  0.18960947265E+02  0.00000000000E+00 0.  1.
         11    1    1    2    0    0  0.35970862279E+02 -0.11213194314E+02  0.20834281871E+03  0.21172238608E+03  0.00000000000E+00 0. -1.
</event>
<event>
 7    1  0.2612213E-009  0.1188129E+03  0.7561462E-02  0.1245068E+00
         -2   -1    0    0    0  501 -0.00000000000E+00  0.00000000000E+00  0.89872066588E+02  0.89872066588E+02  0.00000000000E+00 0. -1.
          2   -1    0    0  501    0  0.00000000000E+00 -0.00000000000E+00 -0.22635370308E+03  0.22635370308E+03  0.00000000000E+00 0.  1.
         25    2    1    2    0    0  0.14421010171E+02 -0.66694231696E+02 -0.57071959272E+01  0.14261160323E+03  0.12509760676E+03 0.  0.
          5    1    3    3  502    0  0.48165919857E+02  0.14786459187E+02 -0.17577992888E+02  0.53526194008E+02  0.41800000000E+01 0. -1.
         -5    1    3    3    0  502 -0.33744909686E+02 -0.81480690884E+02  0.11870796961E+02  0.89085409227E+02  0.41800000000E+01 0. -1.
        -11    1    1    2    0    0 -0.34623598414E+02  0.64282691603E+01 -0.91539028743E+01  0.36385576117E+02  0.00000000000E+00 0. -1.
         11    1    1    2    0    0  0.20202588243E+02  0.60265962536E+02 -0.12162053769E+03  0.13722859032E+03  0.00000000000E+00 0.  1.
</event>
<event>
 7    1  0.2612213E-009  0.1928753E+03  0.7561462E-02  0.1155893E+00
          3   -1    0    0  501    0  0.00000000000E+00  0.00000000000E+00  0.25868588827E+03  0.25868588827E+03  0.00000000000E+00 0. -1.
         -3   -1    0    0    0  501 -0.00000000000E+00 -0.00000000000E+00 -0.18006639309E+03  0.18006639309E+03  0.00000000000E+00 0.  1.
         25    2    1    2    0    0 -0.17572593870E+03  0.58529637580E+02  0.56928036982E+02  0.23062867609E+03  0.12507382153E+03 0.  0.
          5    1    3    3  502    0 -0.10968581325E+03  0.72562425307E+02 -0.14350652528E+02  0.13236199161E+03  0.41800000000E+01 0. -1.
         -5    1    3    3    0  502 -0.66040125458E+02 -0.14032787727E+02  0.71278689510E+02  0.98266684488E+02  0.41800000000E+01 0. -1.
        -11    1    1    2    0    0  0.26787148535E+02 -0.82961119772E+00  0.39153267499E+02  0.47447001351E+02  0.00000000000E+00 0.  1.
         11    1    1    2    0    0  0.14893879017E+03 -0.57700026382E+02 -0.17461809300E+02  0.16067660392E+03  0.00000000000E+00 0. -1.
</event>
<event>
 7    1  0.2612213E-009  0.1790061E+03  0.7561462E-02  0.1168768E+00
         -2   -1    0    0    0  501 -0.00000000000E+00  0.00000000000E+00  0.10709647638E+03  0.10709647638E+03  0.00000000000E+00 0.  1.
          2   -1    0    0  501    0  0.00000000000E+00 -0.00000000000E+00 -0.45331225954E+03  0.45331225954E+03  0.00000000000E+00 0. -1.
         25    2    1    2    0    0 -0.99691955577E+02  0.10856264983E+03 -0.52455088082E+02  0.20030638334E+03  0.12508707366E+03 0.  0.
          5    1    3    3  502    0 -0.10727729504E+03  0.88452903376E+02 -0.83557195170E+02  0.16227018029E+03  0.41800000000E+01 0.  1.
         -5    1    3    3    0  502  0.75853394630E+01  0.20109746456E+02  0.31102107088E+02  0.38036203052E+02  0.41800000000E+01 0.  1.
        -11    1    1    2    0    0 -0.17362856043E+02 -0.72468999840E+02 -0.17171112238E+03  0.18718422545E+03  0.00000000000E+00 0.  1.
         11    1    1    2    0    0  0.11705481162E+03 -0.36093649992E+02 -0.12204957270E+03  0.17291812712E+03  0.00000000000E+00 0. -1.
</event>
<event>
 7    1  0.2612213E-009  0.1344955E+03  0.7561462E-02  0.1220934E+00
          2   -1    0    0  501    0  0.00000000000E+00  0.00000000000E+00  0.12898716395E+04  0.12898716395E+04  0.00000000000E+00 0. -1.
         -2   -1    0    0    0  501 -0.00000000000E+00 -0.00000000000E+00 -0.16276772617E+02  0.16276772617E+02  0.00000000000E+00 0.  1.
         25    2    1    2    0    0  0.17907768162E+02  0.93464505364E+02  0.68992786644E+03  0.70760436121E+03  0.12508864532E+03 0.  0.
          5    1    3    3  502    0  0.40028600819E+02  0.10400096782E+03  0.65673887254E+03  0.66613955692E+03  0.41800000000E+01 0. -1.
         -5    1    3    3    0  502 -0.22120832657E+02 -0.10536462454E+02  0.33188993898E+02  0.41464804286E+02  0.41800000000E+01 0. -1.
        -11    1    1    2    0    0  0.38068523788E+02 -0.39743989258E+02  0.24323086714E+03  0.24937933338E+03  0.00000000000E+00 0.  1.
         11    1    1    2    0    0 -0.55976291951E+02 -0.53720516106E+02  0.34043613335E+03  0.34916471758E+03  0.00000000000E+00 0. -1.
</event>
<event>
 7    1  0.2612213E-009  0.1088473E+03  0.7561462E-02  0.1262719E+00
         -4   -1    0    0    0  501 -0.00000000000E+00  0.00000000000E+00  0.68656944957E+02  0.68656944957E+02  0.00000000000E+00 0.  1.
          4   -1    0    0  501    0  0.00000000000E+00 -0.00000000000E+00 -0.22436201988E+03  0.22436201988E+03  0.00000000000E+00 0. -1.
         25    2    1    2    0    0  0.59428928123E+02 -0.15521325342E+02 -0.60505816012E+02  0.15192366079E+03  0.12508851225E+03 0.  0.
          5    1    3    3  502    0  0.20880844375E+01  0.39941345979E+02  0.14104603245E+02  0.42615530596E+02  0.41800000000E+01 0.  1.
         -5    1    3    3    0  502  0.57340843685E+02 -0.55462671321E+02 -0.74610419257E+02  0.10930813019E+03  0.41800000000E+01 0.  1.
        -11    1    1    2    0    0  0.96740739673E+01 -0.18270414450E+02 -0.27918432759E+01  0.20861211378E+02  0.00000000000E+00 0.  1.
         11    1    1    2    0    0 -0.69103002090E+02  0.33791739792E+02 -0.92407415637E+02  0.12023409267E+03  0.00000000000E+00 0. -1.
</event>
<event>
 6    1  0.2612213E-009  0.6600923E+02  0.7561462E-02  0.1374215E+00
         -3   -1    0    0    0  501 -0.00000000000E+00  0.00000000000E+00  0.47178094862E+03  0.47178094862E+03  0.00000000000E+00 0.  1.
          3   -1    0    0  501    0  0.00000000000E+00 -0.00000000000E+00 -0.25546515002E+02  0.25546515002E+02  0.00000000000E+00 0. -1.
          5    1    1    2  502    0  0.40413638487E+02 -0.16011053797E+02  0.26634641663E+03  0.26990276411E+03  0.41800000000E+01 0.  1.
         -5    1    1    2    0  502 -0.24435361639E+02  0.31238723736E+02  0.22760840689E+02  0.45918112199E+02  0.41800000000E+01 0.  1.
        -11    1    1    2    0    0 -0.27449239033E+02  0.22729979859E+01  0.15817518953E+03  0.16055534194E+03  0.00000000000E+00 0.  1.
         11    1    1    2    0    0  0.11470962185E+02 -0.17500667925E+02 -0.10480132266E+01  0.20951245380E+02  0.00000000000E+00 0. -1.
</event>
<event>
 7    1  0.2612213E-009  0.1044934E+03  0.7561462E-02  0.1271121E+00
          2   -1    0    0  501    0  0.00000000000E+00  0.00000000000E+00  0.95756482404E+03  0.95756482404E+03  0.00000000000E+00 0. -1.
         -2   -1    0    0    0  501 -0.00000000000E+00 -0.00000000000E+00 -0.23134114400E+02  0.23134114400E+02  0.00000000000E+00 0.  1.
         25    2    1    2    0    0 -0.32172562583E+02  0.65375203358E+02  0.74680980583E+03  0.76071053564E+03  0.12508653783E+03 0.  0.
          5    1    3    3  502    0  0.15797697784E+02  0.51294452167E+02  0.64468122548E+03  0.64692506750E+03  0.41800000000E+01 0. -1.
         -5    1    3    3    0  502 -0.47970260367E+02  0.14080751191E+02  0.10212858035E+03  0.11378546813E+03  0.41800000000E+01 0. -1.
        -11    1    1    2    0    0  0.10129579773E+02 -0.78618425691E+02  0.17326645340E+03  0.19053799915E+03  0.00000000000E+00 0. -1.
         11    1    1    2    0    0  0.22042982809E+02  0.13243222333E+02  0.14354450405E+02  0.29450403653E+02  0.00000000000E+00 0.  1.
</event>
<event>
 7    1  0.2612213E-009  0.1005170E+03  0.7561462E-02  0.1279212E+00
          3   -1    0    0  501    0  0.00000000000E+00  0.00000000000E+00  0.70567647402E+03  0.70567647402E+03  0.00000000000E+00 0. -1.
         -3   -1    0    0    0  501 -0.00000000000E+00 -0.00000000000E+00 -0.15308864780E+02  0.15308864780E+02  0.00000000000E+00 0.  1.
         25    2    1    2    0    0  0.90424482458E+01 -0.80195963460E+00  0.46485797241E+03  0.48147969833E+03  0.12508939354E+03 0.  0.
          5    1    3    3  502    0 -0.50002584479E+02 -0.28606424253E+02  0.26395740789E+03  0.27020283407E+03  0.41800000000E+01 0.  1.
         -5    1    3    3    0  502  0.59045032725E+02  0.27804464618E+02  0.20090056452E+03  0.21127686425E+03  0.41800000000E+01 0.  1.
        -11    1    1    2    0    0  0.87008251165E+01 -0.35992081837E+02  0.13882389652E+03  0.14367744624E+03  0.00000000000E+00 0. -1.
         11    1    1    2    0    0 -0.17743273362E+02  0.36794041472E+02  0.86685740302E+02  0.95828194229E+02  0.00000000000E+00 0.  1.
</event>
<event>
 7    1  0.2612213E-009  0.9081220E+02  0.7561462E-02  0.1300897E+00
         -2   -1    0    0    0  501 -0.00000000000E+00  0.00000000000E+00  0.28662987874E+03  0.28662987874E+03  0.00000000000E+00 0.  1.
          2   -1    0    0  501    0  0.00000000000E+00 -0.00000000000E+00 -0.50135198088E+02  0.50135198088E+02  0.00000000000E+00 0. -1.
         25    2    1    2    0    0 -0.48931950563E+02 -0.38279547212E+00  0.15528771660E+03  0.20531977336E+03  0.12508977611E+03 0.  0.
          5    1    3    3  502    0 -0.33573458826E+01 -0.58153752830E+02  0.87402056522E+02  0.10511766086E+03  0.41800000000E+01 0. -1.
         -5    1    3    3    0  502 -0.45574604680E+02  0.57770957358E+02  0.67885660075E+02  0.10020211250E+03  0.41800000000E+01 0. -1.
        -11    1    1    2    0    0  0.12933758702E+02  0.34712979230E+01 -0.19951005839E+02  0.24028621630E+02  0.00000000000E+00 0. -1.
         11    1    1    2    0    0  0.35998191860E+02 -0.30885024508E+01  0.10115796989E+03  0.10741668184E+03  0.00000000000E+00 0.  1.
</event>
<event>
 7    1  0.2612213E-009  0.2600757E+03  0.7561462E-02  0.1107098E+00
         -2   -1    0    0    0  501 -0.00000000000E+00  0.00000000000E+00  0.42907801066E+03  0.42907801066E+03  0.00000000000E+00 0.  1.
          2   -1    0    0  501    0  0.00000000000E+00 -0.00000000000E+00 -0.16630540757E+03  0.16630540757E+03  0.00000000000E+00 0. -1.
         25    2    1    2    0    0  0.20279809540E+03  0.13279412298E+03  0.10675397959E+03  0.29292545208E+03  0.12509021433E+03 0.  0.
          5    1    3    3  502    0  0.12246514899E+03  0.14312814780E+03  0.94882145818E+02  0.21095846370E+03  0.41800000000E+01 0. -1.
         -5    1    3    3    0  502  0.80332946410E+02 -0.10334024817E+02  0.11871833776E+02  0.81966988386E+02  0.41800000000E+01 0. -1.
        -11    1    1    2    0    0 -0.18742728256E+02 -0.40730132654E+02  0.10650977055E+01  0.44848277577E+02  0.00000000000E+00 0. -1.
         11    1    1    2    0    0 -0.18405536715E+03 -0.92063990329E+02  0.15495352579E+03  0.25760968857E+03  0.00000000000E+00 0.  1.
</event>
<event>
 7    1  0.2612213E-009  0.1056071E+03  0.7561462E-02  0.1268928E+00
          2   -1    0    0  501    0  0.00000000000E+00  0.00000000000E+00  0.72052098261E+03  0.72052098261E+03  0.00000000000E+00 0.  1.
         -2   -1    0    0    0  501 -0.00000000000E+00 -0.00000000000E+00 -0.24440854460E+02  0.24440854460E+02  0.00000000000E+00 0. -1.
         25    2    1    2    0    0  0.62205183873E+02 -0.18718443182E+02  0.48832953510E+03  0.50826538261E+03  0.12509236302E+03 0.  0.
          5    1    3    3  502    0  0.65828611229E+02  0.29022169340E+02  0.41061576276E+03  0.41689143598E+03  0.41800000000E+01 0. -1.
         -5    1    3    3    0  502 -0.36234273551E+01 -0.47740612523E+02  0.77713772346E+02  0.91373946626E+02  0.41800000000E+01 0. -1.
        -11    1    1    2    0    0 -0.20346208196E+02 -0.23877010831E+02  0.14745100107E+02  0.34662628454E+02  0.00000000000E+00 0. -1.
         11    1    1    2    0    0 -0.41858975677E+02  0.42595454013E+02  0.19300549295E+03  0.20203382602E+03  0.00000000000E+00 0.  1.
</event>
<event>
 7    1  0.2612213E-009  0.1392321E+03  0.7561462E-02  0.1214366E+00
         -2   -1    0    0    0  501 -0.00000000000E+00  0.00000000000E+00  0.24476067127E+03  0.24476067127E+03  0.00000000000E+00 0.  1.
          2   -1    0    0  501    0  0.00000000000E+00 -0.00000000000E+00 -0.12390900144E+03  0.12390900144E+03  0.00000000000E+00 0. -1.
         25    2    1    2    0    0 -0.24279337980E+02 -0.10525436732E+03 -0.22761587955E+02  0.16683379082E+03  0.12508979087E+03 0.  0.
          5    1    3    3  502    0 -0.69155424847E+02 -0.41399200916E+02  0.11447701838E+02  0.81516187961E+02  0.41800000000E+01 0.  1.
         -5    1    3    3    0  502  0.44876086867E+02 -0.63855166401E+02 -0.34209289793E+02  0.85317602854E+02  0.41800000000E+01 0.  1.
        -11    1    1    2    0    0  0.38024309949E+02  0.50918955768E+02  0.20848438077E+02  0.66882326319E+02  0.00000000000E+00 0.  1.
         11    1    1    2    0    0 -0.13744971969E+02  0.54335411550E+02  0.12276481972E+03  0.13495355558E+03  0.00000000000E+00 0. -1.
</event>
<event>
 7    1  0.2612213E-009  0.1370308E+03  0.7561462E-02  0.1217381E+00
         -2   -1    0    0    0  501 -0.00000000000E+00  0.00000000000E+00  0.17247523813E+02  0.17247523813E+02  0.00000000000E+00 0.  1.
          2   -1    0    0  501    0  0.00000000000E+00 -0.00000000000E+00 -0.14504258844E+04  0.14504258844E+04  0.00000000000E+00 0. -1.
         25    2    1    2    0    0  0.13983369062E+02 -0.90013120311E+02 -0.87285450316E+03  0.88646533261E+03  0.12509158964E+03 0.  0.
          5    1    3    3  502    0 -0.35853590245E+02 -0.68459250706E+02 -0.72098419344E+03  0.72512607768E+03  0.41800000000E+01 0. -1.
         -5    1    3    3    0  502  0.49836959307E+02 -0.21553869605E+02 -0.15187030972E+03  0.16133925493E+03  0.41800000000E+01 0. -1.
        -11    1    1    2    0    0  0.43422233141E+02  0.68097253571E+02 -0.20015113573E+03  0.21583142359E+03  0.00000000000E+00 0.  1.
         11    1    1    2    0    0 -0.57405602203E+02  0.21915866741E+02 -0.36017272172E+03  0.36537665203E+03  0.00000000000E+00 0. -1.
</event>
<event>
 7    1  0.2612213E-009  0.1031279E+03  0.7561462E-02  0.1273853E+00
          1   -1    0    0  501    0  0.00000000000E+00  0.00000000000E+00  0.12305809004E+03  0.12305809004E+03  0.00000000000E+00 0. -1.
         -1   -1    0    0    0  501 -0.00000000000E+00 -0.00000000000E+00 -0.14646585653E+03  0.14646585653E+03  0.00000000000E+00 0.  1.
         25    2    1    2    0    0  0.74506272014E+02  0.16807052995E+02 -0.24387448451E+01  0.14658113883E+03  0.12508565539E+03 0.  0.
          5    1    3    3  502    0 -0.26997696307E+01  0.48162106909E+01  0.51232849432E+02  0.51698761130E+02  0.41800000000E+01 0.  1.
         -5    1    3    3    0  502  0.77206041644E+02  0.11990842304E+02 -0.53671594277E+02  0.94882377699E+02  0.41800000000E+01 0.  1.
        -11    1    1    2    0    0 -0.23751420959E+02  0.38992973162E+02 -0.61287521150E+01  0.46066729383E+02  0.00000000000E+00 0.  1.
         11    1    1    2    0    0 -0.50754851055E+02 -0.55800026157E+02 -0.14840269534E+02  0.76876078364E+02  0.00000000000E+00 0. -1.
</event>
<event>
 7    1  0.2612213E-009  0.1099084E+03  0.7561462E-02  0.1260740E+00
         -2   -1    0    0    0  501 -0.00000000000E+00  0.00000000000E+00  0.17983165785E+02  0.17983165785E+02  0.00000000000E+00 0.  1.
          2   -1    0    0  501    0  0.00000000000E+00 -0.00000000000E+00 -0.98153843762E+03  0.98153843762E+03  0.00000000000E+00 0. -1.
         25    2    1    2    0    0 -0.12135227259E+02 -0.72925178436E+02 -0.45217619620E+03  0.47494874703E+03  0.12509058519E+03 0.  0.
          5    1    3    3  502    0 -0.11388897694E+02 -0.87908799927E+02 -0.16499766415E+03  0.18734824704E+03  0.41800000000E+01 0.  1.
         -5    1    3    3    0  502 -0.74632956571E+00  0.14983621491E+02 -0.28717853205E+03  0.28760049998E+03  0.41800000000E+01 0.  1.
        -11    1    1    2    0    0  0.13729117928E+02  0.93682353978E+02 -0.44676160478E+03  0.45668457784E+03  0.00000000000E+00 0. -1.
         11    1    1    2    0    0 -0.15938906690E+01 -0.20757175542E+02 -0.64617470850E+02  0.67888278539E+02  0.00000000000E+00 0.  1.
</event>
<event>
 7    1  0.2612213E-009  0.1340163E+03  0.7561462E-02  0.1221615E+00
         -1   -1    0    0    0  501 -0.00000000000E+00  0.00000000000E+00  0.72792555033E+02  0.72792555033E+02  0.00000000000E+00 0.  1.
          1   -1    0    0  501    0  0.00000000000E+00 -0.00000000000E+00 -0.32462848049E+03  0.32462848049E+03  0.00000000000E+00 0. -1.
         25    2    1    2    0    0 -0.97154563455E+02 -0.34744543833E+02 -0.17809681468E+03  0.24085702746E+03  0.12508972681E+03 0.  0.
          5    1    3    3  502    0  0.28296478677E+01  0.37625570207E+02 -0.32830873845E+02  0.50189930443E+02  0.41800000000E+01 0.  1.
         -5    1    3    3    0  502 -0.99984211322E+02 -0.72370114039E+02 -0.14526594083E+03  0.19066709702E+03  0.41800000000E+01 0.  1.
        -11    1    1    2    0    0  0.21627599328E+02  0.20328205505E+02  0.19648303492E+02  0.35595573065E+02  0.00000000000E+00 0.  1.
         11    1    1    2    0    0  0.75526964127E+02  0.14416338328E+02 -0.93387414269E+02  0.12096843499E+03  0.00000000000E+00 0. -1.
</event>
<event>
 7    1  0.2612213E-009  0.9033859E+02  0.7561462E-02  0.1302034E+00
         -4   -1    0    0    0  501 -0.00000000000E+00  0.00000000000E+00  0.24894239909E+03  0.24894239909E+03  0.00000000000E+00 0.  1.
          4   -1    0    0  501    0  0.00000000000E+00 -0.00000000000E+00 -0.57140843056E+02  0.57140843056E+02  0.00000000000E+00 0. -1.
         25    2    1    2    0    0 -0.14253875026E+02 -0.32767097332E+01  0.47723757848E+02  0.13468227078E+03  0.12509135550E+03 0.  0.
          5    1    3    3  502    0  0.21424937946E+02  0.47880589264E+02 -0.50641575491E+01  0.52864892754E+02  0.41800000000E+01 0.  1.
         -5    1    3    3    0  502 -0.35678812972E+02 -0.51157298997E+02  0.52787915397E+02  0.81817378030E+02  0.41800000000E+01 0.  1.
        -11    1    1    2    0    0  0.37679306001E+02  0.13447589759E+02  0.20010247005E+02  0.44732289861E+02  0.00000000000E+00 0. -1.
         11    1    1    2    0    0 -0.23425430974E+02 -0.10170880026E+02  0.12406755118E+03  0.12666868150E+03  0.00000000000E+00 0.  1.
</event>
<event>
 7    1  0.2612213E-009  0.7488790E+02  0.7561462E-02  0.1344219E+00
          1   -1    0    0  501    0  0.00000000000E+00  0.00000000000E+00  0.15302773666E+03  0.15302773666E+03  0.00000000000E+00 0. -1.
         -1   -1    0    0    0  501 -0.00000000000E+00 -0.00000000000E+00 -0.83551218668E+02  0.83551218668E+02  0.00000000000E+00 0.  1.
         25    2    1    2    0    0 -0.24377431971E+02  0.18479229712E+02  0.40966350142E+02  0.13513344999E+03  0.12508823422E+03 0.  0.
          5    1    3    3  502    0 -0.27242334629E+02 -0.54004241274E+01  0.82393612539E+02  0.87048774627E+02  0.41800000000E+01 0.  1.
         -5    1    3    3    0  502  0.28649026576E+01  0.23879653839E+02 -0.41427262398E+02  0.48084675360E+02  0.41800000000E+01 0.  1.
        -11    1    1    2    0    0  0.37133112046E+02  0.29631095324E+02  0.15949863938E+02  0.50112553118E+02  0.00000000000E+00 0.  1.
         11    1    1    2    0    0 -0.12755680075E+02 -0.48110325036E+02  0.12560303909E+02  0.51332952219E+02  0.00000000000E+00 0. -1.
</event>
<event>
 7    1  0.2612213E-009  0.7390423E+02  0.7561462E-02  0.1347298E+00
         -2   -1    0    0    0  501 -0.00000000000E+00  0.00000000000E+00  0.15498781138E+02  0.15498781138E+02  0.00000000000E+00 0.  1.
          2   -1    0    0  501    0  0.00000000000E+00 -0.00000000000E+00 -0.11635155183E+04  0.11635155183E+04  0.00000000000E+00 0. -1.
         25    2    1    2    0    0  0.48202150448E+02  0.24137961894E+02 -0.88376352936E+03  0.89419973057E+03  0.12509633809E+03 0.  0.
          5    1    3    3  502    0  0.52140439074E+02  0.15324607223E+02 -0.13817657746E+03  0.14853857389E+03  0.41800000000E+01 0.  1.
         -5    1    3    3    0  502 -0.39382886267E+01  0.88133546703E+01 -0.74558695190E+03  0.74566115668E+03  0.41800000000E+01 0.  1.
        -11    1    1    2    0    0  0.15491655651E+02 -0.47256486504E+01 -0.47118936583E+01  0.16867871585E+02  0.00000000000E+00 0.  1.
         11    1    1    2    0    0 -0.63693806098E+02 -0.19412313243E+02 -0.25954131419E+03  0.26794669733E+03  0.00000000000E+00 0. -1.
</event>
<event>
 7    1  0.2612213E-009  0.7204820E+02  0.7561462E-02  0.1353263E+00
         -3   -1    0    0    0  501 -0.00000000000E+00  0.00000000000E+00  0.54554287687E+02  0.54554287687E+02  0.00000000000E+00 0.  1.
          3   -1    0    0  501    0  0.00000000000E+00 -0.00000000000E+00 -0.17250162505E+03  0.17250162505E+03  0.00000000000E+00 0. -1.
         25    2    1    2    0    0  0.24023504591E+02  0.27129633602E+02 -0.87932031808E+02  0.15714467585E+03  0.12509700691E+03 0.  0.
          5    1    3    3  502    0 -0.39806931742E+01 -0.28414454557E+02 -0.90213300806E+02  0.94758319889E+02  0.41800000000E+01 0.  1.
         -5    1    3    3    0  502  0.28004197765E+02  0.55544088159E+02  0.22812689985E+01  0.62386355961E+02  0.41800000000E+01 0.  1.
        -11    1    1    2    0    0 -0.19433225772E+02 -0.37043774839E+02 -0.37892536927E+02  0.56442323419E+02  0.00000000000E+00 0. -1.
         11    1    1    2    0    0 -0.45902788187E+01  0.99141412367E+01  0.78772313671E+01  0.13468913472E+02  0.00000000000E+00 0.  1.
</event>
<event>
 7    1  0.2612213E-009  0.6815270E+02  0.7561462E-02  0.1366490E+00
          1   -1    0    0  501    0  0.00000000000E+00  0.00000000000E+00  0.26757553282E+02  0.26757553282E+02  0.00000000000E+00 0. -1.
         -1   -1    0    0    0  501 -0.00000000000E+00 -0.00000000000E+00 -0.47506041314E+03  0.47506041314E+03  0.00000000000E+00 0.  1.
         25    2    1    2    0    0  0.34014753369E+02 -0.26367610987E+02 -0.27230726397E+03  0.30273883146E+03  0.12508916702E+03 0.  0.
          5    1    3    3  502    0  0.36226262459E+02 -0.10486553451E+02 -0.28132593119E+03  0.28387332008E+03  0.41800000000E+01 0.  1.
         -5    1    3    3    0  502 -0.22115090900E+01 -0.15881057536E+02  0.90186672209E+01  0.18865511373E+02  0.41800000000E+01 0.  1.
        -11    1    1    2    0    0 -0.50400779591E+02  0.36764328134E+02 -0.81631298546E+02  0.10274007645E+03  0.00000000000E+00 0. -1.
         11    1    1    2    0    0  0.16386026222E+02 -0.10396717147E+02 -0.94364297344E+02  0.96339058518E+02  0.00000000000E+00 0.  1.
</event>
<event>
 7    1  0.2612213E-009  0.9642838E+02  0.7561462E-02  0.1287991E+00
          1   -1    0    0  501    0  0.00000000000E+00  0.00000000000E+00  0.86697914210E+03  0.86697914210E+03  0.00000000000E+00 0. -1.
         -1   -1    0    0    0  501 -0.00000000000E+00 -0.00000000000E+00 -0.15780634268E+02  0.15780634268E+02  0.00000000000E+00 0.  1.
         25    2    1    2    0    0 -0.36076244212E+02  0.18462205674E+02  0.53405525184E+03  0.55000464633E+03  0.12509096902E+03 0.  0.
          5    1    3    3  502    0 -0.70831943249E+02  0.49902064276E+01  0.17366129268E+03  0.18766401711E+03  0.41800000000E+01 0.  1.
         -5    1    3    3    0  502  0.34755699037E+02  0.13471999247E+02  0.36039395917E+03  0.36234062922E+03  0.41800000000E+01 0.  1.
        -11    1    1    2    0    0  0.58293007746E+02 -0.20766184110E+02  0.29456795541E+03  0.30099765698E+03  0.00000000000E+00 0.  1.
         11    1    1    2    0    0 -0.22216763534E+02  0.23039784359E+01  0.22575300584E+02  0.31757473058E+02  0.00000000000E+00 0. -1.
</event>
<event>
 7    1  0.2612213E-009  0.9173064E+02  0.7561462E-02  0.1298714E+00
          2   -1    0    0  501    0  0.00000000000E+00  0.00000000000E+00  0.91136682245E+02  0.91136682245E+02  0.00000000000E+00 0. -1.
         -2   -1    0    0    0  501 -0.00000000000E+00 -0.00000000000E+00 -0.15042460039E+03  0.15042460039E+03  0.00000000000E+00 0.  1.
         25    2    1    2    0    0 -0.65319276253E+01 -0.34549551594E+02 -0.44190337584E+01  0.13001148539E+03  0.12508845222E+03 0.  0.
          5    1    3    3  502    0 -0.39583692840E+02  0.87422029988E+01  0.41856742726E+02  0.58418782628E+02  0.41800000000E+01 0.  1.
         -5    1    3    3    0  502  0.33051765214E+02 -0.43291754593E+02 -0.46275776484E+02  0.71592702762E+02  0.41800000000E+01 0.  1.
        -11    1    1    2    0    0  0.24693725518E+02 -0.19243156859E+02  0.17662508828E+01  0.31356001149E+02  0.00000000000E+00 0. -1.
         11    1    1    2    0    0 -0.18161797893E+02  0.53792708453E+02 -0.56635135268E+02  0.80193796095E+02  0.00000000000E+00 0.  1.
</event>
<event>
 7    1  0.2612213E-009  0.8672653E+02  0.7561462E-02  0.1310978E+00
          1   -1    0    0  501    0  0.00000000000E+00  0.00000000000E+00  0.44034928034E+02  0.44034928034E+02  0.00000000000E+00 0. -1.
         -1   -1    0    0    0  501 -0.00000000000E+00 -0.00000000000E+00 -0.36796078227E+03  0.36796078227E+03  0.00000000000E+00 0.  1.
         25    2    1    2    0    0 -0.64676986907E+02 -0.34945230633E+01 -0.15740965085E+03  0.21123615583E+03  0.12509033145E+03 0.  0.
          5    1    3    3  502    0 -0.24032044384E+02 -0.25488039571E+02 -0.16088109828E+03  0.16470391466E+03  0.41800000000E+01 0.  1.
         -5    1    3    3    0  502 -0.40644942524E+02  0.21993516508E+02  0.34714474337E+01  0.46532241171E+02  0.41800000000E+01 0.  1.
        -11    1    1    2    0    0  0.64174459847E+02 -0.20807679303E+02 -0.16272865995E+03  0.17615884191E+03  0.00000000000E+00 0.  1.
         11    1    1    2    0    0  0.50252706009E+00  0.24302202366E+02 -0.37875434340E+01  0.24600712562E+02  0.00000000000E+00 0. -1.
</event>
<event>
 7    1  0.2612213E-009  0.2186559E+03  0.7561462E-02  0.1134889E+00
         -1   -1    0    0    0  501 -0.00000000000E+00  0.00000000000E+00  0.16605175979E+03  0.16605175979E+03  0.00000000000E+00 0.  1.
          1   -1    0    0  501    0  0.00000000000E+00 -0.00000000000E+00 -0.47723013517E+03  0.47723013517E+03  0.00000000000E+00 0. -1.
         25    2    1    2    0    0  0.10238628235E+03  0.16348203437E+03 -0.35573918342E+03  0.42356462511E+03  0.12508916278E+03 0.  0.
          5    1    3    3  502    0  0.11802191570E+03  0.75992561786E+02 -0.20401051301E+03  0.24767277575E+03  0.41800000000E+01 0.  1.
         -5    1    3    3    0  502 -0.15635633347E+02  0.87489472588E+02 -0.15172867042E+03  0.17589184936E+03  0.41800000000E+01 0.  1.
        -11    1    1    2    0    0 -0.72715340005E+02 -0.44438363285E+02  0.46370916950E+02  0.97018301069E+02  0.00000000000E+00 0.  1.
         11    1    1    2    0    0 -0.29670942348E+02 -0.11904367109E+03 -0.18101089067E+01  0.12269896878E+03  0.00000000000E+00 0. -1.
</event>
<event>
 7    1  0.2612213E-009  0.1898708E+03  0.7561462E-02  0.1158578E+00
         -4   -1    0    0    0  501 -0.00000000000E+00  0.00000000000E+00  0.11932668729E+04  0.11932668729E+04  0.00000000000E+00 0.  1.
          4   -1    0    0  501    0  0.00000000000E+00 -0.00000000000E+00 -0.40505516328E+02  0.40505516328E+02  0.00000000000E+00 0. -1.
         25    2    1    2    0    0 -0.12600313709E+03  0.10284751027E+03  0.30425939728E+03  0.36698221052E+03  0.12509101119E+03 0.  0.
          5    1    3    3  502    0 -0.26770078543E+02  0.10089916413E+03  0.13471570866E+03  0.17047895174E+03  0.41800000000E+01 0.  1.
         -5    1    3    3    0  502 -0.99233058546E+02  0.19483461447E+01  0.16954368862E+03  0.19650325878E+03  0.41800000000E+01 0.  1.
        -11    1    1    2    0    0  0.79481651020E+02 -0.10211350964E+03  0.66569976253E+03  0.67815977139E+03  0.00000000000E+00 0.  1.
         11    1    1    2    0    0  0.46521486069E+02 -0.73400063466E+00  0.18280219672E+03  0.18863040727E+03  0.00000000000E+00 0. -1.
</event>
<event>
 7    1  0.2612213E-009  0.9481691E+02  0.7561462E-02  0.1291589E+00
         -2   -1    0    0    0  501 -0.00000000000E+00  0.00000000000E+00  0.22241078762E+02  0.22241078762E+02  0.00000000000E+00 0.  1.
          2   -1    0    0  501    0  0.00000000000E+00 -0.00000000000E+00 -0.53285621871E+03  0.53285621871E+03  0.00000000000E+00 0. -1.
         25    2    1    2    0    0 -0.54005096253E+01  0.60836593398E+01 -0.32871906786E+03  0.35180870932E+03  0.12508783300E+03 0.  0.
          5    1    3    3  502    0  0.72372537958E+01 -0.49282771267E+02 -0.24823048574E+03  0.25321338005E+03  0.41800000000E+01 0. -1.
         -5    1    3    3    0  502 -0.12637763421E+02  0.55366430606E+02 -0.80488582114E+02  0.98595329266E+02  0.41800000000E+01 0. -1.
        -11    1    1    2    0    0 -0.23671361151E+02 -0.34637973906E+02 -0.50150738033E+02  0.65385159633E+02  0.00000000000E+00 0.  1.
         11    1    1    2    0    0  0.29071870776E+02  0.28554314566E+02 -0.13174533406E+03  0.13790342852E+03  0.00000000000E+00 0. -1.
</event>
<event>
 7    1  0.2612213E-009  0.1258962E+03  0.7561462E-02  0.1233675E+00
          2   -1    0    0  501    0  0.00000000000E+00  0.00000000000E+00  0.14530570090E+03  0.14530570090E+03  0.00000000000E+00 0. -1.
         -2   -1    0    0    0  501 -0.00000000000E+00 -0.00000000000E+00 -0.16170979605E+03  0.16170979605E+03  0.00000000000E+00 0.  1.
         25    2    1    2    0    0 -0.91091067204E+01  0.99590167009E+02 -0.37378539984E+02  0.16445530284E+03  0.12508882520E+03 0.  0.
          5    1    3    3  502    0 -0.15161507632E+02  0.10418582596E+03  0.19298129636E+02  0.10711884919E+03  0.41800000000E+01 0.  1.
         -5    1    3    3    0  502  0.60524009116E+01 -0.45956589494E+01 -0.56676669620E+02  0.57336453651E+02  0.41800000000E+01 0.  1.
        -11    1    1    2    0    0  0.44221706426E+02 -0.15896103364E+02  0.21783466250E+02  0.51795413149E+02  0.00000000000E+00 0. -1.
         11    1    1    2    0    0 -0.35112599706E+02 -0.83694063645E+02 -0.80902142009E+00  0.90764780963E+02  0.00000000000E+00 0.  1.
</event>
<event>
 7    1  0.2612213E-009  0.1025123E+03  0.7561462E-02  0.1275100E+00
         -1   -1    0    0    0  501 -0.00000000000E+00  0.00000000000E+00  0.12187782101E+03  0.12187782101E+03  0.00000000000E+00 0.  1.
          1   -1    0    0  501    0  0.00000000000E+00 -0.00000000000E+00 -0.10716892561E+03  0.10716892561E+03  0.00000000000E+00 0. -1.
         25    2    1    2    0    0 -0.25987064852E+01  0.36535676763E+02 -0.14601067537E+01  0.13037144287E+03  0.12511183898E+03 0.  0.
          5    1    3    3  502    0 -0.55152822427E+02  0.38559446188E+02 -0.25897765427E+02  0.72227635750E+02  0.41800000000E+01 0.  1.
         -5    1    3    3    0  502  0.52554115941E+02 -0.20237694251E+01  0.24437658673E+02  0.58143807121E+02  0.41800000000E+01 0.  1.
        -11    1    1    2    0    0 -0.30126566772E+02 -0.41974142935E+02  0.33170798272E+02  0.61398212992E+02  0.00000000000E+00 0.  1.
         11    1    1    2    0    0  0.32725273257E+02  0.54384661719E+01 -0.17001796121E+02  0.37277090758E+02  0.00000000000E+00 0. -1.
</event>
<event>
 7    1  0.2612213E-009  0.1119844E+03  0.7561462E-02  0.1256939E+00
         -1   -1    0    0    0  501 -0.00000000000E+00  0.00000000000E+00  0.16732421245E+02  0.16732421245E+02  0.00000000000E+00 0.  1.
          1   -1    0    0  501    0  0.00000000000E+00 -0.00000000000E+00 -0.10871914616E+04  0.10871914616E+04  0.00000000000E+00 0. -1.
         25    2    1    2    0    0  0.23096216498E+02  0.18801579814E+02 -0.84838683320E+03  0.85807436617E+03  0.12507783380E+03 0.  0.
          5    1    3    3  502    0  0.70200628636E+02  0.33544910325E+02 -0.46179333211E+03  0.46832034256E+03  0.41800000000E+01 0.  1.
         -5    1    3    3    0  502 -0.47104412139E+02 -0.14743330511E+02 -0.38659350109E+03  0.38975402361E+03  0.41800000000E+01 0.  1.
        -11    1    1    2    0    0 -0.56964289107E+02  0.15883836536E+01 -0.78950999966E+02  0.97368955996E+02  0.00000000000E+00 0.  1.
         11    1    1    2    0    0  0.33868072609E+02 -0.20389963467E+02 -0.14312120715E+03  0.14848056064E+03  0.00000000000E+00 0. -1.
</event>
<event>
 7    1  0.2612213E-009  0.1042003E+03  0.7561462E-02  0.1271703E+00
          2   -1    0    0  501    0  0.00000000000E+00  0.00000000000E+00  0.37775074109E+02  0.37775074109E+02  0.00000000000E+00 0. -1.
         -2   -1    0    0    0  501 -0.00000000000E+00 -0.00000000000E+00 -0.41681876836E+03  0.41681876836E+03  0.00000000000E+00 0.  1.
         25    2    1    2    0    0 -0.22317474660E+01  0.36610608612E+02 -0.11844235283E+03  0.17612953428E+03  0.12509078520E+03 0.  0.
          5    1    3    3  502    0  0.50684066810E+02  0.22178787744E+02 -0.12672410434E+02  0.56910769107E+02  0.41800000000E+01 0.  1.
         -5    1    3    3    0  502 -0.52915814276E+02  0.14431820868E+02 -0.10576994240E+03  0.11921876517E+03  0.41800000000E+01 0.  1.
        -11    1    1    2    0    0  0.22630996465E+02  0.24578904767E+02 -0.80313808786E+02  0.86986162360E+02  0.00000000000E+00 0. -1.
         11    1    1    2    0    0 -0.20399248999E+02 -0.61189513379E+02 -0.18028753263E+03  0.19147814583E+03  0.00000000000E+00 0.  1.
</event>
<event>
 7    1  0.2612213E-009  0.1103046E+03  0.7561462E-02  0.1260007E+00
          2   -1    0    0  501    0  0.00000000000E+00  0.00000000000E+00  0.16071898259E+03  0.16071898259E+03  0.00000000000E+00 0. -1.
         -2   -1    0    0    0  501 -0.00000000000E+00 -0.00000000000E+00 -0.21699179865E+03  0.21699179865E+03  0.00000000000E+00 0.  1.
         25    2    1    2    0    0  0.96082316583E+02  0.16498049365E+02 -0.14763653649E+03  0.21667630926E+03  0.12509228152E+03 0.  0.
          5    1    3    3  502    0  0.13561198373E+02 -0.20800851518E+02  0.15838286707E+02  0.29747357043E+02  0.41800000000E+01 0. -1.
         -5    1    3    3    0  502  0.82521118210E+02  0.37298900883E+02 -0.16347482319E+03  0.18692895222E+03  0.41800000000E+01 0. -1.
        -11    1    1    2    0    0 -0.70201593217E+02 -0.29092193289E+02  0.10465289836E+03  0.12933231822E+03  0.00000000000E+00 0.  1.
         11    1    1    2    0    0 -0.25880723366E+02  0.12594143924E+02 -0.13289177931E+02  0.31702153763E+02  0.00000000000E+00 0. -1.
</event>
<event>
 7    1  0.2612213E-009  0.1336614E+03  0.7561462E-02  0.1222122E+00
          1   -1    0    0  501    0  0.00000000000E+00  0.00000000000E+00  0.13814434235E+03  0.13814434235E+03  0.00000000000E+00 0. -1.
         -1   -1    0    0    0  501 -0.00000000000E+00 -0.00000000000E+00 -0.26707123952E+03  0.26707123952E+03  0.00000000000E+00 0.  1.
         25    2    1    2    0    0 -0.31091563562E+02  0.94825714169E+02 -0.19782838853E+03  0.25444990447E+03  0.12510028452E+03 0.  0.
          5    1    3    3  502    0 -0.57591475399E+02  0.10574942952E+03 -0.11443965110E+03  0.16617348172E+03  0.41800000000E+01 0. -1.
         -5    1    3    3    0  502  0.26499911837E+02 -0.10923715349E+02 -0.83388737433E+02  0.88276422759E+02  0.41800000000E+01 0. -1.
        -11    1    1    2    0    0  0.22423250460E+02 -0.10332450069E+03  0.29837853829E+02  0.10985923778E+03  0.00000000000E+00 0.  1.
         11    1    1    2    0    0  0.86683131022E+01  0.84987865236E+01  0.39063637531E+02  0.40906439610E+02  0.00000000000E+00 0. -1.
</event>
<event>
 7    1  0.2612213E-009  0.1188333E+03  0.7561462E-02  0.1245034E+00
          1   -1    0    0  501    0  0.00000000000E+00  0.00000000000E+00  0.82890945920E+03  0.82890945920E+03  0.00000000000E+00 0.  1.
         -1   -1    0    0    0  501 -0.00000000000E+00 -0.00000000000E+00 -0.32695367549E+02  0.32695367549E+02  0.00000000000E+00 0. -1.
         25    2    1    2    0    0 -0.70668296295E+02  0.21495318963E+02  0.68996103458E+03  0.70508844033E+03  0.12508965824E+03 0.  0.
          5    1    3    3  502    0 -0.50519641852E+02 -0.47359073944E+02  0.25673859313E+03  0.26594603531E+03  0.41800000000E+01 0.  1.
         -5    1    3    3    0  502 -0.20148654443E+02  0.68854392908E+02  0.43322244146E+03  0.43914240501E+03  0.41800000000E+01 0.  1.
        -11    1    1    2    0    0  0.73685451450E+02  0.10411058769E+01  0.11105143586E+03  0.13327809671E+03  0.00000000000E+00 0.  1.
         11    1    1    2    0    0 -0.30171551550E+01 -0.22536424840E+02 -0.47983787896E+01  0.23238289714E+02  0.00000000000E+00 0. -1.
</event>
<event>
 7    1  0.2612213E-009  0.9787347E+02  0.7561462E-02  0.1284832E+00
         -1   -1    0    0    0  501 -0.00000000000E+00  0.00000000000E+00  0.22567927913E+03  0.22567927913E+03  0.00000000000E+00 0.  1.
          1   -1    0    0  501    0  0.00000000000E+00 -0.00000000000E+00 -0.72896200839E+02  0.72896200839E+02  0.00000000000E+00 0. -1.
         25    2    1    2    0    0  0.53080132239E+01  0.30160804156E+02  0.13744690495E+02  0.12950771975E+03  0.12508190855E+03 0.  0.
          5    1    3    3  502    0 -0.49945742705E+02  0.38376450783E+02 -0.17313452077E+02  0.65456529177E+02  0.41800000000E+01 0.  1.
         -5    1    3    3    0  502  0.55253755929E+02 -0.82156466264E+01  0.31058142572E+02  0.64051190573E+02  0.41800000000E+01 0.  1.
        -11    1    1    2    0    0  0.30782727103E+02 -0.20378116639E+01  0.11144706453E+03  0.11563813020E+03  0.00000000000E+00 0.  1.
         11    1    1    2    0    0 -0.36090740327E+02 -0.28122992492E+02  0.27591323265E+02  0.53429630016E+02  0.00000000000E+00 0. -1.
</event>
<event>
 7    1  0.2612213E-009  0.1270845E+03  0.7561462E-02  0.1231847E+00
          3   -1    0    0  501    0  0.00000000000E+00  0.00000000000E+00  0.33131520528E+03  0.33131520528E+03  0.00000000000E+00 0. -1.
         -3   -1    0    0    0  501 -0.00000000000E+00 -0.00000000000E+00 -0.68102990938E+02  0.68102990938E+02  0.00000000000E+00 0.  1.
         25    2    1    2    0    0  0.99232412432E+02  0.86413650946E+01  0.18057692162E+03  0.24119841730E+03  0.12508759738E+03 0.  0.
          5    1    3    3  502    0  0.98969040907E+02 -0.12559226571E+02  0.19225238961E+03  0.21663577484E+03  0.41800000000E+01 0.  1.
         -5    1    3    3    0  502  0.26337152568E+00  0.21200591666E+02 -0.11675467995E+02  0.24562642456E+02  0.41800000000E+01 0.  1.
        -11    1    1    2    0    0 -0.44244842437E+02  0.39736010614E+02  0.51378345096E+02  0.78589382022E+02  0.00000000000E+00 0. -1.
         11    1    1    2    0    0 -0.54987569996E+02 -0.48377375709E+02  0.31256947625E+02  0.79630396893E+02  0.00000000000E+00 0.  1.
</event>
<event>
 7    1  0.2612213E-009  0.9515581E+02  0.7561462E-02  0.1290826E+00
         -1   -1    0    0    0  501 -0.00000000000E+00  0.00000000000E+00  0.46374842720E+02  0.46374842720E+02  0.00000000000E+00 0.  1.
          1   -1    0    0  501    0  0.00000000000E+00 -0.00000000000E+00 -0.40072972421E+03  0.40072972421E+03  0.00000000000E+00 0. -1.
         25    2    1    2    0    0  0.61774059524E+02  0.45364377665E+02 -0.24557600997E+03  0.28605546467E+03  0.12508473530E+03 0.  0.
          5    1    3    3  502    0  0.42279498192E+02  0.62720818118E+02 -0.54903178811E+02  0.93559010450E+02  0.41800000000E+01 0.  1.
         -5    1    3    3    0  502  0.19494561332E+02 -0.17356440453E+02 -0.19067283116E+03  0.19249645422E+03  0.41800000000E+01 0.  1.
        -11    1    1    2    0    0 -0.18192823528E+02 -0.40339214283E+02 -0.10850118130E+03  0.11717822912E+03  0.00000000000E+00 0. -1.
         11    1    1    2    0    0 -0.43581235996E+02 -0.50251633820E+01 -0.27769022375E+00  0.43870873137E+02  0.00000000000E+00 0.  1.
</event>
<event>
 7    1  0.2612213E-009  0.2165873E+03  0.7561462E-02  0.1136453E+00
         -2   -1    0    0    0  501 -0.00000000000E+00  0.00000000000E+00  0.10894294475E+03  0.10894294475E+03  0.00000000000E+00 0.  1.
          2   -1    0    0  501    0  0.00000000000E+00 -0.00000000000E+00 -0.45495606537E+03  0.45495606537E+03  0.00000000000E+00 0. -1.
         25    2    1    2    0    0  0.12340473521E+02  0.19061762213E+03 -0.22549128420E+03  0.32090631243E+03  0.12508867636E+03 0.  0.
          5    1    3    3  502    0 -0.29261545727E+02  0.17566428287E+03 -0.20620890336E+03  0.27249543585E+03  0.41800000000E+01 0. -1.
         -5    1    3    3    0  502  0.41602019248E+02  0.14953339262E+02 -0.19282380842E+02  0.48410876583E+02  0.41800000000E+01 0. -1.
        -11    1    1    2    0    0 -0.40506695537E+02 -0.17239250374E+03 -0.10639728567E+03  0.20659223153E+03  0.00000000000E+00 0. -1.
         11    1    1    2    0    0  0.28166222016E+02 -0.18225118392E+02 -0.14124550746E+02  0.36400466163E+02  0.00000000000E+00 0.  1.
</event>
<event>
 7    1  0.2612213E-009  0.9180559E+02  0.7561462E-02  0.1298537E+00
          3   -1    0    0  501    0  0.00000000000E+00  0.00000000000E+00  0.41535091876E+02  0.41535091876E+02  0.00000000000E+00 0. -1.
         -3   -1    0    0    0  501 -0.00000000000E+00 -0.00000000000E+00 -0.32613483969E+03  0.32613483969E+03  0.00000000000E+00 0.  1.
         25    2    1    2    0    0 -0.61638414075E+01  0.25788745330E+02 -0.10649062308E+03  0.16640360118E+03  0.12508738287E+03 0.  0.
          5    1    3    3  502    0  0.28161593094E+02  0.55236020116E+02 -0.10370724687E+03  0.12089978783E+03  0.41800000000E+01 0. -1.
         -5    1    3    3    0  502 -0.34325434501E+02 -0.29447274786E+02 -0.27833762101E+01  0.45503813347E+02  0.41800000000E+01 0. -1.
        -11    1    1    2    0    0 -0.78456966655E+01  0.23518280773E+02 -0.12507882344E+03  0.12751226043E+03  0.00000000000E+00 0.  1.
         11    1    1    2    0    0  0.14009538073E+02 -0.49307026104E+02 -0.53030301287E+02  0.73754069954E+02  0.00000000000E+00 0. -1.
</event>
<event>
 7    1  0.2612213E-009  0.1363549E+03  0.7561462E-02  0.1218320E+00
          2   -1    0    0  501    0  0.00000000000E+00  0.00000000000E+00  0.70739000152E+03  0.70739000152E+03  0.00000000000E+00 0. -1.
         -2   -1    0    0    0  501 -0.00000000000E+00 -0.00000000000E+00 -0.37433442296E+02  0.37433442296E+02  0.00000000000E+00 0.  1.
         25    2    1    2    0    0 -0.11768365142E+03 -0.29633477137E+02  0.35954229255E+03  0.39955579123E+03  0.12508631179E+03 0.  0.
          5    1    3    3  502    0 -0.65851404960E+02 -0.13920792759E+02  0.33175346224E+03  0.33853807484E+03  0.41800000000E+01 0. -1.
         -5    1    3    3    0  502 -0.51832246464E+02 -0.15712684378E+02  0.27788830302E+02  0.61017716389E+02  0.41800000000E+01 0. -1.
        -11    1    1    2    0    0  0.33855842021E+02 -0.32248328866E+02  0.87702996860E+02  0.99388069766E+02  0.00000000000E+00 0.  1.
         11    1    1    2    0    0  0.83827809402E+02  0.61881806004E+02  0.22271126982E+03  0.24587958282E+03  0.00000000000E+00 0. -1.
</event>
<event>
 7    1  0.2612213E-009  0.1498095E+03  0.7561462E-02  0.1200707E+00
          2   -1    0    0  501    0  0.00000000000E+00  0.00000000000E+00  0.19902229770E+03  0.19902229770E+03  0.00000000000E+00 0. -1.
         -2   -1    0    0    0  501 -0.00000000000E+00 -0.00000000000E+00 -0.11778282358E+03  0.11778282358E+03  0.00000000000E+00 0.  1.
         25    2    1    2    0    0 -0.62020855148E+02 -0.88092959500E+02  0.43901521848E+02  0.17082415018E+03  0.12508633290E+03 0.  0.
          5    1    3    3  502    0 -0.55962348502E+02  0.12614083616E+02  0.39456104267E+02  0.69750671103E+02  0.41800000000E+01 0. -1.
         -5    1    3    3    0  502 -0.60585066460E+01 -0.10070704312E+03  0.44454175807E+01  0.10107347908E+03  0.41800000000E+01 0. -1.
        -11    1    1    2    0    0  0.15019486368E+02  0.92690280048E+02  0.24974306277E+02  0.97163722448E+02  0.00000000000E+00 0.  1.
         11    1    1    2    0    0  0.47001368781E+02 -0.45973205474E+01  0.12363645999E+02  0.48817248651E+02  0.00000000000E+00 0. -1.
</event>
<event>
 7    1  0.2612213E-009  0.1994210E+03  0.7561462E-02  0.1150228E+00
          1   -1    0    0  501    0  0.00000000000E+00  0.00000000000E+00  0.73470963130E+03  0.73470963130E+03  0.00000000000E+00 0. -1.
         -1   -1    0    0    0  501 -0.00000000000E+00 -0.00000000000E+00 -0.98286227727E+02  0.98286227727E+02  0.00000000000E+00 0.  1.
         25    2    1    2    0    0 -0.98326880452E+02 -0.13902343108E+03  0.52194647672E+02  0.21763394043E+03  0.12507821942E+03 0.  0.
          5    1    3    3  502    0 -0.42666962170E+02  0.15952587079E+02  0.19364196646E+02  0.49672922272E+02  0.41800000000E+01 0. -1.
         -5    1    3    3    0  502 -0.55659918282E+02 -0.15497601816E+03  0.32830451026E+02  0.16796101816E+03  0.41800000000E+01 0. -1.
        -11    1    1    2    0    0  0.16496316901E+02  0.93082796498E+02  0.22444930666E+03  0.24354471198E+03  0.00000000000E+00 0.  1.
         11    1    1    2    0    0  0.81830563550E+02  0.45940634578E+02  0.35977944925E+03  0.37181720662E+03  0.00000000000E+00 0. -1.
</event>
<event>
 7    1  0.2612213E-009  0.1061955E+03  0.7561462E-02  0.1267782E+00
          1   -1    0    0  501    0  0.00000000000E+00  0.00000000000E+00  0.88975965885E+02  0.88975965885E+02  0.00000000000E+00 0. -1.
         -1   -1    0    0    0  501 -0.00000000000E+00 -0.00000000000E+00 -0.14966789858E+03  0.14966789858E+03  0.00000000000E+00 0.  1.
         25    2    1    2    0    0 -0.17965279281E+02  0.28743828653E+02 -0.43230964503E+02  0.13661978555E+03  0.12508833106E+03 0.  0.
          5    1    3    3  502    0  0.40397721822E+02  0.52559869077E+02 -0.21686770176E+02  0.69873486864E+02  0.41800000000E+01 0.  1.
         -5    1    3    3    0  502 -0.58363001104E+02 -0.23816040424E+02 -0.21544194327E+02  0.66746298688E+02  0.41800000000E+01 0.  1.
        -11    1    1    2    0    0 -0.29474025503E+02 -0.55626605767E+01 -0.35271860581E+02  0.46300815553E+02  0.00000000000E+00 0.  1.
         11    1    1    2    0    0  0.47439304784E+02 -0.23181168076E+02  0.17810892389E+02  0.55723263360E+02  0.00000000000E+00 0. -1.
</event>
<event>
 7    1  0.2651744E-009  0.1086267E+03  0.7561462E-02  0.1263134E+00
          2   -1    0    0  501    0  0.00000000000E+00  0.00000000000E+00  0.21839744994E+04  0.21839744994E+04  0.00000000000E+00 0. -1.
         -2   -1    0    0    0  501 -0.00000000000E+00 -0.00000000000E+00 -0.13877133565E+02  0.13877133565E+02  0.00000000000E+00 0.  1.
         25    2    1    2    0    0  0.15282143465E+02 -0.52974916847E+02  0.19335492106E+04  0.19383758267E+04  0.12509360443E+03 0.  0.
          5    1    3    3  502    0 -0.91693048215E+01  0.39599968846E+02  0.58314675272E+03  0.58457663424E+03  0.41800000000E+01 0.  1.
         -5    1    3    3    0  502  0.24451448287E+02 -0.92574885693E+02  0.13504024579E+04  0.13537991924E+04  0.41800000000E+01 0.  1.
        -11    1    1    2    0    0  0.17700475598E+02 -0.51650218775E+00  0.34316854527E+01  0.18037463124E+02  0.00000000000E+00 0.  1.
         11    1    1    2    0    0 -0.32982619064E+02  0.53491419035E+02  0.23311646974E+03  0.24143834313E+03  0.00000000000E+00 0. -1.
</event>
<event>
 7    1  0.2612213E-009  0.1497612E+03  0.7561462E-02  0.1200767E+00
          2   -1    0    0  501    0  0.00000000000E+00  0.00000000000E+00  0.15332632314E+04  0.15332632314E+04  0.00000000000E+00 0. -1.
         -2   -1    0    0    0  501 -0.00000000000E+00 -0.00000000000E+00 -0.20708249888E+02  0.20708249888E+02  0.00000000000E+00 0.  1.
         25    2    1    2    0    0  0.11596335809E+03 -0.62683104106E+02  0.10213322216E+04  0.10373735570E+04  0.12509083833E+03 0.  0.
          5    1    3    3  502    0  0.13203267540E+03 -0.66005460684E+02  0.99609670444E+03  0.10069833490E+04  0.41800000000E+01 0.  1.
         -5    1    3    3    0  502 -0.16069317309E+02  0.33223565781E+01  0.25235517168E+02  0.30390207941E+02  0.41800000000E+01 0.  1.
        -11    1    1    2    0    0 -0.16733381077E+02  0.22074977869E+02  0.22263735604E+02  0.35538494809E+02  0.00000000000E+00 0.  1.
         11    1    1    2    0    0 -0.99229977010E+02  0.40608126237E+02  0.46895902434E+03  0.48105942956E+03  0.00000000000E+00 0. -1.
</event>
<event>
 7    1  0.2612213E-009  0.8423935E+02  0.7561462E-02  0.1317434E+00
          1   -1    0    0  501    0  0.00000000000E+00  0.00000000000E+00  0.75551686025E+03  0.75551686025E+03  0.00000000000E+00 0. -1.
         -1   -1    0    0    0  501 -0.00000000000E+00 -0.00000000000E+00 -0.22578489597E+02  0.22578489597E+02  0.00000000000E+00 0.  1.
         25    2    1    2    0    0  0.48027476996E+02  0.31294242454E+02  0.27967485869E+03  0.31169140493E+03  0.12509011618E+03 0.  0.
          5    1    3    3  502    0  0.74610642345E+01  0.29369869884E+01 -0.12442444542E+02  0.15381163749E+02  0.41800000000E+01 0. -1.
         -5    1    3    3    0  502  0.40566412762E+02  0.28357255465E+02  0.29211730323E+03  0.29631024118E+03  0.41800000000E+01 0. -1.
        -11    1    1    2    0    0 -0.53388053287E+02  0.20872747061E+02  0.24948129985E+03  0.25598217668E+03  0.00000000000E+00 0. -1.
         11    1    1    2    0    0  0.53605762904E+01 -0.52166989514E+02  0.20378221211E+03  0.21042176824E+03  0.00000000000E+00 0.  1.
</event>
<event>
 7    1  0.2612213E-009  0.1878547E+03  0.7561462E-02  0.1160411E+00
         -2   -1    0    0    0  501 -0.00000000000E+00  0.00000000000E+00  0.85050559877E+02  0.85050559877E+02  0.00000000000E+00 0.  1.
          2   -1    0    0  501    0  0.00000000000E+00 -0.00000000000E+00 -0.46456300029E+03  0.46456300029E+03  0.00000000000E+00 0. -1.
         25    2    1    2    0    0  0.11096391854E+03  0.11219157302E+03 -0.12708254439E+03  0.23811253532E+03  0.12509063159E+03 0.  0.
          5    1    3    3  502    0  0.94724958119E+02  0.16437921323E+02 -0.96310043395E+02  0.13614741939E+03  0.41800000000E+01 0. -1.
         -5    1    3    3    0  502  0.16238960423E+02  0.95753651693E+02 -0.30772500995E+02  0.10196511593E+03  0.41800000000E+01 0. -1.
        -11    1    1    2    0    0  0.16310325705E+02 -0.11080855126E+02 -0.22517541247E+02  0.29930782461E+02  0.00000000000E+00 0.  1.
         11    1    1    2    0    0 -0.12727424425E+03 -0.10111071789E+03 -0.22991235477E+03  0.28157024239E+03  0.00000000000E+00 0. -1.
</event>
<event>
 7    1  0.2752245E-009  0.1214181E+03  0.7561462E-02  0.1240776E+00
         -3   -1    0    0    0  501 -0.00000000000E+00  0.00000000000E+00  0.94034764343E+01  0.94034764343E+01  0.00000000000E+00 0.  1.
          3   -1    0    0  501    0  0.00000000000E+00 -0.00000000000E+00 -0.17760735986E+04  0.17760735986E+04  0.00000000000E+00 0. -1.
         25    2    1    2    0    0  0.57143752625E+02  0.19608785592E+02 -0.12234905942E+04  0.12313514527E+04  0.12508898058E+03 0.  0.
          5    1    3    3  502    0  0.85873173664E+02 -0.19811831327E+02 -0.68965292084E+03  0.69527356791E+03  0.41800000000E+01 0. -1.
         -5    1    3    3    0  502 -0.28729421039E+02  0.39420616920E+02 -0.53383767336E+03  0.53607788480E+03  0.41800000000E+01 0. -1.
        -11    1    1    2    0    0 -0.70922728746E+02  0.11292947104E+02 -0.43142572864E+03  0.43736223367E+03  0.00000000000E+00 0.  1.
         11    1    1    2    0    0  0.13778976121E+02 -0.30901732696E+02 -0.11175379936E+03  0.11676338869E+03  0.00000000000E+00 0. -1.
</event>
<event>
 7    1  0.2612213E-009  0.1328676E+03  0.7561462E-02  0.1223262E+00
          2   -1    0    0  501    0  0.00000000000E+00  0.00000000000E+00  0.75988940576E+02  0.75988940576E+02  0.00000000000E+00 0.  1.
         -2   -1    0    0    0  501 -0.00000000000E+00 -0.00000000000E+00 -0.32973013529E+03  0.32973013529E+03  0.00000000000E+00 0. -1.
         25    2    1    2    0    0 -0.10066074181E+03  0.29619660147E+02 -0.19556274811E+03  0.25476023690E+03  0.12509228853E+03 0.  0.
          5    1    3    3  502    0 -0.28095217767E+02  0.71305388725E+02 -0.11680051303E+03  0.13976277032E+03  0.41800000000E+01 0.  1.
         -5    1    3    3    0  502 -0.72565524039E+02 -0.41685728578E+02 -0.78762235084E+02  0.11499746659E+03  0.41800000000E+01 0.  1.
        -11    1    1    2    0    0  0.27992268149E+02 -0.11735557434E+02  0.24816101829E+02  0.39206240503E+02  0.00000000000E+00 0.  1.
         11    1    1    2    0    0  0.72668473657E+02 -0.17884102713E+02 -0.82994548433E+02  0.11175259846E+03  0.00000000000E+00 0. -1.
</event>
<event>
 7    1  0.2612213E-009  0.1094177E+03  0.7561462E-02  0.1261652E+00
         -2   -1    0    0    0  501 -0.00000000000E+00  0.00000000000E+00  0.68963441734E+02  0.68963441734E+02  0.00000000000E+00 0.  1.
          2   -1    0    0  501    0  0.00000000000E+00 -0.00000000000E+00 -0.29762984226E+03  0.29762984226E+03  0.00000000000E+00 0. -1.
         25    2    1    2    0    0 -0.70200953764E+02 -0.19996670347E+02 -0.49242112588E+02  0.15296658639E+03  0.12508377260E+03 0.  0.
          5    1    3    3  502    0 -0.19526241446E+02 -0.44556572732E+02 -0.76115781670E+02  0.90430342795E+02  0.41800000000E+01 0. -1.
         -5    1    3    3    0  502 -0.50674712317E+02  0.24559902386E+02  0.26873669083E+02  0.62536243600E+02  0.41800000000E+01 0. -1.
        -11    1    1    2    0    0  0.28847966473E+02  0.53193244739E+02 -0.73789468442E+02  0.95428570714E+02  0.00000000000E+00 0.  1.
         11    1    1    2    0    0  0.41352987291E+02 -0.33196574393E+02 -0.10563481950E+03  0.11819812689E+03  0.00000000000E+00 0. -1.
</event>
<event>
 7    1  0.2612213E-009  0.1489749E+03  0.7561462E-02  0.1201738E+00
          2   -1    0    0  501    0  0.00000000000E+00  0.00000000000E+00  0.27523133442E+03  0.27523133442E+03  0.00000000000E+00 0. -1.
         -2   -1    0    0    0  501 -0.00000000000E+00 -0.00000000000E+00 -0.11711963988E+03  0.11711963988E+03  0.00000000000E+00 0.  1.
         25    2    1    2    0    0  0.86793256885E+02 -0.60964402092E+02  0.19261510324E+03  0.25297716225E+03  0.12508852409E+03 0.  0.
          5    1    3    3  502    0  0.82716417246E+02  0.17877531850E+02  0.10610928570E+03  0.13578757210E+03  0.41800000000E+01 0. -1.
         -5    1    3    3    0  502  0.40768396393E+01 -0.78841933942E+02  0.86505817542E+02  0.11718959014E+03  0.41800000000E+01 0. -1.
        -11    1    1    2    0    0 -0.28234633204E+02  0.69470813292E+02 -0.11402570595E+02  0.75851216390E+02  0.00000000000E+00 0.  1.
         11    1    1    2    0    0 -0.58558623682E+02 -0.85064112002E+01 -0.23100838105E+02  0.63522595666E+02  0.00000000000E+00 0. -1.
</event>
<event>
 7    1  0.2612213E-009  0.7886261E+02  0.7561462E-02  0.1332311E+00
         -2   -1    0    0    0  501 -0.00000000000E+00  0.00000000000E+00  0.21788380418E+03  0.21788380418E+03  0.00000000000E+00 0.  1.
          2   -1    0    0  501    0  0.00000000000E+00 -0.00000000000E+00 -0.66840290823E+02  0.66840290823E+02  0.00000000000E+00 0. -1.
         25    2    1    2    0    0  0.39462345520E+02 -0.19549738845E+02  0.53923739589E+02  0.14315936330E+03  0.12508942644E+03 0.  0.
          5    1    3    3  502    0 -0.13322296870E+02 -0.60086706902E+00 -0.35145033792E+02  0.37821824855E+02  0.41800000000E+01 0. -1.
         -5    1    3    3    0  502  0.52784642390E+02 -0.18948871776E+02  0.89068773381E+02  0.10533753844E+03  0.41800000000E+01 0. -1.
        -11    1    1    2    0    0 -0.33210521459E+02  0.48007362586E+02  0.96063587795E+02  0.11240933457E+03  0.00000000000E+00 0.  1.
         11    1    1    2    0    0 -0.62518240612E+01 -0.28457623741E+02  0.10561859690E+01  0.29155397131E+02  0.00000000000E+00 0. -1.
</event>
<event>
 7    1  0.2612213E-009  0.1364316E+03  0.7561462E-02  0.1218213E+00
          1   -1    0    0  501    0  0.00000000000E+00  0.00000000000E+00  0.23073848787E+03  0.23073848787E+03  0.00000000000E+00 0. -1.
         -1   -1    0    0    0  501 -0.00000000000E+00 -0.00000000000E+00 -0.11084408634E+03  0.11084408634E+03  0.00000000000E+00 0.  1.
         25    2    1    2    0    0  0.39121162046E+01 -0.11536477298E+03  0.93798641092E+02  0.19434428502E+03  0.12508869075E+03 0.  0.
          5    1    3    3  502    0 -0.37603211372E+02 -0.37186849297E+01  0.58986252084E+02  0.70176067559E+02  0.41800000000E+01 0. -1.
         -5    1    3    3    0  502  0.41515327576E+02 -0.11164608805E+03  0.34812389007E+02  0.12416821746E+03  0.41800000000E+01 0. -1.
        -11    1    1    2    0    0 -0.58671279657E+01  0.68016164716E+02  0.58438162988E+02  0.89864568917E+02  0.00000000000E+00 0. -1.
         11    1    1    2    0    0  0.19550117610E+01  0.47348608259E+02 -0.32342402554E+02  0.57373720273E+02  0.00000000000E+00 0.  1.
</event>
<event>
 7    1  0.2612213E-009  0.1200226E+03  0.7561462E-02  0.1243060E+00
         -1   -1    0    0    0  501 -0.00000000000E+00  0.00000000000E+00  0.73093683698E+02  0.73093683698E+02  0.00000000000E+00 0.  1.
          1   -1    0    0  501    0  0.00000000000E+00 -0.00000000000E+00 -0.54806147981E+03  0.54806147981E+03  0.00000000000E+00 0. -1.
         25    2    1    2    0    0  0.20359644125E+02 -0.56376579192E+02 -0.49223656208E+03  0.51140665391E+03  0.12508836410E+03 0.  0.
          5    1    3    3  502    0  0.18972695299E+02  0.38593154495E+02 -0.13573820880E+03  0.14244903815E+03  0.41800000000E+01 0.  1.
         -5    1    3    3    0  502  0.13869488255E+01 -0.94969733686E+02 -0.35649835328E+03  0.36895761577E+03  0.41800000000E+01 0.  1.
        -11    1    1    2    0    0 -0.52401628622E+02  0.38949732136E+02 -0.74080959569E+01  0.65710670377E+02  0.00000000000E+00 0. -1.
         11    1    1    2    0    0  0.32041984497E+02  0.17426847055E+02  0.24676861920E+02  0.44037839219E+02  0.00000000000E+00 0.  1.
</event>
<event>
 7    1  0.2612213E-009  0.7115342E+02  0.7561462E-02  0.1356214E+00
         -2   -1    0    0    0  501 -0.00000000000E+00  0.00000000000E+00  0.17197364898E+02  0.17197364898E+02  0.00000000000E+00 0.  1.
          2   -1    0    0  501    0  0.00000000000E+00 -0.00000000000E+00 -0.81092075403E+03  0.81092075403E+03  0.00000000000E+00 0. -1.
         25    2    1    2    0    0  0.10545973320E+02  0.40168591005E+02 -0.53339613292E+03  0.54943932194E+03  0.12508957040E+03 0.  0.
          5    1    3    3  502    0  0.22085517226E+02  0.24329184496E+02 -0.27236784967E+02  0.42883495015E+02  0.41800000000E+01 0.  1.
         -5    1    3    3    0  502 -0.11539543906E+02  0.15839406509E+02 -0.50615934795E+03  0.50655582692E+03  0.41800000000E+01 0.  1.
        -11    1    1    2    0    0 -0.29310770589E+01 -0.64030778015E+02 -0.11915144843E+03  0.13529818701E+03  0.00000000000E+00 0.  1.
         11    1    1    2    0    0 -0.76148962609E+01  0.23862187010E+02 -0.14117580778E+03  0.14338060998E+03  0.00000000000E+00 0. -1.
</event>
<event>
 7    1  0.2612213E-009  0.1040145E+03  0.7561462E-02  0.1272074E+00
          2   -1    0    0  501    0  0.00000000000E+00  0.00000000000E+00  0.11146667662E+03  0.11146667662E+03  0.00000000000E+00 0.  1.
         -2   -1    0    0    0  501 -0.00000000000E+00 -0.00000000000E+00 -0.18302428468E+03  0.18302428468E+03  0.00000000000E+00 0. -1.
         25    2    1    2    0    0 -0.23649864155E+02 -0.73722955131E+02  0.14914039721E+02  0.14787111388E+03  0.12509615323E+03 0.  0.
          5    1    3    3  502    0 -0.15306054077E+02 -0.78797011718E+02 -0.41504126443E+02  0.90461645237E+02  0.41800000000E+01 0.  1.
         -5    1    3    3    0  502 -0.83438100783E+01  0.50740565876E+01  0.56418166164E+02  0.57409468646E+02  0.41800000000E+01 0.  1.
        -11    1    1    2    0    0  0.45328834730E+02  0.57627558737E+01 -0.44870876510E+02  0.64041456667E+02  0.00000000000E+00 0.  1.
         11    1    1    2    0    0 -0.21678970575E+02  0.67960199257E+02 -0.41600771268E+02  0.82578390747E+02  0.00000000000E+00 0. -1.
</event>
<event>
 7    1  0.2612213E-009  0.1232751E+03  0.7561462E-02  0.1237790E+00
          1   -1    0    0  501    0  0.00000000000E+00  0.00000000000E+00  0.83046880100E+03  0.83046880100E+03  0.00000000000E+00 0. -1.
         -1   -1    0    0    0  501 -0.00000000000E+00 -0.00000000000E+00 -0.37323830713E+02  0.37323830713E+02  0.00000000000E+00 0.  1.
         25    2    1    2    0    0  0.13492966299E+02  0.27222049898E+02  0.99264268803E+02  0.16255411931E+03  0.12508935408E+03 0.  0.
          5    1    3    3  502    0  0.64690220341E+02  0.24437885222E+02  0.28139322056E+02  0.74775187646E+02  0.41800000000E+01 0.  1.
         -5    1    3    3    0  502 -0.51197254042E+02  0.27841646765E+01  0.71124946747E+02  0.87778931664E+02  0.41800000000E+01 0.  1.
        -11    1    1    2    0    0 -0.63035852134E+02  0.10048978189E+02  0.33067211703E+03  0.33677670584E+03  0.00000000000E+00 0.  1.
         11    1    1    2    0    0  0.49542885835E+02 -0.37271028087E+02  0.36320858445E+03  0.36846180656E+03  0.00000000000E+00 0. -1.
</event>
<event>
 7    1  0.2612213E-009  0.1309179E+03  0.7561462E-02  0.1226100E+00
          1   -1    0    0  501    0  0.00000000000E+00  0.00000000000E+00  0.45273768205E+02  0.45273768205E+02  0.00000000000E+00 0. -1.
         -1   -1    0    0    0  501 -0.00000000000E+00 -0.00000000000E+00 -0.43379575543E+03  0.43379575543E+03  0.00000000000E+00 0.  1.
         25    2    1    2    0    0 -0.58343283328E+02 -0.43399068626E+02 -0.28627877399E+03  0.32076546654E+03  0.12509008841E+03 0.  0.
          5    1    3    3  502    0 -0.85283116746E+02 -0.65231309164E+02 -0.18903621650E+03  0.21744079021E+03  0.41800000000E+01 0. -1.
         -5    1    3    3    0  502  0.26939833418E+02  0.21832240539E+02 -0.97242557490E+02  0.10332467633E+03  0.41800000000E+01 0. -1.
        -11    1    1    2    0    0 -0.25502604060E+02  0.10510664638E+01 -0.12618231216E+02  0.28472922463E+02  0.00000000000E+00 0. -1.
         11    1    1    2    0    0  0.83845887388E+02  0.42348002162E+02 -0.89624982020E+02  0.12983113464E+03  0.00000000000E+00 0.  1.
</event>
<event>
 7    1  0.2612213E-009  0.1197081E+03  0.7561462E-02  0.1243579E+00
         -2   -1    0    0    0  501 -0.00000000000E+00  0.00000000000E+00  0.70073721422E+02  0.70073721422E+02  0.00000000000E+00 0.  1.
          2   -1    0    0  501    0  0.00000000000E+00 -0.00000000000E+00 -0.23595742284E+03  0.23595742284E+03  0.00000000000E+00 0. -1.
         25    2    1    2    0    0  0.12670894072E+02  0.58919656530E+02 -0.58778139034E+02  0.15078014676E+03  0.12509078921E+03 0.  0.
          5    1    3    3  502    0  0.11943008917E+02 -0.38900718636E+02 -0.15840832585E+02  0.43866909504E+02  0.41800000000E+01 0. -1.
         -5    1    3    3    0  502  0.72788515443E+00  0.97820375167E+02 -0.42937306449E+02  0.10691323725E+03  0.41800000000E+01 0. -1.
        -11    1    1    2    0    0 -0.42398320821E+02 -0.56682984539E+02 -0.10325980384E+03  0.12519251349E+03  0.00000000000E+00 0. -1.
         11    1    1    2    0    0  0.29727426749E+02 -0.22366719908E+01 -0.38457585456E+01  0.30058484019E+02  0.00000000000E+00 0.  1.
</event>
<event>
 7    1  0.2612213E-009  0.1281430E+03  0.7561462E-02  0.1230238E+00
          1   -1    0    0  501    0  0.00000000000E+00  0.00000000000E+00  0.57668505424E+02  0.57668505424E+02  0.00000000000E+00 0. -1.
         -1   -1    0    0    0  501 -0.00000000000E+00 -0.00000000000E+00 -0.42059571020E+03  0.42059571020E+03  0.00000000000E+00 0.  1.
         25    2    1    2    0    0 -0.39873527988E+02  0.93700290700E+02 -0.26084363453E+03  0.30668539849E+03  0.12508752641E+03 0.  0.
          5    1    3    3  502    0 -0.60591762913E+01  0.92798333007E+02 -0.80256038442E+02  0.12290951278E+03  0.41800000000E+01 0.  1.
         -5    1    3    3    0  502 -0.33814351696E+02  0.90195769303E+00 -0.18058759609E+03  0.18377588571E+03  0.41800000000E+01 0.  1.
        -11    1    1    2    0    0 -0.20014459607E+02 -0.53134010065E+02 -0.15698833430E+02  0.58908870216E+02  0.00000000000E+00 0.  1.
         11    1    1    2    0    0  0.59887987595E+02 -0.40566280635E+02 -0.86384736811E+02  0.11266994691E+03  0.00000000000E+00 0. -1.
</event>
<event>
 7    1  0.2612213E-009  0.1380492E+03  0.7561462E-02  0.1215978E+00
          1   -1    0    0  501    0  0.00000000000E+00  0.00000000000E+00  0.19144696089E+03  0.19144696089E+03  0.00000000000E+00 0. -1.
         -1   -1    0    0    0  501 -0.00000000000E+00 -0.00000000000E+00 -0.13940934702E+03  0.13940934702E+03  0.00000000000E+00 0.  1.
         25    2    1    2    0    0  0.11517485131E+03  0.25143494517E+02  0.62084568363E+02  0.18275363401E+03  0.12508779087E+03 0.  0.
          5    1    3    3  502    0  0.38928110962E+01 -0.15094321282E+02 -0.29119756031E+02  0.33293018855E+02  0.41800000000E+01 0. -1.
         -5    1    3    3    0  502  0.11128204022E+03  0.40237815799E+02  0.91204324394E+02  0.14946061516E+03  0.41800000000E+01 0. -1.
        -11    1    1    2    0    0 -0.89485084115E+02  0.18058804317E+02  0.14045962703E+02  0.92363357240E+02  0.00000000000E+00 0. -1.
         11    1    1    2    0    0 -0.25689767200E+02 -0.43202298833E+02 -0.24092917196E+02  0.55739316665E+02  0.00000000000E+00 0.  1.
</event>
<event>
 7    1  0.2612213E-009  0.2164214E+03  0.7561462E-02  0.1136579E+00
          1   -1    0    0  501    0  0.00000000000E+00  0.00000000000E+00  0.50095117001E+03  0.50095117001E+03  0.00000000000E+00 0. -1.
         -1   -1    0    0    0  501 -0.00000000000E+00 -0.00000000000E+00 -0.11810816566E+03  0.11810816566E+03  0.00000000000E+00 0.  1.
         25    2    1    2    0    0 -0.11705738736E+03  0.16468883207E+03  0.92459082381E+02  0.25499090631E+03  0.12508731767E+03 0.  0.
          5    1    3    3  502    0 -0.13548910227E+02 -0.16272005440E+02 -0.86544481494E+01  0.23253451403E+02  0.41800000000E+01 0. -1.
         -5    1    3    3    0  502 -0.10350847714E+03  0.18096083751E+03  0.10111353053E+03  0.23173745491E+03  0.41800000000E+01 0. -1.
        -11    1    1    2    0    0  0.10985005970E+03 -0.14596463546E+03  0.19746333147E+03  0.26900646404E+03  0.00000000000E+00 0.  1.
         11    1    1    2    0    0  0.72073276623E+01 -0.18724196609E+02  0.92920590499E+02  0.95061965314E+02  0.00000000000E+00 0. -1.
</event>
<event>
 7    1  0.2612213E-009  0.1144609E+03  0.7561462E-02  0.1252525E+00
          1   -1    0    0  501    0  0.00000000000E+00  0.00000000000E+00  0.12916858627E+04  0.12916858627E+04  0.00000000000E+00 0. -1.
         -1   -1    0    0    0  501 -0.00000000000E+00 -0.00000000000E+00 -0.12789489709E+02  0.12789489709E+02  0.00000000000E+00 0.  1.
         25    2    1    2    0    0  0.14272627320E+02 -0.40407552174E+02  0.99072040678E+03  0.99950513601E+03  0.12508842604E+03 0.  0.
          5    1    3    3  502    0  0.54936375332E+02 -0.63185443566E+02  0.55809084669E+03  0.56435208086E+03  0.41800000000E+01 0. -1.
         -5    1    3    3    0  502 -0.40663748012E+02  0.22777891392E+02  0.43262956009E+03  0.43515305515E+03  0.41800000000E+01 0. -1.
        -11    1    1    2    0    0  0.14532056806E+01 -0.28032497643E+02  0.10813374543E+03  0.11171767824E+03  0.00000000000E+00 0.  1.
         11    1    1    2    0    0 -0.15725833001E+02  0.68440049817E+02  0.18004222081E+03  0.19325253819E+03  0.00000000000E+00 0. -1.
</event>
<event>
 7    1  0.2612213E-009  0.8867235E+02  0.7561462E-02  0.1306099E+00
          4   -1    0    0  501    0  0.00000000000E+00  0.00000000000E+00  0.45841028290E+02  0.45841028290E+02  0.00000000000E+00 0. -1.
         -4   -1    0    0    0  501 -0.00000000000E+00 -0.00000000000E+00 -0.28181794250E+03  0.28181794250E+03  0.00000000000E+00 0.  1.
         25    2    1    2    0    0  0.36667943566E+01 -0.28467011209E+02 -0.16682762545E+03  0.21048404011E+03  0.12509299908E+03 0.  0.
          5    1    3    3  502    0  0.11119478086E+02 -0.76731497357E+02 -0.85218386223E+02  0.11528664810E+03  0.41800000000E+01 0. -1.
         -5    1    3    3    0  502 -0.74526837294E+01  0.48264486148E+02 -0.81609239226E+02  0.95197392007E+02  0.41800000000E+01 0. -1.
        -11    1    1    2    0    0 -0.12121303343E+02 -0.71529615177E+01 -0.78205475235E+02  0.79461860096E+02  0.00000000000E+00 0.  1.
         11    1    1    2    0    0  0.84545089862E+01  0.35619972726E+02  0.90561864784E+01  0.37713070583E+02  0.00000000000E+00 0. -1.
</event>
<event>
 7    1  0.2612213E-009  0.1641485E+03  0.7561462E-02  0.1184091E+00
         -1   -1    0    0    0  501 -0.00000000000E+00  0.00000000000E+00  0.20904465513E+03  0.20904465513E+03  0.00000000000E+00 0.  1.
          1   -1    0    0  501    0  0.00000000000E+00 -0.00000000000E+00 -0.15102551922E+03  0.15102551922E+03  0.00000000000E+00 0. -1.
         25    2    1    2    0    0  0.10166457775E+02 -0.13767026463E+03  0.43498148007E+01  0.18634154209E+03  0.12509112995E+03 0.  0.
          5    1    3    3  502    0  0.49246405820E+02 -0.10278379362E+03 -0.36535082264E+02  0.11975809515E+03  0.41800000000E+01 0.  1.
         -5    1    3    3    0  502 -0.39079948045E+02 -0.34886471007E+02  0.40884897065E+02  0.66583446941E+02  0.41800000000E+01 0.  1.
        -11    1    1    2    0    0  0.36024644490E+02  0.41145659962E+02  0.35473167258E+02  0.65185013152E+02  0.00000000000E+00 0.  1.
         11    1    1    2    0    0 -0.46191102265E+02  0.96524604665E+02  0.18196153860E+02  0.10854361911E+03  0.00000000000E+00 0. -1.
</event>
<event>
 7    1  0.2612213E-009  0.1565431E+03  0.7561462E-02  0.1192656E+00
         -3   -1    0    0    0  501 -0.00000000000E+00  0.00000000000E+00  0.16726545271E+03  0.16726545271E+03  0.00000000000E+00 0.  1.
          3   -1    0    0  501    0  0.00000000000E+00 -0.00000000000E+00 -0.16964860804E+03  0.16964860804E+03  0.00000000000E+00 0. -1.
         25    2    1    2    0    0  0.97102392875E+02 -0.76282657207E+02 -0.38444527792E+02  0.17992440891E+03  0.12508754019E+03 0.  0.
          5    1    3    3  502    0 -0.20804001280E+02 -0.26684305745E+01  0.19810943984E+02  0.29152579517E+02  0.41800000000E+01 0.  1.
         -5    1    3    3    0  502  0.11790639416E+03 -0.73614226633E+02 -0.58255471776E+02  0.15077182939E+03  0.41800000000E+01 0.  1.
        -11    1    1    2    0    0 -0.68730347376E+02  0.96013566072E+02  0.24915033736E+02  0.12067818538E+03  0.00000000000E+00 0.  1.
         11    1    1    2    0    0 -0.28372045500E+02 -0.19730908865E+02  0.11146338723E+02  0.36311466473E+02  0.00000000000E+00 0. -1.
</event>
<event>
 7    1  0.2612213E-009  0.3896322E+03  0.7561462E-02  0.1047430E+00
         -1   -1    0    0    0  501 -0.00000000000E+00  0.00000000000E+00  0.57828101074E+02  0.57828101074E+02  0.00000000000E+00 0.  1.
          1   -1    0    0  501    0  0.00000000000E+00 -0.00000000000E+00 -0.28542245616E+04  0.28542245616E+04  0.00000000000E+00 0. -1.
         25    2    1    2    0    0  0.32178791731E+03  0.21050438787E+03 -0.16592224383E+04  0.17077845118E+04  0.12509707482E+03 0.  0.
          5    1    3    3  502    0  0.94265612271E+02  0.74583244635E+02 -0.30486393709E+03  0.32773183942E+03  0.41800000000E+01 0.  1.
         -5    1    3    3    0  502  0.22752230504E+03  0.13592114324E+03 -0.13543585012E+04  0.13800526724E+04  0.41800000000E+01 0.  1.
        -11    1    1    2    0    0 -0.12278295521E+03 -0.13122723251E+03 -0.45309193724E+03  0.48743055324E+03  0.00000000000E+00 0.  1.
         11    1    1    2    0    0 -0.19900496210E+03 -0.79277155358E+02 -0.68408208500E+03  0.71683759759E+03  0.00000000000E+00 0. -1.
</event>
<event>
 7    1  0.2612213E-009  0.2420034E+03  0.7561462E-02  0.1118465E+00
         -1   -1    0    0    0  501 -0.00000000000E+00  0.00000000000E+00  0.14305910005E+03  0.14305910005E+03  0.00000000000E+00 0.  1.
          1   -1    0    0  501    0  0.00000000000E+00 -0.00000000000E+00 -0.48430744156E+03  0.48430744156E+03  0.00000000000E+00 0. -1.
         25    2    1    2    0    0  0.20722533331E+03 -0.85724517552E+02 -0.27603750878E+03  0.37700753905E+03  0.12508775549E+03 0.  0.
          5    1    3    3  502    0  0.54006173049E+00 -0.29214005824E+02 -0.26559752024E+01  0.29635728559E+02  0.41800000000E+01 0.  1.
         -5    1    3    3    0  502  0.20668527157E+03 -0.56510511728E+02 -0.27338153358E+03  0.34737181049E+03  0.41800000000E+01 0.  1.
        -11    1    1    2    0    0 -0.33263428038E+02  0.53887299851E+02 -0.29840723411E+02  0.70005467671E+02  0.00000000000E+00 0. -1.
         11    1    1    2    0    0 -0.17396190527E+03  0.31837217701E+02 -0.35370109317E+02  0.18035353489E+03  0.00000000000E+00 0.  1.
</event>
<event>
 7    1  0.2612213E-009  0.2010210E+03  0.7561462E-02  0.1148880E+00
          2   -1    0    0  501    0  0.00000000000E+00  0.00000000000E+00  0.33064980670E+03  0.33064980670E+03  0.00000000000E+00 0. -1.
         -2   -1    0    0    0  501 -0.00000000000E+00 -0.00000000000E+00 -0.14550825009E+03  0.14550825009E+03  0.00000000000E+00 0.  1.
         25    2    1    2    0    0 -0.11989075972E+03  0.14656067271E+03  0.11678850739E+03  0.25522632564E+03  0.12508835592E+03 0.  0.
          5    1    3    3  502    0 -0.71551508045E+02  0.12718905628E+03  0.22896659017E+02  0.14777822483E+03  0.41800000000E+01 0.  1.
         -5    1    3    3    0  502 -0.48339251670E+02  0.19371616438E+02  0.93891848375E+02  0.10744810081E+03  0.41800000000E+01 0.  1.
        -11    1    1    2    0    0 -0.66646831728E+01 -0.33326355070E+02 -0.77211269274E+01  0.34852255954E+02  0.00000000000E+00 0.  1.
         11    1    1    2    0    0  0.12655544289E+03 -0.11323431764E+03  0.76074176141E+02  0.18607947520E+03  0.00000000000E+00 0. -1.
</event>
<event>
 7    1  0.2612213E-009  0.1718908E+03  0.7561462E-02  0.1175890E+00
          2   -1    0    0  501    0  0.00000000000E+00  0.00000000000E+00  0.87602140213E+02  0.87602140213E+02  0.00000000000E+00 0. -1.
         -2   -1    0    0    0  501 -0.00000000000E+00 -0.00000000000E+00 -0.71188718185E+03  0.71188718185E+03  0.00000000000E+00 0.  1.
         25    2    1    2    0    0  0.89329353958E+02  0.11920482009E+03 -0.58840427379E+03  0.61972311651E+03  0.12509048370E+03 0.  0.
          5    1    3    3  502    0 -0.84566817948E+01 -0.17067929089E+02 -0.24083025462E+02  0.30988613808E+02  0.41800000000E+01 0. -1.
         -5    1    3    3    0  502  0.97786035753E+02  0.13627274917E+03 -0.56432124833E+03  0.58873450270E+03  0.41800000000E+01 0. -1.
        -11    1    1    2    0    0 -0.94708983123E+02 -0.10548054491E+03 -0.58015445693E+02  0.15317221934E+03  0.00000000000E+00 0.  1.
         11    1    1    2    0    0  0.53796291647E+01 -0.13724275173E+02  0.22134677849E+02  0.26593986209E+02  0.00000000000E+00 0. -1.
</event>
<event>
 7    1  0.2612213E-009  0.1294177E+03  0.7561462E-02  0.1228322E+00
         -1   -1    0    0    0  501 -0.00000000000E+00  0.00000000000E+00  0.26453080764E+03  0.26453080764E+03  0.00000000000E+00 0.  1.
          1   -1    0    0  501    0  0.00000000000E+00 -0.00000000000E+00 -0.85560609479E+02  0.85560609479E+02  0.00000000000E+00 0. -1.
         25    2    1    2    0    0 -0.87503261873E+02 -0.34791119667E+02  0.49196913886E+02  0.16411839167E+03  0.12508903749E+03 0.  0.
          5    1    3    3  502    0  0.17343130004E+02 -0.30034064211E+02  0.47632751880E+02  0.59069286630E+02  0.41800000000E+01 0.  1.
         -5    1    3    3    0  502 -0.10484639188E+03 -0.47570554557E+01  0.15641620065E+01  0.10504910504E+03  0.41800000000E+01 0.  1.
        -11    1    1    2    0    0  0.28479080640E+02 -0.22737993474E+02  0.55061343012E+01  0.36856368463E+02  0.00000000000E+00 0. -1.
         11    1    1    2    0    0  0.59024181233E+02  0.57529113141E+02  0.12426714998E+03  0.14911665699E+03  0.00000000000E+00 0.  1.
</event>
<event>
 7    1  0.2612213E-009  0.1128191E+03  0.7561462E-02  0.1255437E+00
         -1   -1    0    0    0  501 -0.00000000000E+00  0.00000000000E+00  0.10023089184E+02  0.10023089184E+02  0.00000000000E+00 0.  1.
          1   -1    0    0  501    0  0.00000000000E+00 -0.00000000000E+00 -0.12785737708E+04  0.12785737708E+04  0.00000000000E+00 0. -1.
         25    2    1    2    0    0 -0.31605823246E+02 -0.10796273282E+02 -0.72270534916E+03  0.73421126908E+03  0.12509068050E+03 0.  0.
          5    1    3    3  502    0 -0.46726586485E+02 -0.60584763594E+02 -0.39320032113E+03  0.40059687018E+03  0.41800000000E+01 0.  1.
         -5    1    3    3    0  502  0.15120763239E+02  0.49788490311E+02 -0.32950502803E+03  0.33361439889E+03  0.41800000000E+01 0.  1.
        -11    1    1    2    0    0 -0.23381497435E+02  0.30473264851E+02 -0.20307309373E+03  0.20667364537E+03  0.00000000000E+00 0.  1.
         11    1    1    2    0    0  0.54987320682E+02 -0.19676991568E+02 -0.34277223877E+03  0.34771194559E+03  0.00000000000E+00 0. -1.
</event>
<event>
 7    1  0.2612213E-009  0.1210827E+03  0.7561462E-02  0.1241322E+00
          1   -1    0    0  501    0  0.00000000000E+00  0.00000000000E+00  0.10285419528E+03  0.10285419528E+03  0.00000000000E+00 0. -1.
         -1   -1    0    0    0  501 -0.00000000000E+00 -0.00000000000E+00 -0.40690089332E+03  0.40690089332E+03  0.00000000000E+00 0.  1.
         25    2    1    2    0    0 -0.50703151338E+01  0.86713234571E+02 -0.34438084229E+03  0.37654740451E+03  0.12507953535E+03 0.  0.
          5    1    3    3  502    0  0.34832954757E+01 -0.32364615740E+02 -0.75518905519E+02  0.82341843495E+02  0.41800000000E+01 0.  1.
         -5    1    3    3    0  502 -0.85536106095E+01  0.11907785031E+03 -0.26886193677E+03  0.29420556102E+03  0.41800000000E+01 0.  1.
        -11    1    1    2    0    0 -0.92903575219E+01 -0.36301415576E+02 -0.28220744263E+02  0.46909635710E+02  0.00000000000E+00 0.  1.
         11    1    1    2    0    0  0.14360672656E+02 -0.50411818994E+02  0.68554888513E+02  0.86298048370E+02  0.00000000000E+00 0. -1.
</event>
<event>
 7    1  0.2668735E-009  0.1572154E+03  0.7561462E-02  0.1191877E+00
         -1   -1    0    0    0  501 -0.00000000000E+00  0.00000000000E+00  0.40811743250E+02  0.40811743250E+02  0.00000000000E+00 0.  1.
          1   -1    0    0  501    0  0.00000000000E+00 -0.00000000000E+00 -0.77464453657E+03  0.77464453657E+03  0.00000000000E+00 0. -1.
         25    2    1    2    0    0  0.44708056369E+02 -0.12438889658E+03 -0.27645456295E+03  0.33097719950E+03  0.12508946123E+03 0.  0.
          5    1    3    3  502    0  0.57672534118E+02 -0.14336569167E+03 -0.21166882028E+03  0.26210876486E+03  0.41800000000E+01 0. -1.
         -5    1    3    3    0  502 -0.12964477749E+02  0.18976795085E+02 -0.64785742672E+02  0.68868434631E+02  0.41800000000E+01 0. -1.
        -11    1    1    2    0    0 -0.46463560583E+02  0.83498672063E+02 -0.41382101934E+03  0.42471016793E+03  0.00000000000E+00 0. -1.
         11    1    1    2    0    0  0.17555042146E+01  0.40890224519E+02 -0.43557211030E+02  0.59768912396E+02  0.00000000000E+00 0.  1.
</event>
<event>
 7    1  0.2612213E-009  0.8742518E+02  0.7561462E-02  0.1309210E+00
          1   -1    0    0  501    0  0.00000000000E+00  0.00000000000E+00  0.69087597689E+03  0.69087597689E+03  0.00000000000E+00 0. -1.
         -1   -1    0    0    0  501 -0.00000000000E+00 -0.00000000000E+00 -0.27086196804E+02  0.27086196804E+02  0.00000000000E+00 0.  1.
         25    2    1    2    0    0  0.68393958649E+02 -0.45036896540E+02  0.33968296614E+03  0.37113092761E+03  0.12509033659E+03 0.  0.
          5    1    3    3  502    0  0.36554165456E+02 -0.29969442074E+02  0.33130057954E+03  0.33468182035E+03  0.41800000000E+01 0. -1.
         -5    1    3    3    0  502  0.31839793193E+02 -0.15067454466E+02  0.83823866075E+01  0.36449107258E+02  0.41800000000E+01 0. -1.
        -11    1    1    2    0    0 -0.83359301887E+01 -0.81815595229E+01 -0.12296722553E+01  0.11744689957E+02  0.00000000000E+00 0.  1.
         11    1    1    2    0    0 -0.60058028460E+02  0.53218456063E+02  0.32533648619E+03  0.33508655613E+03  0.00000000000E+00 0. -1.
</event>
<event>
 7    1  0.2612213E-009  0.1052053E+03  0.7561462E-02  0.1269716E+00
         -2   -1    0    0    0  501 -0.00000000000E+00  0.00000000000E+00  0.83889303679E+01  0.83889303679E+01  0.00000000000E+00 0.  1.
          2   -1    0    0  501    0  0.00000000000E+00 -0.00000000000E+00 -0.19912563982E+04  0.19912563982E+04  0.00000000000E+00 0. -1.
         25    2    1    2    0    0  0.21976544892E+02  0.31948305280E+02 -0.15589983373E+04  0.15644894524E+04  0.12509103942E+03 0.  0.
          5    1    3    3  502    0  0.63981521724E+02  0.35650367677E+02 -0.58681105911E+03  0.59137912994E+03  0.41800000000E+01 0.  1.
         -5    1    3    3    0  502 -0.42004976832E+02 -0.37020623975E+01 -0.97218727824E+03  0.97311032248E+03  0.41800000000E+01 0.  1.
        -11    1    1    2    0    0  0.10255970459E+02 -0.54421985172E+02 -0.18622413814E+03  0.19428424286E+03  0.00000000000E+00 0.  1.
         11    1    1    2    0    0 -0.32232515350E+02  0.22473679892E+02 -0.23764499237E+03  0.24087163331E+03  0.00000000000E+00 0. -1.
</event>
<event>
 7    1  0.2612213E-009  0.8488457E+02  0.7561462E-02  0.1315735E+00
          1   -1    0    0  501    0  0.00000000000E+00  0.00000000000E+00  0.11609913813E+04  0.11609913813E+04  0.00000000000E+00 0. -1.
         -1   -1    0    0    0  501 -0.00000000000E+00 -0.00000000000E+00 -0.23974889129E+02  0.23974889129E+02  0.00000000000E+00 0.  1.
         25    2    1    2    0    0  0.78367738766E+01  0.59044996992E+02  0.10110063745E+04  0.10204556429E+04  0.12509237858E+03 0.  0.
          5    1    3    3  502    0  0.41288158315E+02  0.57952850434E+02  0.92973098405E+03  0.93245933959E+03  0.41800000000E+01 0.  1.
         -5    1    3    3    0  502 -0.33451384438E+02  0.10921465573E+01  0.81275390421E+02  0.87996303292E+02  0.41800000000E+01 0.  1.
        -11    1    1    2    0    0 -0.16920415137E+02 -0.31502660411E+02  0.57221758366E+00  0.35763745530E+02  0.00000000000E+00 0.  1.
         11    1    1    2    0    0  0.90836412606E+01 -0.27542336581E+02  0.12543790014E+03  0.12874688204E+03  0.00000000000E+00 0. -1.
</event>
<event>
 7    1  0.2612213E-009  0.8672076E+02  0.7561462E-02  0.1310993E+00
         -1   -1    0    0    0  501 -0.00000000000E+00  0.00000000000E+00  0.38413808070E+02  0.38413808070E+02  0.00000000000E+00 0.  1.
          1   -1    0    0  501    0  0.00000000000E+00 -0.00000000000E+00 -0.48311439974E+03  0.48311439974E+03  0.00000000000E+00 0. -1.
         25    2    1    2    0    0 -0.60555904329E+02  0.47985133458E+02 -0.30348707810E+03  0.33722674374E+03  0.12509148466E+03 0.  0.
          5    1    3    3  502    0 -0.48106669494E+02  0.59279675193E+02 -0.30956728181E+03  0.31886941827E+03  0.41800000000E+01 0.  1.
         -5    1    3    3    0  502 -0.12449234835E+02 -0.11294541736E+02  0.60802037107E+01  0.18357325463E+02  0.41800000000E+01 0.  1.
        -11    1    1    2    0    0  0.26196408790E+02 -0.33113491245E+02 -0.43926989304E+01  0.42450570548E+02  0.00000000000E+00 0.  1.
         11    1    1    2    0    0  0.34359495538E+02 -0.14871642212E+02 -0.13682081464E+03  0.14185089352E+03  0.00000000000E+00 0. -1.
</event>
<event>
 7    1  0.2612213E-009  0.2671214E+03  0.7561462E-02  0.1102939E+00
          2   -1    0    0  501    0  0.00000000000E+00  0.00000000000E+00  0.26643860972E+03  0.26643860972E+03  0.00000000000E+00 0.  1.
         -2   -1    0    0    0  501 -0.00000000000E+00 -0.00000000000E+00 -0.29718610736E+03  0.29718610736E+03  0.00000000000E+00 0. -1.
         25    2    1    2    0    0  0.18619210462E+03  0.17595013643E+03 -0.56984892990E+02  0.29072431029E+03  0.12508955285E+03 0.  0.
          5    1    3    3  502    0  0.17863862982E+03  0.17975281151E+03 -0.80055874900E+02  0.26579926414E+03  0.41800000000E+01 0. -1.
         -5    1    3    3    0  502  0.75534747939E+01 -0.38026750804E+01  0.23070981910E+02  0.24925046149E+02  0.41800000000E+01 0. -1.
        -11    1    1    2    0    0 -0.84957418372E+02 -0.14031229808E+03  0.21949425198E+02  0.16549042630E+03  0.00000000000E+00 0.  1.
         11    1    1    2    0    0 -0.10123468625E+03 -0.35637838354E+02  0.42879701589E+01  0.10740998049E+03  0.00000000000E+00 0. -1.
</event>
<event>
 7    1  0.2612213E-009  0.1784167E+03  0.7561462E-02  0.1169344E+00
         -1   -1    0    0    0  501 -0.00000000000E+00  0.00000000000E+00  0.60305599508E+03  0.60305599508E+03  0.00000000000E+00 0.  1.
          1   -1    0    0  501    0  0.00000000000E+00 -0.00000000000E+00 -0.74484045884E+02  0.74484045884E+02  0.00000000000E+00 0. -1.
         25    2    1    2    0    0  0.57096017294E+02  0.15534816197E+03  0.15748468626E+03  0.26046703111E+03  0.12509452935E+03 0.  0.
          5    1    3    3  502    0  0.70482480901E+01  0.37578767524E+02  0.12154829483E+03  0.12748843848E+03  0.41800000000E+01 0. -1.
         -5    1    3    3    0  502  0.50047769204E+02  0.11776939444E+03  0.35936391428E+02  0.13297859263E+03  0.41800000000E+01 0. -1.
        -11    1    1    2    0    0 -0.79867459356E+02 -0.14453195637E+03  0.31905565571E+03  0.35925591006E+03  0.00000000000E+00 0. -1.
         11    1    1    2    0    0  0.22771442062E+02 -0.10816205597E+02  0.52031607225E+02  0.57817099784E+02  0.00000000000E+00 0.  1.
</event>
<event>
 7    1  0.2612213E-009  0.4512352E+03  0.7561462E-02  0.1027354E+00
          1   -1    0    0  501    0  0.00000000000E+00  0.00000000000E+00  0.76421104515E+03  0.76421104515E+03  0.00000000000E+00 0. -1.
         -1   -1    0    0    0  501 -0.00000000000E+00 -0.00000000000E+00 -0.29060843014E+03  0.29060843014E+03  0.00000000000E+00 0.  1.
         25    2    1    2    0    0 -0.18223800729E+03  0.40737961672E+03  0.35576335658E+03  0.58428102796E+03  0.12509160777E+03 0.  0.
          5    1    3    3  502    0 -0.33984404327E+01  0.15206790219E+02 -0.99856807832E+01  0.18973193902E+02  0.41800000000E+01 0.  1.
         -5    1    3    3    0  502 -0.17883956685E+03  0.39217282650E+03  0.36574903736E+03  0.56530783406E+03  0.41800000000E+01 0.  1.
        -11    1    1    2    0    0  0.27307914068E+01 -0.94768094373E+02  0.30937948957E+02  0.99727657240E+02  0.00000000000E+00 0.  1.
         11    1    1    2    0    0  0.17950721588E+03 -0.31261152235E+03  0.86901309469E+02  0.37081079008E+03  0.00000000000E+00 0. -1.
</event>
<event>
 7    1  0.2612213E-009  0.9971088E+02  0.7561462E-02  0.1280905E+00
          1   -1    0    0  501    0  0.00000000000E+00  0.00000000000E+00  0.23324266662E+03  0.23324266662E+03  0.00000000000E+00 0. -1.
         -1   -1    0    0    0  501 -0.00000000000E+00 -0.00000000000E+00 -0.73874595485E+02  0.73874595485E+02  0.00000000000E+00 0.  1.
         25    2    1    2    0    0 -0.48019877337E+02  0.32535981533E+02  0.12037553127E+03  0.18303539262E+03  0.12508871934E+03 0.  0.
          5    1    3    3  502    0 -0.64138509947E+02  0.19472309219E+02  0.67978903827E+01  0.67502614751E+02  0.41800000000E+01 0. -1.
         -5    1    3    3    0  502  0.16118632609E+02  0.13063672313E+02  0.11357764089E+03  0.11553277786E+03  0.41800000000E+01 0. -1.
        -11    1    1    2    0    0 -0.23449273175E+02  0.12549246206E+02 -0.75016756592E+01  0.27633804126E+02  0.00000000000E+00 0.  1.
         11    1    1    2    0    0  0.71469150513E+02 -0.45085227738E+02  0.46494215526E+02  0.96448065365E+02  0.00000000000E+00 0. -1.
</event>
<event>
 7    1  0.2612213E-009  0.7170591E+02  0.7561462E-02  0.1354386E+00
         -1   -1    0    0    0  501 -0.00000000000E+00  0.00000000000E+00  0.16515305532E+02  0.16515305532E+02  0.00000000000E+00 0.  1.
          1   -1    0    0  501    0  0.00000000000E+00 -0.00000000000E+00 -0.78685298824E+03  0.78685298824E+03  0.00000000000E+00 0. -1.
         25    2    1    2    0    0 -0.15604792714E+02 -0.25143523711E+02 -0.50387145152E+03  0.52001031544E+03  0.12509429311E+03 0.  0.
          5    1    3    3  502    0 -0.60129570248E+01  0.96591846162E+01 -0.47054632160E+03  0.47070242051E+03  0.41800000000E+01 0.  1.
         -5    1    3    3    0  502 -0.95918356896E+01 -0.34802708327E+02 -0.33325129923E+02  0.49307894938E+02  0.41800000000E+01 0.  1.
        -11    1    1    2    0    0 -0.36649839272E+02  0.21674532219E+02 -0.95768822808E+02  0.10480774536E+03  0.00000000000E+00 0. -1.
         11    1    1    2    0    0  0.52254631986E+02  0.34689914911E+01 -0.17069740838E+03  0.17855023297E+03  0.00000000000E+00 0.  1.
</event>
<event>
 7    1  0.2612213E-009  0.1090627E+03  0.7561462E-02  0.1262315E+00
          1   -1    0    0  501    0  0.00000000000E+00  0.00000000000E+00  0.42158446681E+03  0.42158446681E+03  0.00000000000E+00 0. -1.
         -1   -1    0    0    0  501 -0.00000000000E+00 -0.00000000000E+00 -0.53227622882E+02  0.53227622882E+02  0.00000000000E+00 0.  1.
         25    2    1    2    0    0 -0.62295411313E+02 -0.64691949465E+02  0.28250872689E+03  0.32175297353E+03  0.12509208053E+03 0.  0.
          5    1    3    3  502    0 -0.55472070064E+02 -0.61640347782E+02  0.29508138399E+03  0.30654066387E+03  0.41800000000E+01 0.  1.
         -5    1    3    3    0  502 -0.68233412490E+01 -0.30516016830E+01 -0.12572657097E+02  0.15212309658E+02  0.41800000000E+01 0.  1.
        -11    1    1    2    0    0  0.81105155192E+02  0.28906288940E+02  0.54499954816E+02  0.10190125031E+03  0.00000000000E+00 0.  1.
         11    1    1    2    0    0 -0.18809743879E+02  0.35785660525E+02  0.31348162219E+02  0.51157865851E+02  0.00000000000E+00 0. -1.
</event>
<event>
 7    1  0.2612213E-009  0.1312636E+03  0.7561462E-02  0.1225593E+00
          4   -1    0    0  501    0  0.00000000000E+00  0.00000000000E+00  0.56430711179E+02  0.56430711179E+02  0.00000000000E+00 0.  1.
         -4   -1    0    0    0  501 -0.00000000000E+00 -0.00000000000E+00 -0.45111383394E+03  0.45111383394E+03  0.00000000000E+00 0. -1.
         25    2    1    2    0    0  0.23424943621E+01  0.85227503174E+02 -0.86320425430E+02  0.17426633109E+03  0.12509326012E+03 0.  0.
          5    1    3    3  502    0 -0.56117097132E+02  0.29378623951E+02 -0.12486125289E+02  0.64696273931E+02  0.41800000000E+01 0. -1.
         -5    1    3    3    0  502  0.58459591494E+02  0.55848879223E+02 -0.73834300140E+02  0.10957005716E+03  0.41800000000E+01 0. -1.
        -11    1    1    2    0    0  0.26036794250E+02 -0.85842171865E+02 -0.27609442953E+03  0.29030144186E+03  0.00000000000E+00 0. -1.
         11    1    1    2    0    0 -0.28379288612E+02  0.61466869056E+00 -0.32268267800E+02  0.42976772175E+02  0.00000000000E+00 0.  1.
</event>
<event>
 7    1  0.2612213E-009  0.1112035E+03  0.7561462E-02  0.1258357E+00
          2   -1    0    0  501    0  0.00000000000E+00  0.00000000000E+00  0.12640513579E+04  0.12640513579E+04  0.00000000000E+00 0. -1.
         -2   -1    0    0    0  501 -0.00000000000E+00 -0.00000000000E+00 -0.12957115262E+02  0.12957115262E+02  0.00000000000E+00 0.  1.
         25    2    1    2    0    0 -0.30066738378E+02  0.34135116803E+02  0.94621499084E+03  0.95553168263E+03  0.12509505446E+03 0.  0.
          5    1    3    3  502    0 -0.20815304869E+02  0.80024858074E+02  0.49508047231E+03  0.50195557701E+03  0.41800000000E+01 0. -1.
         -5    1    3    3    0  502 -0.92514335091E+01 -0.45889741271E+02  0.45113451853E+03  0.45357610561E+03  0.41800000000E+01 0. -1.
        -11    1    1    2    0    0 -0.10348663493E+02 -0.48599207708E+02  0.94544811523E+02  0.10680683130E+03  0.00000000000E+00 0.  1.
         11    1    1    2    0    0  0.40415401871E+02  0.14464090905E+02  0.21033444025E+03  0.21466995921E+03  0.00000000000E+00 0. -1.
</event>
<event>
 7    1  0.2612213E-009  0.9973556E+02  0.7561462E-02  0.1280853E+00
         -1   -1    0    0    0  501 -0.00000000000E+00  0.00000000000E+00  0.25505168565E+02  0.25505168565E+02  0.00000000000E+00 0.  1.
          1   -1    0    0  501    0  0.00000000000E+00 -0.00000000000E+00 -0.69114818190E+03  0.69114818190E+03  0.00000000000E+00 0. -1.
         25    2    1    2    0    0  0.67571201976E+02  0.29290199328E+02 -0.41009491713E+03  0.43502794855E+03  0.12509073447E+03 0.  0.
          5    1    3    3  502    0 -0.60852679610E+01 -0.28144436633E+02 -0.23261152343E+03  0.23442425863E+03  0.41800000000E+01 0.  1.
         -5    1    3    3    0  502  0.73656469937E+02  0.57434635961E+02 -0.17748339370E+03  0.20060368992E+03  0.41800000000E+01 0.  1.
        -11    1    1    2    0    0 -0.13342764648E+02  0.31205433588E+01  0.41785313730E+01  0.14325755957E+02  0.00000000000E+00 0.  1.
         11    1    1    2    0    0 -0.54228437328E+02 -0.32410742687E+02 -0.25972662757E+03  0.26729964595E+03  0.00000000000E+00 0. -1.
</event>
<event>
 7    1  0.2612213E-009  0.1138074E+03  0.7561462E-02  0.1253677E+00
          1   -1    0    0  501    0  0.00000000000E+00  0.00000000000E+00  0.39660433229E+03  0.39660433229E+03  0.00000000000E+00 0. -1.
         -1   -1    0    0    0  501 -0.00000000000E+00 -0.00000000000E+00 -0.44809332621E+02  0.44809332621E+02  0.00000000000E+00 0.  1.
         25    2    1    2    0    0  0.75716027141E+02 -0.10006535307E+02  0.18466548440E+03  0.23575758141E+03  0.12508896254E+03 0.  0.
          5    1    3    3  502    0 -0.14230940618E+01 -0.53553378562E+02  0.97976377375E+02  0.11174449640E+03  0.41800000000E+01 0. -1.
         -5    1    3    3    0  502  0.77139121203E+02  0.43546843255E+02  0.86689107026E+02  0.12401308501E+03  0.41800000000E+01 0. -1.
        -11    1    1    2    0    0 -0.42819688221E+02 -0.13352031792E+02  0.13534781597E+02  0.46850749889E+02  0.00000000000E+00 0.  1.
         11    1    1    2    0    0 -0.32896338920E+02  0.23358567099E+02  0.15359473367E+03  0.15880533361E+03  0.00000000000E+00 0. -1.
</event>
<event>
 7    1  0.2612213E-009  0.1734864E+03  0.7561462E-02  0.1174260E+00
          3   -1    0    0  501    0  0.00000000000E+00  0.00000000000E+00  0.10158450918E+03  0.10158450918E+03  0.00000000000E+00 0. -1.
         -3   -1    0    0    0  501 -0.00000000000E+00 -0.00000000000E+00 -0.34161192973E+03  0.34161192973E+03  0.00000000000E+00 0.  1.
         25    2    1    2    0    0  0.74474524802E+02 -0.12701793026E+03 -0.16504498535E+03  0.25410124688E+03  0.12509031547E+03 0.  0.
          5    1    3    3  502    0 -0.20176772888E+02 -0.55520406267E+02 -0.12000982703E+02  0.60424445897E+02  0.41800000000E+01 0. -1.
         -5    1    3    3    0  502  0.94651297689E+02 -0.71497523997E+02 -0.15304400265E+03  0.19367680098E+03  0.41800000000E+01 0. -1.
        -11    1    1    2    0    0 -0.87639683545E+02  0.74844203185E+02 -0.70494216683E+02  0.13509923563E+03  0.00000000000E+00 0.  1.
         11    1    1    2    0    0  0.13165158743E+02  0.52173727078E+02 -0.44882185039E+01  0.53995956398E+02  0.00000000000E+00 0. -1.
</event>
<event>
 7    1  0.2612213E-009  0.1020739E+03  0.7561462E-02  0.1275994E+00
         -1   -1    0    0    0  501 -0.00000000000E+00  0.00000000000E+00  0.31550480486E+02  0.31550480486E+02  0.00000000000E+00 0.  1.
          1   -1    0    0  501    0  0.00000000000E+00 -0.00000000000E+00 -0.42133658225E+03  0.42133658225E+03  0.00000000000E+00 0. -1.
         25    2    1    2    0    0  0.23775942420E+02  0.22852695781E+02 -0.20440896618E+03  0.24190533874E+03  0.12509047251E+03 0.  0.
          5    1    3    3  502    0  0.62904063840E+02  0.40905312527E+02 -0.78109628051E+02  0.10839166128E+03  0.41800000000E+01 0. -1.
         -5    1    3    3    0  502 -0.39128121421E+02 -0.18052616746E+02 -0.12629933813E+03  0.13351367746E+03  0.41800000000E+01 0. -1.
        -11    1    1    2    0    0 -0.53181513304E+02 -0.15435884092E+02 -0.16600068652E+03  0.17499362217E+03  0.00000000000E+00 0. -1.
         11    1    1    2    0    0  0.29405570884E+02 -0.74168116887E+01 -0.19376449058E+02  0.35988101822E+02  0.00000000000E+00 0.  1.
</event>
<event>
 7    1  0.2612213E-009  0.1001340E+03  0.7561462E-02  0.1280014E+00
          1   -1    0    0  501    0  0.00000000000E+00  0.00000000000E+00  0.12858612281E+03  0.12858612281E+03  0.00000000000E+00 0. -1.
         -1   -1    0    0    0  501 -0.00000000000E+00 -0.00000000000E+00 -0.12179255590E+03  0.12179255590E+03  0.00000000000E+00 0.  1.
         25    2    1    2    0    0  0.49029638434E+02  0.68306379733E+01  0.42721993248E+02  0.14114980015E+03  0.12509010479E+03 0.  0.
          5    1    3    3  502    0 -0.17606085476E+01  0.47977573340E+02  0.56454448120E+02  0.74226170577E+02  0.41800000000E+01 0. -1.
         -5    1    3    3    0  502  0.50790246981E+02 -0.41146935367E+02 -0.13732454872E+02  0.66923629573E+02  0.41800000000E+01 0. -1.
        -11    1    1    2    0    0 -0.38885583832E+02  0.29530300216E+02  0.99349008833E+01  0.49827999321E+02  0.00000000000E+00 0. -1.
         11    1    1    2    0    0 -0.10144054602E+02 -0.36360938189E+02 -0.45863327227E+02  0.59400879236E+02  0.00000000000E+00 0.  1.
</event>
<event>
 7    1  0.2612213E-009  0.1072951E+03  0.7561462E-02  0.1265663E+00
          2   -1    0    0  501    0  0.00000000000E+00  0.00000000000E+00  0.10455542693E+03  0.10455542693E+03  0.00000000000E+00 0. -1.
         -2   -1    0    0    0  501 -0.00000000000E+00 -0.00000000000E+00 -0.16241198913E+03  0.16241198913E+03  0.00000000000E+00 0.  1.
         25    2    1    2    0    0  0.36395574968E+02 -0.40332290702E+02 -0.81613821032E+02  0.15893441041E+03  0.12509196408E+03 0.  0.
          5    1    3    3  502    0  0.58436783078E+02 -0.59173807119E+02 -0.95337790063E+02  0.12658263577E+03  0.41800000000E+01 0. -1.
         -5    1    3    3    0  502 -0.22041208110E+02  0.18841516417E+02  0.13723969031E+02  0.32351774632E+02  0.41800000000E+01 0. -1.
        -11    1    1    2    0    0 -0.35003972424E+02  0.66855097193E+02  0.52208486547E+01  0.75644823794E+02  0.00000000000E+00 0.  1.
         11    1    1    2    0    0 -0.13916025444E+01 -0.26522806491E+02  0.18536410177E+02  0.32388181857E+02  0.00000000000E+00 0. -1.
</event>
<event>
 6    1  0.2612213E-009  0.1182862E+03  0.7561462E-02  0.1245951E+00
          2   -1    0    0  501    0  0.00000000000E+00  0.00000000000E+00  0.56542582150E+03  0.56542582150E+03  0.00000000000E+00 0. -1.
         -2   -1    0    0    0  501 -0.00000000000E+00 -0.00000000000E+00 -0.45009627673E+02  0.45009627673E+02  0.00000000000E+00 0.  1.
          5    1    1    2  502    0 -0.89638542624E+02 -0.40810541623E+02  0.19968414741E+03  0.22269216367E+03  0.41800000000E+01 0.  1.
         -5    1    1    2    0  502 -0.75715046567E+01  0.27025011353E+01 -0.18754635755E+02  0.20828825158E+02  0.41800000000E+01 0.  1.
        -11    1    1    2    0    0  0.10452674398E+03  0.49292308859E+02  0.33212332183E+03  0.35165533242E+03  0.00000000000E+00 0. -1.
         11    1    1    2    0    0 -0.73166966996E+01 -0.11184268371E+02  0.73633603502E+01  0.15259127932E+02  0.00000000000E+00 0.  1.
</event>
<event>
 7    1  0.2612213E-009  0.1066600E+03  0.7561462E-02  0.1266883E+00
          2   -1    0    0  501    0  0.00000000000E+00  0.00000000000E+00  0.89822031823E+03  0.89822031823E+03  0.00000000000E+00 0. -1.
         -2   -1    0    0    0  501 -0.00000000000E+00 -0.00000000000E+00 -0.17913597769E+02  0.17913597769E+02  0.00000000000E+00 0.  1.
         25    2    1    2    0    0 -0.34465796832E+02 -0.40100227389E+02  0.63090738946E+03  0.64535909783E+03  0.12509321200E+03 0.  0.
          5    1    3    3  502    0 -0.60151025784E+02 -0.61574422141E+02  0.56272118172E+03  0.56928214105E+03  0.41800000000E+01 0. -1.
         -5    1    3    3    0  502  0.25685228951E+02  0.21474194751E+02  0.68186207739E+02  0.76076956776E+02  0.41800000000E+01 0. -1.
        -11    1    1    2    0    0 -0.24940441230E+02  0.12419546441E+02  0.26542468539E+02  0.38480818322E+02  0.00000000000E+00 0.  1.
         11    1    1    2    0    0  0.59406238063E+02  0.27680680948E+02  0.22285686247E+03  0.23229399985E+03  0.00000000000E+00 0. -1.
</event>
<event>
 7    1  0.2612213E-009  0.1373481E+03  0.7561462E-02  0.1216943E+00
          2   -1    0    0  501    0  0.00000000000E+00  0.00000000000E+00  0.91076607619E+03  0.91076607619E+03  0.00000000000E+00 0. -1.
         -2   -1    0    0    0  501 -0.00000000000E+00 -0.00000000000E+00 -0.22421175230E+02  0.22421175230E+02  0.00000000000E+00 0.  1.
         25    2    1    2    0    0  0.90232546095E+02 -0.20984206247E+02  0.46655546306E+03  0.49184208120E+03  0.12510948584E+03 0.  0.
          5    1    3    3  502    0  0.11381653924E+03 -0.40351353737E+02  0.31925629013E+03  0.34135683315E+03  0.41800000000E+01 0. -1.
         -5    1    3    3    0  502 -0.23583993149E+02  0.19367147489E+02  0.14729917293E+03  0.15048524805E+03  0.41800000000E+01 0. -1.
        -11    1    1    2    0    0  0.10374077118E+02  0.19911271212E+02  0.34209389943E+02  0.40918975520E+02  0.00000000000E+00 0.  1.
         11    1    1    2    0    0 -0.10060662321E+03  0.10729350350E+01  0.38758004796E+03  0.40042619469E+03  0.00000000000E+00 0. -1.
</event>
<event>
 7    1  0.2612213E-009  0.7998256E+02  0.7561462E-02  0.1329101E+00
         -1   -1    0    0    0  501 -0.00000000000E+00  0.00000000000E+00  0.93171477518E+02  0.93171477518E+02  0.00000000000E+00 0.  1.
          1   -1    0    0  501    0  0.00000000000E+00 -0.00000000000E+00 -0.19816769279E+03  0.19816769279E+03  0.00000000000E+00 0. -1.
         25    2    1    2    0    0  0.38206441874E+02 -0.62706226323E+02 -0.20852747531E+02  0.14654366979E+03  0.12509359319E+03 0.  0.
          5    1    3    3  502    0  0.61773492764E+01 -0.36278946549E+02  0.51250711559E+02  0.63233135634E+02  0.41800000000E+01 0.  1.
         -5    1    3    3    0  502  0.32029092598E+02 -0.26427279773E+02 -0.72103459090E+02  0.83310534158E+02  0.41800000000E+01 0.  1.
        -11    1    1    2    0    0 -0.16564370521E+02  0.56206128575E+02 -0.96700276218E+00  0.58604115508E+02  0.00000000000E+00 0.  1.
         11    1    1    2    0    0 -0.21642071353E+02  0.65000977475E+01 -0.83176464982E+02  0.86191385011E+02  0.00000000000E+00 0. -1.
</event>
<event>
 7    1  0.2612213E-009  0.9763868E+02  0.7561462E-02  0.1285341E+00
          1   -1    0    0  501    0  0.00000000000E+00  0.00000000000E+00  0.36277691622E+03  0.36277691622E+03  0.00000000000E+00 0. -1.
         -1   -1    0    0    0  501 -0.00000000000E+00 -0.00000000000E+00 -0.48565553060E+02  0.48565553060E+02  0.00000000000E+00 0.  1.
         25    2    1    2    0    0  0.42835797828E+02 -0.21143191945E+02  0.26504647976E+03  0.29694864571E+03  0.12508765572E+03 0.  0.
          5    1    3    3  502    0  0.61249639958E+02  0.92595416521E+01  0.25089555951E+03  0.25846336624E+03  0.41800000000E+01 0.  1.
         -5    1    3    3    0  502 -0.18413842130E+02 -0.30402733597E+02  0.14150920256E+02  0.38485279475E+02  0.41800000000E+01 0.  1.
        -11    1    1    2    0    0  0.25430928540E+02  0.13262813809E+02  0.33143906269E+02  0.43830958001E+02  0.00000000000E+00 0. -1.
         11    1    1    2    0    0 -0.68266726368E+02  0.78803781359E+01  0.16020977126E+02  0.70562865564E+02  0.00000000000E+00 0.  1.
</event>
<event>
 7    1  0.2612213E-009  0.2130035E+03  0.7561462E-02  0.1139209E+00
         -1   -1    0    0    0  501 -0.00000000000E+00  0.00000000000E+00  0.20769839854E+03  0.20769839854E+03  0.00000000000E+00 0.  1.
          1   -1    0    0  501    0  0.00000000000E+00 -0.00000000000E+00 -0.27366649228E+03  0.27366649228E+03  0.00000000000E+00 0. -1.
         25    2    1    2    0    0  0.18158842480E+03 -0.10997803956E+03 -0.27342048269E+02  0.24792403492E+03  0.12509681963E+03 0.  0.
          5    1    3    3  502    0  0.15319830452E+03 -0.92718188751E+02  0.29908108016E+02  0.18159942279E+03  0.41800000000E+01 0. -1.
         -5    1    3    3    0  502  0.28390120281E+02 -0.17259850813E+02 -0.57250156286E+02  0.66324612132E+02  0.41800000000E+01 0. -1.
        -11    1    1    2    0    0 -0.11864759068E+03  0.59570351138E+02  0.19294295025E+02  0.13415717397E+03  0.00000000000E+00 0.  1.
         11    1    1    2    0    0 -0.62940834125E+02  0.50407688426E+02 -0.57920340493E+02  0.99283681921E+02  0.00000000000E+00 0. -1.
</event>
<event>
 7    1  0.2612213E-009  0.9351294E+02  0.7561462E-02  0.1294561E+00
          1   -1    0    0  501    0  0.00000000000E+00  0.00000000000E+00  0.24990662141E+03  0.24990662141E+03  0.00000000000E+00 0. -1.
         -1   -1    0    0    0  501 -0.00000000000E+00 -0.00000000000E+00 -0.52616266915E+02  0.52616266915E+02  0.00000000000E+00 0.  1.
         25    2    1    2    0    0 -0.13700130353E+01  0.43301816368E+02  0.12283416895E+03  0.18057869273E+03  0.12507400598E+03 0.  0.
          5    1    3    3  502    0  0.19664044995E+02 -0.17287079890E+02 -0.13574335231E+02  0.29786788575E+02  0.41800000000E+01 0.  1.
         -5    1    3    3    0  502 -0.21034058030E+02  0.60588896258E+02  0.13640850418E+03  0.15079190416E+03  0.41800000000E+01 0.  1.
        -11    1    1    2    0    0  0.30939556410E+02 -0.56063247098E+02  0.54245074303E+02  0.83921820238E+02  0.00000000000E+00 0.  1.
         11    1    1    2    0    0 -0.29569543375E+02  0.12761430730E+02  0.20211111241E+02  0.38022375350E+02  0.00000000000E+00 0. -1.
</event>
<event>
 7    1  0.2612213E-009  0.3033015E+03  0.7561462E-02  0.1083602E+00
         -1   -1    0    0    0  501 -0.00000000000E+00  0.00000000000E+00  0.11051754579E+03  0.11051754579E+03  0.00000000000E+00 0.  1.
          1   -1    0    0  501    0  0.00000000000E+00 -0.00000000000E+00 -0.12999262621E+04  0.12999262621E+04  0.00000000000E+00 0. -1.
         25    2    1    2    0    0 -0.27006272686E+03 -0.12832733820E+03 -0.21982786545E+03  0.39162693541E+03  0.12508230868E+03 0.  0.
          5    1    3    3  502    0 -0.80540833234E+02 -0.12143807894E+02 -0.12646082044E+03  0.15047959794E+03  0.41800000000E+01 0. -1.
         -5    1    3    3    0  502 -0.18952189363E+03 -0.11618353031E+03 -0.93367045001E+02  0.24114733748E+03  0.41800000000E+01 0. -1.
        -11    1    1    2    0    0  0.58758246789E+02  0.50651949923E+02 -0.37729814036E+03  0.38519091152E+03  0.00000000000E+00 0. -1.
         11    1    1    2    0    0  0.21130448007E+03  0.77675388280E+02 -0.59228271049E+03  0.63362596095E+03  0.00000000000E+00 0.  1.
</event>
<event>
 7    1  0.2612213E-009  0.1156847E+03  0.7561462E-02  0.1250391E+00
          2   -1    0    0  501    0  0.00000000000E+00  0.00000000000E+00  0.30222029928E+03  0.30222029928E+03  0.00000000000E+00 0.  1.
         -2   -1    0    0    0  501 -0.00000000000E+00 -0.00000000000E+00 -0.81161755256E+02  0.81161755256E+02  0.00000000000E+00 0. -1.
         25    2    1    2    0    0 -0.72164182157E+02 -0.10190873674E+02  0.22648696679E+03  0.26879991585E+03  0.12508207522E+03 0.  0.
          5    1    3    3  502    0  0.28796896704E+02 -0.28710237107E+02  0.49914105952E+02  0.64516891955E+02  0.41800000000E+01 0.  1.
         -5    1    3    3    0  502 -0.10096107886E+03  0.18519363433E+02  0.17657286084E+03  0.20428302389E+03  0.41800000000E+01 0.  1.
        -11    1    1    2    0    0  0.20623526662E+02  0.26611492149E+02  0.33842490232E+02  0.47736940743E+02  0.00000000000E+00 0.  1.
         11    1    1    2    0    0  0.51540655495E+02 -0.16420618476E+02 -0.39270913000E+02  0.66845197942E+02  0.00000000000E+00 0. -1.
</event>
<event>
 7    1  0.2612213E-009  0.1384593E+03  0.7561462E-02  0.1215417E+00
         -2   -1    0    0    0  501 -0.00000000000E+00  0.00000000000E+00  0.64853657685E+02  0.64853657685E+02  0.00000000000E+00 0.  1.
          2   -1    0    0  501    0  0.00000000000E+00 -0.00000000000E+00 -0.41786427720E+03  0.41786427720E+03  0.00000000000E+00 0. -1.
         25    2    1    2    0    0 -0.98146368471E+02  0.53073661803E+02 -0.10965303066E+03  0.20030220324E+03  0.12509061623E+03 0.  0.
          5    1    3    3  502    0 -0.12553185066E+03  0.52732615101E+02 -0.10547762247E+03  0.17228457698E+03  0.41800000000E+01 0.  1.
         -5    1    3    3    0  502  0.27385482187E+02  0.34104670207E+00 -0.41754081962E+01  0.28017626257E+02  0.41800000000E+01 0.  1.
        -11    1    1    2    0    0  0.28386003628E+02 -0.65223484820E+01 -0.47652935571E+01  0.29512950621E+02  0.00000000000E+00 0.  1.
         11    1    1    2    0    0  0.69760364843E+02 -0.46551313321E+02 -0.23859229529E+03  0.25290278102E+03  0.00000000000E+00 0. -1.
</event>
<event>
 7    1  0.2612213E-009  0.9992620E+02  0.7561462E-02  0.1280451E+00
          2   -1    0    0  501    0  0.00000000000E+00  0.00000000000E+00  0.65101497441E+02  0.65101497441E+02  0.00000000000E+00 0. -1.
         -2   -1    0    0    0  501 -0.00000000000E+00 -0.00000000000E+00 -0.26019921250E+03  0.26019921250E+03  0.00000000000E+00 0.  1.
         25    2    1    2    0    0 -0.12083431664E+02  0.65414323158E+02 -0.79808386696E+02  0.16260820315E+03  0.12508799363E+03 0.  0.
          5    1    3    3  502    0  0.26602799385E+02 -0.10348092583E+02 -0.71418755873E+02  0.77025340283E+02  0.41800000000E+01 0. -1.
         -5    1    3    3    0  502 -0.38686231049E+02  0.75762415741E+02 -0.83896308230E+01  0.85582862870E+02  0.41800000000E+01 0. -1.
        -11    1    1    2    0    0  0.27502781741E+02 -0.11593107913E+02 -0.10042517461E+03  0.10476649679E+03  0.00000000000E+00 0.  1.
         11    1    1    2    0    0 -0.15419350077E+02 -0.53821215246E+02 -0.14864153753E+02  0.57926009996E+02  0.00000000000E+00 0. -1.
</event>
<event>
 7    1  0.2612213E-009  0.1668725E+03  0.7561462E-02  0.1181149E+00
         -2   -1    0    0    0  501 -0.00000000000E+00  0.00000000000E+00  0.10736849503E+03  0.10736849503E+03  0.00000000000E+00 0. -1.
          2   -1    0    0  501    0  0.00000000000E+00 -0.00000000000E+00 -0.26396520550E+03  0.26396520550E+03  0.00000000000E+00 0.  1.
         25    2    1    2    0    0  0.86942987050E+02  0.94642186743E+02 -0.10170720344E+03  0.20617371238E+03  0.12508804073E+03 0.  0.
          5    1    3    3  502    0  0.23223005138E+01 -0.28424290550E+02 -0.84064200439E+01  0.30024551136E+02  0.41800000000E+01 0.  1.
         -5    1    3    3    0  502  0.84620686536E+02  0.12306647729E+03 -0.93300783396E+02  0.17614916124E+03  0.41800000000E+01 0.  1.
        -11    1    1    2    0    0 -0.10514144791E+03 -0.82306016667E+02 -0.43725981746E+02  0.14050254776E+03  0.00000000000E+00 0. -1.
         11    1    1    2    0    0  0.18198460860E+02 -0.12336170076E+02 -0.11163525288E+02  0.24657440392E+02  0.00000000000E+00 0.  1.
</event>
<event>
 7    1  0.2612213E-009  0.1752471E+03  0.7561462E-02  0.1172484E+00
         -2   -1    0    0    0  501 -0.00000000000E+00  0.00000000000E+00  0.26828550151E+03  0.26828550151E+03  0.00000000000E+00 0.  1.
          2   -1    0    0  501    0  0.00000000000E+00 -0.00000000000E+00 -0.14721573995E+03  0.14721573995E+03  0.00000000000E+00 0. -1.
         25    2    1    2    0    0  0.34475635350E+02  0.13612885962E+03  0.15558081522E+03  0.24405703764E+03  0.12505523462E+03 0.  0.
          5    1    3    3  502    0  0.55201452393E+02  0.15008682689E+03  0.14714911787E+03  0.21735590915E+03  0.41800000000E+01 0.  1.
         -5    1    3    3    0  502 -0.20725817043E+02 -0.13957967276E+02  0.84316973440E+01  0.26701128490E+02  0.41800000000E+01 0.  1.
        -11    1    1    2    0    0 -0.35334335277E+02 -0.69559992092E+01  0.50069270018E+01  0.36358912146E+02  0.00000000000E+00 0.  1.
         11    1    1    2    0    0  0.85869992694E+00 -0.12917286041E+03 -0.39517980662E+02  0.13508529168E+03  0.00000000000E+00 0. -1.
</event>
<event>
 7    1  0.2612213E-009  0.2384417E+03  0.7561462E-02  0.1120835E+00
          1   -1    0    0  501    0  0.00000000000E+00  0.00000000000E+00  0.11276083178E+03  0.11276083178E+03  0.00000000000E+00 0. -1.
         -1   -1    0    0    0  501 -0.00000000000E+00 -0.00000000000E+00 -0.56955385891E+03  0.56955385891E+03  0.00000000000E+00 0.  1.
         25    2    1    2    0    0  0.13125562316E+03  0.18514598555E+03 -0.27157759445E+03  0.37537909914E+03  0.12509198090E+03 0.  0.
          5    1    3    3  502    0  0.56895975423E+02  0.12152032649E+03 -0.23533985442E+03  0.27093663696E+03  0.41800000000E+01 0.  1.
         -5    1    3    3    0  502  0.74359647740E+02  0.63625659064E+02 -0.36237740029E+02  0.10444246218E+03  0.41800000000E+01 0.  1.
        -11    1    1    2    0    0 -0.12327051937E+03 -0.98823482260E+02 -0.11605232744E+03  0.19603531390E+03  0.00000000000E+00 0.  1.
         11    1    1    2    0    0 -0.79851037974E+01 -0.86322503291E+02 -0.69163105232E+02  0.11090027765E+03  0.00000000000E+00 0. -1.
</event>
<event>
 7    1  0.2612213E-009  0.9129521E+02  0.7561462E-02  0.1299745E+00
          4   -1    0    0  501    0  0.00000000000E+00  0.00000000000E+00  0.95209772338E+02  0.95209772338E+02  0.00000000000E+00 0.  1.
         -4   -1    0    0    0  501 -0.00000000000E+00 -0.00000000000E+00 -0.21863990698E+03  0.21863990698E+03  0.00000000000E+00 0. -1.
         25    2    1    2    0    0 -0.61488734962E+02  0.50304146340E+02 -0.12422394871E+03  0.19336434511E+03  0.12508720503E+03 0.  0.
          5    1    3    3  502    0 -0.31629313753E+02  0.86903606572E+01 -0.13656802141E+03  0.14051417269E+03  0.41800000000E+01 0.  1.
         -5    1    3    3    0  502 -0.29859421210E+02  0.41613785683E+02  0.12344072698E+02  0.52850172418E+02  0.41800000000E+01 0.  1.
        -11    1    1    2    0    0  0.37583345471E+02 -0.61235539915E+02 -0.31834475184E+02  0.78585832157E+02  0.00000000000E+00 0. -1.
         11    1    1    2    0    0  0.23905389491E+02  0.10931393575E+02  0.32628289254E+02  0.41899502047E+02  0.00000000000E+00 0.  1.
</event>
<event>
 7    1  0.2612213E-009  0.9458831E+02  0.7561462E-02  0.1292106E+00
         -4   -1    0    0    0  501 -0.00000000000E+00  0.00000000000E+00  0.15276120718E+02  0.15276120718E+02  0.00000000000E+00 0.  1.
          4   -1    0    0  501    0  0.00000000000E+00 -0.00000000000E+00 -0.90987671123E+03  0.90987671123E+03  0.00000000000E+00 0. -1.
         25    2    1    2    0    0 -0.76976808791E+01  0.37100398308E+02 -0.60749240547E+03  0.62139410495E+03  0.12509163486E+03 0.  0.
          5    1    3    3  502    0 -0.42765389112E+01 -0.41495321636E+02 -0.33899366704E+03  0.34157624215E+03  0.41800000000E+01 0. -1.
         -5    1    3    3    0  502 -0.34211419679E+01  0.78595719944E+02 -0.26849873843E+03  0.27981786280E+03  0.41800000000E+01 0. -1.
        -11    1    1    2    0    0 -0.13674189993E+02  0.98722011507E+01 -0.59201764178E+01  0.17874347998E+02  0.00000000000E+00 0.  1.
         11    1    1    2    0    0  0.21371870872E+02 -0.46972599459E+02 -0.28118800862E+03  0.28588437900E+03  0.00000000000E+00 0. -1.
</event>
<event>
 7    1  0.2612213E-009  0.1123303E+03  0.7561462E-02  0.1256314E+00
         -2   -1    0    0    0  501 -0.00000000000E+00  0.00000000000E+00  0.27463568350E+03  0.27463568350E+03  0.00000000000E+00 0.  1.
          2   -1    0    0  501    0  0.00000000000E+00 -0.00000000000E+00 -0.59976350158E+02  0.59976350158E+02  0.00000000000E+00 0. -1.
         25    2    1    2    0    0 -0.66296043580E+02 -0.36530504359E+01  0.14857691175E+03  0.20526870938E+03  0.12510649133E+03 0.  0.
          5    1    3    3  502    0  0.23406519624E+02  0.57065529644E+01 -0.69624852948E+01  0.25423975085E+02  0.41800000000E+01 0.  1.
         -5    1    3    3    0  502 -0.89702563203E+02 -0.93596034003E+01  0.15553939705E+03  0.17984473430E+03  0.41800000000E+01 0.  1.
        -11    1    1    2    0    0 -0.12218369209E+01  0.35324165544E+02  0.30620906568E+02  0.46764617778E+02  0.00000000000E+00 0.  1.
         11    1    1    2    0    0  0.67517880501E+02 -0.31671115108E+02  0.35461515026E+02  0.82578706501E+02  0.00000000000E+00 0. -1.
</event>
<event>
 7    1  0.2612213E-009  0.8505628E+02  0.7561462E-02  0.1315285E+00
         -2   -1    0    0    0  501 -0.00000000000E+00  0.00000000000E+00  0.41624389791E+02  0.41624389791E+02  0.00000000000E+00 0.  1.
          2   -1    0    0  501    0  0.00000000000E+00 -0.00000000000E+00 -0.56104109692E+03  0.56104109692E+03  0.00000000000E+00 0. -1.
         25    2    1    2    0    0 -0.10453993873E+02  0.39178955378E+01 -0.69029997371E+02  0.14332226575E+03  0.12510593683E+03 0.  0.
          5    1    3    3  502    0 -0.39518485276E+02 -0.17591868248E+02 -0.90973250446E+02  0.10082057927E+03  0.41800000000E+01 0.  1.
         -5    1    3    3    0  502  0.29064491403E+02  0.21509763786E+02  0.21943253075E+02  0.42501686486E+02  0.41800000000E+01 0.  1.
        -11    1    1    2    0    0  0.47285229600E+02 -0.18317010913E+02 -0.25666522656E+03  0.26162653602E+03  0.00000000000E+00 0.  1.
         11    1    1    2    0    0 -0.36831235727E+02  0.14399115375E+02 -0.19372148320E+03  0.19771668494E+03  0.00000000000E+00 0. -1.
</event>
<event>
 7    1  0.2612213E-009  0.1832732E+03  0.7561462E-02  0.1164672E+00
          1   -1    0    0  501    0  0.00000000000E+00  0.00000000000E+00  0.15819971560E+03  0.15819971560E+03  0.00000000000E+00 0. -1.
         -1   -1    0    0    0  501 -0.00000000000E+00 -0.00000000000E+00 -0.29060603611E+03  0.29060603611E+03  0.00000000000E+00 0.  1.
         25    2    1    2    0    0  0.12441719134E+03  0.80618552742E+02  0.46469280783E+02  0.19946474744E+03  0.12509117822E+03 0.  0.
          5    1    3    3  502    0  0.14951685192E+03  0.72032972814E+02  0.47213761731E+02  0.17259968099E+03  0.41800000000E+01 0.  1.
         -5    1    3    3    0  502 -0.25099660579E+02  0.85855799283E+01 -0.74448094836E+00  0.26865066457E+02  0.41800000000E+01 0.  1.
        -11    1    1    2    0    0 -0.13626812514E+03 -0.57915127175E+02 -0.15075414805E+03  0.21130541176E+03  0.00000000000E+00 0. -1.
         11    1    1    2    0    0  0.11850933802E+02 -0.22703425567E+02 -0.28121453249E+02  0.38035592506E+02  0.00000000000E+00 0.  1.
</event>
<event>
 7    1  0.2612213E-009  0.1123074E+03  0.7561462E-02  0.1256356E+00
          1   -1    0    0  501    0  0.00000000000E+00  0.00000000000E+00  0.82358572966E+03  0.82358572966E+03  0.00000000000E+00 0. -1.
         -1   -1    0    0    0  501 -0.00000000000E+00 -0.00000000000E+00 -0.15623216389E+02  0.15623216389E+02  0.00000000000E+00 0.  1.
         25    2    1    2    0    0  0.21032659142E+02 -0.27993208647E+02  0.40787156668E+03  0.42805639576E+03  0.12508825112E+03 0.  0.
          5    1    3    3  502    0  0.72314724818E+02 -0.25335733237E+01  0.23024240792E+03  0.24138118656E+03  0.41800000000E+01 0. -1.
         -5    1    3    3    0  502 -0.51282065675E+02 -0.25459635323E+02  0.17762915876E+03  0.18667520921E+03  0.41800000000E+01 0. -1.
        -11    1    1    2    0    0  0.68002389438E+01  0.55312103296E+02  0.23626178415E+03  0.24274534531E+03  0.00000000000E+00 0. -1.
         11    1    1    2    0    0 -0.27832898086E+02 -0.27318894649E+02  0.16382916245E+03  0.16840720498E+03  0.00000000000E+00 0.  1.
</event>
<event>
 7    1  0.2612213E-009  0.1890953E+03  0.7561462E-02  0.1159280E+00
          1   -1    0    0  501    0  0.00000000000E+00  0.00000000000E+00  0.17438655217E+03  0.17438655217E+03  0.00000000000E+00 0. -1.
         -1   -1    0    0    0  501 -0.00000000000E+00 -0.00000000000E+00 -0.23103992334E+03  0.23103992334E+03  0.00000000000E+00 0.  1.
         25    2    1    2    0    0  0.16779768155E+03  0.79552799464E+01 -0.45076789183E+02  0.21424072124E+03  0.12509125190E+03 0.  0.
          5    1    3    3  502    0 -0.10662876510E+02 -0.25004281244E+02 -0.14255975448E+01  0.27539349018E+02  0.41800000000E+01 0.  1.
         -5    1    3    3    0  502  0.17846055806E+03  0.32959561190E+02 -0.43651191638E+02  0.18670137222E+03  0.41800000000E+01 0.  1.
        -11    1    1    2    0    0 -0.12056485195E+03  0.32845069964E+01 -0.48697005746E+02  0.13006948097E+03  0.00000000000E+00 0.  1.
         11    1    1    2    0    0 -0.47232829600E+02 -0.11239786943E+02  0.37120423755E+02  0.61116273301E+02  0.00000000000E+00 0. -1.
</event>
<event>
 7    1  0.2612213E-009  0.1155967E+03  0.7561462E-02  0.1250543E+00
         -1   -1    0    0    0  501 -0.00000000000E+00  0.00000000000E+00  0.23934096237E+02  0.23934096237E+02  0.00000000000E+00 0.  1.
          1   -1    0    0  501    0  0.00000000000E+00 -0.00000000000E+00 -0.72925348593E+03  0.72925348593E+03  0.00000000000E+00 0. -1.
         25    2    1    2    0    0  0.42810886180E+02  0.55935451249E+02 -0.31623087883E+03  0.34729327676E+03  0.12509638155E+03 0.  0.
          5    1    3    3  502    0  0.16040421813E+02 -0.25168655880E+02 -0.20391906190E+03  0.20613396755E+03  0.41800000000E+01 0. -1.
         -5    1    3    3    0  502  0.26770464367E+02  0.81104107129E+02 -0.11231181693E+03  0.14115930921E+03  0.41800000000E+01 0. -1.
        -11    1    1    2    0    0 -0.66768625861E+02 -0.61692389740E+02 -0.30163315989E+03  0.31503422591E+03  0.00000000000E+00 0.  1.
         11    1    1    2    0    0  0.23957739681E+02  0.57569384906E+01 -0.87455350972E+02  0.90860079491E+02  0.00000000000E+00 0. -1.
</event>
<event>
 7    1  0.2612213E-009  0.8615270E+02  0.7561462E-02  0.1312445E+00
         -1   -1    0    0    0  501 -0.00000000000E+00  0.00000000000E+00  0.17322943779E+02  0.17322943779E+02  0.00000000000E+00 0.  1.
          1   -1    0    0  501    0  0.00000000000E+00 -0.00000000000E+00 -0.79235173545E+03  0.79235173545E+03  0.00000000000E+00 0. -1.
         25    2    1    2    0    0  0.93081052660E+01  0.22896991985E+02 -0.52197956943E+03  0.53732764413E+03  0.12508962059E+03 0.  0.
          5    1    3    3  502    0  0.47926124219E+02  0.16343394950E+02 -0.46664860149E+03  0.46940644394E+03  0.41800000000E+01 0.  1.
         -5    1    3    3    0  502 -0.38618018953E+02  0.65535970346E+01 -0.55330967942E+02  0.67921200190E+02  0.41800000000E+01 0.  1.
        -11    1    1    2    0    0  0.19779713175E+02  0.21380794803E+02 -0.25499875793E+02  0.38712002081E+02  0.00000000000E+00 0.  1.
         11    1    1    2    0    0 -0.29087818441E+02 -0.44277786787E+02 -0.22754934645E+03  0.23363503302E+03  0.00000000000E+00 0. -1.
</event>
<event>
 7    1  0.2612213E-009  0.1227624E+03  0.7561462E-02  0.1238608E+00
          1   -1    0    0  501    0  0.00000000000E+00  0.00000000000E+00  0.76496339940E+03  0.76496339940E+03  0.00000000000E+00 0. -1.
         -1   -1    0    0    0  501 -0.00000000000E+00 -0.00000000000E+00 -0.28023553746E+02  0.28023553746E+02  0.00000000000E+00 0.  1.
         25    2    1    2    0    0 -0.12660116623E+01 -0.77498236516E+02  0.56563260092E+03  0.58446169721E+03  0.12509059451E+03 0.  0.
          5    1    3    3  502    0 -0.49875075580E+02  0.96844216181E+00  0.27421628051E+03  0.27874809764E+03  0.41800000000E+01 0.  1.
         -5    1    3    3    0  502  0.48609063917E+02 -0.78466678678E+02  0.29141632041E+03  0.30571359957E+03  0.41800000000E+01 0.  1.
        -11    1    1    2    0    0  0.16124596395E+02 -0.67784142609E+01  0.52193062268E+00  0.17499197706E+02  0.00000000000E+00 0.  1.
         11    1    1    2    0    0 -0.14858584733E+02  0.84276650777E+02  0.17078531411E+03  0.19102605823E+03  0.00000000000E+00 0. -1.
</event>
<event>
 7    1  0.2612213E-009  0.7680719E+02  0.7561462E-02  0.1338364E+00
         -4   -1    0    0    0  501 -0.00000000000E+00  0.00000000000E+00  0.55790790044E+02  0.55790790044E+02  0.00000000000E+00 0.  1.
          4   -1    0    0  501    0  0.00000000000E+00 -0.00000000000E+00 -0.32189208660E+03  0.32189208660E+03  0.00000000000E+00 0. -1.
         25    2    1    2    0    0  0.54162914640E+00  0.38247195374E+02 -0.24305507059E+03  0.27601901393E+03  0.12509031694E+03 0.  0.
          5    1    3    3  502    0 -0.20256246483E+02 -0.34133872505E+02 -0.29773419974E+02  0.49793229567E+02  0.41800000000E+01 0. -1.
         -5    1    3    3    0  502  0.20797875630E+02  0.72381067879E+02 -0.21328165062E+03  0.22622578436E+03  0.41800000000E+01 0. -1.
        -11    1    1    2    0    0  0.47326929325E+00 -0.16053854523E+02  0.35543337418E+02  0.39003577576E+02  0.00000000000E+00 0.  1.
         11    1    1    2    0    0 -0.10148984397E+01 -0.22193340850E+02 -0.58589563383E+02  0.62660285145E+02  0.00000000000E+00 0. -1.
</event>
<event>
 7    1  0.2612213E-009  0.2071122E+03  0.7561462E-02  0.1143873E+00
          2   -1    0    0  501    0  0.00000000000E+00  0.00000000000E+00  0.18008456403E+04  0.18008456403E+04  0.00000000000E+00 0. -1.
         -2   -1    0    0    0  501 -0.00000000000E+00 -0.00000000000E+00 -0.39196876058E+02  0.39196876058E+02  0.00000000000E+00 0.  1.
         25    2    1    2    0    0 -0.15581474437E+03  0.12064519134E+03  0.13879258820E+04  0.14074157762E+04  0.12508963303E+03 0.  0.
          5    1    3    3  502    0 -0.12058014518E+03  0.53475543923E+02  0.53196939402E+03  0.54809498610E+03  0.41800000000E+01 0.  1.
         -5    1    3    3    0  502 -0.35234599189E+02  0.67169647422E+02  0.85595648802E+03  0.85932079010E+03  0.41800000000E+01 0.  1.
        -11    1    1    2    0    0  0.76816260743E+02 -0.97186872913E+02  0.28902400729E+03  0.31445333989E+03  0.00000000000E+00 0. -1.
         11    1    1    2    0    0  0.78998483627E+02 -0.23458318431E+02  0.84698874908E+02  0.11817340026E+03  0.00000000000E+00 0.  1.
</event>
<event>
 7    1  0.2612213E-009  0.9474880E+02  0.7561462E-02  0.1291743E+00
          1   -1    0    0  501    0  0.00000000000E+00  0.00000000000E+00  0.71937545544E+03  0.71937545544E+03  0.00000000000E+00 0. -1.
         -1   -1    0    0    0  501 -0.00000000000E+00 -0.00000000000E+00 -0.29044800949E+02  0.29044800949E+02  0.00000000000E+00 0.  1.
         25    2    1    2    0    0 -0.86570513389E+02 -0.11122364183E+02  0.46427869073E+03  0.48869253466E+03  0.12509008748E+03 0.  0.
          5    1    3    3  502    0 -0.66265349272E+02 -0.26309087027E+02  0.96691219756E+02  0.12020785728E+03  0.41800000000E+01 0. -1.
         -5    1    3    3    0  502 -0.20305164117E+02  0.15186722844E+02  0.36758747098E+03  0.36848467738E+03  0.41800000000E+01 0. -1.
        -11    1    1    2    0    0  0.54880256370E+02 -0.78583996096E+01  0.35962964881E+02  0.66082764974E+02  0.00000000000E+00 0.  1.
         11    1    1    2    0    0  0.31690257019E+02  0.18980763793E+02  0.19008899887E+03  0.19364495675E+03  0.00000000000E+00 0. -1.
</event>
<event>
 7    1  0.2612213E-009  0.8388620E+02  0.7561462E-02  0.1318371E+00
         -2   -1    0    0    0  501 -0.00000000000E+00  0.00000000000E+00  0.15116925972E+03  0.15116925972E+03  0.00000000000E+00 0.  1.
          2   -1    0    0  501    0  0.00000000000E+00 -0.00000000000E+00 -0.97333548333E+02  0.97333548333E+02  0.00000000000E+00 0. -1.
         25    2    1    2    0    0  0.27183499161E+02  0.46415919451E+02  0.29051346013E+02  0.13923811424E+03  0.12509952657E+03 0.  0.
          5    1    3    3  502    0 -0.28574703415E+02  0.48314626976E+02  0.53980615485E+02  0.77988435702E+02  0.41800000000E+01 0. -1.
         -5    1    3    3    0  502  0.55758202576E+02 -0.18987075249E+01 -0.24929269472E+02  0.61249678539E+02  0.41800000000E+01 0. -1.
        -11    1    1    2    0    0 -0.10254876263E+02 -0.63989556023E+01  0.55018330574E+02  0.56330505227E+02  0.00000000000E+00 0.  1.
         11    1    1    2    0    0 -0.16928622898E+02 -0.40016963849E+02 -0.30233965204E+02  0.52934188582E+02  0.00000000000E+00 0. -1.
</event>
<event>
 7    1  0.2612213E-009  0.1200808E+03  0.7561462E-02  0.1242964E+00
          2   -1    0    0  501    0  0.00000000000E+00  0.00000000000E+00  0.81124085682E+03  0.81124085682E+03  0.00000000000E+00 0. -1.
         -2   -1    0    0    0  501 -0.00000000000E+00 -0.00000000000E+00 -0.19025803602E+02  0.19025803602E+02  0.00000000000E+00 0.  1.
         25    2    1    2    0    0  0.55531069389E+02 -0.22928438484E+02  0.45949550130E+03  0.47998850646E+03  0.12507372887E+03 0.  0.
          5    1    3    3  502    0  0.87861149915E+02  0.10974846251E+02  0.24915341714E+03  0.26445212532E+03  0.41800000000E+01 0.  1.
         -5    1    3    3    0  502 -0.32330080526E+02 -0.33903284735E+02  0.21034208417E+03  0.21553638114E+03  0.41800000000E+01 0.  1.
        -11    1    1    2    0    0 -0.71564264850E+01 -0.31130625340E+02  0.58807633172E+02  0.66922851055E+02  0.00000000000E+00 0.  1.
         11    1    1    2    0    0 -0.48374642904E+02  0.54059063824E+02  0.27391191874E+03  0.28335530291E+03  0.00000000000E+00 0. -1.
</event>
<event>
 7    1  0.2612213E-009  0.2376836E+03  0.7561462E-02  0.1121346E+00
         -3   -1    0    0    0  501 -0.00000000000E+00  0.00000000000E+00  0.35230910352E+03  0.35230910352E+03  0.00000000000E+00 0.  1.
          3   -1    0    0  501    0  0.00000000000E+00 -0.00000000000E+00 -0.20525288566E+03  0.20525288566E+03  0.00000000000E+00 0. -1.
         25    2    1    2    0    0 -0.16843234625E+03  0.15517219558E+03  0.16713264915E+03  0.30988515057E+03  0.12509044162E+03 0.  0.
          5    1    3    3  502    0 -0.14671925139E+03  0.11800363204E+03  0.18415759639E+03  0.26340631847E+03  0.41800000000E+01 0.  1.
         -5    1    3    3    0  502 -0.21713094865E+02  0.37168563542E+02 -0.17024947242E+02  0.46478832095E+02  0.41800000000E+01 0.  1.
        -11    1    1    2    0    0  0.49397060215E+02 -0.15203922596E+01  0.11555326776E+02  0.50753391290E+02  0.00000000000E+00 0.  1.
         11    1    1    2    0    0  0.11903528604E+03 -0.15365180332E+03 -0.31631758067E+02  0.19692344732E+03  0.00000000000E+00 0. -1.
</event>
<event>
 7    1  0.2612213E-009  0.1330939E+03  0.7561462E-02  0.1222936E+00
          2   -1    0    0  501    0  0.00000000000E+00  0.00000000000E+00  0.51196912084E+02  0.51196912084E+02  0.00000000000E+00 0. -1.
         -2   -1    0    0    0  501 -0.00000000000E+00 -0.00000000000E+00 -0.37214926792E+03  0.37214926792E+03  0.00000000000E+00 0.  1.
         25    2    1    2    0    0 -0.15511221937E+02 -0.72229700546E+02 -0.11859817983E+03  0.18751075371E+03  0.12504809814E+03 0.  0.
          5    1    3    3  502    0 -0.40211495855E+02 -0.99896235544E+02 -0.91760420627E+02  0.14154034573E+03  0.41800000000E+01 0. -1.
         -5    1    3    3    0  502  0.24700273918E+02  0.27666534998E+02 -0.26837759208E+02  0.45970407979E+02  0.41800000000E+01 0. -1.
        -11    1    1    2    0    0 -0.26480807821E+02  0.74478126561E+02 -0.12971980708E+03  0.15190606593E+03  0.00000000000E+00 0.  1.
         11    1    1    2    0    0  0.41992029757E+02 -0.22484260151E+01 -0.72634368925E+02  0.83929360368E+02  0.00000000000E+00 0. -1.
</event>
<event>
 7    1  0.2612213E-009  0.1018983E+03  0.7561462E-02  0.1276354E+00
         -2   -1    0    0    0  501 -0.00000000000E+00  0.00000000000E+00  0.58688700355E+02  0.58688700355E+02  0.00000000000E+00 0. -1.
          2   -1    0    0  501    0  0.00000000000E+00 -0.00000000000E+00 -0.30741402147E+03  0.30741402147E+03  0.00000000000E+00 0.  1.
         25    2    1    2    0    0 -0.77387790077E+02 -0.77565132358E+01 -0.13508263590E+03  0.19986037549E+03  0.12509123718E+03 0.  0.
          5    1    3    3  502    0 -0.21754903651E+02 -0.18035713823E+02 -0.14003206609E+03  0.14291611085E+03  0.41800000000E+01 0. -1.
         -5    1    3    3    0  502 -0.55632886425E+02  0.10279200587E+02  0.49494301875E+01  0.56944264645E+02  0.41800000000E+01 0. -1.
        -11    1    1    2    0    0  0.50969210772E+02 -0.39417970360E+02 -0.43772624063E+02  0.77895310843E+02  0.00000000000E+00 0.  1.
         11    1    1    2    0    0  0.26418579304E+02  0.47174483596E+02 -0.69870061154E+02  0.88347035494E+02  0.00000000000E+00 0. -1.
</event>
<event>
 7    1  0.2612213E-009  0.8424039E+02  0.7561462E-02  0.1317431E+00
         -1   -1    0    0    0  501 -0.00000000000E+00  0.00000000000E+00  0.25367368522E+02  0.25367368522E+02  0.00000000000E+00 0.  1.
          1   -1    0    0  501    0  0.00000000000E+00 -0.00000000000E+00 -0.41852412971E+03  0.41852412971E+03  0.00000000000E+00 0. -1.
         25    2    1    2    0    0  0.28091661948E+02  0.16776893259E+01 -0.28388393265E+03  0.31149801009E+03  0.12509583111E+03 0.  0.
          5    1    3    3  502    0 -0.39567921362E+02 -0.15093014311E+02 -0.42213488392E+02  0.59940557923E+02  0.41800000000E+01 0. -1.
         -5    1    3    3    0  502  0.67659583310E+02  0.16770703637E+02 -0.24167044426E+03  0.25155745217E+03  0.41800000000E+01 0. -1.
        -11    1    1    2    0    0 -0.25876032289E+01 -0.22819898899E+02 -0.57157938700E+01  0.23666722963E+02  0.00000000000E+00 0.  1.
         11    1    1    2    0    0 -0.25504058720E+02  0.21142209573E+02 -0.10355703467E+03  0.10872676518E+03  0.00000000000E+00 0. -1.
</event>
<event>
 7    1  0.2612213E-009  0.8458933E+02  0.7561462E-02  0.1316510E+00
         -2   -1    0    0    0  501 -0.00000000000E+00  0.00000000000E+00  0.20631498656E+02  0.20631498656E+02  0.00000000000E+00 0.  1.
          2   -1    0    0  501    0  0.00000000000E+00 -0.00000000000E+00 -0.67922315392E+03  0.67922315392E+03  0.00000000000E+00 0. -1.
         25    2    1    2    0    0  0.80887039327E+01 -0.41662200107E+02 -0.42734538123E+03  0.44729525756E+03  0.12509119287E+03 0.  0.
          5    1    3    3  502    0 -0.22211945637E+02 -0.24690730164E+02 -0.40367114974E+03  0.40505662841E+03  0.41800000000E+01 0. -1.
         -5    1    3    3    0  502  0.30300649569E+02 -0.16971469943E+02 -0.23674231486E+02  0.42238629154E+02  0.41800000000E+01 0. -1.
        -11    1    1    2    0    0 -0.48350358175E+02  0.35524530616E+02 -0.15311721250E+03  0.16445251647E+03  0.00000000000E+00 0. -1.
         11    1    1    2    0    0  0.40261654242E+02  0.61376694901E+01 -0.78129061534E+02  0.88106878536E+02  0.00000000000E+00 0.  1.
</event>
<event>
 7    1  0.2612213E-009  0.7831803E+02  0.7561462E-02  0.1333894E+00
          2   -1    0    0  501    0  0.00000000000E+00  0.00000000000E+00  0.76883895019E+02  0.76883895019E+02  0.00000000000E+00 0. -1.
         -2   -1    0    0    0  501 -0.00000000000E+00 -0.00000000000E+00 -0.24957533219E+03  0.24957533219E+03  0.00000000000E+00 0.  1.
         25    2    1    2    0    0 -0.15201254250E+02  0.36642978086E+02 -0.68347265068E+00  0.13122738241E+03  0.12508546193E+03 0.  0.
          5    1    3    3  502    0  0.31484082883E+02  0.21125037553E+01 -0.47047169033E+02  0.56803333187E+02  0.41800000000E+01 0. -1.
         -5    1    3    3    0  502 -0.46685337133E+02  0.34530474331E+02  0.46363696382E+02  0.74424049225E+02  0.41800000000E+01 0. -1.
        -11    1    1    2    0    0  0.34999099884E+02 -0.28676531989E+02 -0.16738982123E+03  0.17339732619E+03  0.00000000000E+00 0.  1.
         11    1    1    2    0    0 -0.19797845634E+02 -0.79664460974E+01 -0.46181432885E+01  0.21834518602E+02  0.00000000000E+00 0. -1.
</event>
<event>
 7    1  0.2612213E-009  0.1640468E+03  0.7561462E-02  0.1184202E+00
         -2   -1    0    0    0  501 -0.00000000000E+00  0.00000000000E+00  0.14734399852E+03  0.14734399852E+03  0.00000000000E+00 0.  1.
          2   -1    0    0  501    0  0.00000000000E+00 -0.00000000000E+00 -0.21452808183E+03  0.21452808183E+03  0.00000000000E+00 0. -1.
         25    2    1    2    0    0  0.88875728938E+02 -0.96137694905E+02  0.16540094516E+02  0.18182889438E+03  0.12508725167E+03 0.  0.
          5    1    3    3  502    0  0.53494833792E+02  0.20218633405E+02 -0.73739008035E+01  0.57812950039E+02  0.41800000000E+01 0.  1.
         -5    1    3    3    0  502  0.35380895146E+02 -0.11635632831E+03  0.23913995320E+02  0.12401594434E+03  0.41800000000E+01 0.  1.
        -11    1    1    2    0    0 -0.85128643808E+02  0.42231822466E+02 -0.21125957758E+02  0.97348440751E+02  0.00000000000E+00 0.  1.
         11    1    1    2    0    0 -0.37470851292E+01  0.53905872439E+02 -0.62598220073E+02  0.82694745218E+02  0.00000000000E+00 0. -1.
</event>
<event>
 7    1  0.2612213E-009  0.1186678E+03  0.7561462E-02  0.1245311E+00
          4   -1    0    0  501    0  0.00000000000E+00  0.00000000000E+00  0.36738747970E+02  0.36738747970E+02  0.00000000000E+00 0. -1.
         -4   -1    0    0    0  501 -0.00000000000E+00 -0.00000000000E+00 -0.51244890951E+03  0.51244890951E+03  0.00000000000E+00 0.  1.
         25    2    1    2    0    0  0.76443949309E+02 -0.24229731320E+02 -0.30732931341E+03  0.34136475886E+03  0.12509130444E+03 0.  0.
          5    1    3    3  502    0  0.61072221877E+02 -0.72452798481E+02 -0.23065817291E+03  0.24939905658E+03  0.41800000000E+01 0.  1.
         -5    1    3    3    0  502  0.15371727433E+02  0.48223067161E+02 -0.76671140497E+02  0.91965702280E+02  0.41800000000E+01 0.  1.
        -11    1    1    2    0    0 -0.47232751673E+02 -0.83236171927E+01 -0.18027116479E+02  0.51236631060E+02  0.00000000000E+00 0. -1.
         11    1    1    2    0    0 -0.29211197636E+02  0.32553348513E+02 -0.15035373166E+03  0.15658626756E+03  0.00000000000E+00 0.  1.
</event>
<event>
 7    1  0.2612213E-009  0.1369261E+03  0.7561462E-02  0.1217526E+00
         -2   -1    0    0    0  501 -0.00000000000E+00  0.00000000000E+00  0.31935964576E+02  0.31935964576E+02  0.00000000000E+00 0.  1.
          2   -1    0    0  501    0  0.00000000000E+00 -0.00000000000E+00 -0.11670481710E+04  0.11670481710E+04  0.00000000000E+00 0. -1.
         25    2    1    2    0    0 -0.48193428469E+02  0.95042730253E+02 -0.96135370997E+03  0.97529677684E+03  0.12508844920E+03 0.  0.
          5    1    3    3  502    0  0.88244581951E+01  0.10509296186E+03 -0.66301930132E+03  0.67136761020E+03  0.41800000000E+01 0.  1.
         -5    1    3    3    0  502 -0.57017886664E+02 -0.10050231606E+02 -0.29833440865E+03  0.30392916664E+03  0.41800000000E+01 0.  1.
        -11    1    1    2    0    0  0.26699622878E+02 -0.23537958755E+02 -0.11390101759E+01  0.35611833825E+02  0.00000000000E+00 0.  1.
         11    1    1    2    0    0  0.21493805591E+02 -0.71504771498E+02 -0.17261948625E+03  0.18807552488E+03  0.00000000000E+00 0. -1.
</event>
<event>
 7    1  0.2612213E-009  0.1173137E+03  0.7561462E-02  0.1247595E+00
          1   -1    0    0  501    0  0.00000000000E+00  0.00000000000E+00  0.15565365423E+04  0.15565365423E+04  0.00000000000E+00 0.  1.
         -1   -1    0    0    0  501 -0.00000000000E+00 -0.00000000000E+00 -0.14978410412E+02  0.14978410412E+02  0.00000000000E+00 0. -1.
         25    2    1    2    0    0  0.86831998713E+02 -0.48583658733E+00  0.11476748770E+04  0.11577328268E+04  0.12509053902E+03 0.  0.
          5    1    3    3  502    0  0.35588062177E+02  0.35847468345E+02  0.92337641754E+03  0.92476647432E+03  0.41800000000E+01 0. -1.
         -5    1    3    3    0  502  0.51243936536E+02 -0.36333304932E+02  0.22429845943E+03  0.23296635247E+03  0.41800000000E+01 0. -1.
        -11    1    1    2    0    0 -0.55135050289E+02  0.41602161477E+02  0.28360786861E+03  0.29189730514E+03  0.00000000000E+00 0. -1.
         11    1    1    2    0    0 -0.31696948423E+02 -0.41116324890E+02  0.11027538627E+03  0.12188482075E+03  0.00000000000E+00 0.  1.
</event>
<event>
 7    1  0.2612213E-009  0.2912401E+03  0.7561462E-02  0.1089703E+00
         -2   -1    0    0    0  501 -0.00000000000E+00  0.00000000000E+00  0.11049616749E+03  0.11049616749E+03  0.00000000000E+00 0.  1.
          2   -1    0    0  501    0  0.00000000000E+00 -0.00000000000E+00 -0.11474859897E+04  0.11474859897E+04  0.00000000000E+00 0. -1.
         25    2    1    2    0    0  0.80419248369E+02 -0.27268095084E+03 -0.19988819495E+03  0.36935771545E+03  0.12509066722E+03 0.  0.
          5    1    3    3  502    0  0.44497156649E+02 -0.14566795230E+03 -0.31896985103E+02  0.15567285998E+03  0.41800000000E+01 0. -1.
         -5    1    3    3    0  502  0.35922091720E+02 -0.12701299854E+03 -0.16799120984E+03  0.21368485547E+03  0.41800000000E+01 0. -1.
        -11    1    1    2    0    0 -0.10026364212E+03  0.22063418168E+03 -0.66995416495E+03  0.71244004884E+03  0.00000000000E+00 0. -1.
         11    1    1    2    0    0  0.19844393747E+02  0.52046769165E+02 -0.16714746227E+03  0.17618439286E+03  0.00000000000E+00 0.  1.
</event>
<event>
 7    1  0.2612213E-009  0.1356124E+03  0.7561462E-02  0.1219358E+00
         -2   -1    0    0    0  501 -0.00000000000E+00  0.00000000000E+00  0.59873109113E+02  0.59873109113E+02  0.00000000000E+00 0. -1.
          2   -1    0    0  501    0  0.00000000000E+00 -0.00000000000E+00 -0.32705468617E+03  0.32705468617E+03  0.00000000000E+00 0.  1.
         25    2    1    2    0    0 -0.82869019274E+02 -0.10704643655E+02 -0.11018865323E+03  0.18646855010E+03  0.12508843722E+03 0.  0.
          5    1    3    3  502    0  0.26450707461E+02 -0.29029172875E+02 -0.29939862676E+02  0.49560070421E+02  0.41800000000E+01 0. -1.
         -5    1    3    3    0  502 -0.10931972673E+03  0.18324529220E+02 -0.80248790550E+02  0.13690847968E+03  0.41800000000E+01 0. -1.
        -11    1    1    2    0    0  0.36139510586E+01  0.37097188397E+02 -0.73188560545E+02  0.82132986211E+02  0.00000000000E+00 0.  1.
         11    1    1    2    0    0  0.79255068215E+02 -0.26392544742E+02 -0.83804363283E+02  0.11832625897E+03  0.00000000000E+00 0. -1.
</event>
<event>
 7    1  0.2612213E-009  0.9108478E+02  0.7561462E-02  0.1300246E+00
         -3   -1    0    0    0  501 -0.00000000000E+00  0.00000000000E+00  0.84885646630E+02  0.84885646630E+02  0.00000000000E+00 0.  1.
          3   -1    0    0  501    0  0.00000000000E+00 -0.00000000000E+00 -0.16575096331E+03  0.16575096331E+03  0.00000000000E+00 0. -1.
         25    2    1    2    0    0  0.83504914902E+01  0.49080120527E+02 -0.55257926973E+02  0.14553298401E+03  0.12509125469E+03 0.  0.
          5    1    3    3  502    0 -0.40594608731E+02  0.12852312120E+02 -0.70640429799E+02  0.82587207890E+02  0.41800000000E+01 0. -1.
         -5    1    3    3    0  502  0.48945100221E+02  0.36227808407E+02  0.15382502826E+02  0.62945776116E+02  0.41800000000E+01 0. -1.
        -11    1    1    2    0    0 -0.34385770468E+02 -0.22222942452E+02 -0.46744638719E+02  0.62139372630E+02  0.00000000000E+00 0. -1.
         11    1    1    2    0    0  0.26035278978E+02 -0.26857178075E+02  0.21137249016E+02  0.42964253299E+02  0.00000000000E+00 0.  1.
</event>
<event>
 7    1  0.2612213E-009  0.1201814E+03  0.7561462E-02  0.1242798E+00
          2   -1    0    0  501    0  0.00000000000E+00  0.00000000000E+00  0.28610400830E+03  0.28610400830E+03  0.00000000000E+00 0. -1.
         -2   -1    0    0    0  501 -0.00000000000E+00 -0.00000000000E+00 -0.55858415863E+02  0.55858415863E+02  0.00000000000E+00 0.  1.
         25    2    1    2    0    0 -0.42400707532E+02 -0.46790345062E+02  0.13058127746E+03  0.19153593721E+03  0.12508952326E+03 0.  0.
          5    1    3    3  502    0 -0.84334609730E+02 -0.40156412839E+02  0.10938163691E+03  0.14389815420E+03  0.41800000000E+01 0. -1.
         -5    1    3    3    0  502  0.41933902199E+02 -0.66339322232E+01  0.21199640549E+02  0.47637783006E+02  0.41800000000E+01 0. -1.
        -11    1    1    2    0    0  0.29327187529E+02 -0.20417226189E+02  0.63821654958E+02  0.73144724316E+02  0.00000000000E+00 0. -1.
         11    1    1    2    0    0  0.13073520003E+02  0.67207571251E+02  0.35842660020E+02  0.77281762636E+02  0.00000000000E+00 0.  1.
</event>
<event>
 7    1  0.2612213E-009  0.9661167E+02  0.7561462E-02  0.1287587E+00
         -1   -1    0    0    0  501 -0.00000000000E+00  0.00000000000E+00  0.33421904800E+03  0.33421904800E+03  0.00000000000E+00 0.  1.
          1   -1    0    0  501    0  0.00000000000E+00 -0.00000000000E+00 -0.41266798299E+02  0.41266798299E+02  0.00000000000E+00 0. -1.
         25    2    1    2    0    0  0.41738103728E+02 -0.25049903665E+01  0.14907180461E+03  0.19904421495E+03  0.12509137579E+03 0.  0.
          5    1    3    3  502    0  0.24518345377E+02 -0.43465604195E+02  0.75406273816E+01  0.50643276645E+02  0.41800000000E+01 0.  1.
         -5    1    3    3    0  502  0.17219758351E+02  0.40960613828E+02  0.14153117723E+03  0.14840093831E+03  0.41800000000E+01 0.  1.
        -11    1    1    2    0    0 -0.65429867789E+02  0.20718464742E+02  0.11978651375E+03  0.13805481251E+03  0.00000000000E+00 0.  1.
         11    1    1    2    0    0  0.23691764061E+02 -0.18213474375E+02  0.24093931339E+02  0.38386818838E+02  0.00000000000E+00 0. -1.
</event>
<event>
 7    1  0.2612213E-009  0.2702028E+03  0.7561462E-02  0.1101164E+00
         -2   -1    0    0    0  501 -0.00000000000E+00  0.00000000000E+00  0.60856383428E+02  0.60856383428E+02  0.00000000000E+00 0.  1.
          2   -1    0    0  501    0  0.00000000000E+00 -0.00000000000E+00 -0.16900842235E+04  0.16900842235E+04  0.00000000000E+00 0. -1.
         25    2    1    2    0    0 -0.19131166894E+03 -0.17611170815E+03 -0.41180913616E+03  0.50284205195E+03  0.12509147123E+03 0.  0.
          5    1    3    3  502    0 -0.12328882150E+03 -0.44962795304E+02 -0.25824895785E+03  0.28970982568E+03  0.41800000000E+01 0.  1.
         -5    1    3    3    0  502 -0.68022847438E+02 -0.13114891284E+03 -0.15356017831E+03  0.21313222627E+03  0.41800000000E+01 0.  1.
        -11    1    1    2    0    0  0.54623536242E+02  0.66772397184E+02 -0.23780095705E+03  0.25296556863E+03  0.00000000000E+00 0. -1.
         11    1    1    2    0    0  0.13668813269E+03  0.10933931096E+03 -0.97961774686E+03  0.99513298634E+03  0.00000000000E+00 0.  1.
</event>
<event>
 7    1  0.2612213E-009  0.6942183E+02  0.7561462E-02  0.1362070E+00
          3   -1    0    0  501    0  0.00000000000E+00  0.00000000000E+00  0.89217185132E+02  0.89217185132E+02  0.00000000000E+00 0. -1.
         -3   -1    0    0    0  501 -0.00000000000E+00 -0.00000000000E+00 -0.13048152022E+03  0.13048152022E+03  0.00000000000E+00 0.  1.
         25    2    1    2    0    0 -0.11760315917E+02 -0.17097910559E+01 -0.27905405569E+02  0.12871398842E+03  0.12508937101E+03 0.  0.
          5    1    3    3  502    0 -0.39179169402E+02 -0.39669544212E+02 -0.51585823973E+02  0.76073975103E+02  0.41800000000E+01 0. -1.
         -5    1    3    3    0  502  0.27418853485E+02  0.37959753156E+02  0.23680418405E+02  0.52640013316E+02  0.41800000000E+01 0. -1.
        -11    1    1    2    0    0 -0.10542138543E+02  0.74264843436E+01  0.35067769922E+02  0.37363589791E+02  0.00000000000E+00 0. -1.
         11    1    1    2    0    0  0.22302454460E+02 -0.57166932877E+01 -0.48426699442E+02  0.53621127142E+02  0.00000000000E+00 0.  1.
</event>
<event>
 7    1  0.2612213E-009  0.1434556E+03  0.7561462E-02  0.1208753E+00
         -2   -1    0    0    0  501 -0.00000000000E+00  0.00000000000E+00  0.26555449060E+02  0.26555449060E+02  0.00000000000E+00 0.  1.
          2   -1    0    0  501    0  0.00000000000E+00 -0.00000000000E+00 -0.92083251360E+03  0.92083251360E+03  0.00000000000E+00 0. -1.
         25    2    1    2    0    0  0.93975815676E+02 -0.33398388724E+02 -0.61564943654E+03  0.63609703658E+03  0.12509318498E+03 0.  0.
          5    1    3    3  502    0  0.11642627367E+03  0.20293778156E+01 -0.48578511901E+03  0.49956365943E+03  0.41800000000E+01 0.  1.
         -5    1    3    3    0  502 -0.22450457999E+02 -0.35427766540E+02 -0.12986431754E+03  0.13653337715E+03  0.41800000000E+01 0.  1.
        -11    1    1    2    0    0  0.67763609676E+01  0.26390522073E+02 -0.20465604221E+02  0.34076673537E+02  0.00000000000E+00 0.  1.
         11    1    1    2    0    0 -0.10075217664E+03  0.70078666518E+01 -0.25816202378E+03  0.27721425255E+03  0.00000000000E+00 0. -1.
</event>
<event>
 7    1  0.2612213E-009  0.1549578E+03  0.7561462E-02  0.1194510E+00
          2   -1    0    0  501    0  0.00000000000E+00  0.00000000000E+00  0.33921422428E+03  0.33921422428E+03  0.00000000000E+00 0. -1.
         -2   -1    0    0    0  501 -0.00000000000E+00 -0.00000000000E+00 -0.78521646688E+02  0.78521646688E+02  0.00000000000E+00 0.  1.
         25    2    1    2    0    0 -0.85892639379E+02  0.81234274351E+02  0.17650166977E+03  0.24652891754E+03  0.12508842841E+03 0.  0.
          5    1    3    3  502    0 -0.11065223945E+03  0.79193912059E+02  0.17440818107E+03  0.22124936119E+03  0.41800000000E+01 0. -1.
         -5    1    3    3    0  502  0.24759600075E+02  0.20403622919E+01  0.20934887009E+01  0.25279556347E+02  0.41800000000E+01 0. -1.
        -11    1    1    2    0    0 -0.15141168106E+02 -0.33667739643E+02  0.15058857853E+02  0.39869046441E+02  0.00000000000E+00 0.  1.
         11    1    1    2    0    0  0.10103380749E+03 -0.47566534708E+02  0.69132049967E+02  0.13133790699E+03  0.00000000000E+00 0. -1.
</event>
<event>
 7    1  0.2858213E-009  0.1168569E+03  0.7561462E-02  0.1248374E+00
         -2   -1    0    0    0  501 -0.00000000000E+00  0.00000000000E+00  0.21436113791E+03  0.21436113791E+03  0.00000000000E+00 0.  1.
          2   -1    0    0  501    0  0.00000000000E+00 -0.00000000000E+00 -0.14336738485E+03  0.14336738485E+03  0.00000000000E+00 0. -1.
         25    2    1    2    0    0 -0.41361943546E+02 -0.10030350926E+03  0.12339750606E+03  0.20651453534E+03  0.12509877881E+03 0.  0.
          5    1    3    3  502    0 -0.23341740164E+02 -0.95926408302E+02  0.14642912061E+03  0.17665127343E+03  0.41800000000E+01 0. -1.
         -5    1    3    3    0  502 -0.18020203382E+02 -0.43771009626E+01 -0.23031614550E+02  0.29863261904E+02  0.41800000000E+01 0. -1.
        -11    1    1    2    0    0  0.37351399981E+02  0.37393308281E+02  0.18817305239E+02  0.56102384630E+02  0.00000000000E+00 0.  1.
         11    1    1    2    0    0  0.40105435654E+01  0.62910200984E+02 -0.71221058238E+02  0.95111602783E+02  0.00000000000E+00 0. -1.
</event>
<event>
 7    1  0.2612213E-009  0.1369389E+03  0.7561462E-02  0.1217508E+00
          4   -1    0    0  501    0  0.00000000000E+00  0.00000000000E+00  0.45102366214E+03  0.45102366214E+03  0.00000000000E+00 0. -1.
         -4   -1    0    0    0  501 -0.00000000000E+00 -0.00000000000E+00 -0.43611312323E+02  0.43611312323E+02  0.00000000000E+00 0.  1.
         25    2    1    2    0    0 -0.89821811647E+02  0.10617043192E+02  0.22372661531E+03  0.27181389333E+03  0.12509402366E+03 0.  0.
          5    1    3    3  502    0 -0.26550044570E+02  0.62325144062E+02  0.69009498206E+02  0.96794171786E+02  0.41800000000E+01 0.  1.
         -5    1    3    3    0  502 -0.63271767076E+02 -0.51708100870E+02  0.15471711710E+03  0.17501972154E+03  0.41800000000E+01 0.  1.
        -11    1    1    2    0    0  0.11188733025E+01  0.27582995677E+02  0.26073906169E+02  0.37972649511E+02  0.00000000000E+00 0.  1.
         11    1    1    2    0    0  0.88702938344E+02 -0.38200038869E+02  0.15761182834E+03  0.18484843162E+03  0.00000000000E+00 0. -1.
</event>
<event>
 7    1  0.2612213E-009  0.3168582E+03  0.7561462E-02  0.1077104E+00
          2   -1    0    0  501    0  0.00000000000E+00  0.00000000000E+00  0.42612631257E+03  0.42612631257E+03  0.00000000000E+00 0. -1.
         -2   -1    0    0    0  501 -0.00000000000E+00 -0.00000000000E+00 -0.24230000726E+03  0.24230000726E+03  0.00000000000E+00 0.  1.
         25    2    1    2    0    0  0.27858050942E+03  0.10987778659E+03  0.13435305445E+03  0.35125255112E+03  0.12508950082E+03 0.  0.
          5    1    3    3  502    0  0.79140577961E+02  0.95225878832E+02  0.62092456343E+02  0.13857901939E+03  0.41800000000E+01 0.  1.
         -5    1    3    3    0  502  0.19943993146E+03  0.14651907755E+02  0.72260598103E+02  0.21267353173E+03  0.41800000000E+01 0.  1.
        -11    1    1    2    0    0 -0.48937408953E+01 -0.21729339969E+02 -0.85276339434E+01  0.23850229687E+02  0.00000000000E+00 0.  1.
         11    1    1    2    0    0 -0.27368676852E+03 -0.88148446617E+02  0.58000884812E+02  0.29332353902E+03  0.00000000000E+00 0. -1.
</event>
<event>
 7    1  0.2612213E-009  0.1025704E+03  0.7561462E-02  0.1274982E+00
          2   -1    0    0  501    0  0.00000000000E+00  0.00000000000E+00  0.52962843748E+02  0.52962843748E+02  0.00000000000E+00 0. -1.
         -2   -1    0    0    0  501 -0.00000000000E+00 -0.00000000000E+00 -0.32571922301E+03  0.32571922301E+03  0.00000000000E+00 0.  1.
         25    2    1    2    0    0 -0.29124069609E+02  0.64995979600E+02 -0.16788727908E+03  0.22111906201E+03  0.12503924309E+03 0.  0.
          5    1    3    3  502    0  0.38283383635E+02  0.45738575106E+02 -0.31193442673E+02  0.67439884201E+02  0.41800000000E+01 0.  1.
         -5    1    3    3    0  502 -0.67407453244E+02  0.19257404494E+02 -0.13669383641E+03  0.15367917781E+03  0.41800000000E+01 0.  1.
        -11    1    1    2    0    0  0.29158854545E+02 -0.36930396289E+02  0.19737089238E+01  0.47095525216E+02  0.00000000000E+00 0. -1.
         11    1    1    2    0    0 -0.34784935838E-01 -0.28065583311E+02 -0.10684280910E+03  0.11046747953E+03  0.00000000000E+00 0.  1.
</event>
<event>
 7    1  0.2612213E-009  0.1298595E+03  0.7561462E-02  0.1227664E+00
          1   -1    0    0  501    0  0.00000000000E+00  0.00000000000E+00  0.59284299625E+03  0.59284299625E+03  0.00000000000E+00 0. -1.
         -1   -1    0    0    0  501 -0.00000000000E+00 -0.00000000000E+00 -0.34339591692E+02  0.34339591692E+02  0.00000000000E+00 0.  1.
         25    2    1    2    0    0 -0.17963630865E+02 -0.76804506765E+02  0.40713368500E+03  0.43316104587E+03  0.12509608269E+03 0.  0.
          5    1    3    3  502    0 -0.38155324293E+02  0.22853838513E+02  0.15361142032E+03  0.15997520920E+03  0.41800000000E+01 0.  1.
         -5    1    3    3    0  502  0.20191693429E+02 -0.99658345278E+02  0.25352226468E+03  0.27318583667E+03  0.41800000000E+01 0.  1.
        -11    1    1    2    0    0  0.46700416440E+02  0.69317768374E+02  0.75829194359E+02  0.11285366022E+03  0.00000000000E+00 0. -1.
         11    1    1    2    0    0 -0.28736785576E+02  0.74867383906E+01  0.75540525198E+02  0.81167881850E+02  0.00000000000E+00 0.  1.
</event>
<event>
 7    1  0.2612213E-009  0.7533400E+02  0.7561462E-02  0.1342840E+00
         -2   -1    0    0    0  501 -0.00000000000E+00  0.00000000000E+00  0.26014203323E+03  0.26014203323E+03  0.00000000000E+00 0.  1.
          2   -1    0    0  501    0  0.00000000000E+00 -0.00000000000E+00 -0.61386709926E+02  0.61386709926E+02  0.00000000000E+00 0. -1.
         25    2    1    2    0    0 -0.36757966072E+02 -0.51634390089E+02  0.13488598782E+03  0.19457343491E+03  0.12508930230E+03 0.  0.
          5    1    3    3  502    0 -0.10409949636E+02 -0.68740759642E+01  0.14144441457E+03  0.14205497099E+03  0.41800000000E+01 0.  1.
         -5    1    3    3    0  502 -0.26348016436E+02 -0.44760314125E+02 -0.65584267407E+01  0.52518463914E+02  0.41800000000E+01 0.  1.
        -11    1    1    2    0    0  0.38771717049E+02  0.62938420209E+02  0.13312897506E+02  0.75111410726E+02  0.00000000000E+00 0. -1.
         11    1    1    2    0    0 -0.20137509766E+01 -0.11304030120E+02  0.50556437974E+02  0.51843897525E+02  0.00000000000E+00 0.  1.
</event>
<event>
 7    1  0.2612213E-009  0.1058849E+03  0.7561462E-02  0.1268386E+00
          2   -1    0    0  501    0  0.00000000000E+00  0.00000000000E+00  0.75372581425E+03  0.75372581425E+03  0.00000000000E+00 0. -1.
         -2   -1    0    0    0  501 -0.00000000000E+00 -0.00000000000E+00 -0.22724534640E+02  0.22724534640E+02  0.00000000000E+00 0.  1.
         25    2    1    2    0    0  0.46225268375E+02 -0.45140415358E+02  0.50147220142E+03  0.52086012633E+03  0.12508584998E+03 0.  0.
          5    1    3    3  502    0  0.14343603324E+02 -0.72016327278E+02  0.44216718646E+03  0.44824254990E+03  0.41800000000E+01 0.  1.
         -5    1    3    3    0  502  0.31881665051E+02  0.26875911920E+02  0.59305014956E+02  0.72617576432E+02  0.41800000000E+01 0.  1.
        -11    1    1    2    0    0 -0.65306222697E+02  0.29587202092E+02  0.21581216077E+03  0.22740974911E+03  0.00000000000E+00 0. -1.
         11    1    1    2    0    0  0.19080954322E+02  0.15553213266E+02  0.13716917414E+02  0.28180473454E+02  0.00000000000E+00 0.  1.
</event>
<event>
 7    1  0.2612213E-009  0.1135915E+03  0.7561462E-02  0.1254060E+00
         -2   -1    0    0    0  501 -0.00000000000E+00  0.00000000000E+00  0.52606936372E+02  0.52606936372E+02  0.00000000000E+00 0.  1.
          2   -1    0    0  501    0  0.00000000000E+00 -0.00000000000E+00 -0.31359262190E+03  0.31359262190E+03  0.00000000000E+00 0. -1.
         25    2    1    2    0    0 -0.36913042947E+02  0.22979396496E+02 -0.22220970813E+03  0.25867960854E+03  0.12508940837E+03 0.  0.
          5    1    3    3  502    0 -0.20806055970E+02 -0.51478131718E+02 -0.83279461222E+02  0.10017899516E+03  0.41800000000E+01 0.  1.
         -5    1    3    3    0  502 -0.16106986978E+02  0.74457528215E+02 -0.13893024690E+03  0.15850061338E+03  0.41800000000E+01 0.  1.
        -11    1    1    2    0    0  0.12749458267E+02  0.32382678941E+02  0.16397733060E+01  0.34840715233E+02  0.00000000000E+00 0.  1.
         11    1    1    2    0    0  0.24163584680E+02 -0.55362075437E+02 -0.40415750706E+02  0.72679234493E+02  0.00000000000E+00 0. -1.
</event>
<event>
 7    1  0.2612213E-009  0.8545414E+02  0.7561462E-02  0.1314249E+00
          2   -1    0    0  501    0  0.00000000000E+00  0.00000000000E+00  0.20476581945E+03  0.20476581945E+03  0.00000000000E+00 0. -1.
         -2   -1    0    0    0  501 -0.00000000000E+00 -0.00000000000E+00 -0.77737556105E+02  0.77737556105E+02  0.00000000000E+00 0.  1.
         25    2    1    2    0    0  0.47324775814E+02 -0.38296769848E+02  0.50632361484E+02  0.14805632539E+03  0.12510300744E+03 0.  0.
          5    1    3    3  502    0  0.10865867284E+02 -0.30578647665E+01 -0.41281606531E+02  0.43000709837E+02  0.41800000000E+01 0.  1.
         -5    1    3    3    0  502  0.36458908531E+02 -0.35238905081E+02  0.91913968014E+02  0.10505561555E+03  0.41800000000E+01 0.  1.
        -11    1    1    2    0    0  0.12663035807E+02  0.45818680250E+02  0.19347416262E+02  0.51322767382E+02  0.00000000000E+00 0.  1.
         11    1    1    2    0    0 -0.59987811622E+02 -0.75219104024E+01  0.57048485596E+02  0.83124282783E+02  0.00000000000E+00 0. -1.
</event>
<event>
 7    1  0.2612213E-009  0.1901002E+03  0.7561462E-02  0.1158371E+00
          2   -1    0    0  501    0  0.00000000000E+00  0.00000000000E+00  0.37772146760E+03  0.37772146760E+03  0.00000000000E+00 0. -1.
         -2   -1    0    0    0  501 -0.00000000000E+00 -0.00000000000E+00 -0.14420941523E+03  0.14420941523E+03  0.00000000000E+00 0.  1.
         25    2    1    2    0    0 -0.34304935529E+02 -0.14017796265E+03  0.26363534004E+03  0.32553754622E+03  0.12507762257E+03 0.  0.
          5    1    3    3  502    0  0.49925517116E+01 -0.14800969199E+03  0.22708899070E+03  0.27114327687E+03  0.41800000000E+01 0. -1.
         -5    1    3    3    0  502 -0.39297487241E+02  0.78317293424E+01  0.36546349342E+02  0.54394269351E+02  0.41800000000E+01 0. -1.
        -11    1    1    2    0    0 -0.24872514031E+02 -0.12628427260E+02 -0.15411929869E+02  0.31869212598E+02  0.00000000000E+00 0.  1.
         11    1    1    2    0    0  0.59177449560E+02  0.15280638991E+03 -0.14711357797E+02  0.16452412401E+03  0.00000000000E+00 0. -1.
</event>
<event>
 7    1  0.2612213E-009  0.1135672E+03  0.7561462E-02  0.1254103E+00
          2   -1    0    0  501    0  0.00000000000E+00  0.00000000000E+00  0.11854788258E+04  0.11854788258E+04  0.00000000000E+00 0.  1.
         -2   -1    0    0    0  501 -0.00000000000E+00 -0.00000000000E+00 -0.24009068462E+02  0.24009068462E+02  0.00000000000E+00 0. -1.
         25    2    1    2    0    0 -0.93810557343E+02 -0.13815245790E+02  0.93813946298E+03  0.95117884642E+03  0.12507703297E+03 0.  0.
          5    1    3    3  502    0 -0.77771269214E+01  0.25089247660E+02  0.58518521200E+03  0.58578934677E+03  0.41800000000E+01 0.  1.
         -5    1    3    3    0  502 -0.86033430421E+02 -0.38904493450E+02  0.35295425099E+03  0.36538949964E+03  0.41800000000E+01 0.  1.
        -11    1    1    2    0    0  0.12872929253E+02  0.21144437154E+02  0.48796223071E+01  0.25231136399E+02  0.00000000000E+00 0. -1.
         11    1    1    2    0    0  0.80937628090E+02 -0.73291913640E+01  0.21845067203E+03  0.23307791143E+03  0.00000000000E+00 0.  1.
</event>
<event>
 7    1  0.2612213E-009  0.1150183E+03  0.7561462E-02  0.1251549E+00
         -3   -1    0    0    0  501 -0.00000000000E+00  0.00000000000E+00  0.68143812185E+03  0.68143812185E+03  0.00000000000E+00 0.  1.
          3   -1    0    0  501    0  0.00000000000E+00 -0.00000000000E+00 -0.23235657366E+02  0.23235657366E+02  0.00000000000E+00 0. -1.
         25    2    1    2    0    0  0.46058962790E+02 -0.43337100167E+02  0.40580215100E+03  0.42932724928E+03  0.12508784480E+03 0.  0.
          5    1    3    3  502    0  0.76951034663E+02 -0.45079693156E+02  0.17536090756E+03  0.19678048880E+03  0.41800000000E+01 0. -1.
         -5    1    3    3    0  502 -0.30892071874E+02  0.17425929893E+01  0.23044124344E+03  0.23254676049E+03  0.41800000000E+01 0. -1.
        -11    1    1    2    0    0 -0.61255706765E+02 -0.24352075325E+01  0.15428743744E+03  0.16602049632E+03  0.00000000000E+00 0.  1.
         11    1    1    2    0    0  0.15196743976E+02  0.45772307699E+02  0.98112876050E+02  0.10932603362E+03  0.00000000000E+00 0. -1.
</event>
<event>
 7    1  0.2612213E-009  0.1419662E+03  0.7561462E-02  0.1210708E+00
          1   -1    0    0  501    0  0.00000000000E+00  0.00000000000E+00  0.41740449110E+03  0.41740449110E+03  0.00000000000E+00 0. -1.
         -1   -1    0    0    0  501 -0.00000000000E+00 -0.00000000000E+00 -0.61091272029E+02  0.61091272029E+02  0.00000000000E+00 0.  1.
         25    2    1    2    0    0 -0.10852714106E+03 -0.43865834708E+02  0.17568095157E+03  0.24538934224E+03  0.12509908367E+03 0.  0.
          5    1    3    3  502    0  0.13447820961E+02 -0.42544593082E+02  0.74085032273E+02  0.86584933423E+02  0.41800000000E+01 0. -1.
         -5    1    3    3    0  502 -0.12197496202E+03 -0.13212416260E+01  0.10159591930E+03  0.15880440881E+03  0.41800000000E+01 0. -1.
        -11    1    1    2    0    0  0.55269456557E+02  0.21653936119E+02  0.16189851194E+03  0.17243762335E+03  0.00000000000E+00 0. -1.
         11    1    1    2    0    0  0.53257684506E+02  0.22211898589E+02  0.18733755554E+02  0.60668797540E+02  0.00000000000E+00 0.  1.
</event>
<event>
 7    1  0.2612213E-009  0.1314371E+03  0.7561462E-02  0.1225339E+00
          1   -1    0    0  501    0  0.00000000000E+00  0.00000000000E+00  0.60787031101E+02  0.60787031101E+02  0.00000000000E+00 0. -1.
         -1   -1    0    0    0  501 -0.00000000000E+00 -0.00000000000E+00 -0.33730816081E+03  0.33730816081E+03  0.00000000000E+00 0.  1.
         25    2    1    2    0    0 -0.11861402699E+02 -0.83802916364E+02 -0.20424851799E+03  0.25402178834E+03  0.12508393256E+03 0.  0.
          5    1    3    3  502    0  0.34530486619E+02 -0.89915368656E+02 -0.17154743987E+03  0.19678192131E+03  0.41800000000E+01 0.  1.
         -5    1    3    3    0  502 -0.46391889319E+02  0.61124522912E+01 -0.32701078118E+02  0.57239867030E+02  0.41800000000E+01 0.  1.
        -11    1    1    2    0    0  0.42570147066E+02  0.77074412927E+02 -0.70126663407E+02  0.11256301111E+03  0.00000000000E+00 0.  1.
         11    1    1    2    0    0 -0.30708744366E+02  0.67285034377E+01 -0.21459483112E+01  0.31510392464E+02  0.00000000000E+00 0. -1.
</event>
<event>
 7    1  0.2612213E-009  0.1397362E+03  0.7561462E-02  0.1213684E+00
          2   -1    0    0  501    0  0.00000000000E+00  0.00000000000E+00  0.64579767786E+02  0.64579767786E+02  0.00000000000E+00 0.  1.
         -2   -1    0    0    0  501 -0.00000000000E+00 -0.00000000000E+00 -0.33083914480E+03  0.33083914480E+03  0.00000000000E+00 0. -1.
         25    2    1    2    0    0  0.25922798932E+02 -0.87543930677E+02 -0.20219920124E+03  0.25469149811E+03  0.12508921186E+03 0.  0.
          5    1    3    3  502    0  0.10682891522E+02 -0.11904212037E+03 -0.15831314488E+03  0.19840784973E+03  0.41800000000E+01 0. -1.
         -5    1    3    3    0  502  0.15239907410E+02  0.31498189691E+02 -0.43886056355E+02  0.56283648372E+02  0.41800000000E+01 0. -1.
        -11    1    1    2    0    0  0.26975943971E+02  0.58196495695E+02 -0.40182919615E+02  0.75691483623E+02  0.00000000000E+00 0. -1.
         11    1    1    2    0    0 -0.52898742903E+02  0.29347434982E+02 -0.23877256161E+02  0.65035930858E+02  0.00000000000E+00 0.  1.
</event>
<event>
 7    1  0.2612213E-009  0.1878703E+03  0.7561462E-02  0.1160396E+00
          2   -1    0    0  501    0  0.00000000000E+00  0.00000000000E+00  0.45053736481E+03  0.45053736481E+03  0.00000000000E+00 0. -1.
         -2   -1    0    0    0  501 -0.00000000000E+00 -0.00000000000E+00 -0.10067971299E+03  0.10067971299E+03  0.00000000000E+00 0.  1.
         25    2    1    2    0    0  0.11686161020E+01  0.15548933756E+03  0.56912952346E+02  0.20751992836E+03  0.12508851572E+03 0.  0.
          5    1    3    3  502    0  0.52366074116E+02  0.12665630730E+03  0.21516294950E+02  0.13879643096E+03  0.41800000000E+01 0. -1.
         -5    1    3    3    0  502 -0.51197458014E+02  0.28833030257E+02  0.35396657396E+02  0.68723497406E+02  0.41800000000E+01 0. -1.
        -11    1    1    2    0    0  0.44299443833E+02 -0.68857837243E+02  0.12997083168E+03  0.15361074039E+03  0.00000000000E+00 0. -1.
         11    1    1    2    0    0 -0.45468059935E+02 -0.86631500319E+02  0.16297386780E+03  0.19008640905E+03  0.00000000000E+00 0.  1.
</event>
<event>
 7    1  0.2612213E-009  0.1098351E+03  0.7561462E-02  0.1260876E+00
          2   -1    0    0  501    0  0.00000000000E+00  0.00000000000E+00  0.75251713717E+02  0.75251713717E+02  0.00000000000E+00 0. -1.
         -2   -1    0    0    0  501 -0.00000000000E+00 -0.00000000000E+00 -0.20119278491E+03  0.20119278491E+03  0.00000000000E+00 0.  1.
         25    2    1    2    0    0  0.11984961203E+02  0.39203100296E+02 -0.24671000486E+02  0.13392873147E+03  0.12509086490E+03 0.  0.
          5    1    3    3  502    0  0.49618072217E+02  0.62842184135E+02  0.49922405970E+01  0.80333604821E+02  0.41800000000E+01 0. -1.
         -5    1    3    3    0  502 -0.37633111014E+02 -0.23639083838E+02 -0.29663241083E+02  0.53595126652E+02  0.41800000000E+01 0. -1.
        -11    1    1    2    0    0  0.29804262219E+02 -0.43622316102E+02 -0.32820563888E+02  0.62196381908E+02  0.00000000000E+00 0. -1.
         11    1    1    2    0    0 -0.41789223422E+02  0.44192158056E+01 -0.68449506821E+02  0.80319385248E+02  0.00000000000E+00 0.  1.
</event>
<event>
 7    1  0.2612213E-009  0.1014161E+03  0.7561462E-02  0.1277346E+00
         -1   -1    0    0    0  501 -0.00000000000E+00  0.00000000000E+00  0.44509551734E+02  0.44509551734E+02  0.00000000000E+00 0.  1.
          1   -1    0    0  501    0  0.00000000000E+00 -0.00000000000E+00 -0.32093499589E+03  0.32093499589E+03  0.00000000000E+00 0. -1.
         25    2    1    2    0    0 -0.42122295052E+02 -0.24131777411E+01 -0.14692913567E+03  0.19752115186E+03  0.12508526434E+03 0.  0.
          5    1    3    3  502    0 -0.92842622919E+01 -0.47739914101E+02 -0.13005172828E+03  0.13891083958E+03  0.41800000000E+01 0. -1.
         -5    1    3    3    0  502 -0.32838032760E+02  0.45326736359E+02 -0.16877407383E+02  0.58610312271E+02  0.41800000000E+01 0. -1.
        -11    1    1    2    0    0 -0.12538281814E+02 -0.31266841440E+02 -0.80167115847E+02  0.86957405364E+02  0.00000000000E+00 0. -1.
         11    1    1    2    0    0  0.54660576866E+02  0.33680019181E+02 -0.49329192642E+02  0.80965990404E+02  0.00000000000E+00 0.  1.
</event>
<event>
 7    1  0.2612213E-009  0.1075568E+03  0.7561462E-02  0.1265162E+00
          1   -1    0    0  501    0  0.00000000000E+00  0.00000000000E+00  0.21494087447E+02  0.21494087447E+02  0.00000000000E+00 0. -1.
         -1   -1    0    0    0  501 -0.00000000000E+00 -0.00000000000E+00 -0.91558151729E+03  0.91558151729E+03  0.00000000000E+00 0.  1.
         25    2    1    2    0    0  0.52040881688E+02  0.58109576463E+02 -0.63273725471E+03  0.64968432396E+03  0.12509320949E+03 0.  0.
          5    1    3    3  502    0  0.15692842502E+02 -0.94238276464E+01 -0.46296779052E+03  0.46334838004E+03  0.41800000000E+01 0.  1.
         -5    1    3    3    0  502  0.36348039186E+02  0.67533404109E+02 -0.16976946419E+03  0.18633594391E+03  0.41800000000E+01 0.  1.
        -11    1    1    2    0    0 -0.22204792014E+02 -0.79678034137E+02 -0.18258193379E+03  0.20044401827E+03  0.00000000000E+00 0.  1.
         11    1    1    2    0    0 -0.29836089674E+02  0.21568457674E+02 -0.78768241345E+02  0.86947262510E+02  0.00000000000E+00 0. -1.
</event>
<event>
 7    1  0.2612213E-009  0.1356332E+03  0.7561462E-02  0.1219329E+00
          1   -1    0    0  501    0  0.00000000000E+00  0.00000000000E+00  0.25245061042E+03  0.25245061042E+03  0.00000000000E+00 0. -1.
         -1   -1    0    0    0  501 -0.00000000000E+00 -0.00000000000E+00 -0.91963675568E+02  0.91963675568E+02  0.00000000000E+00 0.  1.
         25    2    1    2    0    0  0.10417012308E+03 -0.23627848195E+02  0.80615937957E+02  0.18318584434E+03  0.12509370232E+03 0.  0.
          5    1    3    3  502    0  0.11528330269E+03  0.35454382080E+01  0.21994177835E+02  0.11749053694E+03  0.41800000000E+01 0. -1.
         -5    1    3    3    0  502 -0.11113179607E+02 -0.27173286403E+02  0.58621760121E+02  0.65695307402E+02  0.41800000000E+01 0. -1.
        -11    1    1    2    0    0 -0.76618606395E+02 -0.15670433616E+02  0.13560408353E+02  0.79371644876E+02  0.00000000000E+00 0.  1.
         11    1    1    2    0    0 -0.27551516689E+02  0.39298281811E+02  0.66310588547E+02  0.81856796777E+02  0.00000000000E+00 0. -1.
</event>
<event>
 7    1  0.2612213E-009  0.3146706E+03  0.7561462E-02  0.1078129E+00
          1   -1    0    0  501    0  0.00000000000E+00  0.00000000000E+00  0.13834126372E+04  0.13834126372E+04  0.00000000000E+00 0. -1.
         -1   -1    0    0    0  501 -0.00000000000E+00 -0.00000000000E+00 -0.75857685213E+02  0.75857685213E+02  0.00000000000E+00 0.  1.
         25    2    1    2    0    0 -0.27391994621E+03  0.13167837144E+03  0.63300104618E+03  0.71323868696E+03  0.12509104552E+03 0.  0.
          5    1    3    3  502    0 -0.62258835797E+02 -0.17974022530E+02  0.84641320306E+02  0.10668108372E+03  0.41800000000E+01 0. -1.
         -5    1    3    3    0  502 -0.21166111041E+03  0.14965239398E+03  0.54835972587E+03  0.60655760324E+03  0.41800000000E+01 0. -1.
        -11    1    1    2    0    0  0.17068400574E+03 -0.96554394410E+02  0.52886900490E+03  0.56405514380E+03  0.00000000000E+00 0.  1.
         11    1    1    2    0    0  0.10323594047E+03 -0.35123977035E+02  0.14568490093E+03  0.18197649169E+03  0.00000000000E+00 0. -1.
</event>
<event>
 7    1  0.2612213E-009  0.1220096E+03  0.7561462E-02  0.1239818E+00
          4   -1    0    0  501    0  0.00000000000E+00  0.00000000000E+00  0.22798657286E+03  0.22798657286E+03  0.00000000000E+00 0. -1.
         -4   -1    0    0    0  501 -0.00000000000E+00 -0.00000000000E+00 -0.77895100399E+02  0.77895100399E+02  0.00000000000E+00 0.  1.
         25    2    1    2    0    0  0.19778354670E+02  0.65959744996E+02  0.12301843022E+03  0.18846975623E+03  0.12508174753E+03 0.  0.
          5    1    3    3  502    0 -0.28124714150E+02  0.84930193286E+02  0.90909377961E+02  0.12761710183E+03  0.41800000000E+01 0.  1.
         -5    1    3    3    0  502  0.47903068821E+02 -0.18970448289E+02  0.32109052258E+02  0.60852654401E+02  0.41800000000E+01 0.  1.
        -11    1    1    2    0    0  0.27596040289E+02 -0.97847231423E+01 -0.14828812372E+02  0.32820358362E+02  0.00000000000E+00 0.  1.
         11    1    1    2    0    0 -0.47374394959E+02 -0.56175021854E+02  0.41901854618E+02  0.84591558672E+02  0.00000000000E+00 0. -1.
</event>
<event>
 7    1  0.2612213E-009  0.1266069E+03  0.7561462E-02  0.1232579E+00
          3   -1    0    0  501    0  0.00000000000E+00  0.00000000000E+00  0.47900808097E+03  0.47900808097E+03  0.00000000000E+00 0. -1.
         -3   -1    0    0    0  501 -0.00000000000E+00 -0.00000000000E+00 -0.36242234441E+02  0.36242234441E+02  0.00000000000E+00 0.  1.
         25    2    1    2    0    0 -0.53716509287E+02 -0.42079276032E+02  0.29838322863E+03  0.33065937992E+03  0.12508775143E+03 0.  0.
          5    1    3    3  502    0 -0.78315132187E+02  0.13857619902E+02  0.19271654852E+03  0.20852442071E+03  0.41800000000E+01 0. -1.
         -5    1    3    3    0  502  0.24598622899E+02 -0.55936895934E+02  0.10566668011E+03  0.12213495921E+03  0.41800000000E+01 0. -1.
        -11    1    1    2    0    0 -0.12167739695E+02  0.44759684365E+02  0.40655440774E+02  0.61679397681E+02  0.00000000000E+00 0.  1.
         11    1    1    2    0    0  0.65884248982E+02 -0.26804083333E+01  0.10372717712E+03  0.12291153780E+03  0.00000000000E+00 0. -1.
</event>
<event>
 7    1  0.2612213E-009  0.8451849E+02  0.7561462E-02  0.1316697E+00
         -1   -1    0    0    0  501 -0.00000000000E+00  0.00000000000E+00  0.17035152692E+03  0.17035152692E+03  0.00000000000E+00 0.  1.
          1   -1    0    0  501    0  0.00000000000E+00 -0.00000000000E+00 -0.78284765167E+02  0.78284765167E+02  0.00000000000E+00 0. -1.
         25    2    1    2    0    0 -0.30606052638E+02 -0.22621018352E+02  0.44986371998E+02  0.13827135525E+03  0.12508698209E+03 0.  0.
          5    1    3    3  502    0 -0.52012477503E+02 -0.37713632979E+00 -0.27780949453E+02  0.59115933557E+02  0.41800000000E+01 0.  1.
         -5    1    3    3    0  502  0.21406424865E+02 -0.22243882023E+02  0.72767321451E+02  0.79155421697E+02  0.41800000000E+01 0.  1.
        -11    1    1    2    0    0 -0.24771663079E+02 -0.24921085252E+01 -0.10127563098E+02  0.26877749737E+02  0.00000000000E+00 0. -1.
         11    1    1    2    0    0  0.55377715718E+02  0.25113126878E+02  0.57207952857E+02  0.83487187099E+02  0.00000000000E+00 0.  1.
</event>
<event>
 7    1  0.2612213E-009  0.1029515E+03  0.7561462E-02  0.1274209E+00
         -2   -1    0    0    0  501 -0.00000000000E+00  0.00000000000E+00  0.55763379614E+02  0.55763379614E+02  0.00000000000E+00 0.  1.
          2   -1    0    0  501    0  0.00000000000E+00 -0.00000000000E+00 -0.43196113786E+03  0.43196113786E+03  0.00000000000E+00 0. -1.
         25    2    1    2    0    0 -0.78306908317E+02 -0.45173025878E+02 -0.29745214570E+03  0.33511012470E+03  0.12509373500E+03 0.  0.
          5    1    3    3  502    0 -0.10286933741E+02 -0.34160776205E+02 -0.70366683694E+01  0.36602824187E+02  0.41800000000E+01 0.  1.
         -5    1    3    3    0  502 -0.68019974577E+02 -0.11012249673E+02 -0.29041547733E+03  0.29850730051E+03  0.41800000000E+01 0.  1.
        -11    1    1    2    0    0  0.67457744398E+01  0.26006692725E+02 -0.73602261115E+02  0.78352704998E+02  0.00000000000E+00 0. -1.
         11    1    1    2    0    0  0.71561133878E+02  0.19166333153E+02 -0.51433514352E+01  0.74261687783E+02  0.00000000000E+00 0.  1.
</event>
<event>
 7    1  0.2612213E-009  0.9923010E+02  0.7561462E-02  0.1281923E+00
         -2   -1    0    0    0  501 -0.00000000000E+00  0.00000000000E+00  0.81710364048E+03  0.81710364048E+03  0.00000000000E+00 0.  1.
          2   -1    0    0  501    0  0.00000000000E+00 -0.00000000000E+00 -0.21523937129E+02  0.21523937129E+02  0.00000000000E+00 0. -1.
         25    2    1    2    0    0 -0.17644753007E+02  0.28902355334E+02  0.66264923581E+03  0.67520369888E+03  0.12509732933E+03 0.  0.
          5    1    3    3  502    0  0.16252725950E+02  0.57155926541E+02  0.56297622148E+03  0.56611893573E+03  0.41800000000E+01 0. -1.
         -5    1    3    3    0  502 -0.33897478957E+02 -0.28253571207E+02  0.99673014332E+02  0.10908476315E+03  0.41800000000E+01 0. -1.
        -11    1    1    2    0    0  0.25069210557E+02 -0.58714806213E+02  0.81681972222E+02  0.10367178195E+03  0.00000000000E+00 0. -1.
         11    1    1    2    0    0 -0.74244575498E+01  0.29812450878E+02  0.51248495320E+02  0.59752096782E+02  0.00000000000E+00 0.  1.
</event>
<event>
 7    1  0.2612213E-009  0.1424173E+03  0.7561462E-02  0.1210113E+00
          3   -1    0    0  501    0  0.00000000000E+00  0.00000000000E+00  0.41709798067E+02  0.41709798067E+02  0.00000000000E+00 0. -1.
         -3   -1    0    0    0  501 -0.00000000000E+00 -0.00000000000E+00 -0.57641482301E+03  0.57641482301E+03  0.00000000000E+00 0.  1.
         25    2    1    2    0    0 -0.88731796971E+02 -0.58339833454E+02 -0.32917221670E+03  0.36780176078E+03  0.12508764536E+03 0.  0.
          5    1    3    3  502    0  0.12898744927E+02 -0.44882324704E+02 -0.42351887578E+02  0.63181923625E+02  0.41800000000E+01 0.  1.
         -5    1    3    3    0  502 -0.10163054190E+03 -0.13457508750E+02 -0.28682032912E+03  0.30461983715E+03  0.41800000000E+01 0.  1.
        -11    1    1    2    0    0 -0.12548996508E+02  0.26263006557E+02 -0.84005986859E+02  0.88905729033E+02  0.00000000000E+00 0.  1.
         11    1    1    2    0    0  0.10128079348E+03  0.32076826897E+02 -0.12152682139E+03  0.16141713127E+03  0.00000000000E+00 0. -1.
</event>
<event>
 7    1  0.3092469E-009  0.1330919E+03  0.7561462E-02  0.1222939E+00
          1   -1    0    0  501    0  0.00000000000E+00  0.00000000000E+00  0.61026546266E+03  0.61026546266E+03  0.00000000000E+00 0.  1.
         -1   -1    0    0    0  501 -0.00000000000E+00 -0.00000000000E+00 -0.33066366011E+02  0.33066366011E+02  0.00000000000E+00 0. -1.
         25    2    1    2    0    0 -0.13491512547E+02 -0.88132795964E+02  0.36374033078E+03  0.39484662338E+03  0.12508963636E+03 0.  0.
          5    1    3    3  502    0  0.25140691151E+02  0.20192455068E+02  0.13406342779E+03  0.13795022531E+03  0.41800000000E+01 0.  1.
         -5    1    3    3    0  502 -0.38632203697E+02 -0.10832525103E+03  0.22967690299E+03  0.25689639807E+03  0.41800000000E+01 0.  1.
        -11    1    1    2    0    0  0.44077926566E+02  0.70880033911E+02  0.18612729148E+03  0.20398581188E+03  0.00000000000E+00 0.  1.
         11    1    1    2    0    0 -0.30586414019E+02  0.17252762053E+02  0.27331474395E+02  0.44499393407E+02  0.00000000000E+00 0. -1.
</event>
<event>
 7    1  0.2612213E-009  0.1358892E+03  0.7561462E-02  0.1218970E+00
          2   -1    0    0  501    0  0.00000000000E+00  0.00000000000E+00  0.13991859955E+03  0.13991859955E+03  0.00000000000E+00 0. -1.
         -2   -1    0    0    0  501 -0.00000000000E+00 -0.00000000000E+00 -0.24075400696E+03  0.24075400696E+03  0.00000000000E+00 0.  1.
         25    2    1    2    0    0  0.68480649603E+02 -0.10499258903E+03  0.27614429931E+02  0.17922815231E+03  0.12508849155E+03 0.  0.
          5    1    3    3  502    0  0.45679636785E+02 -0.23654774886E+02 -0.44449928805E+02  0.68113480035E+02  0.41800000000E+01 0.  1.
         -5    1    3    3    0  502  0.22801012818E+02 -0.81337814141E+02  0.72064358736E+02  0.11111467228E+03  0.41800000000E+01 0.  1.
        -11    1    1    2    0    0 -0.76830053811E+02  0.98994819568E+02 -0.72945570853E+02  0.14499616470E+03  0.00000000000E+00 0. -1.
         11    1    1    2    0    0  0.83494042076E+01  0.59977694590E+01 -0.55504266489E+02  0.56448289501E+02  0.00000000000E+00 0.  1.
</event>
<event>
 7    1  0.2612213E-009  0.1053101E+03  0.7561462E-02  0.1269510E+00
          1   -1    0    0  501    0  0.00000000000E+00  0.00000000000E+00  0.33642487001E+02  0.33642487001E+02  0.00000000000E+00 0. -1.
         -1   -1    0    0    0  501 -0.00000000000E+00 -0.00000000000E+00 -0.41421964895E+03  0.41421964895E+03  0.00000000000E+00 0.  1.
         25    2    1    2    0    0  0.25607923353E+02  0.14280371833E+02 -0.28889328913E+03  0.31617549867E+03  0.12509164119E+03 0.  0.
          5    1    3    3  502    0  0.61187521904E+02 -0.32025953440E+02 -0.17330881043E+03  0.18660919244E+03  0.41800000000E+01 0.  1.
         -5    1    3    3    0  502 -0.35579598551E+02  0.46306325273E+02 -0.11558447871E+03  0.12956630624E+03  0.41800000000E+01 0.  1.
        -11    1    1    2    0    0 -0.28086505022E+02  0.28511433577E+02 -0.76275592698E+02  0.86137794553E+02  0.00000000000E+00 0.  1.
         11    1    1    2    0    0  0.24785816689E+01 -0.42791805410E+02 -0.15408280114E+02  0.45548842723E+02  0.00000000000E+00 0. -1.
</event>
<event>
 7    1  0.2612213E-009  0.2977983E+03  0.7561462E-02  0.1086346E+00
         -1   -1    0    0    0  501 -0.00000000000E+00  0.00000000000E+00  0.73131425922E+03  0.73131425922E+03  0.00000000000E+00 0.  1.
          1   -1    0    0  501    0  0.00000000000E+00 -0.00000000000E+00 -0.14148514722E+03  0.14148514722E+03  0.00000000000E+00 0. -1.
         25    2    1    2    0    0  0.11598510468E+03 -0.25775091288E+03  0.42062899763E+03  0.52198141648E+03  0.12509103849E+03 0.  0.
          5    1    3    3  502    0  0.49462875707E+02 -0.22497898294E+03  0.35299626183E+03  0.42152811544E+03  0.41800000000E+01 0. -1.
         -5    1    3    3    0  502  0.66522228969E+02 -0.32771929936E+02  0.67632735792E+02  0.10045330104E+03  0.41800000000E+01 0. -1.
        -11    1    1    2    0    0 -0.58003427193E+01  0.90270973555E+02  0.10869584661E+03  0.14141173824E+03  0.00000000000E+00 0.  1.
         11    1    1    2    0    0 -0.11018476196E+03  0.16747993932E+03  0.60504267768E+02  0.20940625172E+03  0.00000000000E+00 0. -1.
</event>
<event>
 7    1  0.2612213E-009  0.1725738E+03  0.7561462E-02  0.1175190E+00
          1   -1    0    0  501    0  0.00000000000E+00  0.00000000000E+00  0.35662195344E+03  0.35662195344E+03  0.00000000000E+00 0. -1.
         -1   -1    0    0    0  501 -0.00000000000E+00 -0.00000000000E+00 -0.91069430343E+02  0.91069430343E+02  0.00000000000E+00 0.  1.
         25    2    1    2    0    0 -0.95500732989E+02  0.10427888920E+03  0.10766011230E+03  0.21734006636E+03  0.12510606672E+03 0.  0.
          5    1    3    3  502    0 -0.42715353587E+02  0.12416095944E+03  0.84636187708E+02  0.15627316453E+03  0.41800000000E+01 0.  1.
         -5    1    3    3    0  502 -0.52785379402E+02 -0.19882070244E+02  0.23023924594E+02  0.61066901833E+02  0.41800000000E+01 0.  1.
        -11    1    1    2    0    0  0.89249347849E+02 -0.49449238565E+02  0.13814365501E+03  0.17173917056E+03  0.00000000000E+00 0.  1.
         11    1    1    2    0    0  0.62513851398E+01 -0.54829650632E+02  0.19748755785E+02  0.58612146861E+02  0.00000000000E+00 0. -1.
</event>
<event>
 7    1  0.2612213E-009  0.1647013E+03  0.7561462E-02  0.1183489E+00
         -2   -1    0    0    0  501 -0.00000000000E+00  0.00000000000E+00  0.71212939623E+02  0.71212939623E+02  0.00000000000E+00 0.  1.
          2   -1    0    0  501    0  0.00000000000E+00 -0.00000000000E+00 -0.50488327669E+03  0.50488327669E+03  0.00000000000E+00 0. -1.
         25    2    1    2    0    0 -0.95225323022E+01 -0.14990152591E+03 -0.16844953044E+03  0.25803860060E+03  0.12509008355E+03 0.  0.
          5    1    3    3  502    0  0.22356845367E+02  0.29928676900E+01 -0.69292353756E+02  0.72991016439E+02  0.41800000000E+01 0. -1.
         -5    1    3    3    0  502 -0.31879377669E+02 -0.15289439360E+03 -0.99157176682E+02  0.18504758416E+03  0.41800000000E+01 0. -1.
        -11    1    1    2    0    0  0.33973949347E+01  0.36748749588E+02 -0.15729978690E+03  0.16157114794E+03  0.00000000000E+00 0. -1.
         11    1    1    2    0    0  0.61251373676E+01  0.11315277632E+03 -0.10792101973E+03  0.15648646777E+03  0.00000000000E+00 0.  1.
</event>
<event>
 7    1  0.2612213E-009  0.1807656E+03  0.7561462E-02  0.1167064E+00
         -2   -1    0    0    0  501 -0.00000000000E+00  0.00000000000E+00  0.47928410292E+02  0.47928410292E+02  0.00000000000E+00 0.  1.
          2   -1    0    0  501    0  0.00000000000E+00 -0.00000000000E+00 -0.89143570680E+03  0.89143570680E+03  0.00000000000E+00 0. -1.
         25    2    1    2    0    0  0.99002563676E+02  0.13797988023E+03 -0.53753483962E+03  0.57743435037E+03  0.12508705056E+03 0.  0.
          5    1    3    3  502    0  0.38736609583E+02  0.69474331000E+02 -0.87922076230E+02  0.11863798497E+03  0.41800000000E+01 0.  1.
         -5    1    3    3    0  502  0.60265954093E+02  0.68505549233E+02 -0.44961276339E+03  0.45879636540E+03  0.41800000000E+01 0.  1.
        -11    1    1    2    0    0 -0.72718629140E-02  0.11364933700E+02 -0.69104281134E+01  0.13300969423E+02  0.00000000000E+00 0.  1.
         11    1    1    2    0    0 -0.98995291813E+02 -0.14934481393E+03 -0.29906202877E+03  0.34862879729E+03  0.00000000000E+00 0. -1.
</event>
<event>
 7    1  0.2612213E-009  0.1850359E+03  0.7561462E-02  0.1163016E+00
          2   -1    0    0  501    0  0.00000000000E+00  0.00000000000E+00  0.10591441410E+04  0.10591441410E+04  0.00000000000E+00 0. -1.
         -2   -1    0    0    0  501 -0.00000000000E+00 -0.00000000000E+00 -0.33124361785E+03  0.33124361785E+03  0.00000000000E+00 0.  1.
         25    2    1    2    0    0 -0.16116007682E+01  0.17379789968E+03 -0.28677616891E+03  0.35790457028E+03  0.12508718234E+03 0.  0.
          5    1    3    3  502    0  0.19208636097E+02  0.12634651528E+03 -0.27688725196E+03  0.30498596086E+03  0.41800000000E+01 0. -1.
         -5    1    3    3    0  502 -0.20820236865E+02  0.47451384401E+02 -0.98889169484E+01  0.52918609422E+02  0.41800000000E+01 0. -1.
        -11    1    1    2    0    0 -0.37850264902E+02 -0.84420925870E+02  0.44923816747E+03  0.45866596384E+03  0.00000000000E+00 0. -1.
         11    1    1    2    0    0  0.39461865670E+02 -0.89376973808E+02  0.56543852464E+03  0.57381722476E+03  0.00000000000E+00 0.  1.
</event>
<event>
 7    1  0.2612213E-009  0.2613959E+03  0.7561462E-02  0.1106307E+00
          2   -1    0    0  501    0  0.00000000000E+00  0.00000000000E+00  0.14152595369E+03  0.14152595369E+03  0.00000000000E+00 0.  1.
         -2   -1    0    0    0  501 -0.00000000000E+00 -0.00000000000E+00 -0.51196621044E+03  0.51196621044E+03  0.00000000000E+00 0. -1.
         25    2    1    2    0    0  0.12701702104E+03  0.20542210644E+03 -0.24808108091E+03  0.36813542327E+03  0.12509157332E+03 0.  0.
          5    1    3    3  502    0  0.52446516663E+02 -0.84331044917E+00 -0.47592589408E+02  0.70949807957E+02  0.41800000000E+01 0.  1.
         -5    1    3    3    0  502  0.74570504378E+02  0.20626541689E+03 -0.20048849150E+03  0.29718561532E+03  0.41800000000E+01 0.  1.
        -11    1    1    2    0    0 -0.63256285979E+02 -0.43478646040E+02 -0.81561117551E+01  0.77189847365E+02  0.00000000000E+00 0.  1.
         11    1    1    2    0    0 -0.63760735062E+02 -0.16194346040E+03 -0.11420306409E+03  0.20816689350E+03  0.00000000000E+00 0. -1.
</event>
<event>
 7    1  0.2612213E-009  0.8688547E+02  0.7561462E-02  0.1310574E+00
          1   -1    0    0  501    0  0.00000000000E+00  0.00000000000E+00  0.34995762016E+02  0.34995762016E+02  0.00000000000E+00 0. -1.
         -1   -1    0    0    0  501 -0.00000000000E+00 -0.00000000000E+00 -0.35380833054E+03  0.35380833054E+03  0.00000000000E+00 0.  1.
         25    2    1    2    0    0 -0.37145155705E+01  0.13214644544E+02 -0.14765650775E+03  0.19398902406E+03  0.12506347476E+03 0.  0.
          5    1    3    3  502    0 -0.51817296648E+02 -0.24344064819E+02 -0.39331648939E+02  0.69585319802E+02  0.41800000000E+01 0. -1.
         -5    1    3    3    0  502  0.48102781077E+02  0.37558709362E+02 -0.10832485881E+03  0.12440370426E+03  0.41800000000E+01 0. -1.
        -11    1    1    2    0    0 -0.16941496483E+02 -0.25904942930E+02 -0.16745460968E+03  0.17029129947E+03  0.00000000000E+00 0.  1.
         11    1    1    2    0    0  0.20656012054E+02  0.12690298387E+02 -0.37014510917E+01  0.24523769027E+02  0.00000000000E+00 0. -1.
</event>
<event>
 7    1  0.2612213E-009  0.1203351E+03  0.7561462E-02  0.1242545E+00
          1   -1    0    0  501    0  0.00000000000E+00  0.00000000000E+00  0.13075931605E+04  0.13075931605E+04  0.00000000000E+00 0. -1.
         -1   -1    0    0    0  501 -0.00000000000E+00 -0.00000000000E+00 -0.12025305725E+02  0.12025305725E+02  0.00000000000E+00 0.  1.
         25    2    1    2    0    0 -0.15937127836E+02 -0.48840994481E+02  0.81585819085E+03  0.82698408177E+03  0.12505458467E+03 0.  0.
          5    1    3    3  502    0  0.43501381572E+02 -0.53684354181E+02  0.31171538465E+03  0.31930915037E+03  0.41800000000E+01 0. -1.
         -5    1    3    3    0  502 -0.59438509408E+02  0.48433596999E+01  0.50414280620E+03  0.50767493141E+03  0.41800000000E+01 0. -1.
        -11    1    1    2    0    0 -0.41313615182E+02  0.10074989950E+02  0.20427736999E+03  0.20865656977E+03  0.00000000000E+00 0. -1.
         11    1    1    2    0    0  0.57250743017E+02  0.38766004531E+02  0.27543229397E+03  0.28397781471E+03  0.00000000000E+00 0.  1.
</event>
<event>
 7    1  0.2612213E-009  0.1449209E+03  0.7561462E-02  0.1206857E+00
         -2   -1    0    0    0  501 -0.00000000000E+00  0.00000000000E+00  0.37943550441E+03  0.37943550441E+03  0.00000000000E+00 0.  1.
          2   -1    0    0  501    0  0.00000000000E+00 -0.00000000000E+00 -0.58586377154E+02  0.58586377154E+02  0.00000000000E+00 0. -1.
         25    2    1    2    0    0  0.59880097131E+02 -0.78943034556E+02  0.14207499341E+03  0.21365867495E+03  0.12508835634E+03 0.  0.
          5    1    3    3  502    0 -0.18137050933E+02 -0.73880701885E+02  0.43354740358E+02  0.87660804463E+02  0.41800000000E+01 0. -1.
         -5    1    3    3    0  502  0.78017148064E+02 -0.50623326709E+01  0.98720253052E+02  0.12599787049E+03  0.41800000000E+01 0. -1.
        -11    1    1    2    0    0 -0.74654672912E+02  0.23928220336E+02  0.10963100160E+03  0.13477698775E+03  0.00000000000E+00 0.  1.
         11    1    1    2    0    0  0.14774575781E+02  0.55014814220E+02  0.69143132243E+02  0.89586218860E+02  0.00000000000E+00 0. -1.
</event>
<event>
 7    1  0.2612213E-009  0.1133228E+03  0.7561462E-02  0.1254537E+00
          2   -1    0    0  501    0  0.00000000000E+00  0.00000000000E+00  0.40218590664E+03  0.40218590664E+03  0.00000000000E+00 0. -1.
         -2   -1    0    0    0  501 -0.00000000000E+00 -0.00000000000E+00 -0.34435532858E+02  0.34435532858E+02  0.00000000000E+00 0.  1.
         25    2    1    2    0    0 -0.17110993440E+02 -0.34882937021E+02  0.16302247497E+03  0.20912217447E+03  0.12508457587E+03 0.  0.
          5    1    3    3  502    0  0.46346423322E+02  0.12482148098E+02  0.39326115115E+02  0.62191725381E+02  0.41800000000E+01 0. -1.
         -5    1    3    3    0  502 -0.63457416762E+02 -0.47365085119E+02  0.12369635985E+03  0.14693044909E+03  0.41800000000E+01 0. -1.
        -11    1    1    2    0    0  0.54972118303E+02  0.20666479490E+02  0.11812348060E+03  0.13191737503E+03  0.00000000000E+00 0.  1.
         11    1    1    2    0    0 -0.37861124863E+02  0.14216457531E+02  0.86604418213E+02  0.95581889993E+02  0.00000000000E+00 0. -1.
</event>
<event>
 7    1  0.2612213E-009  0.9003325E+02  0.7561462E-02  0.1302771E+00
         -1   -1    0    0    0  501 -0.00000000000E+00  0.00000000000E+00  0.20204662744E+02  0.20204662744E+02  0.00000000000E+00 0.  1.
          1   -1    0    0  501    0  0.00000000000E+00 -0.00000000000E+00 -0.64003054312E+03  0.64003054312E+03  0.00000000000E+00 0. -1.
         25    2    1    2    0    0 -0.13625395379E+01 -0.32345698992E+02 -0.36964366021E+03  0.39157661372E+03  0.12509079949E+03 0.  0.
          5    1    3    3  502    0 -0.39511152807E+02 -0.17481324488E+02 -0.38915451865E+02  0.58297621699E+02  0.41800000000E+01 0. -1.
         -5    1    3    3    0  502  0.38148613269E+02 -0.14864374504E+02 -0.33072820835E+03  0.33327899202E+03  0.41800000000E+01 0. -1.
        -11    1    1    2    0    0 -0.39799851125E+02 -0.47630473483E+01 -0.13520672107E+03  0.14102330372E+03  0.00000000000E+00 0. -1.
         11    1    1    2    0    0  0.41162390663E+02  0.37108746340E+02 -0.11497549909E+03  0.12763528842E+03  0.00000000000E+00 0.  1.
</event>
<event>
 7    1  0.2612213E-009  0.8268856E+02  0.7561462E-02  0.1321590E+00
          2   -1    0    0  501    0  0.00000000000E+00  0.00000000000E+00  0.89321539031E+02  0.89321539031E+02  0.00000000000E+00 0. -1.
         -2   -1    0    0    0  501 -0.00000000000E+00 -0.00000000000E+00 -0.24415202708E+03  0.24415202708E+03  0.00000000000E+00 0.  1.
         25    2    1    2    0    0  0.57008188652E+02 -0.87582641975E+01  0.77367880576E+01  0.13796477749E+03  0.12509109150E+03 0.  0.
          5    1    3    3  502    0  0.41130644826E+00  0.14865956733E+02 -0.50790059047E+02  0.53087365169E+02  0.41800000000E+01 0.  1.
         -5    1    3    3    0  502  0.56596882204E+02 -0.23624220930E+02  0.58526847105E+02  0.84877412318E+02  0.41800000000E+01 0.  1.
        -11    1    1    2    0    0 -0.70459627013E+02  0.17262108346E+02 -0.67405273399E+02  0.99025301340E+02  0.00000000000E+00 0. -1.
         11    1    1    2    0    0  0.13451438361E+02 -0.85038441485E+01 -0.95162002707E+02  0.96483487284E+02  0.00000000000E+00 0.  1.
</event>
<event>
 7    1  0.2612213E-009  0.1056887E+03  0.7561462E-02  0.1268769E+00
          1   -1    0    0  501    0  0.00000000000E+00  0.00000000000E+00  0.46871366425E+03  0.46871366425E+03  0.00000000000E+00 0. -1.
         -1   -1    0    0    0  501 -0.00000000000E+00 -0.00000000000E+00 -0.29571250918E+02  0.29571250918E+02  0.00000000000E+00 0.  1.
         25    2    1    2    0    0 -0.12446674625E+02 -0.19530467190E+02  0.16365447128E+03  0.20728559040E+03  0.12509265031E+03 0.  0.
          5    1    3    3  502    0  0.52800630825E+02  0.91964967346E+01  0.52318168119E+02  0.75014300524E+02  0.41800000000E+01 0.  1.
         -5    1    3    3    0  502 -0.65247305451E+02 -0.28726963925E+02  0.11133630316E+03  0.13227128988E+03  0.41800000000E+01 0.  1.
        -11    1    1    2    0    0  0.40297456334E+02  0.35840812190E+02  0.11140305308E+03  0.12377030759E+03  0.00000000000E+00 0. -1.
         11    1    1    2    0    0 -0.27850781709E+02 -0.16310345000E+02  0.16408488897E+03  0.16722901717E+03  0.00000000000E+00 0.  1.
</event>
<event>
 7    1  0.2612213E-009  0.2579830E+03  0.7561462E-02  0.1108361E+00
          1   -1    0    0  501    0  0.00000000000E+00  0.00000000000E+00  0.54927392009E+02  0.54927392009E+02  0.00000000000E+00 0. -1.
         -1   -1    0    0    0  501 -0.00000000000E+00 -0.00000000000E+00 -0.14044182926E+04  0.14044182926E+04  0.00000000000E+00 0.  1.
         25    2    1    2    0    0 -0.20879176858E+03 -0.11201209864E+03 -0.94043793842E+03  0.97786130662E+03  0.12509398904E+03 0.  0.
          5    1    3    3  502    0 -0.16668813606E+03 -0.21632866265E+02 -0.59285329354E+03  0.61623487053E+03  0.41800000000E+01 0. -1.
         -5    1    3    3    0  502 -0.42103632524E+02 -0.90379232375E+02 -0.34758464488E+03  0.36162643609E+03  0.41800000000E+01 0. -1.
        -11    1    1    2    0    0  0.38064123484E+02  0.57232450727E+02 -0.70973608432E+02  0.98801234844E+02  0.00000000000E+00 0.  1.
         11    1    1    2    0    0  0.17072764510E+03  0.54779647913E+02 -0.33807935378E+03  0.38268314319E+03  0.00000000000E+00 0. -1.
</event>
<event>
 7    1  0.2612213E-009  0.8888529E+02  0.7561462E-02  0.1305574E+00
         -2   -1    0    0    0  501 -0.00000000000E+00  0.00000000000E+00  0.68884472678E+02  0.68884472678E+02  0.00000000000E+00 0.  1.
          2   -1    0    0  501    0  0.00000000000E+00 -0.00000000000E+00 -0.20084450358E+03  0.20084450358E+03  0.00000000000E+00 0. -1.
         25    2    1    2    0    0  0.21870846498E+02 -0.33953314822E+02 -0.50394991963E+02  0.14077994379E+03  0.12509266903E+03 0.  0.
          5    1    3    3  502    0 -0.61119680962E+01 -0.46429493263E+02 -0.83283199190E+02  0.95637950972E+02  0.41800000000E+01 0.  1.
         -5    1    3    3    0  502  0.27982814595E+02  0.12476178441E+02  0.32888207228E+02  0.45141992820E+02  0.41800000000E+01 0.  1.
        -11    1    1    2    0    0  0.35631262528E+02  0.19168135295E+02 -0.34909725573E+02  0.53438686544E+02  0.00000000000E+00 0.  1.
         11    1    1    2    0    0 -0.57502109027E+02  0.14785179528E+02 -0.46655313370E+02  0.75510345926E+02  0.00000000000E+00 0. -1.
</event>
<event>
 7    1  0.2612213E-009  0.1081181E+03  0.7561462E-02  0.1264095E+00
         -2   -1    0    0    0  501 -0.00000000000E+00  0.00000000000E+00  0.32527382946E+03  0.32527382946E+03  0.00000000000E+00 0.  1.
          2   -1    0    0  501    0  0.00000000000E+00 -0.00000000000E+00 -0.59427979210E+02  0.59427979210E+02  0.00000000000E+00 0. -1.
         25    2    1    2    0    0 -0.17469800526E+02  0.76815859694E+02  0.96275202050E+02  0.17641481096E+03  0.12508957096E+03 0.  0.
          5    1    3    3  502    0  0.26327823878E+02  0.46993281328E+02 -0.12404952279E+02  0.55433546171E+02  0.41800000000E+01 0.  1.
         -5    1    3    3    0  502 -0.43797624404E+02  0.29822578367E+02  0.10868015433E+03  0.12098126478E+03  0.41800000000E+01 0.  1.
        -11    1    1    2    0    0  0.46091806945E+02 -0.32868779858E+02  0.13242810685E+03  0.14402088335E+03  0.00000000000E+00 0.  1.
         11    1    1    2    0    0 -0.28622006420E+02 -0.43947079837E+02  0.37142541352E+02  0.64266114366E+02  0.00000000000E+00 0. -1.
</event>
<event>
 7    1  0.2612213E-009  0.1166744E+03  0.7561462E-02  0.1248686E+00
          2   -1    0    0  501    0  0.00000000000E+00  0.00000000000E+00  0.92299704920E+03  0.92299704920E+03  0.00000000000E+00 0. -1.
         -2   -1    0    0    0  501 -0.00000000000E+00 -0.00000000000E+00 -0.16813907357E+02  0.16813907357E+02  0.00000000000E+00 0.  1.
         25    2    1    2    0    0  0.59128273408E+02 -0.14157078169E+02  0.53773704159E+03  0.55543229220E+03  0.12508928707E+03 0.  0.
          5    1    3    3  502    0  0.16072021952E+02  0.46541513224E+02  0.10169186540E+03  0.11306250586E+03  0.41800000000E+01 0. -1.
         -5    1    3    3    0  502  0.43056251456E+02 -0.60698591393E+02  0.43604517619E+03  0.44236978633E+03  0.41800000000E+01 0. -1.
        -11    1    1    2    0    0 -0.72414880557E+02  0.38240611187E+02  0.28347225641E+03  0.29506402598E+03  0.00000000000E+00 0. -1.
         11    1    1    2    0    0  0.13286607149E+02 -0.24083533017E+02  0.84973843840E+02  0.89314638380E+02  0.00000000000E+00 0.  1.
</event>
<event>
 7    1  0.2612213E-009  0.1248684E+03  0.7561462E-02  0.1235275E+00
         -1   -1    0    0    0  501 -0.00000000000E+00  0.00000000000E+00  0.34523681737E+03  0.34523681737E+03  0.00000000000E+00 0.  1.
          1   -1    0    0  501    0  0.00000000000E+00 -0.00000000000E+00 -0.75892597750E+02  0.75892597750E+02  0.00000000000E+00 0. -1.
         25    2    1    2    0    0 -0.78615586654E+02  0.36585271691E+02  0.23652629321E+03  0.28126774988E+03  0.12509183495E+03 0.  0.
          5    1    3    3  502    0 -0.11027645650E+03  0.14305439918E+02  0.19367069435E+03  0.22336372293E+03  0.41800000000E+01 0. -1.
         -5    1    3    3    0  502  0.31660869850E+02  0.22279831774E+02  0.42855598863E+02  0.57904026953E+02  0.41800000000E+01 0. -1.
        -11    1    1    2    0    0  0.69702448174E+02 -0.86999420068E+01 -0.25402403594E+02  0.74695397319E+02  0.00000000000E+00 0. -1.
         11    1    1    2    0    0  0.89131384807E+01 -0.27885329685E+02  0.58220330004E+02  0.65166267923E+02  0.00000000000E+00 0.  1.
</event>
<event>
 7    1  0.2612213E-009  0.1310322E+03  0.7561462E-02  0.1225932E+00
         -2   -1    0    0    0  501 -0.00000000000E+00  0.00000000000E+00  0.14560085873E+03  0.14560085873E+03  0.00000000000E+00 0.  1.
          2   -1    0    0  501    0  0.00000000000E+00 -0.00000000000E+00 -0.24536305616E+03  0.24536305616E+03  0.00000000000E+00 0. -1.
         25    2    1    2    0    0  0.42213214493E+02 -0.75315445594E+02 -0.18466401732E+03  0.23917068570E+03  0.12508975091E+03 0.  0.
          5    1    3    3  502    0 -0.43996079621E+01  0.25870544692E+02 -0.39921651010E+01  0.26871014404E+02  0.41800000000E+01 0. -1.
         -5    1    3    3    0  502  0.46612822455E+02 -0.10118599029E+03 -0.18067185222E+03  0.21229967129E+03  0.41800000000E+01 0. -1.
        -11    1    1    2    0    0 -0.60650140604E+01  0.86077272360E+02  0.70472233096E+02  0.11141102661E+03  0.00000000000E+00 0.  1.
         11    1    1    2    0    0 -0.36148200432E+02 -0.10761826766E+02  0.14429586796E+02  0.40382202577E+02  0.00000000000E+00 0. -1.
</event>
<event>
 7    1  0.2612213E-009  0.8921350E+02  0.7561462E-02  0.1304768E+00
         -2   -1    0    0    0  501 -0.00000000000E+00  0.00000000000E+00  0.59578743025E+02  0.59578743025E+02  0.00000000000E+00 0.  1.
          2   -1    0    0  501    0  0.00000000000E+00 -0.00000000000E+00 -0.23843156825E+03  0.23843156825E+03  0.00000000000E+00 0. -1.
         25    2    1    2    0    0 -0.41147911834E+02  0.27560221124E+02 -0.99388320169E+02  0.16726615918E+03  0.12508882197E+03 0.  0.
          5    1    3    3  502    0 -0.18374244659E+02  0.42926260354E+02  0.15257508437E+02  0.49300513775E+02  0.41800000000E+01 0.  1.
         -5    1    3    3    0  502 -0.22773667175E+02 -0.15366039230E+02 -0.11464582861E+03  0.11796564540E+03  0.41800000000E+01 0.  1.
        -11    1    1    2    0    0  0.31473450542E+02 -0.61165325693E+02 -0.54871734220E+02  0.87992513161E+02  0.00000000000E+00 0. -1.
         11    1    1    2    0    0  0.96744612920E+01  0.33605104568E+02 -0.24592770835E+02  0.42751638935E+02  0.00000000000E+00 0.  1.
</event>
<event>
 7    1  0.2612213E-009  0.1117310E+03  0.7561462E-02  0.1257398E+00
         -2   -1    0    0    0  501 -0.00000000000E+00  0.00000000000E+00  0.15967645973E+02  0.15967645973E+02  0.00000000000E+00 0.  1.
          2   -1    0    0  501    0  0.00000000000E+00 -0.00000000000E+00 -0.86561012267E+03  0.86561012267E+03  0.00000000000E+00 0. -1.
         25    2    1    2    0    0  0.17329940930E+02 -0.31353242307E+02 -0.59418685217E+03  0.60826687544E+03  0.12508886362E+03 0.  0.
          5    1    3    3  502    0  0.69803811619E+02 -0.11961969354E+02 -0.39548812343E+03  0.40180093206E+03  0.41800000000E+01 0.  1.
         -5    1    3    3    0  502 -0.52473870688E+02 -0.19391272953E+02 -0.19869872874E+03  0.20646594338E+03  0.41800000000E+01 0.  1.
        -11    1    1    2    0    0 -0.38372271286E+02 -0.18284188042E+02 -0.12964300261E+03  0.13643332021E+03  0.00000000000E+00 0.  1.
         11    1    1    2    0    0  0.21042330356E+02  0.49637430349E+02 -0.12581262191E+03  0.13687757300E+03  0.00000000000E+00 0. -1.
</event>
<event>
 7    1  0.2612213E-009  0.5677157E+02  0.7561462E-02  0.1411902E+00
          3   -1    0    0  501    0  0.00000000000E+00  0.00000000000E+00  0.17209706529E+03  0.17209706529E+03  0.00000000000E+00 0. -1.
         -3   -1    0    0    0  501 -0.00000000000E+00 -0.00000000000E+00 -0.85579118198E+02  0.85579118198E+02  0.00000000000E+00 0.  1.
         25    2    1    2    0    0  0.95853979638E+01 -0.20881491643E+02 -0.44754442274E+01  0.12726150276E+03  0.12509014324E+03 0.  0.
          5    1    3    3  502    0  0.23095559022E+01 -0.12036936819E+01  0.59551800514E+02  0.59755102472E+02  0.41800000000E+01 0.  1.
         -5    1    3    3    0  502  0.72758420616E+01 -0.19677797961E+02 -0.64027244742E+02  0.67506400286E+02  0.41800000000E+01 0.  1.
        -11    1    1    2    0    0 -0.36739832085E+01 -0.32908089087E+02  0.13189318890E+02  0.35642651595E+02  0.00000000000E+00 0.  1.
         11    1    1    2    0    0 -0.59114147552E+01  0.53789580730E+02  0.77804072426E+02  0.94772029131E+02  0.00000000000E+00 0. -1.
</event>
<event>
 7    1  0.2612213E-009  0.1963118E+03  0.7561462E-02  0.1152889E+00
          2   -1    0    0  501    0  0.00000000000E+00  0.00000000000E+00  0.78590811047E+03  0.78590811047E+03  0.00000000000E+00 0.  1.
         -2   -1    0    0    0  501 -0.00000000000E+00 -0.00000000000E+00 -0.56296765907E+02  0.56296765907E+02  0.00000000000E+00 0. -1.
         25    2    1    2    0    0 -0.38203319557E+02  0.17537493691E+03  0.39149659997E+03  0.44847872847E+03  0.12509084692E+03 0.  0.
          5    1    3    3  502    0  0.40612125163E+02  0.75532734627E+02  0.20935482180E+03  0.22627737961E+03  0.41800000000E+01 0.  1.
         -5    1    3    3    0  502 -0.78815444720E+02  0.99842202280E+02  0.18214177817E+03  0.22220134887E+03  0.41800000000E+01 0.  1.
        -11    1    1    2    0    0  0.31672973950E+02 -0.14301450821E+03  0.17935194737E+03  0.23156737219E+03  0.00000000000E+00 0. -1.
         11    1    1    2    0    0  0.65303456068E+01 -0.32360428696E+02  0.15876279723E+03  0.16215877572E+03  0.00000000000E+00 0.  1.
</event>
<event>
 7    1  0.2612213E-009  0.1041197E+03  0.7561462E-02  0.1271864E+00
          1   -1    0    0  501    0  0.00000000000E+00  0.00000000000E+00  0.70072046907E+02  0.70072046907E+02  0.00000000000E+00 0. -1.
         -1   -1    0    0    0  501 -0.00000000000E+00 -0.00000000000E+00 -0.27608200279E+03  0.27608200279E+03  0.00000000000E+00 0.  1.
         25    2    1    2    0    0 -0.42012918494E+02  0.44836827999E+02 -0.36017823992E+02  0.14396359228E+03  0.12511117372E+03 0.  0.
          5    1    3    3  502    0 -0.70097360315E+02  0.71579794213E+02 -0.28447216465E+02  0.10423062596E+03  0.41800000000E+01 0.  1.
         -5    1    3    3    0  502  0.28084441821E+02 -0.26742966213E+02 -0.75706075271E+01  0.39732966320E+02  0.41800000000E+01 0.  1.
        -11    1    1    2    0    0  0.37340292693E+02 -0.17518040512E+02 -0.16952568529E+03  0.17447102102E+03  0.00000000000E+00 0.  1.
         11    1    1    2    0    0  0.46726258005E+01 -0.27318787487E+02 -0.46644659363E+00  0.27719436395E+02  0.00000000000E+00 0. -1.
</event>
<event>
 7    1  0.2612213E-009  0.1314234E+03  0.7561462E-02  0.1225359E+00
          3   -1    0    0  501    0  0.00000000000E+00  0.00000000000E+00  0.21955824761E+02  0.21955824761E+02  0.00000000000E+00 0. -1.
         -3   -1    0    0    0  501 -0.00000000000E+00 -0.00000000000E+00 -0.80211073459E+03  0.80211073459E+03  0.00000000000E+00 0.  1.
         25    2    1    2    0    0  0.35366837339E+02  0.66358480121E+02 -0.46779762332E+03  0.49003637030E+03  0.12508703674E+03 0.  0.
          5    1    3    3  502    0  0.76112417621E+02  0.71355539103E+02 -0.32143431165E+03  0.33796775317E+03  0.41800000000E+01 0.  1.
         -5    1    3    3    0  502 -0.40745580282E+02 -0.49970589820E+01 -0.14636331167E+03  0.15206861713E+03  0.41800000000E+01 0.  1.
        -11    1    1    2    0    0 -0.19917292051E+02 -0.88197708848E+02 -0.25925827404E+03  0.27457309961E+03  0.00000000000E+00 0. -1.
         11    1    1    2    0    0 -0.15449545289E+02  0.21839228726E+02 -0.53099012468E+02  0.59457089452E+02  0.00000000000E+00 0.  1.
</event>
<event>
 7    1  0.2612213E-009  0.1315993E+03  0.7561462E-02  0.1225102E+00
          3   -1    0    0  501    0  0.00000000000E+00  0.00000000000E+00  0.42773957835E+03  0.42773957835E+03  0.00000000000E+00 0. -1.
         -3   -1    0    0    0  501 -0.00000000000E+00 -0.00000000000E+00 -0.62617799165E+02  0.62617799165E+02  0.00000000000E+00 0.  1.
         25    2    1    2    0    0 -0.65890159483E+02  0.10251474527E+03  0.20797800088E+03  0.27157312379E+03  0.12508527732E+03 0.  0.
          5    1    3    3  502    0 -0.28905577700E+02  0.33774585468E+02  0.18468582140E+03  0.19000678954E+03  0.41800000000E+01 0. -1.
         -5    1    3    3    0  502 -0.36984581783E+02  0.68740159797E+02  0.23292179487E+02  0.81566334255E+02  0.41800000000E+01 0. -1.
        -11    1    1    2    0    0  0.45479030925E+02 -0.11238593083E+02  0.16079511362E+02  0.49529778053E+02  0.00000000000E+00 0.  1.
         11    1    1    2    0    0  0.20411128557E+02 -0.91276152183E+02  0.14106426694E+03  0.16925447567E+03  0.00000000000E+00 0. -1.
</event>
<event>
 7    1  0.2612213E-009  0.8604281E+02  0.7561462E-02  0.1312728E+00
          1   -1    0    0  501    0  0.00000000000E+00  0.00000000000E+00  0.28032505781E+03  0.28032505781E+03  0.00000000000E+00 0. -1.
         -1   -1    0    0    0  501 -0.00000000000E+00 -0.00000000000E+00 -0.55100565722E+02  0.55100565722E+02  0.00000000000E+00 0.  1.
         25    2    1    2    0    0  0.44687851351E+02  0.15220166311E+01  0.70428753389E+02  0.15035739212E+03  0.12509122858E+03 0.  0.
          5    1    3    3  502    0  0.60216080066E+02  0.12913106913E+02 -0.14304590891E+02  0.63362594243E+02  0.41800000000E+01 0. -1.
         -5    1    3    3    0  502 -0.15528228715E+02 -0.11391090282E+02  0.84733344280E+02  0.86994797878E+02  0.41800000000E+01 0. -1.
        -11    1    1    2    0    0 -0.21572277398E+02 -0.40183139774E+02  0.36269201379E+02  0.58270943385E+02  0.00000000000E+00 0. -1.
         11    1    1    2    0    0 -0.23115573953E+02  0.38661123143E+02  0.11852653732E+03  0.12679728802E+03  0.00000000000E+00 0.  1.
</event>
<event>
 7    1  0.2612213E-009  0.1620351E+03  0.7561462E-02  0.1186418E+00
         -1   -1    0    0    0  501 -0.00000000000E+00  0.00000000000E+00  0.26848878194E+02  0.26848878194E+02  0.00000000000E+00 0.  1.
          1   -1    0    0  501    0  0.00000000000E+00 -0.00000000000E+00 -0.13152319379E+04  0.13152319379E+04  0.00000000000E+00 0. -1.
         25    2    1    2    0    0  0.10091678923E+03 -0.11330449599E+03 -0.73612267782E+03  0.76193236320E+03  0.12506886953E+03 0.  0.
          5    1    3    3  502    0  0.76008770347E+01 -0.43971350254E+02 -0.55007452398E+02  0.70954529061E+02  0.41800000000E+01 0. -1.
         -5    1    3    3    0  502  0.93315912198E+02 -0.69333145740E+02 -0.68111522542E+03  0.69097783414E+03  0.41800000000E+01 0. -1.
        -11    1    1    2    0    0 -0.49733722051E+02  0.97336915540E+02 -0.46547438903E+03  0.47813630387E+03  0.00000000000E+00 0. -1.
         11    1    1    2    0    0 -0.51183067181E+02  0.15967580454E+02 -0.86785992818E+02  0.10201214899E+03  0.00000000000E+00 0.  1.
</event>
<event>
 7    1  0.2612213E-009  0.1218173E+03  0.7561462E-02  0.1240129E+00
          2   -1    0    0  501    0  0.00000000000E+00  0.00000000000E+00  0.98235922997E+03  0.98235922997E+03  0.00000000000E+00 0.  1.
         -2   -1    0    0    0  501 -0.00000000000E+00 -0.00000000000E+00 -0.19591567622E+02  0.19591567622E+02  0.00000000000E+00 0. -1.
         25    2    1    2    0    0  0.81428903005E+02 -0.19939508478E+02  0.60590340580E+03  0.62434063259E+03  0.12511609848E+03 0.  0.
          5    1    3    3  502    0  0.82465683173E+01 -0.44916683011E+02  0.42622006005E+03  0.42867998121E+03  0.41800000000E+01 0. -1.
         -5    1    3    3    0  502  0.73182334688E+02  0.24977174532E+02  0.17968334575E+03  0.19566065138E+03  0.41800000000E+01 0. -1.
        -11    1    1    2    0    0  0.18597638429E+02  0.18826682716E+01  0.92698178586E+02  0.94564099468E+02  0.00000000000E+00 0.  1.
         11    1    1    2    0    0 -0.10002654143E+03  0.18056840207E+02  0.26416607796E+03  0.28304606554E+03  0.00000000000E+00 0. -1.
</event>
<event>
 7    1  0.2612213E-009  0.1097024E+03  0.7561462E-02  0.1261122E+00
          1   -1    0    0  501    0  0.00000000000E+00  0.00000000000E+00  0.10120996033E+03  0.10120996033E+03  0.00000000000E+00 0. -1.
         -1   -1    0    0    0  501 -0.00000000000E+00 -0.00000000000E+00 -0.43775725851E+03  0.43775725851E+03  0.00000000000E+00 0.  1.
         25    2    1    2    0    0  0.53962405538E+02 -0.94315683967E+02 -0.34287404407E+03  0.38081168978E+03  0.12509014160E+03 0.  0.
          5    1    3    3  502    0  0.10283283299E+02 -0.19981408101E+02  0.41342504135E+01  0.23228581781E+02  0.41800000000E+01 0. -1.
         -5    1    3    3    0  502  0.43679122240E+02 -0.74334275866E+02 -0.34700829448E+03  0.35758310800E+03  0.41800000000E+01 0. -1.
        -11    1    1    2    0    0 -0.38539068752E+02  0.81585128803E+02  0.54905038243E+02  0.10562176048E+03  0.00000000000E+00 0. -1.
         11    1    1    2    0    0 -0.15423336786E+02  0.12730555163E+02 -0.48578292361E+02  0.52533768579E+02  0.00000000000E+00 0.  1.
</event>
<event>
 7    1  0.2612213E-009  0.1126084E+03  0.7561462E-02  0.1255814E+00
          1   -1    0    0  501    0  0.00000000000E+00  0.00000000000E+00  0.12972249246E+03  0.12972249246E+03  0.00000000000E+00 0. -1.
         -1   -1    0    0    0  501 -0.00000000000E+00 -0.00000000000E+00 -0.13100233089E+03  0.13100233089E+03  0.00000000000E+00 0.  1.
         25    2    1    2    0    0 -0.33735919100E+02 -0.35189542462E+02  0.51626689793E+02  0.14382396960E+03  0.12507438985E+03 0.  0.
          5    1    3    3  502    0  0.39926367193E+02 -0.42547261416E+02  0.11861522980E+02  0.59687120710E+02  0.41800000000E+01 0. -1.
         -5    1    3    3    0  502 -0.73662286293E+02  0.73577189541E+01  0.39765166812E+02  0.84136848893E+02  0.41800000000E+01 0. -1.
        -11    1    1    2    0    0  0.55041096882E+02  0.45149882256E+01 -0.56956431004E+02  0.79334371475E+02  0.00000000000E+00 0. -1.
         11    1    1    2    0    0 -0.21305177782E+02  0.30674554237E+02  0.40499027747E+01  0.37566482274E+02  0.00000000000E+00 0.  1.
</event>
<event>
 7    1  0.2612213E-009  0.1448847E+03  0.7561462E-02  0.1206903E+00
          1   -1    0    0  501    0  0.00000000000E+00  0.00000000000E+00  0.13291554717E+03  0.13291554717E+03  0.00000000000E+00 0. -1.
         -1   -1    0    0    0  501 -0.00000000000E+00 -0.00000000000E+00 -0.16820440326E+03  0.16820440326E+03  0.00000000000E+00 0.  1.
         25    2    1    2    0    0 -0.44612372755E+01  0.98139554436E+02  0.34191710969E+01  0.15909274937E+03  0.12509011707E+03 0.  0.
          5    1    3    3  502    0  0.53550869583E+02  0.12179792639E+02  0.48926974785E+01  0.55294248077E+02  0.41800000000E+01 0. -1.
         -5    1    3    3    0  502 -0.58012106858E+02  0.85959761798E+02 -0.14735263816E+01  0.10379850129E+03  0.41800000000E+01 0. -1.
        -11    1    1    2    0    0  0.37396134260E+02 -0.89284025477E+02 -0.45966185485E+02  0.10715875266E+03  0.00000000000E+00 0.  1.
         11    1    1    2    0    0 -0.32934896985E+02 -0.88555289595E+01  0.72581582954E+01  0.34868448408E+02  0.00000000000E+00 0. -1.
</event>
<event>
 7    1  0.2612213E-009  0.1246299E+03  0.7561462E-02  0.1235649E+00
          3   -1    0    0  501    0  0.00000000000E+00  0.00000000000E+00  0.13877784024E+03  0.13877784024E+03  0.00000000000E+00 0. -1.
         -3   -1    0    0    0  501 -0.00000000000E+00 -0.00000000000E+00 -0.15770127240E+03  0.15770127240E+03  0.00000000000E+00 0.  1.
         25    2    1    2    0    0  0.31316672635E+01 -0.70690406738E+02  0.60301880031E+02  0.15585390573E+03  0.12508869754E+03 0.  0.
          5    1    3    3  502    0 -0.42911619215E+02 -0.84877720682E+02  0.36551049135E+02  0.10197590953E+03  0.41800000000E+01 0.  1.
         -5    1    3    3    0  502  0.46043286479E+02  0.14187313943E+02  0.23750830896E+02  0.53877996204E+02  0.41800000000E+01 0.  1.
        -11    1    1    2    0    0  0.37633149921E+02  0.30327089628E+02 -0.65912172072E+02  0.81733718657E+02  0.00000000000E+00 0.  1.
         11    1    1    2    0    0 -0.40764817184E+02  0.40363317110E+02 -0.13313140119E+02  0.58891488248E+02  0.00000000000E+00 0. -1.
</event>
<event>
 7    1  0.3161495E-009  0.1197968E+03  0.7561462E-02  0.1243433E+00
         -1   -1    0    0    0  501 -0.00000000000E+00  0.00000000000E+00  0.27044384933E+02  0.27044384933E+02  0.00000000000E+00 0.  1.
          1   -1    0    0  501    0  0.00000000000E+00 -0.00000000000E+00 -0.96253780751E+03  0.96253780751E+03  0.00000000000E+00 0. -1.
         25    2    1    2    0    0 -0.10565292619E+03  0.51397180485E+02 -0.56133589902E+03  0.58698232389E+03  0.12508415586E+03 0.  0.
          5    1    3    3  502    0 -0.76488194722E+02  0.41983178770E+02 -0.14345180466E+03  0.16795512464E+03  0.41800000000E+01 0. -1.
         -5    1    3    3    0  502 -0.29164731473E+02  0.94140017145E+01 -0.41788409436E+03  0.41902719925E+03  0.41800000000E+01 0. -1.
        -11    1    1    2    0    0  0.14159877559E+02 -0.20152148611E+02 -0.11327058588E+02  0.27109287752E+02  0.00000000000E+00 0.  1.
         11    1    1    2    0    0  0.91493048636E+02 -0.31245031874E+02 -0.36283046496E+03  0.37549058080E+03  0.00000000000E+00 0. -1.
</event>
<event>
 7    1  0.2612213E-009  0.1056354E+03  0.7561462E-02  0.1268873E+00
          2   -1    0    0  501    0  0.00000000000E+00  0.00000000000E+00  0.37320904865E+03  0.37320904865E+03  0.00000000000E+00 0. -1.
         -2   -1    0    0    0  501 -0.00000000000E+00 -0.00000000000E+00 -0.39637675332E+02  0.39637675332E+02  0.00000000000E+00 0.  1.
         25    2    1    2    0    0 -0.16902674162E+02 -0.53535494816E+02  0.18214929037E+03  0.22798390956E+03  0.12508616804E+03 0.  0.
          5    1    3    3  502    0 -0.56784882574E+02 -0.35368446549E+02  0.37547909684E+02  0.76829472352E+02  0.41800000000E+01 0.  1.
         -5    1    3    3    0  502  0.39882208412E+02 -0.18167048266E+02  0.14460138069E+03  0.15115443721E+03  0.41800000000E+01 0.  1.
        -11    1    1    2    0    0  0.50639167377E+02  0.27662276034E+02  0.56049554166E+02  0.80443019027E+02  0.00000000000E+00 0. -1.
         11    1    1    2    0    0 -0.33736493216E+02  0.25873218781E+02  0.95372528785E+02  0.10441979540E+03  0.00000000000E+00 0.  1.
</event>
<event>
 7    1  0.2612213E-009  0.1308965E+03  0.7561462E-02  0.1226132E+00
         -2   -1    0    0    0  501 -0.00000000000E+00  0.00000000000E+00  0.42629403332E+02  0.42629403332E+02  0.00000000000E+00 0.  1.
          2   -1    0    0  501    0  0.00000000000E+00 -0.00000000000E+00 -0.66292020467E+03  0.66292020467E+03  0.00000000000E+00 0. -1.
         25    2    1    2    0    0  0.87062714032E+02 -0.56685163635E+02 -0.17172975902E+03  0.23650449327E+03  0.12510052459E+03 0.  0.
          5    1    3    3  502    0  0.87686294599E+02 -0.21533042225E+02 -0.17884757901E+03  0.20039083583E+03  0.41800000000E+01 0.  1.
         -5    1    3    3    0  502 -0.62358056692E+00 -0.35152121411E+02  0.71178199877E+01  0.36113657441E+02  0.41800000000E+01 0.  1.
        -11    1    1    2    0    0 -0.84031521553E+02  0.77890537973E+02 -0.39720842892E+03  0.41340388064E+03  0.00000000000E+00 0. -1.
         11    1    1    2    0    0 -0.30311924793E+01 -0.21205374337E+02 -0.51352613391E+02  0.55641234087E+02  0.00000000000E+00 0.  1.
</event>
<event>
 7    1  0.2612213E-009  0.1959473E+03  0.7561462E-02  0.1153204E+00
          3   -1    0    0  501    0  0.00000000000E+00  0.00000000000E+00  0.84013031417E+02  0.84013031417E+02  0.00000000000E+00 0. -1.
         -3   -1    0    0    0  501 -0.00000000000E+00 -0.00000000000E+00 -0.53350665446E+03  0.53350665446E+03  0.00000000000E+00 0.  1.
         25    2    1    2    0    0  0.11127305917E+03  0.13854633413E+03 -0.17365990584E+03  0.27817629664E+03  0.12509000248E+03 0.  0.
          5    1    3    3  502    0  0.32038377310E+02  0.10194843642E+03 -0.15582797913E+03  0.18899675338E+03  0.41800000000E+01 0.  1.
         -5    1    3    3    0  502  0.79234681858E+02  0.36597897709E+02 -0.17831926704E+02  0.89179543258E+02  0.41800000000E+01 0.  1.
        -11    1    1    2    0    0 -0.31845757382E+02 -0.10779016913E+03 -0.16198259193E+03  0.19715788828E+03  0.00000000000E+00 0.  1.
         11    1    1    2    0    0 -0.79427301785E+02 -0.30756164994E+02 -0.11385112528E+03  0.14218550096E+03  0.00000000000E+00 0. -1.
</event>
<event>
 7    1  0.2612213E-009  0.1947737E+03  0.7561462E-02  0.1154225E+00
         -1   -1    0    0    0  501 -0.00000000000E+00  0.00000000000E+00  0.33355996431E+02  0.33355996431E+02  0.00000000000E+00 0.  1.
          1   -1    0    0  501    0  0.00000000000E+00 -0.00000000000E+00 -0.11667306245E+04  0.11667306245E+04  0.00000000000E+00 0. -1.
         25    2    1    2    0    0  0.15774217718E+03 -0.49298448041E+02 -0.54049904603E+03  0.57887783378E+03  0.12508955289E+03 0.  0.
          5    1    3    3  502    0  0.12835648210E+03  0.20213705463E+02 -0.37611138038E+03  0.39794625672E+03  0.41800000000E+01 0.  1.
         -5    1    3    3    0  502  0.29385695087E+02 -0.69512153503E+02 -0.16438766564E+03  0.18093157706E+03  0.41800000000E+01 0.  1.
        -11    1    1    2    0    0 -0.15752461655E+02  0.38453229258E+02 -0.10335258146E+03  0.11139365774E+03  0.00000000000E+00 0.  1.
         11    1    1    2    0    0 -0.14198971553E+03  0.10845218783E+02 -0.48952300054E+03  0.50981512938E+03  0.00000000000E+00 0. -1.
</event>
<event>
 7    1  0.3428788E-009  0.2272141E+03  0.7561462E-02  0.1128616E+00
         -4   -1    0    0    0  501 -0.00000000000E+00  0.00000000000E+00  0.17813075820E+03  0.17813075820E+03  0.00000000000E+00 0.  1.
          4   -1    0    0  501    0  0.00000000000E+00 -0.00000000000E+00 -0.32114568818E+03  0.32114568818E+03  0.00000000000E+00 0. -1.
         25    2    1    2    0    0  0.53301529543E+02  0.20589002821E+03 -0.68197143127E+02  0.25598806668E+03  0.12508910099E+03 0.  0.
          5    1    3    3  502    0  0.55317335011E+02  0.68043423658E+02 -0.78377988102E+02  0.11768813226E+03  0.41800000000E+01 0.  1.
         -5    1    3    3    0  502 -0.20158054673E+01  0.13784660455E+03  0.10180844975E+02  0.13829993442E+03  0.41800000000E+01 0.  1.
        -11    1    1    2    0    0  0.13723370606E+02 -0.11481411474E+03 -0.18999372329E+02  0.11718185863E+03  0.00000000000E+00 0. -1.
         11    1    1    2    0    0 -0.67024900150E+02 -0.91075913466E+02 -0.55818414529E+02  0.12610652106E+03  0.00000000000E+00 0.  1.
</event>
<event>
 7    1  0.2612213E-009  0.2313406E+03  0.7561462E-02  0.1125700E+00
         -2   -1    0    0    0  501 -0.00000000000E+00  0.00000000000E+00  0.23760995595E+03  0.23760995595E+03  0.00000000000E+00 0.  1.
          2   -1    0    0  501    0  0.00000000000E+00 -0.00000000000E+00 -0.31642444493E+03  0.31642444493E+03  0.00000000000E+00 0. -1.
         25    2    1    2    0    0  0.19729568739E+03  0.58251524579E+02  0.10593789503E+03  0.26303988483E+03  0.12509322535E+03 0.  0.
          5    1    3    3  502    0  0.14383539547E+03  0.95504845469E+02  0.94113347755E+02  0.19668398797E+03  0.41800000000E+01 0.  1.
         -5    1    3    3    0  502  0.53460291921E+02 -0.37253320890E+02  0.11824547276E+02  0.66355896858E+02  0.41800000000E+01 0.  1.
        -11    1    1    2    0    0 -0.12997903821E+03 -0.81554041695E+02 -0.12137058972E+03  0.19564363557E+03  0.00000000000E+00 0. -1.
         11    1    1    2    0    0 -0.67316649181E+02  0.23302517115E+02 -0.63381794287E+02  0.95350880478E+02  0.00000000000E+00 0.  1.
</event>
<event>
 7    1  0.2612213E-009  0.1156045E+03  0.7561462E-02  0.1250530E+00
          1   -1    0    0  501    0  0.00000000000E+00  0.00000000000E+00  0.66968707703E+03  0.66968707703E+03  0.00000000000E+00 0. -1.
         -1   -1    0    0    0  501 -0.00000000000E+00 -0.00000000000E+00 -0.23788610896E+02  0.23788610896E+02  0.00000000000E+00 0.  1.
         25    2    1    2    0    0 -0.32625959973E+02 -0.42007958193E+02  0.25664202937E+03  0.29041633553E+03  0.12508954746E+03 0.  0.
          5    1    3    3  502    0  0.25216536248E+02  0.27295908873E+02  0.35666191527E+02  0.51676783565E+02  0.41800000000E+01 0.  1.
         -5    1    3    3    0  502 -0.57842496221E+02 -0.69303867066E+02  0.22097583785E+03  0.23873955196E+03  0.41800000000E+01 0.  1.
        -11    1    1    2    0    0 -0.29851122592E+02  0.35008961936E+01  0.14174262518E+03  0.14489415995E+03  0.00000000000E+00 0. -1.
         11    1    1    2    0    0  0.62477082565E+02  0.38507061999E+02  0.24751381158E+03  0.25816519245E+03  0.00000000000E+00 0.  1.
</event>
<event>
 7    1  0.2612213E-009  0.9165249E+02  0.7561462E-02  0.1298899E+00
         -1   -1    0    0    0  501 -0.00000000000E+00  0.00000000000E+00  0.56603861740E+03  0.56603861740E+03  0.00000000000E+00 0.  1.
          1   -1    0    0  501    0  0.00000000000E+00 -0.00000000000E+00 -0.24504032098E+02  0.24504032098E+02  0.00000000000E+00 0. -1.
         25    2    1    2    0    0  0.23958284811E+02  0.32125759706E+02  0.36128115135E+03  0.38441894989E+03  0.12509114622E+03 0.  0.
          5    1    3    3  502    0 -0.32598479145E+02 -0.50347367156E+01  0.25609387887E+02  0.41968113662E+02  0.41800000000E+01 0.  1.
         -5    1    3    3    0  502  0.56556763956E+02  0.37160496421E+02  0.33567176347E+03  0.34245083623E+03  0.41800000000E+01 0.  1.
        -11    1    1    2    0    0 -0.17832003742E+02 -0.55394022272E+02  0.60376344809E+02  0.83855715806E+02  0.00000000000E+00 0. -1.
         11    1    1    2    0    0 -0.61262810684E+01  0.23268262566E+02  0.11987708914E+03  0.12226798380E+03  0.00000000000E+00 0.  1.
</event>
<event>
 7    1  0.2612213E-009  0.9070257E+02  0.7561462E-02  0.1301159E+00
          2   -1    0    0  501    0  0.00000000000E+00  0.00000000000E+00  0.20345729741E+03  0.20345729741E+03  0.00000000000E+00 0. -1.
         -2   -1    0    0    0  501 -0.00000000000E+00 -0.00000000000E+00 -0.66163651284E+02  0.66163651284E+02  0.00000000000E+00 0.  1.
         25    2    1    2    0    0  0.28342422507E+02  0.31070078512E+02  0.75188901338E+02  0.15189339086E+03  0.12509831578E+03 0.  0.
          5    1    3    3  502    0  0.53294952050E+02  0.25136356894E+02  0.99883451895E+02  0.11604466689E+03  0.41800000000E+01 0. -1.
         -5    1    3    3    0  502 -0.24952529543E+02  0.59337216180E+01 -0.24694550557E+02  0.35848723967E+02  0.41800000000E+01 0. -1.
        -11    1    1    2    0    0 -0.31793229299E+02 -0.59630640248E+02  0.57218969019E+02  0.88547349487E+02  0.00000000000E+00 0.  1.
         11    1    1    2    0    0  0.34508067921E+01  0.28560561736E+02  0.48857757657E+01  0.29180208344E+02  0.00000000000E+00 0. -1.
</event>
<event>
 7    1  0.2815892E-009  0.1079649E+03  0.7561462E-02  0.1264386E+00
         -2   -1    0    0    0  501 -0.00000000000E+00  0.00000000000E+00  0.33688446548E+02  0.33688446548E+02  0.00000000000E+00 0. -1.
          2   -1    0    0  501    0  0.00000000000E+00 -0.00000000000E+00 -0.54289881997E+03  0.54289881997E+03  0.00000000000E+00 0.  1.
         25    2    1    2    0    0 -0.52898950004E+02 -0.41191509163E+02 -0.18529363981E+03  0.23340189889E+03  0.12509066356E+03 0.  0.
          5    1    3    3  502    0 -0.61298577932E+02 -0.57245203813E+02 -0.19508187067E+03  0.21238864772E+03  0.41800000000E+01 0. -1.
         -5    1    3    3    0  502  0.83996279283E+01  0.16053694650E+02  0.97882308586E+01  0.21013251167E+02  0.41800000000E+01 0. -1.
        -11    1    1    2    0    0  0.13863155950E+02  0.65779988799E+02 -0.19497864284E+03  0.20624224879E+03  0.00000000000E+00 0.  1.
         11    1    1    2    0    0  0.39035794054E+02 -0.24588479637E+02 -0.12893809076E+03  0.13694311884E+03  0.00000000000E+00 0. -1.
</event>
<event>
 7    1  0.2612213E-009  0.1273779E+03  0.7561462E-02  0.1231399E+00
          1   -1    0    0  501    0  0.00000000000E+00  0.00000000000E+00  0.63034317453E+03  0.63034317453E+03  0.00000000000E+00 0. -1.
         -1   -1    0    0    0  501 -0.00000000000E+00 -0.00000000000E+00 -0.29566497450E+02  0.29566497450E+02  0.00000000000E+00 0.  1.
         25    2    1    2    0    0 -0.63558366553E+02  0.18363179026E+02  0.43877061530E+03  0.46102418200E+03  0.12508705462E+03 0.  0.
          5    1    3    3  502    0  0.14960497934E+01 -0.47325031942E+02  0.18126855994E+03  0.18739706517E+03  0.41800000000E+01 0. -1.
         -5    1    3    3    0  502 -0.65054416346E+02  0.65688210968E+02  0.25750205536E+03  0.27362711683E+03  0.41800000000E+01 0. -1.
        -11    1    1    2    0    0 -0.20753175966E+02  0.13264170950E+02  0.44278598237E+02  0.50667808375E+02  0.00000000000E+00 0. -1.
         11    1    1    2    0    0  0.84311542519E+02 -0.31627349976E+02  0.11772746354E+03  0.14821768160E+03  0.00000000000E+00 0.  1.
</event>
<event>
 7    1  0.2612213E-009  0.1088368E+03  0.7561462E-02  0.1262739E+00
         -1   -1    0    0    0  501 -0.00000000000E+00  0.00000000000E+00  0.37648986014E+02  0.37648986014E+02  0.00000000000E+00 0.  1.
          1   -1    0    0  501    0  0.00000000000E+00 -0.00000000000E+00 -0.39049756127E+03  0.39049756127E+03  0.00000000000E+00 0. -1.
         25    2    1    2    0    0  0.25609878883E+02 -0.39109123343E+02 -0.24215995438E+03  0.27654068519E+03  0.12509163695E+03 0.  0.
          5    1    3    3  502    0  0.75510587190E+02 -0.32326364648E+02 -0.13532975044E+03  0.15836178953E+03  0.41800000000E+01 0. -1.
         -5    1    3    3    0  502 -0.49900708307E+02 -0.67827586955E+01 -0.10683020394E+03  0.11817889566E+03  0.41800000000E+01 0. -1.
        -11    1    1    2    0    0 -0.31757685600E+02 -0.11603706010E+02 -0.49468417529E+01  0.34171154958E+02  0.00000000000E+00 0.  1.
         11    1    1    2    0    0  0.61478067172E+01  0.50712829354E+02 -0.10574177912E+03  0.11743470714E+03  0.00000000000E+00 0. -1.
</event>
<event>
 7    1  0.2612213E-009  0.1601806E+03  0.7561462E-02  0.1188493E+00
         -2   -1    0    0    0  501 -0.00000000000E+00  0.00000000000E+00  0.33364838167E+02  0.33364838167E+02  0.00000000000E+00 0.  1.
          2   -1    0    0  501    0  0.00000000000E+00 -0.00000000000E+00 -0.85201706339E+03  0.85201706339E+03  0.00000000000E+00 0. -1.
         25    2    1    2    0    0 -0.12202171609E+03  0.37879205386E+02 -0.39646976412E+03  0.43492520260E+03  0.12509006594E+03 0.  0.
          5    1    3    3  502    0 -0.12744906881E+03 -0.96992747120E+01 -0.25070155629E+03  0.28143575430E+03  0.41800000000E+01 0. -1.
         -5    1    3    3    0  502  0.54273527260E+01  0.47578480098E+02 -0.14576820783E+03  0.15348944830E+03  0.41800000000E+01 0. -1.
        -11    1    1    2    0    0  0.48697508689E+02  0.18312369230E+02 -0.75588436584E+02  0.91762748240E+02  0.00000000000E+00 0.  1.
         11    1    1    2    0    0  0.73324207400E+02 -0.56191574615E+02 -0.34659402452E+03  0.35869395072E+03  0.00000000000E+00 0. -1.
</event>
<event>
 7    1  0.2612213E-009  0.2404637E+03  0.7561462E-02  0.1119484E+00
         -2   -1    0    0    0  501 -0.00000000000E+00  0.00000000000E+00  0.57816536439E+02  0.57816536439E+02  0.00000000000E+00 0.  1.
          2   -1    0    0  501    0  0.00000000000E+00 -0.00000000000E+00 -0.11710462327E+04  0.11710462327E+04  0.00000000000E+00 0. -1.
         25    2    1    2    0    0 -0.22662230110E+03 -0.54594786658E+02 -0.65767796609E+03  0.70888990010E+03  0.12508527213E+03 0.  0.
          5    1    3    3  502    0 -0.39268141701E+02  0.68760746508E+01 -0.27963322209E+03  0.28249155501E+03  0.41800000000E+01 0.  1.
         -5    1    3    3    0  502 -0.18735415940E+03 -0.61470861308E+02 -0.37804474400E+03  0.42639834510E+03  0.41800000000E+01 0.  1.
        -11    1    1    2    0    0  0.16655713811E+03  0.65228955069E+01 -0.24978045305E+03  0.30029003171E+03  0.00000000000E+00 0. -1.
         11    1    1    2    0    0  0.60065162997E+02  0.48071891151E+02 -0.20577127713E+03  0.21968283732E+03  0.00000000000E+00 0.  1.
</event>
<event>
 7    1  0.2612213E-009  0.1131848E+03  0.7561462E-02  0.1254783E+00
          2   -1    0    0  501    0  0.00000000000E+00  0.00000000000E+00  0.27902352068E+03  0.27902352068E+03  0.00000000000E+00 0. -1.
         -2   -1    0    0    0  501 -0.00000000000E+00 -0.00000000000E+00 -0.97581985767E+02  0.97581985767E+02  0.00000000000E+00 0.  1.
         25    2    1    2    0    0 -0.59464579950E+02  0.14592914245E+02  0.21935127917E+03  0.25983108517E+03  0.12509284445E+03 0.  0.
          5    1    3    3  502    0 -0.65962411945E+02 -0.35599996747E+02  0.72176404837E+02  0.10414079591E+03  0.41800000000E+01 0. -1.
         -5    1    3    3    0  502  0.64978319946E+01  0.50192910992E+02  0.14717487434E+03  0.15569028926E+03  0.41800000000E+01 0. -1.
        -11    1    1    2    0    0 -0.83921923126E+01 -0.29811862105E+02 -0.35610258097E+02  0.47193924352E+02  0.00000000000E+00 0.  1.
         11    1    1    2    0    0  0.67856772263E+02  0.15218947860E+02 -0.22994861601E+01  0.69580496926E+02  0.00000000000E+00 0. -1.
</event>
<event>
 7    1  0.2612213E-009  0.9074880E+02  0.7561462E-02  0.1301048E+00
         -4   -1    0    0    0  501 -0.00000000000E+00  0.00000000000E+00  0.17728142373E+03  0.17728142373E+03  0.00000000000E+00 0.  1.
          4   -1    0    0  501    0  0.00000000000E+00 -0.00000000000E+00 -0.14147042592E+03  0.14147042592E+03  0.00000000000E+00 0. -1.
         25    2    1    2    0    0 -0.11256814740E+02  0.53629378977E+02  0.12144847647E+03  0.18275743479E+03  0.12509085245E+03 0.  0.
          5    1    3    3  502    0 -0.30339600158E+02  0.16268578240E+02 -0.16576525225E+02  0.38437111810E+02  0.41800000000E+01 0.  1.
         -5    1    3    3    0  502  0.19082785418E+02  0.37360800737E+02  0.13802500170E+03  0.14432032298E+03  0.41800000000E+01 0.  1.
        -11    1    1    2    0    0  0.44247781718E+02 -0.31565193012E+01 -0.27259167325E+02  0.52066227099E+02  0.00000000000E+00 0.  1.
         11    1    1    2    0    0 -0.32990966978E+02 -0.50472859676E+02 -0.58378311335E+02  0.83928187758E+02  0.00000000000E+00 0. -1.
</event>
<event>
 7    1  0.2612213E-009  0.1207157E+03  0.7561462E-02  0.1241921E+00
          2   -1    0    0  501    0  0.00000000000E+00  0.00000000000E+00  0.16345530202E+03  0.16345530202E+03  0.00000000000E+00 0. -1.
         -2   -1    0    0    0  501 -0.00000000000E+00 -0.00000000000E+00 -0.21646915768E+03  0.21646915768E+03  0.00000000000E+00 0.  1.
         25    2    1    2    0    0 -0.26810440238E+02  0.65113846907E+02  0.10949866758E+03  0.18054303513E+03  0.12508883470E+03 0.  0.
          5    1    3    3  502    0  0.13681778452E+02 -0.29051253294E+02  0.27631343028E+01  0.32500364471E+02  0.41800000000E+01 0. -1.
         -5    1    3    3    0  502 -0.40492218690E+02  0.94165100201E+02  0.10673553328E+03  0.14804267066E+03  0.41800000000E+01 0. -1.
        -11    1    1    2    0    0 -0.26313186485E+02 -0.39558253523E+02 -0.11232838221E+03  0.12196271830E+03  0.00000000000E+00 0.  1.
         11    1    1    2    0    0  0.53123626723E+02 -0.25555593384E+02 -0.50184141026E+02  0.77418706266E+02  0.00000000000E+00 0. -1.
</event>
<event>
 7    1  0.2612213E-009  0.9074656E+02  0.7561462E-02  0.1301054E+00
          1   -1    0    0  501    0  0.00000000000E+00  0.00000000000E+00  0.44654728937E+02  0.44654728937E+02  0.00000000000E+00 0. -1.
         -1   -1    0    0    0  501 -0.00000000000E+00 -0.00000000000E+00 -0.30748455790E+03  0.30748455790E+03  0.00000000000E+00 0.  1.
         25    2    1    2    0    0  0.23417427447E+02  0.12438694933E+02 -0.95195742435E+02  0.15940940675E+03  0.12508410188E+03 0.  0.
          5    1    3    3  502    0 -0.22960481047E+02 -0.36434347406E+02 -0.69398486964E+00  0.43273541290E+02  0.41800000000E+01 0.  1.
         -5    1    3    3    0  502  0.46377908494E+02  0.48873042339E+02 -0.94501757566E+02  0.11613586546E+03  0.41800000000E+01 0.  1.
        -11    1    1    2    0    0 -0.30353854981E+01  0.26551129957E+02 -0.13585122610E+03  0.13845480021E+03  0.00000000000E+00 0.  1.
         11    1    1    2    0    0 -0.20382041949E+02 -0.38989824890E+02 -0.31782860428E+02  0.54275079880E+02  0.00000000000E+00 0. -1.
</event>
<event>
 7    1  0.2612213E-009  0.1952548E+03  0.7561462E-02  0.1153805E+00
         -3   -1    0    0    0  501 -0.00000000000E+00  0.00000000000E+00  0.31405277143E+02  0.31405277143E+02  0.00000000000E+00 0.  1.
          3   -1    0    0  501    0  0.00000000000E+00 -0.00000000000E+00 -0.12771169315E+04  0.12771169315E+04  0.00000000000E+00 0. -1.
         25    2    1    2    0    0  0.12386302829E+03  0.11173443423E+03 -0.61832451878E+03  0.65253250078E+03  0.12508725144E+03 0.  0.
          5    1    3    3  502    0  0.20740744351E+01  0.69930523259E+02 -0.13223456963E+03  0.14965972629E+03  0.41800000000E+01 0.  1.
         -5    1    3    3    0  502  0.12178895385E+03  0.41803910970E+02 -0.48608994915E+03  0.50287277449E+03  0.41800000000E+01 0.  1.
        -11    1    1    2    0    0 -0.81998496316E+02 -0.11289792761E+02 -0.27213484845E+03  0.28444435055E+03  0.00000000000E+00 0. -1.
         11    1    1    2    0    0 -0.41864531973E+02 -0.10044464147E+03 -0.35525228715E+03  0.37154535734E+03  0.00000000000E+00 0.  1.
</event>
<event>
 7    1  0.2612213E-009  0.6162604E+02  0.7561462E-02  0.1391132E+00
          4   -1    0    0  501    0  0.00000000000E+00  0.00000000000E+00  0.22391966969E+03  0.22391966969E+03  0.00000000000E+00 0. -1.
         -4   -1    0    0    0  501 -0.00000000000E+00 -0.00000000000E+00 -0.55131011227E+02  0.55131011227E+02  0.00000000000E+00 0.  1.
         25    2    1    2    0    0  0.30030772200E+02 -0.81060324605E+01  0.83862065591E+02  0.15377934708E+03  0.12509071310E+03 0.  0.
          5    1    3    3  502    0 -0.95519168755E+01  0.25213583690E+02  0.96559887692E+02  0.10034066090E+03  0.41800000000E+01 0. -1.
         -5    1    3    3    0  502  0.39582689076E+02 -0.33319616150E+02 -0.12697822101E+02  0.53438686183E+02  0.41800000000E+01 0. -1.
        -11    1    1    2    0    0  0.23897638057E+01  0.11236871950E+02 -0.15728616350E+02  0.19477362105E+02  0.00000000000E+00 0.  1.
         11    1    1    2    0    0 -0.32420536006E+02 -0.31308394896E+01  0.10065520922E+03  0.10579397173E+03  0.00000000000E+00 0. -1.
</event>
<event>
 7    1  0.2612213E-009  0.1081656E+03  0.7561462E-02  0.1264005E+00
          2   -1    0    0  501    0  0.00000000000E+00  0.00000000000E+00  0.20032660496E+03  0.20032660496E+03  0.00000000000E+00 0. -1.
         -2   -1    0    0    0  501 -0.00000000000E+00 -0.00000000000E+00 -0.71293510053E+02  0.71293510053E+02  0.00000000000E+00 0.  1.
         25    2    1    2    0    0  0.21914142737E+02 -0.38195795870E+02  0.97410552013E+02  0.16455649759E+03  0.12510346431E+03 0.  0.
          5    1    3    3  502    0  0.68397329380E+02 -0.27312371804E+02  0.89504608201E+02  0.11598580779E+03  0.41800000000E+01 0. -1.
         -5    1    3    3    0  502 -0.46483186643E+02 -0.10883424065E+02  0.79059438122E+01  0.48570689798E+02  0.41800000000E+01 0. -1.
        -11    1    1    2    0    0 -0.29642596039E+02  0.62480709057E+02  0.40421298169E+02  0.80102458451E+02  0.00000000000E+00 0. -1.
         11    1    1    2    0    0  0.77284533020E+01 -0.24284913187E+02 -0.87987552724E+01  0.26961158975E+02  0.00000000000E+00 0.  1.
</event>
<event>
 7    1  0.2612213E-009  0.2414456E+03  0.7561462E-02  0.1118834E+00
         -1   -1    0    0    0  501 -0.00000000000E+00  0.00000000000E+00  0.68606063984E+03  0.68606063984E+03  0.00000000000E+00 0. -1.
          1   -1    0    0  501    0  0.00000000000E+00 -0.00000000000E+00 -0.98917573747E+02  0.98917573747E+02  0.00000000000E+00 0.  1.
         25    2    1    2    0    0 -0.25499064626E+02 -0.23205234898E+03  0.35952904360E+03  0.44654931790E+03  0.12508663063E+03 0.  0.
          5    1    3    3  502    0  0.31651207578E+02 -0.58567086719E+02  0.38085689446E+02  0.76810772217E+02  0.41800000000E+01 0. -1.
         -5    1    3    3    0  502 -0.57150272204E+02 -0.17348526226E+03  0.32144335416E+03  0.36973854569E+03  0.41800000000E+01 0. -1.
        -11    1    1    2    0    0  0.39310120704E+01  0.24477244457E+02  0.77464129311E+02  0.81334369623E+02  0.00000000000E+00 0. -1.
         11    1    1    2    0    0  0.21568052555E+02  0.20757510452E+03  0.15014989318E+03  0.25709452606E+03  0.00000000000E+00 0.  1.
</event>
<event>
 7    1  0.2612213E-009  0.1249123E+03  0.7561462E-02  0.1235206E+00
          1   -1    0    0  501    0  0.00000000000E+00  0.00000000000E+00  0.60322915864E+03  0.60322915864E+03  0.00000000000E+00 0. -1.
         -1   -1    0    0    0  501 -0.00000000000E+00 -0.00000000000E+00 -0.32677113189E+02  0.32677113189E+02  0.00000000000E+00 0.  1.
         25    2    1    2    0    0  0.46875083194E+02  0.54660473004E+02  0.40913247857E+03  0.43384970752E+03  0.12510452813E+03 0.  0.
          5    1    3    3  502    0  0.49588213434E+02  0.92774601446E+02  0.28092930566E+03  0.30000810783E+03  0.41800000000E+01 0. -1.
         -5    1    3    3    0  502 -0.27131302408E+01 -0.38114128443E+02  0.12820317291E+03  0.13384159969E+03  0.41800000000E+01 0. -1.
        -11    1    1    2    0    0 -0.38245844303E+02  0.11067923160E+02  0.11343655108E+03  0.12022102416E+03  0.00000000000E+00 0. -1.
         11    1    1    2    0    0 -0.86292388905E+01 -0.65728396164E+02  0.47983015798E+02  0.81835540147E+02  0.00000000000E+00 0.  1.
</event>
<event>
 7    1  0.2612213E-009  0.1959066E+03  0.7561462E-02  0.1153239E+00
          1   -1    0    0  501    0  0.00000000000E+00  0.00000000000E+00  0.34533744698E+03  0.34533744698E+03  0.00000000000E+00 0. -1.
         -1   -1    0    0    0  501 -0.00000000000E+00 -0.00000000000E+00 -0.15773467575E+03  0.15773467575E+03  0.00000000000E+00 0.  1.
         25    2    1    2    0    0  0.61924931818E+02 -0.16982374691E+03  0.20415756391E+03  0.30000409869E+03  0.12508935258E+03 0.  0.
          5    1    3    3  502    0  0.48894632338E+01 -0.14314954775E+03  0.18510419133E+03  0.23408702211E+03  0.41800000000E+01 0. -1.
         -5    1    3    3    0  502  0.57035468585E+02 -0.26674199161E+02  0.19053372584E+02  0.65917076576E+02  0.41800000000E+01 0. -1.
        -11    1    1    2    0    0  0.54404642800E+01  0.26462991434E+02 -0.34317326566E+02  0.43675708006E+02  0.00000000000E+00 0.  1.
         11    1    1    2    0    0 -0.67365396098E+02  0.14336075548E+03  0.17762533886E+02  0.15939231604E+03  0.00000000000E+00 0. -1.
</event>
<event>
 7    1  0.2612213E-009  0.1411411E+03  0.7561462E-02  0.1211802E+00
         -2   -1    0    0    0  501 -0.00000000000E+00  0.00000000000E+00  0.61187628480E+02  0.61187628480E+02  0.00000000000E+00 0.  1.
          2   -1    0    0  501    0  0.00000000000E+00 -0.00000000000E+00 -0.35733228731E+03  0.35733228731E+03  0.00000000000E+00 0. -1.
         25    2    1    2    0    0 -0.85074004431E+02  0.38298790708E+02 -0.11134832225E+03  0.19170399832E+03  0.12509032938E+03 0.  0.
          5    1    3    3  502    0 -0.15143549834E+02  0.72341685809E+02 -0.76244616783E+02  0.10627022441E+03  0.41800000000E+01 0. -1.
         -5    1    3    3    0  502 -0.69930454597E+02 -0.34042895101E+02 -0.35103705463E+02  0.85433773908E+02  0.41800000000E+01 0. -1.
        -11    1    1    2    0    0  0.90291238914E+02  0.14232211940E+01 -0.11357052363E+03  0.14509582082E+03  0.00000000000E+00 0. -1.
         11    1    1    2    0    0 -0.52172344839E+01 -0.39722011902E+02 -0.71225812958E+02  0.81720096651E+02  0.00000000000E+00 0.  1.
</event>
<event>
 6    1  0.2612213E-009  0.7810884E+02  0.7561462E-02  0.1334506E+00
          1   -1    0    0  501    0  0.00000000000E+00  0.00000000000E+00  0.10725430820E+03  0.10725430820E+03  0.00000000000E+00 0. -1.
         -1   -1    0    0    0  501 -0.00000000000E+00 -0.00000000000E+00 -0.10906372990E+03  0.10906372990E+03  0.00000000000E+00 0.  1.
          5    1    1    2  502    0  0.44409714841E+02  0.37617614156E+01 -0.45941378076E+02  0.64144027319E+02  0.41800000000E+01 0.  1.
         -5    1    1    2    0  502 -0.45488582857E+02 -0.10310440922E+02  0.39430475290E+02  0.61218878983E+02  0.41800000000E+01 0.  1.
        -11    1    1    2    0    0 -0.15203482089E+02  0.31415325746E+02  0.34352635128E+02  0.48971135372E+02  0.00000000000E+00 0. -1.
         11    1    1    2    0    0  0.16282350105E+02 -0.24866646240E+02 -0.29651154040E+02  0.41983996428E+02  0.00000000000E+00 0.  1.
</event>
<event>
 7    1  0.2612213E-009  0.1118045E+03  0.7561462E-02  0.1257264E+00
         -1   -1    0    0    0  501 -0.00000000000E+00  0.00000000000E+00  0.15054517739E+02  0.15054517739E+02  0.00000000000E+00 0.  1.
          1   -1    0    0  501    0  0.00000000000E+00 -0.00000000000E+00 -0.12430950159E+04  0.12430950159E+04  0.00000000000E+00 0. -1.
         25    2    1    2    0    0  0.77919082189E+02  0.25869630954E+02 -0.60926218092E+03  0.62737326120E+03  0.12512466821E+03 0.  0.
          5    1    3    3  502    0  0.45159963310E+02 -0.15840078454E+02 -0.66646092418E+02  0.82155367482E+02  0.41800000000E+01 0.  1.
         -5    1    3    3    0  502  0.32759118880E+02  0.41709709408E+02 -0.54261608850E+03  0.54521789372E+03  0.41800000000E+01 0.  1.
        -11    1    1    2    0    0 -0.90291663131E+01 -0.48903401972E+02 -0.26227948265E+03  0.26695242196E+03  0.00000000000E+00 0. -1.
         11    1    1    2    0    0 -0.68889915876E+02  0.23033771018E+02 -0.35649883461E+03  0.36382385051E+03  0.00000000000E+00 0.  1.
</event>
<event>
 7    1  0.2612213E-009  0.1271274E+03  0.7561462E-02  0.1231782E+00
         -2   -1    0    0    0  501 -0.00000000000E+00  0.00000000000E+00  0.57909882589E+02  0.57909882589E+02  0.00000000000E+00 0.  1.
          2   -1    0    0  501    0  0.00000000000E+00 -0.00000000000E+00 -0.29772071820E+03  0.29772071820E+03  0.00000000000E+00 0. -1.
         25    2    1    2    0    0  0.17702996352E+02 -0.68060730456E+02 -0.11080293258E+03  0.18128527659E+03  0.12506559290E+03 0.  0.
          5    1    3    3  502    0  0.61229687987E+02 -0.74618770623E+02 -0.91404864834E+02  0.13300134336E+03  0.41800000000E+01 0.  1.
         -5    1    3    3    0  502 -0.43526691635E+02  0.65580401675E+01 -0.19398067748E+02  0.48283933227E+02  0.41800000000E+01 0.  1.
        -11    1    1    2    0    0 -0.48016321811E+02  0.11689542031E+02 -0.78727708851E+02  0.92953024126E+02  0.00000000000E+00 0. -1.
         11    1    1    2    0    0  0.30313325458E+02  0.56371188424E+02 -0.50280194174E+02  0.81392300071E+02  0.00000000000E+00 0.  1.
</event>
<event>
 7    1  0.2612213E-009  0.1430685E+03  0.7561462E-02  0.1209259E+00
         -1   -1    0    0    0  501 -0.00000000000E+00  0.00000000000E+00  0.23090089468E+02  0.23090089468E+02  0.00000000000E+00 0.  1.
          1   -1    0    0  501    0  0.00000000000E+00 -0.00000000000E+00 -0.92132996303E+03  0.92132996303E+03  0.00000000000E+00 0. -1.
         25    2    1    2    0    0  0.26999615472E+02  0.94253744816E+02 -0.44736725821E+03  0.47476019544E+03  0.12508809618E+03 0.  0.
          5    1    3    3  502    0  0.41175716764E+02  0.11891229856E+03 -0.31346704428E+03  0.33780857693E+03  0.41800000000E+01 0. -1.
         -5    1    3    3    0  502 -0.14176101292E+02 -0.24658553743E+02 -0.13390021394E+03  0.13695161851E+03  0.41800000000E+01 0. -1.
        -11    1    1    2    0    0 -0.90622934046E+01 -0.10831148415E+03 -0.37633389927E+03  0.39171508332E+03  0.00000000000E+00 0. -1.
         11    1    1    2    0    0 -0.17937322067E+02  0.14057739338E+02 -0.74538716082E+02  0.77944773740E+02  0.00000000000E+00 0.  1.
</event>
<event>
 7    1  0.2612213E-009  0.9482112E+02  0.7561462E-02  0.1291579E+00
         -2   -1    0    0    0  501 -0.00000000000E+00  0.00000000000E+00  0.18152841044E+02  0.18152841044E+02  0.00000000000E+00 0.  1.
          2   -1    0    0  501    0  0.00000000000E+00 -0.00000000000E+00 -0.90727227375E+03  0.90727227375E+03  0.00000000000E+00 0. -1.
         25    2    1    2    0    0  0.19407026968E+02  0.24689914200E+02 -0.71658822478E+03  0.72810213105E+03  0.12509118591E+03 0.  0.
          5    1    3    3  502    0 -0.13389619816E+02  0.58578362242E+02 -0.18836395747E+03  0.19776035830E+03  0.41800000000E+01 0.  1.
         -5    1    3    3    0  502  0.32796646784E+02 -0.33888448041E+02 -0.52822426730E+03  0.53034177275E+03  0.41800000000E+01 0.  1.
        -11    1    1    2    0    0  0.17016306551E+02 -0.39294686112E+02 -0.38221569007E+02  0.57397869148E+02  0.00000000000E+00 0.  1.
         11    1    1    2    0    0 -0.36423333519E+02  0.14604771912E+02 -0.13430963893E+03  0.13992511460E+03  0.00000000000E+00 0. -1.
</event>
<event>
 7    1  0.2612213E-009  0.1217029E+03  0.7561462E-02  0.1240314E+00
         -1   -1    0    0    0  501 -0.00000000000E+00  0.00000000000E+00  0.44682893060E+03  0.44682893060E+03  0.00000000000E+00 0.  1.
          1   -1    0    0  501    0  0.00000000000E+00 -0.00000000000E+00 -0.42928564848E+02  0.42928564848E+02  0.00000000000E+00 0. -1.
         25    2    1    2    0    0  0.61679809713E+02  0.25531507745E+02  0.32709685207E+03  0.35650508899E+03  0.12508905240E+03 0.  0.
          5    1    3    3  502    0 -0.24619252880E+02 -0.27753441215E+02  0.58843429804E+02  0.69687751741E+02  0.41800000000E+01 0.  1.
         -5    1    3    3    0  502  0.86299062593E+02  0.53284948960E+02  0.26825342226E+03  0.28681733725E+03  0.41800000000E+01 0.  1.
        -11    1    1    2    0    0 -0.73586731329E+02  0.29973793700E+01  0.35763648189E+02  0.81872033336E+02  0.00000000000E+00 0.  1.
         11    1    1    2    0    0  0.11906921616E+02 -0.28528887115E+02  0.41039865491E+02  0.51380373119E+02  0.00000000000E+00 0. -1.
</event>
<event>
 7    1  0.2612213E-009  0.1133158E+03  0.7561462E-02  0.1254550E+00
          2   -1    0    0  501    0  0.00000000000E+00  0.00000000000E+00  0.36699289191E+03  0.36699289191E+03  0.00000000000E+00 0. -1.
         -2   -1    0    0    0  501 -0.00000000000E+00 -0.00000000000E+00 -0.40400942307E+02  0.40400942307E+02  0.00000000000E+00 0.  1.
         25    2    1    2    0    0 -0.40083484220E+02  0.28940658038E+02  0.13362218222E+03  0.18959672079E+03  0.12509109304E+03 0.  0.
          5    1    3    3  502    0 -0.25168296759E+02  0.76775104121E+02  0.10203931096E+03  0.13022040222E+03  0.41800000000E+01 0.  1.
         -5    1    3    3    0  502 -0.14915187460E+02 -0.47834446082E+02  0.31582871265E+02  0.59376318565E+02  0.41800000000E+01 0.  1.
        -11    1    1    2    0    0  0.59882226411E+02 -0.40715393963E+02  0.17209948873E+03  0.18671330527E+03  0.00000000000E+00 0. -1.
         11    1    1    2    0    0 -0.19798742192E+02  0.11774735924E+02  0.20870278654E+02  0.31083808157E+02  0.00000000000E+00 0.  1.
</event>
<event>
 7    1  0.2612213E-009  0.1008847E+03  0.7561462E-02  0.1278446E+00
          1   -1    0    0  501    0  0.00000000000E+00  0.00000000000E+00  0.15104835478E+03  0.15104835478E+03  0.00000000000E+00 0. -1.
         -1   -1    0    0    0  501 -0.00000000000E+00 -0.00000000000E+00 -0.12381398466E+03  0.12381398466E+03  0.00000000000E+00 0.  1.
         25    2    1    2    0    0 -0.11848340019E+02 -0.73814292701E+02 -0.20700519056E+02  0.14722778910E+03  0.12513423763E+03 0.  0.
          5    1    3    3  502    0  0.48199652084E+01  0.19813246649E+01 -0.59838449344E+02  0.60210216175E+02  0.41800000000E+01 0.  1.
         -5    1    3    3    0  502 -0.16668305227E+02 -0.75795617366E+02  0.39137930287E+02  0.87017572927E+02  0.41800000000E+01 0.  1.
        -11    1    1    2    0    0  0.32022588858E+02 -0.80805853956E+01  0.20814907680E+02  0.39038473833E+02  0.00000000000E+00 0.  1.
         11    1    1    2    0    0 -0.20174248840E+02  0.81894878096E+02  0.27119981500E+02  0.88596076500E+02  0.00000000000E+00 0. -1.
</event>
<event>
 7    1  0.2612213E-009  0.1106764E+03  0.7561462E-02  0.1259322E+00
          2   -1    0    0  501    0  0.00000000000E+00  0.00000000000E+00  0.33545023967E+03  0.33545023967E+03  0.00000000000E+00 0. -1.
         -2   -1    0    0    0  501 -0.00000000000E+00 -0.00000000000E+00 -0.55413161509E+02  0.55413161509E+02  0.00000000000E+00 0.  1.
         25    2    1    2    0    0  0.77175487152E+02  0.13160063359E+02  0.19729074590E+03  0.24637640588E+03  0.12509377232E+03 0.  0.
          5    1    3    3  502    0  0.31912777641E+02  0.61339209564E+02  0.14928047511E+03  0.16456930654E+03  0.41800000000E+01 0.  1.
         -5    1    3    3    0  502  0.45262709511E+02 -0.48179146206E+02  0.48010270784E+02  0.81807099338E+02  0.41800000000E+01 0.  1.
        -11    1    1    2    0    0 -0.43422397486E+02  0.10439517766E+02 -0.75019167617E+01  0.45285393779E+02  0.00000000000E+00 0.  1.
         11    1    1    2    0    0 -0.33753089666E+02 -0.23599581124E+02  0.90248249024E+02  0.99201601515E+02  0.00000000000E+00 0. -1.
</event>
<event>
 7    1  0.2612213E-009  0.8001291E+02  0.7561462E-02  0.1329015E+00
         -1   -1    0    0    0  501 -0.00000000000E+00  0.00000000000E+00  0.62973689640E+02  0.62973689640E+02  0.00000000000E+00 0.  1.
          1   -1    0    0  501    0  0.00000000000E+00 -0.00000000000E+00 -0.20066548584E+03  0.20066548584E+03  0.00000000000E+00 0. -1.
         25    2    1    2    0    0 -0.15897264932E+02 -0.21697989059E+02 -0.69380413301E+02  0.14554971193E+03  0.12509017200E+03 0.  0.
          5    1    3    3  502    0 -0.53754042591E+02  0.25152563366E+02 -0.90205299154E+01  0.60174669910E+02  0.41800000000E+01 0. -1.
         -5    1    3    3    0  502  0.37856777659E+02 -0.46850552425E+02 -0.60359883386E+02  0.85375042018E+02  0.41800000000E+01 0. -1.
        -11    1    1    2    0    0 -0.86569700493E+01  0.90813626464E+01  0.21080695502E+02  0.24531816092E+02  0.00000000000E+00 0.  1.
         11    1    1    2    0    0  0.24554234982E+02  0.12616626412E+02 -0.89392078405E+02  0.93557647465E+02  0.00000000000E+00 0. -1.
</event>
<event>
 7    1  0.2612213E-009  0.1088806E+03  0.7561462E-02  0.1262657E+00
         -2   -1    0    0    0  501 -0.00000000000E+00  0.00000000000E+00  0.17254829139E+03  0.17254829139E+03  0.00000000000E+00 0.  1.
          2   -1    0    0  501    0  0.00000000000E+00 -0.00000000000E+00 -0.13855035703E+03  0.13855035703E+03  0.00000000000E+00 0. -1.
         25    2    1    2    0    0 -0.88825364431E+02 -0.19481370745E+02  0.75590373038E+02  0.17213416875E+03  0.12508716314E+03 0.  0.
          5    1    3    3  502    0 -0.21594677124E+02  0.16420457448E+02 -0.30760190052E+02  0.41226486570E+02  0.41800000000E+01 0. -1.
         -5    1    3    3    0  502 -0.67230687308E+02 -0.35901828193E+02  0.10635056309E+03  0.13090768218E+03  0.41800000000E+01 0. -1.
        -11    1    1    2    0    0  0.10049575989E+03  0.19165493149E+02 -0.58927821780E+02  0.11806439795E+03  0.00000000000E+00 0. -1.
         11    1    1    2    0    0 -0.11670395457E+02  0.31587759687E+00  0.17335383107E+02  0.20900081728E+02  0.00000000000E+00 0.  1.
</event>
<event>
 6    1  0.2612213E-009  0.1718566E+03  0.7561462E-02  0.1175925E+00
         -1   -1    0    0    0  501 -0.00000000000E+00  0.00000000000E+00  0.17921099559E+03  0.17921099559E+03  0.00000000000E+00 0.  1.
          1   -1    0    0  501    0  0.00000000000E+00 -0.00000000000E+00 -0.21446204083E+03  0.21446204083E+03  0.00000000000E+00 0. -1.
          5    1    1    2  502    0  0.14777463162E+03  0.49804730643E+02  0.47122993838E+02  0.16295981681E+03  0.41800000000E+01 0.  1.
         -5    1    1    2    0  502 -0.12512905999E+02  0.28398548926E+02 -0.22383705711E+02  0.38490948013E+02  0.41800000000E+01 0.  1.
        -11    1    1    2    0    0 -0.78921434126E+02 -0.41580469991E+02  0.16166325164E+02  0.90658029531E+02  0.00000000000E+00 0.  1.
         11    1    1    2    0    0 -0.56340291497E+02 -0.36622809578E+02 -0.76156658530E+02  0.10156424206E+03  0.00000000000E+00 0. -1.
</event>
<event>
 7    1  0.2612213E-009  0.8152626E+02  0.7561462E-02  0.1324775E+00
          1   -1    0    0  501    0  0.00000000000E+00  0.00000000000E+00  0.12905025510E+03  0.12905025510E+03  0.00000000000E+00 0. -1.
         -1   -1    0    0    0  501 -0.00000000000E+00 -0.00000000000E+00 -0.11063896725E+03  0.11063896725E+03  0.00000000000E+00 0.  1.
         25    2    1    2    0    0  0.46758599733E+00 -0.20697531086E+02 -0.35008930582E+02  0.13153646517E+03  0.12509040738E+03 0.  0.
          5    1    3    3  502    0  0.26178345574E+02 -0.31272691852E+02 -0.73328136872E+02  0.84010565346E+02  0.41800000000E+01 0. -1.
         -5    1    3    3    0  502 -0.25710759577E+02  0.10575160767E+02  0.38319206290E+02  0.47525899823E+02  0.41800000000E+01 0. -1.
        -11    1    1    2    0    0 -0.16458465945E+02 -0.33559387363E+02  0.18868213824E+02  0.41870312566E+02  0.00000000000E+00 0.  1.
         11    1    1    2    0    0  0.15990879948E+02  0.54256918448E+02  0.34552004611E+02  0.66282444611E+02  0.00000000000E+00 0. -1.
</event>
<event>
 7    1  0.2612213E-009  0.1151880E+03  0.7561462E-02  0.1251253E+00
         -2   -1    0    0    0  501 -0.00000000000E+00  0.00000000000E+00  0.10841896657E+03  0.10841896657E+03  0.00000000000E+00 0.  1.
          2   -1    0    0  501    0  0.00000000000E+00 -0.00000000000E+00 -0.36355047753E+03  0.36355047753E+03  0.00000000000E+00 0. -1.
         25    2    1    2    0    0 -0.76276221564E+02 -0.62158890468E+02 -0.29451675345E+03  0.33476823911E+03  0.12509143140E+03 0.  0.
          5    1    3    3  502    0 -0.17462801403E+02 -0.16462454805E+02  0.60354177537E+01  0.25097022105E+02  0.41800000000E+01 0. -1.
         -5    1    3    3    0  502 -0.58813420160E+02 -0.45696435663E+02 -0.30055217121E+03  0.30967121700E+03  0.41800000000E+01 0. -1.
        -11    1    1    2    0    0  0.92602084366E+02  0.33574307334E+02  0.28872783388E+02  0.10264510589E+03  0.00000000000E+00 0. -1.
         11    1    1    2    0    0 -0.16325862802E+02  0.28584583134E+02  0.10512459098E+02  0.34556099107E+02  0.00000000000E+00 0.  1.
</event>
<event>
 7    1  0.2612213E-009  0.8042042E+02  0.7561462E-02  0.1327863E+00
          2   -1    0    0  501    0  0.00000000000E+00  0.00000000000E+00  0.36859028899E+03  0.36859028899E+03  0.00000000000E+00 0.  1.
         -2   -1    0    0    0  501 -0.00000000000E+00 -0.00000000000E+00 -0.83008130081E+02  0.83008130081E+02  0.00000000000E+00 0. -1.
         25    2    1    2    0    0  0.31752844621E+02 -0.22850020900E+02  0.32101355538E+03  0.34673774668E+03  0.12508795161E+03 0.  0.
          5    1    3    3  502    0  0.51184934908E+02  0.12405507326E+02  0.50073934858E+02  0.72791933109E+02  0.41800000000E+01 0.  1.
         -5    1    3    3    0  502 -0.19432090287E+02 -0.35255528225E+02  0.27093962052E+03  0.27394581357E+03  0.41800000000E+01 0.  1.
        -11    1    1    2    0    0 -0.10286605922E+02 -0.18374091840E+02  0.22349069925E+02  0.30706716511E+02  0.00000000000E+00 0.  1.
         11    1    1    2    0    0 -0.21466238699E+02  0.41224112740E+02 -0.57780466400E+02  0.74153955879E+02  0.00000000000E+00 0. -1.
</event>
<event>
 7    1  0.2612213E-009  0.9532953E+02  0.7561462E-02  0.1290436E+00
          2   -1    0    0  501    0  0.00000000000E+00  0.00000000000E+00  0.25223547505E+03  0.25223547505E+03  0.00000000000E+00 0. -1.
         -2   -1    0    0    0  501 -0.00000000000E+00 -0.00000000000E+00 -0.59850159190E+02  0.59850159190E+02  0.00000000000E+00 0.  1.
         25    2    1    2    0    0 -0.23898228181E+02  0.20320954445E+02  0.17085527360E+03  0.21406512814E+03  0.12509311760E+03 0.  0.
          5    1    3    3  502    0 -0.39122664886E+02  0.65881407319E+02  0.77896281951E+02  0.10934461980E+03  0.41800000000E+01 0.  1.
         -5    1    3    3    0  502  0.15224436705E+02 -0.45560452874E+02  0.92958991646E+02  0.10472050834E+03  0.41800000000E+01 0.  1.
        -11    1    1    2    0    0  0.19381555559E+02  0.18397969774E+02 -0.25498607289E+02  0.36936553187E+02  0.00000000000E+00 0.  1.
         11    1    1    2    0    0  0.45166726225E+01 -0.38718924219E+02  0.47028649548E+02  0.61083952905E+02  0.00000000000E+00 0. -1.
</event>
<event>
 7    1  0.2612213E-009  0.1022838E+03  0.7561462E-02  0.1275565E+00
          1   -1    0    0  501    0  0.00000000000E+00  0.00000000000E+00  0.15589094067E+03  0.15589094067E+03  0.00000000000E+00 0. -1.
         -1   -1    0    0    0  501 -0.00000000000E+00 -0.00000000000E+00 -0.85757950161E+02  0.85757950161E+02  0.00000000000E+00 0.  1.
         25    2    1    2    0    0  0.11424389343E+02  0.20033687640E+02  0.40557782796E+01  0.12726202406E+03  0.12508920065E+03 0.  0.
          5    1    3    3  502    0 -0.74268014564E+01 -0.49555418854E+02 -0.15182806467E+02  0.52525107614E+02  0.41800000000E+01 0.  1.
         -5    1    3    3    0  502  0.18851190799E+02  0.69589106494E+02  0.19238584746E+02  0.74736916449E+02  0.41800000000E+01 0.  1.
        -11    1    1    2    0    0 -0.41904780039E+02  0.55520088085E+01  0.65394391530E+01  0.42773819754E+02  0.00000000000E+00 0.  1.
         11    1    1    2    0    0  0.30480390696E+02 -0.25585696449E+02  0.59537773079E+02  0.71613047016E+02  0.00000000000E+00 0. -1.
</event>
<event>
 7    1  0.2612213E-009  0.1595090E+03  0.7561462E-02  0.1189252E+00
         -1   -1    0    0    0  501 -0.00000000000E+00  0.00000000000E+00  0.26210683367E+03  0.26210683367E+03  0.00000000000E+00 0.  1.
          1   -1    0    0  501    0  0.00000000000E+00 -0.00000000000E+00 -0.13360148141E+03  0.13360148141E+03  0.00000000000E+00 0. -1.
         25    2    1    2    0    0 -0.14620989599E+03  0.39818399337E+02  0.65291262184E+02  0.20705874434E+03  0.12509011183E+03 0.  0.
          5    1    3    3  502    0 -0.64039413218E+02  0.34141814848E+02  0.94803539364E+02  0.11946503021E+03  0.41800000000E+01 0.  1.
         -5    1    3    3    0  502 -0.82170482774E+02  0.56765844890E+01 -0.29512277180E+02  0.87593714130E+02  0.41800000000E+01 0.  1.
        -11    1    1    2    0    0  0.77799155409E+01 -0.23151264953E+02 -0.15116932117E+02  0.28723331829E+02  0.00000000000E+00 0. -1.
         11    1    1    2    0    0  0.13842998045E+03 -0.16667134384E+02  0.78331022184E+02  0.15992623891E+03  0.00000000000E+00 0.  1.
</event>
<event>
 7    1  0.2612213E-009  0.1312166E+03  0.7561462E-02  0.1225662E+00
         -1   -1    0    0    0  501 -0.00000000000E+00  0.00000000000E+00  0.57326102382E+02  0.57326102382E+02  0.00000000000E+00 0.  1.
          1   -1    0    0  501    0  0.00000000000E+00 -0.00000000000E+00 -0.45687607377E+03  0.45687607377E+03  0.00000000000E+00 0. -1.
         25    2    1    2    0    0  0.80424512369E+02  0.28169619925E+02 -0.35618491493E+03  0.38700936033E+03  0.12508765598E+03 0.  0.
          5    1    3    3  502    0  0.17753465540E+02 -0.48393191073E+02 -0.13912051248E+03  0.14842195213E+03  0.41800000000E+01 0.  1.
         -5    1    3    3    0  502  0.62671046830E+02  0.76562810998E+02 -0.21706440246E+03  0.23858740820E+03  0.41800000000E+01 0.  1.
        -11    1    1    2    0    0 -0.81539938491E+01 -0.37897233658E+02  0.58688579832E+01  0.39206267721E+02  0.00000000000E+00 0.  1.
         11    1    1    2    0    0 -0.72270518520E+02  0.97276137331E+01 -0.49233914435E+02  0.87986548101E+02  0.00000000000E+00 0. -1.
</event>
<event>
 7    1  0.2612213E-009  0.1198577E+03  0.7561462E-02  0.1243332E+00
          1   -1    0    0  501    0  0.00000000000E+00  0.00000000000E+00  0.23314154620E+03  0.23314154620E+03  0.00000000000E+00 0. -1.
         -1   -1    0    0    0  501 -0.00000000000E+00 -0.00000000000E+00 -0.93092966476E+02  0.93092966476E+02  0.00000000000E+00 0.  1.
         25    2    1    2    0    0  0.27179263812E+02 -0.75171942293E+02  0.13816928447E+03  0.20279821450E+03  0.12508729490E+03 0.  0.
          5    1    3    3  502    0  0.65589273679E+02 -0.10804236496E+02  0.35102620538E+02  0.75288450088E+02  0.41800000000E+01 0.  1.
         -5    1    3    3    0  502 -0.38410009867E+02 -0.64367705796E+02  0.10306666393E+03  0.12750976441E+03  0.41800000000E+01 0.  1.
        -11    1    1    2    0    0  0.25922381622E+00  0.70141257128E+02  0.36423436025E+02  0.79034991240E+02  0.00000000000E+00 0. -1.
         11    1    1    2    0    0 -0.27438487628E+02  0.50306851645E+01 -0.34544140764E+02  0.44401306936E+02  0.00000000000E+00 0.  1.
</event>
<event>
 7    1  0.2612213E-009  0.9221157E+02  0.7561462E-02  0.1297583E+00
          1   -1    0    0  501    0  0.00000000000E+00  0.00000000000E+00  0.21816496259E+03  0.21816496259E+03  0.00000000000E+00 0. -1.
         -1   -1    0    0    0  501 -0.00000000000E+00 -0.00000000000E+00 -0.73289609574E+02  0.73289609574E+02  0.00000000000E+00 0.  1.
         25    2    1    2    0    0 -0.28790882641E+02  0.74297163200E+01  0.14405340071E+02  0.12938107247E+03  0.12509129659E+03 0.  0.
          5    1    3    3  502    0 -0.57916103250E+02 -0.35874207589E+01  0.53629677487E+02  0.79124960099E+02  0.41800000000E+01 0.  1.
         -5    1    3    3    0  502  0.29125220609E+02  0.11017137079E+02 -0.39224337417E+02  0.50256112371E+02  0.41800000000E+01 0.  1.
        -11    1    1    2    0    0  0.23272508207E+02  0.40430310774E+02  0.77622690159E+02  0.90562142726E+02  0.00000000000E+00 0.  1.
         11    1    1    2    0    0  0.55183744332E+01 -0.47860027094E+02  0.52847322787E+02  0.71511356969E+02  0.00000000000E+00 0. -1.
</event>
<event>
 6    1  0.2612213E-009  0.9807196E+02  0.7561462E-02  0.1284403E+00
          1   -1    0    0  501    0  0.00000000000E+00  0.00000000000E+00  0.92985545048E+03  0.92985545048E+03  0.00000000000E+00 0. -1.
         -1   -1    0    0    0  501 -0.00000000000E+00 -0.00000000000E+00 -0.24320495517E+02  0.24320495517E+02  0.00000000000E+00 0.  1.
          5    1    1    2  502    0 -0.18111144873E+02  0.14211784525E+02  0.28497391253E+02  0.36872240185E+02  0.41800000000E+01 0.  1.
         -5    1    1    2    0  502  0.84735801458E+02 -0.67563158928E+01  0.71308016130E+03  0.71814106740E+03  0.41800000000E+01 0.  1.
        -11    1    1    2    0    0  0.92071814513E+01 -0.73909824493E+01 -0.58614905778E+01  0.13181649504E+02  0.00000000000E+00 0.  1.
         11    1    1    2    0    0 -0.75831838036E+02 -0.64486183284E-01  0.16981889299E+03  0.18598098891E+03  0.00000000000E+00 0. -1.
</event>
<event>
 7    1  0.2612213E-009  0.2571332E+03  0.7561462E-02  0.1108878E+00
          2   -1    0    0  501    0  0.00000000000E+00  0.00000000000E+00  0.75060797811E+03  0.75060797811E+03  0.00000000000E+00 0. -1.
         -2   -1    0    0    0  501 -0.00000000000E+00 -0.00000000000E+00 -0.89140797394E+02  0.89140797394E+02  0.00000000000E+00 0.  1.
         25    2    1    2    0    0  0.17128422353E+03 -0.15944768780E+03  0.31015023697E+03  0.40817016423E+03  0.12509141896E+03 0.  0.
          5    1    3    3  502    0  0.89770497065E+02 -0.42308134854E+01  0.10331949675E+03  0.13700011947E+03  0.41800000000E+01 0. -1.
         -5    1    3    3    0  502  0.81513726462E+02 -0.15521687431E+03  0.20683074022E+03  0.27117004476E+03  0.41800000000E+01 0. -1.
        -11    1    1    2    0    0 -0.43313715491E+02 -0.14610007750E+01  0.82106153867E+02  0.92841978521E+02  0.00000000000E+00 0.  1.
         11    1    1    2    0    0 -0.12797050804E+03  0.16090868857E+03  0.26921078988E+03  0.33873663276E+03  0.00000000000E+00 0. -1.
</event>
<event>
 7    1  0.2612213E-009  0.9987485E+02  0.7561462E-02  0.1280559E+00
          2   -1    0    0  501    0  0.00000000000E+00  0.00000000000E+00  0.34393514072E+03  0.34393514072E+03  0.00000000000E+00 0.  1.
         -2   -1    0    0    0  501 -0.00000000000E+00 -0.00000000000E+00 -0.34842205519E+02  0.34842205519E+02  0.00000000000E+00 0. -1.
         25    2    1    2    0    0 -0.81800295207E+01  0.17268436573E+02  0.17982600684E+03  0.21988568927E+03  0.12508881575E+03 0.  0.
          5    1    3    3  502    0 -0.45852030600E+02 -0.33212659242E+02  0.50527301592E+02  0.75999802962E+02  0.41800000000E+01 0.  1.
         -5    1    3    3    0  502  0.37672001080E+02  0.50481095815E+02  0.12929870525E+03  0.14388588631E+03  0.41800000000E+01 0.  1.
        -11    1    1    2    0    0 -0.20861125469E+02 -0.38560323090E+02  0.29546401553E+02  0.52868468083E+02  0.00000000000E+00 0. -1.
         11    1    1    2    0    0  0.29041154990E+02  0.21291886517E+02  0.99720526809E+02  0.10602318889E+03  0.00000000000E+00 0.  1.
</event>
<event>
 7    1  0.2612213E-009  0.1435363E+03  0.7561462E-02  0.1208648E+00
          2   -1    0    0  501    0  0.00000000000E+00  0.00000000000E+00  0.66710383934E+03  0.66710383934E+03  0.00000000000E+00 0. -1.
         -2   -1    0    0    0  501 -0.00000000000E+00 -0.00000000000E+00 -0.36328379849E+02  0.36328379849E+02  0.00000000000E+00 0.  1.
         25    2    1    2    0    0  0.80223998252E+02 -0.55244858256E+02  0.45987384001E+03  0.48643622159E+03  0.12509342383E+03 0.  0.
          5    1    3    3  502    0  0.16767662797E+01  0.34093564323E+02  0.59290539486E+02  0.68542126798E+02  0.41800000000E+01 0.  1.
         -5    1    3    3    0  502  0.78547231972E+02 -0.89338422579E+02  0.40058330053E+03  0.41789409479E+03  0.41800000000E+01 0.  1.
        -11    1    1    2    0    0  0.20013457348E+02  0.19008766032E+01  0.28170599768E+02  0.34608301001E+02  0.00000000000E+00 0. -1.
         11    1    1    2    0    0 -0.10023745560E+03  0.53343981653E+02  0.14273101971E+03  0.18238769660E+03  0.00000000000E+00 0.  1.
</event>
<event>
 7    1  0.2612213E-009  0.1195333E+03  0.7561462E-02  0.1243869E+00
          1   -1    0    0  501    0  0.00000000000E+00  0.00000000000E+00  0.42357303920E+03  0.42357303920E+03  0.00000000000E+00 0. -1.
         -1   -1    0    0    0  501 -0.00000000000E+00 -0.00000000000E+00 -0.71817988604E+02  0.71817988604E+02  0.00000000000E+00 0.  1.
         25    2    1    2    0    0  0.56568575918E+02 -0.41119762522E+02  0.24642864232E+02  0.14541511798E+03  0.12508975629E+03 0.  0.
          5    1    3    3  502    0  0.40395610603E+02  0.36614976492E+02 -0.14817307073E+02  0.56652333124E+02  0.41800000000E+01 0. -1.
         -5    1    3    3    0  502  0.16172965316E+02 -0.77734739015E+02  0.39460171305E+02  0.88762784861E+02  0.41800000000E+01 0. -1.
        -11    1    1    2    0    0 -0.66237086484E+02  0.56265160048E+02  0.31832180372E+03  0.32997256035E+03  0.00000000000E+00 0. -1.
         11    1    1    2    0    0  0.96685105661E+01 -0.15145397525E+02  0.87903826396E+01  0.20003349463E+02  0.00000000000E+00 0.  1.
</event>
<event>
 7    1  0.2612213E-009  0.8773181E+02  0.7561462E-02  0.1308439E+00
          2   -1    0    0  501    0  0.00000000000E+00  0.00000000000E+00  0.33085902842E+03  0.33085902842E+03  0.00000000000E+00 0. -1.
         -2   -1    0    0    0  501 -0.00000000000E+00 -0.00000000000E+00 -0.40550321269E+02  0.40550321269E+02  0.00000000000E+00 0.  1.
         25    2    1    2    0    0  0.21733750944E+02  0.25397008278E+02  0.23984978500E+03  0.27256467749E+03  0.12508485156E+03 0.  0.
          5    1    3    3  502    0  0.29160526712E+01 -0.44041377343E+02  0.38539611352E+02  0.58744534423E+02  0.41800000000E+01 0. -1.
         -5    1    3    3    0  502  0.18817698273E+02  0.69438385621E+02  0.20131017365E+03  0.21382014307E+03  0.41800000000E+01 0. -1.
        -11    1    1    2    0    0  0.81147292868E+01  0.99244668717E+01  0.51010835205E+02  0.52597045377E+02  0.00000000000E+00 0. -1.
         11    1    1    2    0    0 -0.29848480231E+02 -0.35321475149E+02 -0.55191305506E+00  0.46247626824E+02  0.00000000000E+00 0.  1.
</event>
<event>
 7    1  0.2612213E-009  0.9211725E+02  0.7561462E-02  0.1297804E+00
         -1   -1    0    0    0  501 -0.00000000000E+00  0.00000000000E+00  0.96305078143E+02  0.96305078143E+02  0.00000000000E+00 0.  1.
          1   -1    0    0  501    0  0.00000000000E+00 -0.00000000000E+00 -0.19505386243E+03  0.19505386243E+03  0.00000000000E+00 0. -1.
         25    2    1    2    0    0 -0.49131256763E+02  0.62940493057E+02 -0.25306355236E+02  0.15054397575E+03  0.12509073092E+03 0.  0.
          5    1    3    3  502    0  0.14715454623E+02  0.24654256969E+02 -0.61245910484E+02  0.67771018455E+02  0.41800000000E+01 0. -1.
         -5    1    3    3    0  502 -0.63846711386E+02  0.38286236089E+02  0.35939555248E+02  0.82772957299E+02  0.41800000000E+01 0. -1.
        -11    1    1    2    0    0  0.11822223531E+02 -0.23848743696E+02 -0.81901720574E+02  0.86118635486E+02  0.00000000000E+00 0. -1.
         11    1    1    2    0    0  0.37309033232E+02 -0.39091749361E+02  0.84592915264E+01  0.54696329328E+02  0.00000000000E+00 0.  1.
</event>
<event>
 7    1  0.2612213E-009  0.1012899E+03  0.7561462E-02  0.1277607E+00
          1   -1    0    0  501    0  0.00000000000E+00  0.00000000000E+00  0.53511906005E+02  0.53511906005E+02  0.00000000000E+00 0. -1.
         -1   -1    0    0    0  501 -0.00000000000E+00 -0.00000000000E+00 -0.36014267756E+03  0.36014267756E+03  0.00000000000E+00 0.  1.
         25    2    1    2    0    0 -0.68950220140E+02 -0.11067191476E+02 -0.10846327509E+03  0.17969165838E+03  0.12509274345E+03 0.  0.
          5    1    3    3  502    0 -0.77992795834E+02  0.25983318393E+02 -0.22159063061E+02  0.85243800434E+02  0.41800000000E+01 0.  1.
         -5    1    3    3    0  502  0.90425756943E+01 -0.37050509869E+02 -0.86304212033E+02  0.94447857950E+02  0.41800000000E+01 0.  1.
        -11    1    1    2    0    0  0.30032537480E+02 -0.16444591241E+02 -0.45204777655E+01  0.34537119275E+02  0.00000000000E+00 0.  1.
         11    1    1    2    0    0  0.38917682660E+02  0.27511782717E+02 -0.19364701869E+03  0.19942580590E+03  0.00000000000E+00 0. -1.
</event>
<event>
 7    1  0.2612213E-009  0.1820992E+03  0.7561462E-02  0.1165787E+00
         -2   -1    0    0    0  501 -0.00000000000E+00  0.00000000000E+00  0.38418736017E+03  0.38418736017E+03  0.00000000000E+00 0.  1.
          2   -1    0    0  501    0  0.00000000000E+00 -0.00000000000E+00 -0.11727192555E+03  0.11727192555E+03  0.00000000000E+00 0. -1.
         25    2    1    2    0    0 -0.32370591559E+02  0.14961249580E+03  0.25551081546E+03  0.32305598331E+03  0.12509051699E+03 0.  0.
          5    1    3    3  502    0 -0.53675349751E+02  0.16310731703E+03  0.22861556104E+03  0.28595032294E+03  0.41800000000E+01 0.  1.
         -5    1    3    3    0  502  0.21304758192E+02 -0.13494821228E+02  0.26895254415E+02  0.37105660372E+02  0.41800000000E+01 0.  1.
        -11    1    1    2    0    0  0.50652313177E+02 -0.78311675812E+02  0.37195323652E+02  0.10040850313E+03  0.00000000000E+00 0.  1.
         11    1    1    2    0    0 -0.18281721619E+02 -0.71300819986E+02 -0.25790704496E+02  0.77994799278E+02  0.00000000000E+00 0. -1.
</event>
<event>
 7    1  0.2612213E-009  0.1112211E+03  0.7561462E-02  0.1258325E+00
         -1   -1    0    0    0  501 -0.00000000000E+00  0.00000000000E+00  0.69788442154E+02  0.69788442154E+02  0.00000000000E+00 0.  1.
          1   -1    0    0  501    0  0.00000000000E+00 -0.00000000000E+00 -0.31928199727E+03  0.31928199727E+03  0.00000000000E+00 0. -1.
         25    2    1    2    0    0  0.18055888787E+02  0.50555806783E+02 -0.22752209894E+02  0.13801351135E+03  0.12509261185E+03 0.  0.
          5    1    3    3  502    0  0.55718339016E+02  0.69691470018E+02  0.10775777547E+01  0.89331225614E+02  0.41800000000E+01 0. -1.
         -5    1    3    3    0  502 -0.37662450230E+02 -0.19135663235E+02 -0.23829787649E+02  0.48682285732E+02  0.41800000000E+01 0. -1.
        -11    1    1    2    0    0 -0.46511424946E+02 -0.27421085685E+02 -0.19569520350E+03  0.20300699807E+03  0.00000000000E+00 0. -1.
         11    1    1    2    0    0  0.28455536159E+02 -0.23134721098E+02 -0.31046141722E+02  0.48049930013E+02  0.00000000000E+00 0.  1.
</event>
<event>
 7    1  0.2612213E-009  0.1410349E+03  0.7561462E-02  0.1211943E+00
          2   -1    0    0  501    0  0.00000000000E+00  0.00000000000E+00  0.54765004000E+03  0.54765004000E+03  0.00000000000E+00 0. -1.
         -2   -1    0    0    0  501 -0.00000000000E+00 -0.00000000000E+00 -0.55780611978E+02  0.55780611978E+02  0.00000000000E+00 0.  1.
         25    2    1    2    0    0  0.79588601267E+02 -0.87236522794E+02  0.37678107192E+03  0.41419296587E+03  0.12508909009E+03 0.  0.
          5    1    3    3  502    0  0.13946324770E+02  0.10555339748E+02  0.20548255908E+03  0.20626795597E+03  0.41800000000E+01 0.  1.
         -5    1    3    3    0  502  0.65642276497E+02 -0.97791862543E+02  0.17129851284E+03  0.20792500991E+03  0.41800000000E+01 0.  1.
        -11    1    1    2    0    0 -0.20453174724E+02  0.84601163328E+02  0.89203975538E+02  0.12463161094E+03  0.00000000000E+00 0. -1.
         11    1    1    2    0    0 -0.59135426543E+02  0.26353594666E+01  0.25884380564E+02  0.64606075172E+02  0.00000000000E+00 0.  1.
</event>
<event>
 7    1  0.2612213E-009  0.1732070E+03  0.7561462E-02  0.1174544E+00
         -1   -1    0    0    0  501 -0.00000000000E+00  0.00000000000E+00  0.40466193205E+02  0.40466193205E+02  0.00000000000E+00 0.  1.
          1   -1    0    0  501    0  0.00000000000E+00 -0.00000000000E+00 -0.98445070184E+03  0.98445070184E+03  0.00000000000E+00 0. -1.
         25    2    1    2    0    0  0.13095514838E+03  0.73068404507E+02 -0.68394882597E+03  0.71128132520E+03  0.12508750701E+03 0.  0.
          5    1    3    3  502    0  0.61157610600E+02 -0.13833529119E+02 -0.11080187713E+03  0.12738189918E+03  0.41800000000E+01 0. -1.
         -5    1    3    3    0  502  0.69797537782E+02  0.86901933626E+02 -0.57314694884E+03  0.58389942603E+03  0.41800000000E+01 0. -1.
        -11    1    1    2    0    0 -0.46942425716E+02 -0.74443933984E+02 -0.10255022276E+03  0.13513711122E+03  0.00000000000E+00 0.  1.
         11    1    1    2    0    0 -0.84012722666E+02  0.13755294766E+01 -0.15748545990E+03  0.17849845862E+03  0.00000000000E+00 0. -1.
</event>
<event>
 7    1  0.2978123E-009  0.7645398E+02  0.7561462E-02  0.1339427E+00
          1   -1    0    0  501    0  0.00000000000E+00  0.00000000000E+00  0.42943224467E+03  0.42943224467E+03  0.00000000000E+00 0. -1.
         -1   -1    0    0    0  501 -0.00000000000E+00 -0.00000000000E+00 -0.36394694458E+02  0.36394694458E+02  0.00000000000E+00 0.  1.
         25    2    1    2    0    0 -0.18684797932E+02 -0.58940201067E+02  0.23034929688E+03  0.26931573066E+03  0.12508834970E+03 0.  0.
          5    1    3    3  502    0 -0.28980922940E+02 -0.22341239314E+02  0.10472655059E+01  0.36845542927E+02  0.41800000000E+01 0.  1.
         -5    1    3    3    0  502  0.10296125007E+02 -0.36598961752E+02  0.22930203137E+03  0.23247018773E+03  0.41800000000E+01 0.  1.
        -11    1    1    2    0    0  0.34755560494E+02  0.40198572576E+02  0.28951971892E+02  0.60515212127E+02  0.00000000000E+00 0.  1.
         11    1    1    2    0    0 -0.16070762562E+02  0.18741628491E+02  0.13373628144E+03  0.13599599634E+03  0.00000000000E+00 0. -1.
</event>
<event>
 7    1  0.2612213E-009  0.1563929E+03  0.7561462E-02  0.1192830E+00
         -2   -1    0    0    0  501 -0.00000000000E+00  0.00000000000E+00  0.71374854834E+03  0.71374854834E+03  0.00000000000E+00 0.  1.
          2   -1    0    0  501    0  0.00000000000E+00 -0.00000000000E+00 -0.49277882105E+02  0.49277882105E+02  0.00000000000E+00 0. -1.
         25    2    1    2    0    0 -0.10729877687E+03 -0.66460024118E+02  0.17852999181E+03  0.25189502785E+03  0.12509270465E+03 0.  0.
          5    1    3    3  502    0  0.21506279731E+02 -0.39863369362E+02  0.55409764510E+02  0.71689069514E+02  0.41800000000E+01 0. -1.
         -5    1    3    3    0  502 -0.12880505660E+03 -0.26596654756E+02  0.12312022730E+03  0.18020595834E+03  0.41800000000E+01 0. -1.
        -11    1    1    2    0    0  0.14744814885E+02 -0.81326890833E+01  0.80234156513E+01  0.18652758414E+02  0.00000000000E+00 0. -1.
         11    1    1    2    0    0  0.92553961982E+02  0.74592713201E+02  0.47791725877E+03  0.49247864418E+03  0.00000000000E+00 0.  1.
</event>
<event>
 7    1  0.2612213E-009  0.1287708E+03  0.7561462E-02  0.1229291E+00
         -1   -1    0    0    0  501 -0.00000000000E+00  0.00000000000E+00  0.57303313672E+03  0.57303313672E+03  0.00000000000E+00 0.  1.
          1   -1    0    0  501    0  0.00000000000E+00 -0.00000000000E+00 -0.34043358810E+02  0.34043358810E+02  0.00000000000E+00 0. -1.
         25    2    1    2    0    0  0.26541732281E+02 -0.75974423003E+02  0.37194110454E+03  0.40057975179E+03  0.12508947117E+03 0.  0.
          5    1    3    3  502    0  0.62961904236E+02  0.12242049488E+01  0.14864700536E+03  0.16149026183E+03  0.41800000000E+01 0. -1.
         -5    1    3    3    0  502 -0.36420171955E+02 -0.77198627952E+02  0.22329409918E+03  0.23908948996E+03  0.41800000000E+01 0. -1.
        -11    1    1    2    0    0 -0.33989761408E+02  0.13952840584E+01  0.15408851387E+02  0.37345460223E+02  0.00000000000E+00 0. -1.
         11    1    1    2    0    0  0.74480291275E+01  0.74579138945E+02  0.15163982198E+03  0.16915128351E+03  0.00000000000E+00 0.  1.
</event>
<event>
 7    1  0.2612213E-009  0.1400125E+03  0.7561462E-02  0.1213312E+00
         -1   -1    0    0    0  501 -0.00000000000E+00  0.00000000000E+00  0.15562261539E+02  0.15562261539E+02  0.00000000000E+00 0.  1.
          1   -1    0    0  501    0  0.00000000000E+00 -0.00000000000E+00 -0.13043313836E+04  0.13043313836E+04  0.00000000000E+00 0. -1.
         25    2    1    2    0    0 -0.74318420612E+02  0.44013113278E+02 -0.78465599303E+03  0.79924456637E+03  0.12508584131E+03 0.  0.
          5    1    3    3  502    0 -0.98312669023E+02 -0.32091138320E+01 -0.53738936274E+03  0.54633366992E+03  0.41800000000E+01 0. -1.
         -5    1    3    3    0  502  0.23994248411E+02  0.47222227110E+02 -0.24726663029E+03  0.25291089645E+03  0.41800000000E+01 0. -1.
        -11    1    1    2    0    0  0.82329155162E+02  0.13826573689E+01 -0.36200364854E+03  0.37125010853E+03  0.00000000000E+00 0.  1.
         11    1    1    2    0    0 -0.80107345502E+01 -0.45395770647E+02 -0.14210948052E+03  0.14939897026E+03  0.00000000000E+00 0. -1.
</event>
<event>
 7    1  0.2612213E-009  0.9384895E+02  0.7561462E-02  0.1293790E+00
          1   -1    0    0  501    0  0.00000000000E+00  0.00000000000E+00  0.33176552339E+03  0.33176552339E+03  0.00000000000E+00 0. -1.
         -1   -1    0    0    0  501 -0.00000000000E+00 -0.00000000000E+00 -0.92887888202E+02  0.92887888202E+02  0.00000000000E+00 0.  1.
         25    2    1    2    0    0  0.54767016143E+02  0.35685051659E+02 -0.20256113528E+02  0.14258422532E+03  0.12508837758E+03 0.  0.
          5    1    3    3  502    0  0.71996138124E+02  0.17518005813E+02 -0.59993783016E+02  0.95430869392E+02  0.41800000000E+01 0.  1.
         -5    1    3    3    0  502 -0.17229121981E+02  0.18167045846E+02  0.39737669488E+02  0.47153355929E+02  0.41800000000E+01 0.  1.
        -11    1    1    2    0    0  0.12320424166E+02 -0.46632024651E+00  0.25712671568E+00  0.12331926871E+02  0.00000000000E+00 0.  1.
         11    1    1    2    0    0 -0.67087440309E+02 -0.35218731413E+02  0.25887662200E+03  0.26973725940E+03  0.00000000000E+00 0. -1.
</event>
<event>
 7    1  0.2612213E-009  0.1050333E+03  0.7561462E-02  0.1270054E+00
          2   -1    0    0  501    0  0.00000000000E+00  0.00000000000E+00  0.14480158249E+03  0.14480158249E+03  0.00000000000E+00 0. -1.
         -2   -1    0    0    0  501 -0.00000000000E+00 -0.00000000000E+00 -0.11567152776E+03  0.11567152776E+03  0.00000000000E+00 0.  1.
         25    2    1    2    0    0 -0.62126223438E+02  0.30436468675E+02  0.29020230266E+02  0.14585912018E+03  0.12508662163E+03 0.  0.
          5    1    3    3  502    0 -0.15185760348E+01 -0.17507600725E+02  0.59877656840E+02  0.62543011959E+02  0.41800000000E+01 0.  1.
         -5    1    3    3    0  502 -0.60607647403E+02  0.47944069399E+02 -0.30857426574E+02  0.83316108221E+02  0.41800000000E+01 0.  1.
        -11    1    1    2    0    0  0.32675803380E+02  0.31902053497E+02 -0.30224499213E+00  0.45667718312E+02  0.00000000000E+00 0.  1.
         11    1    1    2    0    0  0.29450420058E+02 -0.62338522172E+02  0.41206945488E+00  0.68946271758E+02  0.00000000000E+00 0. -1.
</event>
<event>
 7    1  0.2612213E-009  0.1139231E+03  0.7561462E-02  0.1253473E+00
         -3   -1    0    0    0  501 -0.00000000000E+00  0.00000000000E+00  0.95791673410E+02  0.95791673410E+02  0.00000000000E+00 0.  1.
          3   -1    0    0  501    0  0.00000000000E+00 -0.00000000000E+00 -0.14252503438E+03  0.14252503438E+03  0.00000000000E+00 0. -1.
         25    2    1    2    0    0 -0.24444771345E+02  0.34076055963E+02 -0.32604016670E+02  0.13590206391E+03  0.12509046581E+03 0.  0.
          5    1    3    3  502    0 -0.72718272084E+02  0.14920180087E+02  0.16476721558E+00  0.74350914029E+02  0.41800000000E+01 0.  1.
         -5    1    3    3    0  502  0.48273500739E+02  0.19155875876E+02 -0.32768783886E+02  0.61551149880E+02  0.41800000000E+01 0.  1.
        -11    1    1    2    0    0  0.59585127288E+02 -0.27571221785E+02 -0.10573848119E+02  0.66500871638E+02  0.00000000000E+00 0.  1.
         11    1    1    2    0    0 -0.35140355942E+02 -0.65048341780E+01 -0.35554961780E+01  0.35913772240E+02  0.00000000000E+00 0. -1.
</event>
<event>
 7    1  0.2612213E-009  0.1181449E+03  0.7561462E-02  0.1246189E+00
          1   -1    0    0  501    0  0.00000000000E+00  0.00000000000E+00  0.12196619412E+03  0.12196619412E+03  0.00000000000E+00 0. -1.
         -1   -1    0    0    0  501 -0.00000000000E+00 -0.00000000000E+00 -0.18947730737E+03  0.18947730737E+03  0.00000000000E+00 0.  1.
         25    2    1    2    0    0  0.54551522491E+02 -0.88281494941E+02 -0.14610797377E+02  0.16320671114E+03  0.12511380502E+03 0.  0.
          5    1    3    3  502    0  0.67675621086E+00 -0.14749732384E+02  0.49409123838E+02  0.51737283682E+02  0.41800000000E+01 0.  1.
         -5    1    3    3    0  502  0.53874766280E+02 -0.73531762557E+02 -0.64019921214E+02  0.11146942746E+03  0.41800000000E+01 0.  1.
        -11    1    1    2    0    0  0.19281285598E+02  0.29848994602E+02 -0.39497939842E+02  0.53130195791E+02  0.00000000000E+00 0.  1.
         11    1    1    2    0    0 -0.73832808089E+02  0.58432500339E+02 -0.13402376029E+02  0.95106594563E+02  0.00000000000E+00 0. -1.
</event>
<event>
 7    1  0.2612213E-009  0.8920030E+02  0.7561462E-02  0.1304800E+00
          1   -1    0    0  501    0  0.00000000000E+00  0.00000000000E+00  0.33826423517E+03  0.33826423517E+03  0.00000000000E+00 0. -1.
         -1   -1    0    0    0  501 -0.00000000000E+00 -0.00000000000E+00 -0.41077017643E+02  0.41077017643E+02  0.00000000000E+00 0.  1.
         25    2    1    2    0    0  0.19332725648E+02  0.42052371355E+02  0.11806276598E+03  0.17812741293E+03  0.12509357420E+03 0.  0.
          5    1    3    3  502    0  0.48032477668E+02  0.53878707892E+02  0.19756491559E+02  0.74952154297E+02  0.41800000000E+01 0.  1.
         -5    1    3    3    0  502 -0.28699752021E+02 -0.11826336537E+02  0.98306274425E+02  0.10317525863E+03  0.41800000000E+01 0.  1.
        -11    1    1    2    0    0  0.18361575456E+02 -0.76933917138E-01  0.62971223831E+01  0.19411520351E+02  0.00000000000E+00 0.  1.
         11    1    1    2    0    0 -0.37694301103E+02 -0.41975437438E+02  0.17282732916E+03  0.18180231953E+03  0.00000000000E+00 0. -1.
</event>
<event>
 7    1  0.2612213E-009  0.1102915E+03  0.7561462E-02  0.1260031E+00
          2   -1    0    0  501    0  0.00000000000E+00  0.00000000000E+00  0.36653021308E+03  0.36653021308E+03  0.00000000000E+00 0. -1.
         -2   -1    0    0    0  501 -0.00000000000E+00 -0.00000000000E+00 -0.37855432539E+02  0.37855432539E+02  0.00000000000E+00 0.  1.
         25    2    1    2    0    0 -0.28408354052E+02  0.35526953232E+02  0.18034949750E+03  0.22415083792E+03  0.12509379643E+03 0.  0.
          5    1    3    3  502    0 -0.31615258513E+02 -0.43128376718E+02  0.62427671223E+02  0.82305941362E+02  0.41800000000E+01 0.  1.
         -5    1    3    3    0  502  0.32069044616E+01  0.78655329950E+02  0.11792182628E+03  0.14184489656E+03  0.41800000000E+01 0.  1.
        -11    1    1    2    0    0  0.48425632096E+02 -0.44874490100E+02  0.14300740554E+03  0.15751152257E+03  0.00000000000E+00 0. -1.
         11    1    1    2    0    0 -0.20017278044E+02  0.93475368683E+01  0.53178775028E+01  0.22723285126E+02  0.00000000000E+00 0.  1.
</event>
<event>
 7    1  0.2612213E-009  0.2646158E+03  0.7561462E-02  0.1104401E+00
         -1   -1    0    0    0  501 -0.00000000000E+00  0.00000000000E+00  0.63296713056E+02  0.63296713056E+02  0.00000000000E+00 0.  1.
          1   -1    0    0  501    0  0.00000000000E+00 -0.00000000000E+00 -0.11278567544E+04  0.11278567544E+04  0.00000000000E+00 0. -1.
         25    2    1    2    0    0 -0.17886680952E+03 -0.16366995685E+03 -0.49137352118E+03  0.56202896634E+03  0.12508969329E+03 0.  0.
          5    1    3    3  502    0 -0.14765733964E+02  0.20588310271E+02 -0.38351080877E+02  0.46153908001E+02  0.41800000000E+01 0.  1.
         -5    1    3    3    0  502 -0.16410107555E+03 -0.18425826712E+03 -0.45302244030E+03  0.51587505834E+03  0.41800000000E+01 0.  1.
        -11    1    1    2    0    0  0.12139358173E+03  0.15767717987E+03 -0.40414745695E+03  0.45048158864E+03  0.00000000000E+00 0.  1.
         11    1    1    2    0    0  0.57473227792E+02  0.59927769719E+01 -0.16903906325E+03  0.17864291252E+03  0.00000000000E+00 0. -1.
</event>
<event>
 7    1  0.2612213E-009  0.1566393E+03  0.7561462E-02  0.1192544E+00
          2   -1    0    0  501    0  0.00000000000E+00  0.00000000000E+00  0.18561436869E+04  0.18561436869E+04  0.00000000000E+00 0. -1.
         -2   -1    0    0    0  501 -0.00000000000E+00 -0.00000000000E+00 -0.21854647303E+02  0.21854647303E+02  0.00000000000E+00 0.  1.
         25    2    1    2    0    0 -0.62993419953E+02  0.11255419175E+03  0.14743727113E+04  0.14852806047E+04  0.12508783177E+03 0.  0.
          5    1    3    3  502    0 -0.48730753335E+02  0.13853410493E+03  0.13092586529E+04  0.13174756457E+04  0.41800000000E+01 0. -1.
         -5    1    3    3    0  502 -0.14262666618E+02 -0.25979913173E+02  0.16511405845E+03  0.16780495894E+03  0.41800000000E+01 0. -1.
        -11    1    1    2    0    0 -0.25384485503E+01 -0.34170428489E+02  0.24597547244E+02  0.42179393483E+02  0.00000000000E+00 0.  1.
         11    1    1    2    0    0  0.65531868503E+02 -0.78383763265E+02  0.33531878099E+03  0.35053833602E+03  0.00000000000E+00 0. -1.
</event>
<event>
 7    1  0.2612213E-009  0.1342325E+03  0.7561462E-02  0.1221307E+00
          1   -1    0    0  501    0  0.00000000000E+00  0.00000000000E+00  0.16750582297E+04  0.16750582297E+04  0.00000000000E+00 0. -1.
         -1   -1    0    0    0  501 -0.00000000000E+00 -0.00000000000E+00 -0.15217224012E+02  0.15217224012E+02  0.00000000000E+00 0.  1.
         25    2    1    2    0    0 -0.58350091573E+02 -0.71673354683E+02  0.12651422260E+04  0.12746664371E+04  0.12509145035E+03 0.  0.
          5    1    3    3  502    0 -0.91454627207E+01  0.27536915102E+02  0.98427945841E+02  0.10270079895E+03  0.41800000000E+01 0. -1.
         -5    1    3    3    0  502 -0.49204628852E+02 -0.99210269785E+02  0.11667142802E+04  0.11719656382E+04  0.41800000000E+01 0. -1.
        -11    1    1    2    0    0  0.80653278745E+02  0.68468861465E+02  0.29504808249E+03  0.31344266995E+03  0.00000000000E+00 0. -1.
         11    1    1    2    0    0 -0.22303187172E+02  0.32044932187E+01  0.99650697154E+02  0.10216634660E+03  0.00000000000E+00 0.  1.
</event>
<event>
 7    1  0.2612213E-009  0.1836402E+03  0.7561462E-02  0.1164326E+00
         -1   -1    0    0    0  501 -0.00000000000E+00  0.00000000000E+00  0.10548192917E+03  0.10548192917E+03  0.00000000000E+00 0. -1.
          1   -1    0    0  501    0  0.00000000000E+00 -0.00000000000E+00 -0.38291009982E+03  0.38291009982E+03  0.00000000000E+00 0.  1.
         25    2    1    2    0    0  0.14886263201E+03  0.68375202733E+02 -0.10464495813E+03  0.23116041462E+03  0.12509723606E+03 0.  0.
          5    1    3    3  502    0  0.59024727692E+02  0.85890290807E+02 -0.91209562617E+02  0.13855582718E+03  0.41800000000E+01 0.  1.
         -5    1    3    3    0  502  0.89837904314E+02 -0.17515088073E+02 -0.13435395512E+02  0.92604587436E+02  0.41800000000E+01 0.  1.
        -11    1    1    2    0    0 -0.20123789973E+02  0.80120286761E+01 -0.75875557390E+02  0.78906652036E+02  0.00000000000E+00 0.  1.
         11    1    1    2    0    0 -0.12873884203E+03 -0.76387231409E+02 -0.96907655131E+02  0.17832496234E+03  0.00000000000E+00 0. -1.
</event>
<event>
 7    1  0.2612213E-009  0.1289698E+03  0.7561462E-02  0.1228992E+00
         -1   -1    0    0    0  501 -0.00000000000E+00  0.00000000000E+00  0.17606586910E+03  0.17606586910E+03  0.00000000000E+00 0.  1.
          1   -1    0    0  501    0  0.00000000000E+00 -0.00000000000E+00 -0.11796024591E+03  0.11796024591E+03  0.00000000000E+00 0. -1.
         25    2    1    2    0    0  0.49318389133E+01 -0.93229812958E+02  0.18295067236E+02  0.15715339869E+03  0.12508541152E+03 0.  0.
          5    1    3    3  502    0  0.39514201320E+02 -0.16331042830E+02 -0.36614725141E+02  0.56446306904E+02  0.41800000000E+01 0.  1.
         -5    1    3    3    0  502 -0.34582362407E+02 -0.76898770128E+02  0.54909792378E+02  0.10070709179E+03  0.41800000000E+01 0.  1.
        -11    1    1    2    0    0 -0.33323055421E+02  0.23167105099E+00  0.14861612225E+02  0.36487630945E+02  0.00000000000E+00 0.  1.
         11    1    1    2    0    0  0.28391216508E+02  0.92998141907E+02  0.24948943730E+02  0.10038508538E+03  0.00000000000E+00 0. -1.
</event>
<event>
 7    1  0.2612213E-009  0.1756809E+03  0.7561462E-02  0.1172050E+00
          1   -1    0    0  501    0  0.00000000000E+00  0.00000000000E+00  0.36157981074E+03  0.36157981074E+03  0.00000000000E+00 0. -1.
         -1   -1    0    0    0  501 -0.00000000000E+00 -0.00000000000E+00 -0.12982915673E+03  0.12982915673E+03  0.00000000000E+00 0.  1.
         25    2    1    2    0    0  0.13516953501E+03 -0.43730187414E+02 -0.17404948427E+02  0.19008866311E+03  0.12509050774E+03 0.  0.
          5    1    3    3  502    0  0.64827882484E+02  0.39872383574E+02  0.11273518898E+02  0.77052098917E+02  0.41800000000E+01 0. -1.
         -5    1    3    3    0  502  0.70341652527E+02 -0.83602570988E+02 -0.28678467325E+02  0.11303656419E+03  0.41800000000E+01 0. -1.
        -11    1    1    2    0    0 -0.13216932310E+03  0.10663989865E+02  0.17086689841E+03  0.21628210194E+03  0.00000000000E+00 0.  1.
         11    1    1    2    0    0 -0.30002119146E+01  0.33066197549E+02  0.78288704037E+02  0.85038202425E+02  0.00000000000E+00 0. -1.
</event>
<event>
 7    1  0.2612213E-009  0.1155583E+03  0.7561462E-02  0.1250610E+00
          2   -1    0    0  501    0  0.00000000000E+00  0.00000000000E+00  0.17758208915E+03  0.17758208915E+03  0.00000000000E+00 0. -1.
         -2   -1    0    0    0  501 -0.00000000000E+00 -0.00000000000E+00 -0.14454114950E+03  0.14454114950E+03  0.00000000000E+00 0.  1.
         25    2    1    2    0    0 -0.98104403229E+02  0.50223738393E+02  0.61734588836E+02  0.17777879211E+03  0.12508893490E+03 0.  0.
          5    1    3    3  502    0 -0.28883836414E+02  0.41894700567E+02  0.89158209852E+02  0.10274288650E+03  0.41800000000E+01 0.  1.
         -5    1    3    3    0  502 -0.69220566815E+02  0.83290378259E+01 -0.27423621016E+02  0.75035905611E+02  0.41800000000E+01 0.  1.
        -11    1    1    2    0    0  0.14248909062E+02 -0.74516888136E+01  0.29555116911E+02  0.33646158938E+02  0.00000000000E+00 0. -1.
         11    1    1    2    0    0  0.83855494167E+02 -0.42772049580E+02 -0.58248766100E+02  0.11069828761E+03  0.00000000000E+00 0.  1.
</event>
<event>
 7    1  0.2612213E-009  0.1342411E+03  0.7561462E-02  0.1221295E+00
          2   -1    0    0  501    0  0.00000000000E+00  0.00000000000E+00  0.62023288032E+03  0.62023288032E+03  0.00000000000E+00 0. -1.
         -2   -1    0    0    0  501 -0.00000000000E+00 -0.00000000000E+00 -0.33946659062E+02  0.33946659062E+02  0.00000000000E+00 0.  1.
         25    2    1    2    0    0  0.54925643050E+02 -0.70873842029E+02  0.23815546294E+03  0.28357880507E+03  0.12513587180E+03 0.  0.
          5    1    3    3  502    0  0.93299198391E+02 -0.34712805859E+02  0.17318645661E+03  0.19980175290E+03  0.41800000000E+01 0.  1.
         -5    1    3    3    0  502 -0.38373555341E+02 -0.36161036171E+02  0.64969006329E+02  0.83777052167E+02  0.41800000000E+01 0.  1.
        -11    1    1    2    0    0  0.17084963522E+02  0.25984761548E+02  0.17559024510E+03  0.17832284763E+03  0.00000000000E+00 0. -1.
         11    1    1    2    0    0 -0.72010606573E+02  0.44889080482E+02  0.17254051323E+03  0.19227788669E+03  0.00000000000E+00 0.  1.
</event>
<event>
 7    1  0.2612213E-009  0.9335492E+02  0.7561462E-02  0.1294925E+00
          1   -1    0    0  501    0  0.00000000000E+00  0.00000000000E+00  0.78758140260E+02  0.78758140260E+02  0.00000000000E+00 0. -1.
         -1   -1    0    0    0  501 -0.00000000000E+00 -0.00000000000E+00 -0.25376150331E+03  0.25376150331E+03  0.00000000000E+00 0.  1.
         25    2    1    2    0    0  0.14693188082E+02  0.74076568827E+02 -0.36350922048E+02  0.15057242093E+03  0.12508971415E+03 0.  0.
          5    1    3    3  502    0  0.33436660634E+02  0.22974636713E+02 -0.73835808055E+02  0.84350715217E+02  0.41800000000E+01 0.  1.
         -5    1    3    3    0  502 -0.18743472552E+02  0.51101932114E+02  0.37484886007E+02  0.66221705717E+02  0.41800000000E+01 0.  1.
        -11    1    1    2    0    0  0.14346047580E+02 -0.54393473279E+02 -0.22455271837E+02  0.60569780004E+02  0.00000000000E+00 0. -1.
         11    1    1    2    0    0 -0.29039235662E+02 -0.19683095548E+02 -0.11619716916E+03  0.12137744263E+03  0.00000000000E+00 0.  1.
</event>
<event>
 7    1  0.2612213E-009  0.1265436E+03  0.7561462E-02  0.1232677E+00
          1   -1    0    0  501    0  0.00000000000E+00  0.00000000000E+00  0.11562490002E+03  0.11562490002E+03  0.00000000000E+00 0. -1.
         -1   -1    0    0    0  501 -0.00000000000E+00 -0.00000000000E+00 -0.17128416449E+03  0.17128416449E+03  0.00000000000E+00 0.  1.
         25    2    1    2    0    0  0.62565785696E+02  0.49190572964E+02  0.71707113096E+01  0.14843737906E+03  0.12509215160E+03 0.  0.
          5    1    3    3  502    0  0.96898572633E+02  0.51901837399E+02  0.19305404605E+02  0.11168395207E+03  0.41800000000E+01 0.  1.
         -5    1    3    3    0  502 -0.34332786937E+02 -0.27112644357E+01 -0.12134693296E+02  0.36753426984E+02  0.41800000000E+01 0.  1.
        -11    1    1    2    0    0 -0.63600930333E+02 -0.45759745972E+01 -0.68384056924E+02  0.93500786757E+02  0.00000000000E+00 0.  1.
         11    1    1    2    0    0  0.10351446372E+01 -0.44614598366E+02  0.55540811520E+01  0.44970898693E+02  0.00000000000E+00 0. -1.
</event>
<event>
 7    1  0.2612213E-009  0.8402595E+02  0.7561462E-02  0.1318000E+00
         -2   -1    0    0    0  501 -0.00000000000E+00  0.00000000000E+00  0.18229243319E+02  0.18229243319E+02  0.00000000000E+00 0.  1.
          2   -1    0    0  501    0  0.00000000000E+00 -0.00000000000E+00 -0.84949119250E+03  0.84949119250E+03  0.00000000000E+00 0. -1.
         25    2    1    2    0    0 -0.74931355520E+01 -0.46013016414E+02 -0.59695902712E+03  0.61170246635E+03  0.12508590056E+03 0.  0.
          5    1    3    3  502    0  0.10997017890E+02 -0.50144644708E+02 -0.85080938854E+02  0.99456816517E+02  0.41800000000E+01 0. -1.
         -5    1    3    3    0  502 -0.18490153442E+02  0.41316282933E+01 -0.51187808827E+03  0.51224564984E+03  0.41800000000E+01 0. -1.
        -11    1    1    2    0    0  0.30192368171E+02  0.62283504140E+02 -0.20083688815E+03  0.21242944623E+03  0.00000000000E+00 0. -1.
         11    1    1    2    0    0 -0.22699232619E+02 -0.16270487726E+02 -0.33466033903E+02  0.43588523232E+02  0.00000000000E+00 0.  1.
</event>
<event>
 7    1  0.2612213E-009  0.1222158E+03  0.7561462E-02  0.1239486E+00
         -2   -1    0    0    0  501 -0.00000000000E+00  0.00000000000E+00  0.61092311175E+02  0.61092311175E+02  0.00000000000E+00 0.  1.
          2   -1    0    0  501    0  0.00000000000E+00 -0.00000000000E+00 -0.32698963034E+03  0.32698963034E+03  0.00000000000E+00 0. -1.
         25    2    1    2    0    0  0.15759641518E+02  0.87614247940E+02 -0.16673650701E+03  0.22665681448E+03  0.12509047140E+03 0.  0.
          5    1    3    3  502    0 -0.42332396643E+02  0.76828746929E+02 -0.13024556700E+03  0.15708618107E+03  0.41800000000E+01 0. -1.
         -5    1    3    3    0  502  0.58092038161E+02  0.10785501011E+02 -0.36490940013E+02  0.69570633408E+02  0.41800000000E+01 0. -1.
        -11    1    1    2    0    0 -0.29113744913E+02 -0.58153720469E+02 -0.90204119136E+01  0.65656935493E+02  0.00000000000E+00 0.  1.
         11    1    1    2    0    0  0.13354103394E+02 -0.29460527470E+02 -0.90140400244E+02  0.95768191549E+02  0.00000000000E+00 0. -1.
</event>
<event>
 7    1  0.2612213E-009  0.3152028E+03  0.7561462E-02  0.1077879E+00
          2   -1    0    0  501    0  0.00000000000E+00  0.00000000000E+00  0.19531618150E+03  0.19531618150E+03  0.00000000000E+00 0. -1.
         -2   -1    0    0    0  501 -0.00000000000E+00 -0.00000000000E+00 -0.53952816466E+03  0.53952816466E+03  0.00000000000E+00 0.  1.
         25    2    1    2    0    0 -0.28087576868E+03  0.11993564412E+03 -0.16444328551E+03  0.36873448022E+03  0.12509103323E+03 0.  0.
          5    1    3    3  502    0 -0.19397843664E+02  0.30252128619E+02 -0.66004649542E+02  0.75269873030E+02  0.41800000000E+01 0. -1.
         -5    1    3    3    0  502 -0.26147792502E+03  0.89683515496E+02 -0.98438635964E+02  0.29346460719E+03  0.41800000000E+01 0. -1.
        -11    1    1    2    0    0  0.12805973829E+03 -0.10235834129E+03 -0.10838896841E+03  0.19653166430E+03  0.00000000000E+00 0.  1.
         11    1    1    2    0    0  0.15281603040E+03 -0.17577302827E+02 -0.71379729241E+02  0.16957820163E+03  0.00000000000E+00 0. -1.
</event>
<event>
 7    1  0.2612213E-009  0.1544660E+03  0.7561462E-02  0.1195090E+00
         -1   -1    0    0    0  501 -0.00000000000E+00  0.00000000000E+00  0.80773166370E+02  0.80773166370E+02  0.00000000000E+00 0.  1.
          1   -1    0    0  501    0  0.00000000000E+00 -0.00000000000E+00 -0.62610244442E+03  0.62610244442E+03  0.00000000000E+00 0. -1.
         25    2    1    2    0    0 -0.94014667655E+02  0.90880354180E+02 -0.51281615372E+03  0.54380803415E+03  0.12509505976E+03 0.  0.
          5    1    3    3  502    0 -0.35120119917E+02  0.10008378355E+03 -0.21172084313E+03  0.23684039852E+03  0.41800000000E+01 0. -1.
         -5    1    3    3    0  502 -0.58894547738E+02 -0.92034293748E+01 -0.30109531059E+03  0.30696763563E+03  0.41800000000E+01 0. -1.
        -11    1    1    2    0    0  0.85765932104E+02 -0.45859678252E+02  0.13473314539E+02  0.98185718940E+02  0.00000000000E+00 0.  1.
         11    1    1    2    0    0  0.82487355515E+01 -0.45020675927E+02 -0.45986438862E+02  0.64881857698E+02  0.00000000000E+00 0. -1.
</event>
<event>
 7    1  0.2612213E-009  0.1387346E+03  0.7561462E-02  0.1215042E+00
          2   -1    0    0  501    0  0.00000000000E+00  0.00000000000E+00  0.20510020294E+03  0.20510020294E+03  0.00000000000E+00 0. -1.
         -2   -1    0    0    0  501 -0.00000000000E+00 -0.00000000000E+00 -0.15232101883E+03  0.15232101883E+03  0.00000000000E+00 0.  1.
         25    2    1    2    0    0 -0.39308254962E+02 -0.11681103690E+03  0.93084034909E+02  0.19874938416E+03  0.12508686142E+03 0.  0.
          5    1    3    3  502    0 -0.22447315611E+02 -0.21267778515E+02  0.96662183754E+02  0.10157386745E+03  0.41800000000E+01 0. -1.
         -5    1    3    3    0  502 -0.16860939351E+02 -0.95543258388E+02 -0.35781488451E+01  0.97175516712E+02  0.41800000000E+01 0. -1.
        -11    1    1    2    0    0 -0.41586160456E+01 -0.12268524721E+02 -0.15549828538E+02  0.20238773525E+02  0.00000000000E+00 0.  1.
         11    1    1    2    0    0  0.43466871008E+02  0.12907956162E+03 -0.24755022252E+02  0.13843306408E+03  0.00000000000E+00 0. -1.
</event>
<event>
 7    1  0.2612213E-009  0.6898037E+02  0.7561462E-02  0.1363595E+00
         -2   -1    0    0    0  501 -0.00000000000E+00  0.00000000000E+00  0.30947232612E+03  0.30947232612E+03  0.00000000000E+00 0.  1.
          2   -1    0    0  501    0  0.00000000000E+00 -0.00000000000E+00 -0.41881733112E+02  0.41881733112E+02  0.00000000000E+00 0. -1.
         25    2    1    2    0    0  0.19119805358E+02 -0.11774381475E+02  0.11731038360E+03  0.17295598526E+03  0.12509134150E+03 0.  0.
          5    1    3    3  502    0 -0.22450670369E+02  0.27721721767E+02 -0.64517232144E+01  0.36491418034E+02  0.41800000000E+01 0.  1.
         -5    1    3    3    0  502  0.41570475728E+02 -0.39496103242E+02  0.12376210681E+03  0.13646456722E+03  0.41800000000E+01 0.  1.
        -11    1    1    2    0    0 -0.85289111304E+01  0.25686730649E+02  0.15725958818E+03  0.15957170342E+03  0.00000000000E+00 0.  1.
         11    1    1    2    0    0 -0.10590894228E+02 -0.13912349174E+02 -0.69793787798E+01  0.18826370554E+02  0.00000000000E+00 0. -1.
</event>
<event>
 7    1  0.2612213E-009  0.3021781E+03  0.7561462E-02  0.1084157E+00
         -2   -1    0    0    0  501 -0.00000000000E+00  0.00000000000E+00  0.71205854221E+03  0.71205854221E+03  0.00000000000E+00 0.  1.
          2   -1    0    0  501    0  0.00000000000E+00 -0.00000000000E+00 -0.15770967124E+03  0.15770967124E+03  0.00000000000E+00 0. -1.
         25    2    1    2    0    0 -0.15356644177E+03 -0.23606556227E+03  0.95868342110E+02  0.32271745568E+03  0.12508483302E+03 0.  0.
          5    1    3    3  502    0 -0.87461529293E+02 -0.34768101946E+02  0.12687957705E+02  0.95062067566E+02  0.41800000000E+01 0. -1.
         -5    1    3    3    0  502 -0.66104912481E+02 -0.20129746032E+03  0.83180384405E+02  0.22765538811E+03  0.41800000000E+01 0. -1.
        -11    1    1    2    0    0  0.14608508700E+03  0.14153568214E+03  0.30326474425E+03  0.36516120696E+03  0.00000000000E+00 0.  1.
         11    1    1    2    0    0  0.74813547730E+01  0.94529880127E+02  0.15521578461E+03  0.18188955082E+03  0.00000000000E+00 0. -1.
</event>
<event>
 7    1  0.2612213E-009  0.1113842E+03  0.7561462E-02  0.1258028E+00
         -2   -1    0    0    0  501 -0.00000000000E+00  0.00000000000E+00  0.14259445013E+02  0.14259445013E+02  0.00000000000E+00 0.  1.
          2   -1    0    0  501    0  0.00000000000E+00 -0.00000000000E+00 -0.15867378047E+04  0.15867378047E+04  0.00000000000E+00 0. -1.
         25    2    1    2    0    0  0.14633028809E+02 -0.67398119778E+02 -0.12684374975E+04  0.12764545483E+04  0.12508355891E+03 0.  0.
          5    1    3    3  502    0 -0.39953015912E+02 -0.41878279682E+02 -0.98223572045E+03  0.98394843194E+03  0.41800000000E+01 0.  1.
         -5    1    3    3    0  502  0.54586044722E+02 -0.25519840096E+02 -0.28620177709E+03  0.29250611639E+03  0.41800000000E+01 0.  1.
        -11    1    1    2    0    0 -0.25861990587E+02 -0.87978131010E+01 -0.14833751526E+03  0.15083190149E+03  0.00000000000E+00 0.  1.
         11    1    1    2    0    0  0.11228961777E+02  0.76195932879E+02 -0.15570334693E+03  0.17371079994E+03  0.00000000000E+00 0. -1.
</event>
<event>
 7    1  0.2612213E-009  0.9055482E+02  0.7561462E-02  0.1301514E+00
         -1   -1    0    0    0  501 -0.00000000000E+00  0.00000000000E+00  0.11064155992E+03  0.11064155992E+03  0.00000000000E+00 0.  1.
          1   -1    0    0  501    0  0.00000000000E+00 -0.00000000000E+00 -0.15844151303E+03  0.15844151303E+03  0.00000000000E+00 0. -1.
         25    2    1    2    0    0  0.62859674828E+02 -0.25310600987E+01  0.19111071542E+02  0.14131452277E+03  0.12508723478E+03 0.  0.
          5    1    3    3  502    0  0.70502667472E+02 -0.36922936716E+02 -0.26085855077E+02  0.83856267574E+02  0.41800000000E+01 0.  1.
         -5    1    3    3    0  502 -0.76429926440E+01  0.34391876617E+02  0.45196926619E+02  0.57458255191E+02  0.41800000000E+01 0.  1.
        -11    1    1    2    0    0 -0.35729008222E+02  0.11217622663E+02  0.15532512167E+02  0.40542027835E+02  0.00000000000E+00 0.  1.
         11    1    1    2    0    0 -0.27130666605E+02 -0.86865625642E+01 -0.82443536815E+02  0.87226522356E+02  0.00000000000E+00 0. -1.
</event>
<event>
 7    1  0.2612213E-009  0.1121310E+03  0.7561462E-02  0.1256674E+00
         -2   -1    0    0    0  501 -0.00000000000E+00  0.00000000000E+00  0.11685041669E+02  0.11685041669E+02  0.00000000000E+00 0.  1.
          2   -1    0    0  501    0  0.00000000000E+00 -0.00000000000E+00 -0.12304976960E+04  0.12304976960E+04  0.00000000000E+00 0. -1.
         25    2    1    2    0    0  0.22911554164E+02  0.38353277982E+02 -0.81096852084E+03  0.82177340997E+03  0.12508270178E+03 0.  0.
          5    1    3    3  502    0  0.13361970448E+02  0.80076288621E+02 -0.65354853432E+03  0.65858478070E+03  0.41800000000E+01 0. -1.
         -5    1    3    3    0  502  0.95495837156E+01 -0.41723010640E+02 -0.15741998652E+03  0.16318862927E+03  0.41800000000E+01 0. -1.
        -11    1    1    2    0    0 -0.57156965189E+01  0.29458223454E+02 -0.87088607638E+02  0.92113417568E+02  0.00000000000E+00 0.  1.
         11    1    1    2    0    0 -0.17195857645E+02 -0.67811501436E+02 -0.32075552582E+03  0.32829591011E+03  0.00000000000E+00 0. -1.
</event>
<event>
 7    1  0.2612213E-009  0.1588964E+03  0.7561462E-02  0.1189948E+00
         -1   -1    0    0    0  501 -0.00000000000E+00  0.00000000000E+00  0.35729537307E+02  0.35729537307E+02  0.00000000000E+00 0.  1.
          1   -1    0    0  501    0  0.00000000000E+00 -0.00000000000E+00 -0.13518925804E+04  0.13518925804E+04  0.00000000000E+00 0. -1.
         25    2    1    2    0    0  0.43637740129E+02 -0.15194645896E+03 -0.10199394118E+04  0.10396692409E+04  0.12507496978E+03 0.  0.
          5    1    3    3  502    0  0.31085972147E+02 -0.12553696343E+03 -0.98691873982E+03  0.99536522858E+03  0.41800000000E+01 0. -1.
         -5    1    3    3    0  502  0.12551767982E+02 -0.26409495528E+02 -0.33020671973E+02  0.44304012358E+02  0.41800000000E+01 0. -1.
        -11    1    1    2    0    0 -0.22144613568E+01  0.29750092779E+02 -0.15001874044E+03  0.15295618439E+03  0.00000000000E+00 0. -1.
         11    1    1    2    0    0 -0.41423278772E+02  0.12219636618E+03 -0.14620489088E+03  0.19499669240E+03  0.00000000000E+00 0.  1.
</event>
<event>
 7    1  0.2612213E-009  0.8568007E+02  0.7561462E-02  0.1313664E+00
         -1   -1    0    0    0  501 -0.00000000000E+00  0.00000000000E+00  0.47269763621E+03  0.47269763621E+03  0.00000000000E+00 0.  1.
          1   -1    0    0  501    0  0.00000000000E+00 -0.00000000000E+00 -0.30227321461E+02  0.30227321461E+02  0.00000000000E+00 0. -1.
         25    2    1    2    0    0  0.13083617884E+02 -0.33015607484E+02  0.33579806899E+03  0.36010000340E+03  0.12510179020E+03 0.  0.
          5    1    3    3  502    0 -0.43934059327E+02  0.14062383645E+02  0.20129724769E+03  0.20655751386E+03  0.41800000000E+01 0.  1.
         -5    1    3    3    0  502  0.57017677210E+02 -0.47077991129E+02  0.13450082130E+03  0.15354248954E+03  0.41800000000E+01 0.  1.
        -11    1    1    2    0    0  0.11494146370E+02  0.20254483833E+02  0.11219490752E+03  0.11458645988E+03  0.00000000000E+00 0.  1.
         11    1    1    2    0    0 -0.24577764254E+02  0.12761123651E+02 -0.55226617599E+01  0.28238494391E+02  0.00000000000E+00 0. -1.
</event>
<event>
 7    1  0.2612213E-009  0.1091720E+03  0.7561462E-02  0.1262111E+00
         -4   -1    0    0    0  501 -0.00000000000E+00  0.00000000000E+00  0.19203745252E+03  0.19203745252E+03  0.00000000000E+00 0.  1.
          4   -1    0    0  501    0  0.00000000000E+00 -0.00000000000E+00 -0.11850155890E+03  0.11850155890E+03  0.00000000000E+00 0. -1.
         25    2    1    2    0    0 -0.56240056397E+02  0.86393031876E+02  0.22346861178E+02  0.16364883064E+03  0.12511937366E+03 0.  0.
          5    1    3    3  502    0 -0.36382889590E+02  0.56667756962E+02  0.74353038343E+02  0.10040316750E+03  0.41800000000E+01 0.  1.
         -5    1    3    3    0  502 -0.19857166808E+02  0.29725274915E+02 -0.52006177165E+02  0.63245663137E+02  0.41800000000E+01 0.  1.
        -11    1    1    2    0    0  0.32840772921E+02 -0.85359517378E+02  0.71340478071E+02  0.11599235916E+03  0.00000000000E+00 0.  1.
         11    1    1    2    0    0  0.23399283476E+02 -0.10335144986E+01 -0.20151445635E+02  0.30897821615E+02  0.00000000000E+00 0. -1.
</event>
<event>
 7    1  0.2612213E-009  0.6888035E+02  0.7561462E-02  0.1363942E+00
         -3   -1    0    0    0  501 -0.00000000000E+00  0.00000000000E+00  0.36138928601E+02  0.36138928601E+02  0.00000000000E+00 0.  1.
          3   -1    0    0  501    0  0.00000000000E+00 -0.00000000000E+00 -0.37319631671E+03  0.37319631671E+03  0.00000000000E+00 0. -1.
         25    2    1    2    0    0 -0.21856759773E+02 -0.25627564045E+02 -0.23492262278E+03  0.26827170830E+03  0.12508629339E+03 0.  0.
          5    1    3    3  502    0  0.28443893463E+02 -0.16870575747E+02 -0.62291717095E+01  0.33910859345E+02  0.41800000000E+01 0.  1.
         -5    1    3    3    0  502 -0.50300653235E+02 -0.87569882973E+01 -0.22869345107E+03  0.23436084896E+03  0.41800000000E+01 0.  1.
        -11    1    1    2    0    0  0.33325023375E+02  0.12075131388E+02 -0.11421579066E+03  0.11958935077E+03  0.00000000000E+00 0. -1.
         11    1    1    2    0    0 -0.11468263602E+02  0.13552432657E+02  0.12081025343E+02  0.21474186232E+02  0.00000000000E+00 0.  1.
</event>
<event>
 7    1  0.2612213E-009  0.8509028E+02  0.7561462E-02  0.1315197E+00
          4   -1    0    0  501    0  0.00000000000E+00  0.00000000000E+00  0.40638301264E+02  0.40638301264E+02  0.00000000000E+00 0. -1.
         -4   -1    0    0    0  501 -0.00000000000E+00 -0.00000000000E+00 -0.42106369762E+03  0.42106369762E+03  0.00000000000E+00 0.  1.
         25    2    1    2    0    0 -0.58344979625E+02  0.51755775282E+01 -0.13333121459E+03  0.19197836846E+03  0.12509019915E+03 0.  0.
          5    1    3    3  502    0 -0.15425437460E+02  0.21768712477E+02 -0.14236067777E+03  0.14489946839E+03  0.41800000000E+01 0.  1.
         -5    1    3    3    0  502 -0.42919542165E+02 -0.16593134949E+02  0.90294631816E+01  0.47078900077E+02  0.41800000000E+01 0.  1.
        -11    1    1    2    0    0 -0.18979592796E+02 -0.50719104576E+01 -0.13959401893E+02  0.24100085469E+02  0.00000000000E+00 0. -1.
         11    1    1    2    0    0  0.77324572421E+02 -0.10366707064E+00 -0.23313477987E+03  0.24562354495E+03  0.00000000000E+00 0.  1.
</event>
<event>
 7    1  0.2612213E-009  0.1124662E+03  0.7561462E-02  0.1256070E+00
          3   -1    0    0  501    0  0.00000000000E+00  0.00000000000E+00  0.60305384528E+02  0.60305384528E+02  0.00000000000E+00 0. -1.
         -3   -1    0    0    0  501 -0.00000000000E+00 -0.00000000000E+00 -0.26574941150E+03  0.26574941150E+03  0.00000000000E+00 0.  1.
         25    2    1    2    0    0 -0.29747956744E+02  0.57650092549E+02 -0.90252055149E+02  0.16733687294E+03  0.12509085292E+03 0.  0.
          5    1    3    3  502    0 -0.75368036263E+02  0.16538812561E+02 -0.64334041928E+02  0.10054956271E+03  0.41800000000E+01 0.  1.
         -5    1    3    3    0  502  0.45620079518E+02  0.41111279987E+02 -0.25918013220E+02  0.66787310222E+02  0.41800000000E+01 0.  1.
        -11    1    1    2    0    0  0.46848599788E+02 -0.41639166482E+02 -0.11946132853E+03  0.13490596911E+03  0.00000000000E+00 0.  1.
         11    1    1    2    0    0 -0.17100643044E+02 -0.16010926067E+02  0.42693567014E+01  0.23811953987E+02  0.00000000000E+00 0. -1.
</event>
<event>
 7    1  0.2612213E-009  0.1800287E+03  0.7561462E-02  0.1167775E+00
         -1   -1    0    0    0  501 -0.00000000000E+00  0.00000000000E+00  0.43049074529E+03  0.43049074529E+03  0.00000000000E+00 0.  1.
          1   -1    0    0  501    0  0.00000000000E+00 -0.00000000000E+00 -0.12069804864E+03  0.12069804864E+03  0.00000000000E+00 0. -1.
         25    2    1    2    0    0  0.12477725066E+03 -0.11722874518E+03  0.28674685912E+03  0.35663525946E+03  0.12511197425E+03 0.  0.
          5    1    3    3  502    0  0.20527885953E+02 -0.20199371474E+02 -0.71995498065E+01  0.29978569463E+02  0.41800000000E+01 0. -1.
         -5    1    3    3    0  502  0.10424936471E+03 -0.97029373709E+02  0.29394640892E+03  0.32665669000E+03  0.41800000000E+01 0. -1.
        -11    1    1    2    0    0 -0.78322851585E+02  0.11845503321E+03  0.35630645900E+02  0.14640903968E+03  0.00000000000E+00 0.  1.
         11    1    1    2    0    0 -0.46454399075E+02 -0.12262880321E+01 -0.12584808365E+02  0.48144494777E+02  0.00000000000E+00 0. -1.
</event>
<event>
 7    1  0.2612213E-009  0.1669748E+03  0.7561462E-02  0.1181040E+00
          2   -1    0    0  501    0  0.00000000000E+00  0.00000000000E+00  0.89974565533E+03  0.89974565533E+03  0.00000000000E+00 0. -1.
         -2   -1    0    0    0  501 -0.00000000000E+00 -0.00000000000E+00 -0.42075083006E+02  0.42075083006E+02  0.00000000000E+00 0.  1.
         25    2    1    2    0    0 -0.29907771310E+02 -0.15429131822E+03  0.53778649362E+03  0.57407617427E+03  0.12509538552E+03 0.  0.
          5    1    3    3  502    0 -0.18433000643E+02 -0.14856829162E+03  0.29429118552E+03  0.33020764234E+03  0.41800000000E+01 0. -1.
         -5    1    3    3    0  502 -0.11474770667E+02 -0.57230266022E+01  0.24349530811E+03  0.24386853193E+03  0.41800000000E+01 0. -1.
        -11    1    1    2    0    0  0.51436710641E+02  0.11167727453E+03  0.27898812794E+03  0.30488018037E+03  0.00000000000E+00 0. -1.
         11    1    1    2    0    0 -0.21528939331E+02  0.42614043699E+02  0.40895950753E+02  0.62864383693E+02  0.00000000000E+00 0.  1.
</event>
<event>
 7    1  0.2612213E-009  0.1196440E+03  0.7561462E-02  0.1243686E+00
          2   -1    0    0  501    0  0.00000000000E+00  0.00000000000E+00  0.40349545075E+02  0.40349545075E+02  0.00000000000E+00 0. -1.
         -2   -1    0    0    0  501 -0.00000000000E+00 -0.00000000000E+00 -0.56298964119E+03  0.56298964119E+03  0.00000000000E+00 0.  1.
         25    2    1    2    0    0  0.72221896823E+02  0.97732301530E+00 -0.15672031020E+03  0.21313267112E+03  0.12508925744E+03 0.  0.
          5    1    3    3  502    0 -0.30204462944E+02 -0.22527824132E+02 -0.29298683759E+02  0.47913439783E+02  0.41800000000E+01 0. -1.
         -5    1    3    3    0  502  0.10242635977E+03  0.23505147147E+02 -0.12742162644E+03  0.16521923133E+03  0.41800000000E+01 0. -1.
        -11    1    1    2    0    0 -0.27301188154E+02  0.30816665055E+02 -0.32986651767E+02  0.52755482317E+02  0.00000000000E+00 0. -1.
         11    1    1    2    0    0 -0.44920708669E+02 -0.31793988071E+02 -0.33293313414E+03  0.33745103283E+03  0.00000000000E+00 0.  1.
</event>
<event>
 7    1  0.2612213E-009  0.2933289E+03  0.7561462E-02  0.1088624E+00
         -2   -1    0    0    0  501 -0.00000000000E+00  0.00000000000E+00  0.19989857474E+03  0.19989857474E+03  0.00000000000E+00 0.  1.
          2   -1    0    0  501    0  0.00000000000E+00 -0.00000000000E+00 -0.47269910326E+03  0.47269910326E+03  0.00000000000E+00 0. -1.
         25    2    1    2    0    0  0.23714584224E+03 -0.15685050382E+03 -0.18271132527E+03  0.36037617482E+03  0.12508927994E+03 0.  0.
          5    1    3    3  502    0  0.20702673156E+03 -0.15375595595E+03 -0.10791980610E+03  0.27958025417E+03  0.41800000000E+01 0.  1.
         -5    1    3    3    0  502  0.30119110677E+02 -0.30945478701E+01 -0.74791519170E+02  0.80795920654E+02  0.41800000000E+01 0.  1.
        -11    1    1    2    0    0 -0.15166335680E+03  0.46575166454E+02 -0.36813064837E+02  0.16286872526E+03  0.00000000000E+00 0.  1.
         11    1    1    2    0    0 -0.85482485442E+02  0.11027533737E+03 -0.53276138414E+02  0.14935277792E+03  0.00000000000E+00 0. -1.
</event>
<event>
 7    1  0.2612213E-009  0.3611788E+03  0.7561462E-02  0.1058118E+00
          1   -1    0    0  501    0  0.00000000000E+00  0.00000000000E+00  0.39276104814E+03  0.39276104814E+03  0.00000000000E+00 0. -1.
         -1   -1    0    0    0  501 -0.00000000000E+00 -0.00000000000E+00 -0.35729567272E+03  0.35729567272E+03  0.00000000000E+00 0.  1.
         25    2    1    2    0    0  0.31265689725E+03  0.16910915627E+03 -0.26743773751E+02  0.37777631187E+03  0.12508984869E+03 0.  0.
          5    1    3    3  502    0  0.26139542709E+03  0.17541202465E+03  0.87889572567E+01  0.31494708423E+03  0.41800000000E+01 0.  1.
         -5    1    3    3    0  502  0.51261470162E+02 -0.63028683871E+01 -0.35532731008E+02  0.62829227641E+02  0.41800000000E+01 0.  1.
        -11    1    1    2    0    0 -0.18454528628E+03 -0.92243665833E+02 -0.95562538235E+01  0.20653614347E+03  0.00000000000E+00 0.  1.
         11    1    1    2    0    0 -0.12811161097E+03 -0.76865490433E+02  0.71765403002E+02  0.16574426552E+03  0.00000000000E+00 0. -1.
</event>
<event>
 7    1  0.2791558E-009  0.1224488E+03  0.7561462E-02  0.1239111E+00
          2   -1    0    0  501    0  0.00000000000E+00  0.00000000000E+00  0.13972256581E+03  0.13972256581E+03  0.00000000000E+00 0. -1.
         -2   -1    0    0    0  501 -0.00000000000E+00 -0.00000000000E+00 -0.18503603783E+03  0.18503603783E+03  0.00000000000E+00 0.  1.
         25    2    1    2    0    0  0.26422841699E+02 -0.84104028707E+02 -0.10376318278E+03  0.18489439591E+03  0.12508990899E+03 0.  0.
          5    1    3    3  502    0  0.73848154701E+02 -0.33607557040E+02 -0.72054638872E+02  0.10859263891E+03  0.41800000000E+01 0. -1.
         -5    1    3    3    0  502 -0.47425313002E+02 -0.50496471667E+02 -0.31708543908E+02  0.76301756998E+02  0.41800000000E+01 0. -1.
        -11    1    1    2    0    0  0.59875593683E+01  0.34389781790E+02 -0.20969330881E+02  0.40721257303E+02  0.00000000000E+00 0.  1.
         11    1    1    2    0    0 -0.32410401067E+02  0.49714246917E+02  0.79419041638E+02  0.99142950423E+02  0.00000000000E+00 0. -1.
</event>
<event>
 7    1  0.2612213E-009  0.1523805E+03  0.7561462E-02  0.1197578E+00
         -2   -1    0    0    0  501 -0.00000000000E+00  0.00000000000E+00  0.63030434695E+02  0.63030434695E+02  0.00000000000E+00 0. -1.
          2   -1    0    0  501    0  0.00000000000E+00 -0.00000000000E+00 -0.46034173906E+03  0.46034173906E+03  0.00000000000E+00 0.  1.
         25    2    1    2    0    0 -0.13106350402E+03 -0.90819602049E+00 -0.20901811386E+03  0.27661262855E+03  0.12508999740E+03 0.  0.
          5    1    3    3  502    0 -0.80420992093E+02  0.41408359823E+02 -0.18551061731E+03  0.20643122285E+03  0.41800000000E+01 0.  1.
         -5    1    3    3    0  502 -0.50642511925E+02 -0.42316555843E+02 -0.23507496547E+02  0.70181405703E+02  0.41800000000E+01 0.  1.
        -11    1    1    2    0    0  0.31227318478E+02 -0.30269898766E+02 -0.10297947705E+03  0.11178633585E+03  0.00000000000E+00 0.  1.
         11    1    1    2    0    0  0.99836185540E+02  0.31178094787E+02 -0.85313713461E+02  0.13497320935E+03  0.00000000000E+00 0. -1.
</event>
<event>
 7    1  0.2612213E-009  0.1687897E+03  0.7561462E-02  0.1179116E+00
         -1   -1    0    0    0  501 -0.00000000000E+00  0.00000000000E+00  0.14358551666E+03  0.14358551666E+03  0.00000000000E+00 0.  1.
          1   -1    0    0  501    0  0.00000000000E+00 -0.00000000000E+00 -0.32385662255E+03  0.32385662255E+03  0.00000000000E+00 0. -1.
         25    2    1    2    0    0  0.50874362949E+02  0.14596345174E+03 -0.20563712705E+03  0.28605568810E+03  0.12509076156E+03 0.  0.
          5    1    3    3  502    0 -0.64809300929E+01  0.14500876403E+02 -0.11537134285E+03  0.11653453146E+03  0.41800000000E+01 0. -1.
         -5    1    3    3    0  502  0.57355293042E+02  0.13146257533E+03 -0.90265784198E+02  0.16952115664E+03  0.41800000000E+01 0. -1.
        -11    1    1    2    0    0 -0.52286750006E+02 -0.27284438326E+02  0.21047077747E+02  0.62620478141E+02  0.00000000000E+00 0. -1.
         11    1    1    2    0    0  0.14123870563E+01 -0.11867901341E+03  0.43189434093E+01  0.11876597296E+03  0.00000000000E+00 0.  1.
</event>
<event>
 7    1  0.2612213E-009  0.9879223E+02  0.7561462E-02  0.1282856E+00
          2   -1    0    0  501    0  0.00000000000E+00  0.00000000000E+00  0.13802675733E+04  0.13802675733E+04  0.00000000000E+00 0. -1.
         -2   -1    0    0    0  501 -0.00000000000E+00 -0.00000000000E+00 -0.10769012520E+02  0.10769012520E+02  0.00000000000E+00 0.  1.
         25    2    1    2    0    0 -0.82995401103E+01  0.41306239908E+02  0.10947054573E+04  0.11026338299E+04  0.12508491768E+03 0.  0.
          5    1    3    3  502    0 -0.51086823277E+02 -0.17719655324E+02  0.32740168120E+03  0.33186319915E+03  0.41800000000E+01 0.  1.
         -5    1    3    3    0  502  0.42787283167E+02  0.59025895232E+02  0.76730377615E+03  0.77077063073E+03  0.41800000000E+01 0.  1.
        -11    1    1    2    0    0  0.29105768721E+02 -0.40016351160E+02  0.25465610340E+03  0.25941893750E+03  0.00000000000E+00 0. -1.
         11    1    1    2    0    0 -0.20806228611E+02 -0.12898887487E+01  0.20137000079E+02  0.28983818488E+02  0.00000000000E+00 0.  1.
</event>
<event>
 7    1  0.2872460E-009  0.1970646E+03  0.7561462E-02  0.1152239E+00
         -1   -1    0    0    0  501 -0.00000000000E+00  0.00000000000E+00  0.28103411969E+03  0.28103411969E+03  0.00000000000E+00 0.  1.
          1   -1    0    0  501    0  0.00000000000E+00 -0.00000000000E+00 -0.18243575448E+03  0.18243575448E+03  0.00000000000E+00 0. -1.
         25    2    1    2    0    0 -0.15947773474E+03  0.69890339254E+02  0.14787141189E+03  0.26044408406E+03  0.12508940430E+03 0.  0.
          5    1    3    3  502    0  0.11719614975E+02  0.15398492317E+02 -0.91409288584E+01  0.21805777243E+02  0.41800000000E+01 0. -1.
         -5    1    3    3    0  502 -0.17119734972E+03  0.54491846937E+02  0.15701234074E+03  0.23863830681E+03  0.41800000000E+01 0. -1.
        -11    1    1    2    0    0  0.81946569718E+02 -0.82259190893E+02 -0.13991857280E+02  0.11695121566E+03  0.00000000000E+00 0. -1.
         11    1    1    2    0    0  0.77531165026E+02  0.12368851639E+02 -0.35281189403E+02  0.86074574451E+02  0.00000000000E+00 0.  1.
</event>
<event>
 7    1  0.2612213E-009  0.1519389E+03  0.7561462E-02  0.1198111E+00
          3   -1    0    0  501    0  0.00000000000E+00  0.00000000000E+00  0.12938466152E+03  0.12938466152E+03  0.00000000000E+00 0. -1.
         -3   -1    0    0    0  501 -0.00000000000E+00 -0.00000000000E+00 -0.45079475359E+03  0.45079475359E+03  0.00000000000E+00 0.  1.
         25    2    1    2    0    0 -0.60193687354E+02  0.12481896331E+03 -0.36375560902E+03  0.40886283490E+03  0.12509045153E+03 0.  0.
          5    1    3    3  502    0 -0.79981801699E+02  0.84682494615E+02 -0.33693075542E+03  0.35652211691E+03  0.41800000000E+01 0. -1.
         -5    1    3    3    0  502  0.19788114346E+02  0.40136468694E+02 -0.26824853604E+02  0.52340717987E+02  0.41800000000E+01 0. -1.
        -11    1    1    2    0    0  0.22253265773E+02 -0.16785810971E+02  0.49267163080E+02  0.56605871122E+02  0.00000000000E+00 0. -1.
         11    1    1    2    0    0  0.37940421581E+02 -0.10803315234E+03 -0.69216461285E+01  0.11471070909E+03  0.00000000000E+00 0.  1.
</event>
<event>
 7    1  0.2612213E-009  0.1102807E+03  0.7561462E-02  0.1260051E+00
          2   -1    0    0  501    0  0.00000000000E+00  0.00000000000E+00  0.59460862433E+03  0.59460862433E+03  0.00000000000E+00 0. -1.
         -2   -1    0    0    0  501 -0.00000000000E+00 -0.00000000000E+00 -0.23568016741E+02  0.23568016741E+02  0.00000000000E+00 0.  1.
         25    2    1    2    0    0 -0.32887740190E+02 -0.60897466268E+01  0.38516040742E+03  0.40632457691E+03  0.12502973203E+03 0.  0.
          5    1    3    3  502    0  0.11618624321E+02  0.53514548776E+02  0.16412863214E+03  0.17307362494E+03  0.41800000000E+01 0.  1.
         -5    1    3    3    0  502 -0.44506364511E+02 -0.59604295403E+02  0.22103177528E+03  0.23325095197E+03  0.41800000000E+01 0.  1.
        -11    1    1    2    0    0  0.49795417761E+02 -0.25020695024E+02  0.15554389740E+03  0.16522567242E+03  0.00000000000E+00 0.  1.
         11    1    1    2    0    0 -0.16907677572E+02  0.31110441651E+02  0.30336302775E+02  0.46626391739E+02  0.00000000000E+00 0. -1.
</event>
<event>
 7    1  0.2612213E-009  0.8852898E+02  0.7561462E-02  0.1306454E+00
          3   -1    0    0  501    0  0.00000000000E+00  0.00000000000E+00  0.38503775509E+03  0.38503775509E+03  0.00000000000E+00 0. -1.
         -3   -1    0    0    0  501 -0.00000000000E+00 -0.00000000000E+00 -0.34704588253E+02  0.34704588253E+02  0.00000000000E+00 0.  1.
         25    2    1    2    0    0 -0.18555803981E+02  0.29516385802E+02  0.16308487390E+03  0.20846717130E+03  0.12508537294E+03 0.  0.
          5    1    3    3  502    0  0.77903372425E+01  0.63781730882E+02  0.35144311561E+02  0.73357982413E+02  0.41800000000E+01 0. -1.
         -5    1    3    3    0  502 -0.26346141223E+02 -0.34265345080E+02  0.12794056234E+03  0.13510918889E+03  0.41800000000E+01 0. -1.
        -11    1    1    2    0    0 -0.58609814602E+01 -0.41591376812E+02  0.29829202128E+02  0.51516745126E+02  0.00000000000E+00 0.  1.
         11    1    1    2    0    0  0.24416785441E+02  0.12074991010E+02  0.15741909081E+03  0.15975842691E+03  0.00000000000E+00 0. -1.
</event>
<event>
 7    1  0.2612213E-009  0.1218229E+03  0.7561462E-02  0.1240120E+00
         -2   -1    0    0    0  501 -0.00000000000E+00  0.00000000000E+00  0.24341428129E+02  0.24341428129E+02  0.00000000000E+00 0.  1.
          2   -1    0    0  501    0  0.00000000000E+00 -0.00000000000E+00 -0.87424681322E+03  0.87424681322E+03  0.00000000000E+00 0. -1.
         25    2    1    2    0    0  0.15536353313E+02 -0.83561004425E+02 -0.31957571397E+03  0.35355062230E+03  0.12508231625E+03 0.  0.
          5    1    3    3  502    0  0.13967367060E+02 -0.10696814849E+03 -0.30930202493E+03  0.32760110983E+03  0.41800000000E+01 0.  1.
         -5    1    3    3    0  502  0.15689862526E+01  0.23407144066E+02 -0.10273689035E+02  0.25949512473E+02  0.41800000000E+01 0.  1.
        -11    1    1    2    0    0 -0.20128966663E+02  0.96267072840E+02 -0.51621016275E+03  0.52549543932E+03  0.00000000000E+00 0. -1.
         11    1    1    2    0    0  0.45926133500E+01 -0.12706068416E+02 -0.14119508364E+02  0.19542179725E+02  0.00000000000E+00 0.  1.
</event>
<event>
 7    1  0.2684030E-009  0.6455324E+02  0.7561462E-02  0.1379660E+00
         -1   -1    0    0    0  501 -0.00000000000E+00  0.00000000000E+00  0.40900902260E+02  0.40900902260E+02  0.00000000000E+00 0.  1.
          1   -1    0    0  501    0  0.00000000000E+00 -0.00000000000E+00 -0.56563811373E+03  0.56563811373E+03  0.00000000000E+00 0. -1.
         25    2    1    2    0    0 -0.20715687909E+02  0.55592723079E+02 -0.45939038704E+03  0.47979939498E+03  0.12509293000E+03 0.  0.
          5    1    3    3  502    0 -0.45173695391E+01  0.71527057489E+00  0.73119171763E+01  0.95840895416E+01  0.41800000000E+01 0.  1.
         -5    1    3    3    0  502 -0.16198318370E+02  0.54877452504E+02 -0.46670230422E+03  0.47021530544E+03  0.41800000000E+01 0.  1.
        -11    1    1    2    0    0  0.27159565041E+02 -0.37263388512E+02  0.11460001153E+02  0.47513510953E+02  0.00000000000E+00 0.  1.
         11    1    1    2    0    0 -0.64438771326E+01 -0.18329334567E+02 -0.76806825585E+02  0.79226110056E+02  0.00000000000E+00 0. -1.
</event>
<event>
 7    1  0.2612213E-009  0.1106596E+03  0.7561462E-02  0.1259353E+00
          2   -1    0    0  501    0  0.00000000000E+00  0.00000000000E+00  0.21875897734E+03  0.21875897734E+03  0.00000000000E+00 0. -1.
         -2   -1    0    0    0  501 -0.00000000000E+00 -0.00000000000E+00 -0.81307054241E+02  0.81307054241E+02  0.00000000000E+00 0.  1.
         25    2    1    2    0    0  0.60500393333E+01 -0.76750186193E+02  0.76218774580E+02  0.16548465544E+03  0.12509466627E+03 0.  0.
          5    1    3    3  502    0  0.51705208035E+02 -0.35602075663E+02  0.82285962046E+02  0.10358276053E+03  0.41800000000E+01 0.  1.
         -5    1    3    3    0  502 -0.45655168701E+02 -0.41148110529E+02 -0.60671874660E+01  0.61901894907E+02  0.41800000000E+01 0.  1.
        -11    1    1    2    0    0 -0.34032046043E+01 -0.97149862088E+01 -0.15727245050E+02  0.18796515514E+02  0.00000000000E+00 0.  1.
         11    1    1    2    0    0 -0.26468347290E+01  0.86465172401E+02  0.76960393570E+02  0.11578486063E+03  0.00000000000E+00 0. -1.
</event>
<event>
 7    1  0.2612213E-009  0.1252585E+03  0.7561462E-02  0.1234666E+00
          1   -1    0    0  501    0  0.00000000000E+00  0.00000000000E+00  0.22107265871E+03  0.22107265871E+03  0.00000000000E+00 0. -1.
         -1   -1    0    0    0  501 -0.00000000000E+00 -0.00000000000E+00 -0.10079689528E+03  0.10079689528E+03  0.00000000000E+00 0.  1.
         25    2    1    2    0    0 -0.59862520842E+02 -0.82881469189E+02  0.91441852996E+02  0.18564097417E+03  0.12509236378E+03 0.  0.
          5    1    3    3  502    0 -0.79464273420E+02 -0.95131180756E+02  0.10132965922E+03  0.16015518893E+03  0.41800000000E+01 0. -1.
         -5    1    3    3    0  502  0.19601752578E+02  0.12249711566E+02 -0.98878062245E+01  0.25485785245E+02  0.41800000000E+01 0. -1.
        -11    1    1    2    0    0  0.41910340834E+02  0.67033830141E+02 -0.20254868319E+02  0.81610481819E+02  0.00000000000E+00 0.  1.
         11    1    1    2    0    0  0.17952180008E+02  0.15847639048E+02  0.49088778753E+02  0.54618098007E+02  0.00000000000E+00 0. -1.
</event>
<event>
 7    1  0.2612213E-009  0.1113452E+03  0.7561462E-02  0.1258099E+00
          1   -1    0    0  501    0  0.00000000000E+00  0.00000000000E+00  0.52499741605E+03  0.52499741605E+03  0.00000000000E+00 0. -1.
         -1   -1    0    0    0  501 -0.00000000000E+00 -0.00000000000E+00 -0.30741224708E+02  0.30741224708E+02  0.00000000000E+00 0.  1.
         25    2    1    2    0    0 -0.23921082404E+02  0.45717071598E+02  0.37044849114E+03  0.39438646492E+03  0.12508529214E+03 0.  0.
          5    1    3    3  502    0 -0.21020017899E+00  0.86543552787E+02  0.21267660390E+03  0.22964895157E+03  0.41800000000E+01 0. -1.
         -5    1    3    3    0  502 -0.23710882225E+02 -0.40826481189E+02  0.15777188724E+03  0.16473751335E+03  0.41800000000E+01 0. -1.
        -11    1    1    2    0    0 -0.25029319612E+02 -0.63237504515E+01  0.81783070579E+02  0.85760872741E+02  0.00000000000E+00 0. -1.
         11    1    1    2    0    0  0.48950402016E+02 -0.39393321146E+02  0.42024629631E+02  0.75591303099E+02  0.00000000000E+00 0.  1.
</event>
<event>
 7    1  0.2612213E-009  0.1783008E+03  0.7561462E-02  0.1169458E+00
          1   -1    0    0  501    0  0.00000000000E+00  0.00000000000E+00  0.39297718984E+03  0.39297718984E+03  0.00000000000E+00 0. -1.
         -1   -1    0    0    0  501 -0.00000000000E+00 -0.00000000000E+00 -0.88199522837E+02  0.88199522837E+02  0.00000000000E+00 0.  1.
         25    2    1    2    0    0 -0.14177851565E+03 -0.47201804069E+02  0.12924485481E+03  0.23383896119E+03  0.12508904615E+03 0.  0.
          5    1    3    3  502    0 -0.35661013087E+02 -0.76189540013E+02  0.47258265065E+02  0.96578309567E+02  0.41800000000E+01 0. -1.
         -5    1    3    3    0  502 -0.10611750256E+03  0.28987735944E+02  0.81986589748E+02  0.13726065162E+03  0.41800000000E+01 0. -1.
        -11    1    1    2    0    0  0.87338112426E+02 -0.41714360813E+01  0.48756233694E+02  0.10011252212E+03  0.00000000000E+00 0.  1.
         11    1    1    2    0    0  0.54440403225E+02  0.51373240150E+02  0.12677657850E+03  0.14722522937E+03  0.00000000000E+00 0. -1.
</event>
<event>
 7    1  0.2612213E-009  0.6713257E+02  0.7561462E-02  0.1370125E+00
          1   -1    0    0  501    0  0.00000000000E+00  0.00000000000E+00  0.34340718036E+03  0.34340718036E+03  0.00000000000E+00 0. -1.
         -1   -1    0    0    0  501 -0.00000000000E+00 -0.00000000000E+00 -0.10762344424E+03  0.10762344424E+03  0.00000000000E+00 0.  1.
         25    2    1    2    0    0  0.22342199010E+02 -0.24245213822E+02  0.30536766567E+03  0.33163805971E+03  0.12508951657E+03 0.  0.
          5    1    3    3  502    0 -0.73877735258E+01 -0.84347161059E+01 -0.92943213411E+01  0.15151912178E+02  0.41800000000E+01 0.  1.
         -5    1    3    3    0  502  0.29729972536E+02 -0.15810497716E+02  0.31466198702E+03  0.31648614753E+03  0.41800000000E+01 0.  1.
        -11    1    1    2    0    0 -0.53394373435E+02  0.10536352790E+02 -0.17395235071E+02  0.57136398624E+02  0.00000000000E+00 0.  1.
         11    1    1    2    0    0  0.31052174424E+02  0.13708861032E+02 -0.52188694481E+02  0.62256166272E+02  0.00000000000E+00 0. -1.
</event>
<event>
 7    1  0.2612213E-009  0.1231791E+03  0.7561462E-02  0.1237943E+00
         -1   -1    0    0    0  501 -0.00000000000E+00  0.00000000000E+00  0.96652504565E+02  0.96652504565E+02  0.00000000000E+00 0.  1.
          1   -1    0    0  501    0  0.00000000000E+00 -0.00000000000E+00 -0.42010549326E+03  0.42010549326E+03  0.00000000000E+00 0. -1.
         25    2    1    2    0    0  0.47385784043E+02  0.83684025188E+02  0.95774003008E+01  0.15807606454E+03  0.12509151444E+03 0.  0.
          5    1    3    3  502    0  0.18699483381E+02  0.90815054109E+02  0.51857241425E+02  0.10631881593E+03  0.41800000000E+01 0. -1.
         -5    1    3    3    0  502  0.28686300662E+02 -0.71310289212E+01 -0.42279841124E+02  0.51757248619E+02  0.41800000000E+01 0. -1.
        -11    1    1    2    0    0  0.69840077620E+01  0.11857738377E+02 -0.88287222782E+01  0.16350188406E+02  0.00000000000E+00 0.  1.
         11    1    1    2    0    0 -0.54369791805E+02 -0.95541763565E+02 -0.32420166672E+03  0.34233174488E+03  0.00000000000E+00 0. -1.
</event>
<event>
 7    1  0.2612213E-009  0.1229969E+03  0.7561462E-02  0.1238233E+00
         -1   -1    0    0    0  501 -0.00000000000E+00  0.00000000000E+00  0.32303188219E+02  0.32303188219E+02  0.00000000000E+00 0.  1.
          1   -1    0    0  501    0  0.00000000000E+00 -0.00000000000E+00 -0.75953626220E+03  0.75953626220E+03  0.00000000000E+00 0. -1.
         25    2    1    2    0    0 -0.73634454523E+02 -0.85434323809E+02 -0.41018583200E+03  0.44341942432E+03  0.12508921822E+03 0.  0.
          5    1    3    3  502    0  0.57012220907E+01 -0.11219498402E+01 -0.22414178321E+03  0.22425604581E+03  0.41800000000E+01 0.  1.
         -5    1    3    3    0  502 -0.79335676613E+02 -0.84312373969E+02 -0.18604404879E+03  0.21916337850E+03  0.41800000000E+01 0.  1.
        -11    1    1    2    0    0  0.22535186261E+02  0.63504081258E+02 -0.78393778364E+02  0.10337401725E+03  0.00000000000E+00 0.  1.
         11    1    1    2    0    0  0.51099268262E+02  0.21930242552E+02 -0.23865346362E+03  0.24504600885E+03  0.00000000000E+00 0. -1.
</event>
<event>
 7    1  0.2612213E-009  0.1078239E+03  0.7561462E-02  0.1264654E+00
          2   -1    0    0  501    0  0.00000000000E+00  0.00000000000E+00  0.81923117447E+02  0.81923117447E+02  0.00000000000E+00 0. -1.
         -2   -1    0    0    0  501 -0.00000000000E+00 -0.00000000000E+00 -0.32328368064E+03  0.32328368064E+03  0.00000000000E+00 0.  1.
         25    2    1    2    0    0 -0.70691065096E+02 -0.60687117240E+01 -0.24976239945E+03  0.28820614774E+03  0.12508985358E+03 0.  0.
          5    1    3    3  502    0  0.21494370509E+02  0.33796510053E+02 -0.10032102254E+03  0.10810176695E+03  0.41800000000E+01 0.  1.
         -5    1    3    3    0  502 -0.92185435605E+02 -0.39865221777E+02 -0.14944137692E+03  0.18010438079E+03  0.41800000000E+01 0.  1.
        -11    1    1    2    0    0  0.45086872698E+02  0.15337809906E+02 -0.39517633374E+02  0.61884714186E+02  0.00000000000E+00 0.  1.
         11    1    1    2    0    0  0.25604192398E+02 -0.92690981816E+01  0.47919469631E+02  0.55115936163E+02  0.00000000000E+00 0. -1.
</event>
<event>
 7    1  0.2612213E-009  0.2480024E+03  0.7561462E-02  0.1114574E+00
         -1   -1    0    0    0  501 -0.00000000000E+00  0.00000000000E+00  0.20343820444E+03  0.20343820444E+03  0.00000000000E+00 0.  1.
          1   -1    0    0  501    0  0.00000000000E+00 -0.00000000000E+00 -0.31716479433E+03  0.31716479433E+03  0.00000000000E+00 0. -1.
         25    2    1    2    0    0  0.20788233964E+03  0.83942761555E+02 -0.10631617705E+03  0.27787121470E+03  0.12509127909E+03 0.  0.
          5    1    3    3  502    0  0.96128320456E+02 -0.23544758774E+02 -0.22578003723E+02  0.10159846609E+03  0.41800000000E+01 0.  1.
         -5    1    3    3    0  502  0.11175401919E+03  0.10748752033E+03 -0.83738173331E+02  0.17627274861E+03  0.41800000000E+01 0.  1.
        -11    1    1    2    0    0 -0.62464926712E+02 -0.72894800975E+02 -0.12491540282E+02  0.96806805840E+02  0.00000000000E+00 0. -1.
         11    1    1    2    0    0 -0.14541741293E+03 -0.11047960580E+02  0.50811274499E+01  0.14592497823E+03  0.00000000000E+00 0.  1.
</event>
<event>
 7    1  0.2612213E-009  0.1436001E+03  0.7561462E-02  0.1208565E+00
          1   -1    0    0  501    0  0.00000000000E+00  0.00000000000E+00  0.62737901269E+03  0.62737901269E+03  0.00000000000E+00 0. -1.
         -1   -1    0    0    0  501 -0.00000000000E+00 -0.00000000000E+00 -0.74029771967E+02  0.74029771967E+02  0.00000000000E+00 0.  1.
         25    2    1    2    0    0 -0.10196903219E+03 -0.24507057460E+02  0.53835518439E+03  0.56256387530E+03  0.12511406732E+03 0.  0.
          5    1    3    3  502    0 -0.12737340224E+03 -0.21320536789E+02  0.49876902731E+03  0.51523447467E+03  0.41800000000E+01 0.  1.
         -5    1    3    3    0  502  0.25404370048E+02 -0.31865206704E+01  0.39586157084E+02  0.47329400633E+02  0.41800000000E+01 0.  1.
        -11    1    1    2    0    0  0.97990568405E+02  0.47368920615E+02 -0.39169879949E+01  0.10890963654E+03  0.00000000000E+00 0.  1.
         11    1    1    2    0    0  0.39784637827E+01 -0.22861863155E+02  0.18911044323E+02  0.29935272813E+02  0.00000000000E+00 0. -1.
</event>
<event>
 7    1  0.2612213E-009  0.2025081E+03  0.7561462E-02  0.1147640E+00
         -2   -1    0    0    0  501 -0.00000000000E+00  0.00000000000E+00  0.52935946808E+03  0.52935946808E+03  0.00000000000E+00 0. -1.
          2   -1    0    0  501    0  0.00000000000E+00 -0.00000000000E+00 -0.89597168017E+02  0.89597168017E+02  0.00000000000E+00 0.  1.
         25    2    1    2    0    0  0.87486411942E+02  0.14960957455E+03  0.12393632719E+03  0.24706990012E+03  0.12508567175E+03 0.  0.
          5    1    3    3  502    0  0.58699211587E+02 -0.35150533623E+00  0.19380675931E+02  0.61958082576E+02  0.41800000000E+01 0.  1.
         -5    1    3    3    0  502  0.28787200355E+02  0.14996107988E+03  0.10455565126E+03  0.18511181754E+03  0.41800000000E+01 0.  1.
        -11    1    1    2    0    0 -0.48211727793E+02 -0.11143717172E+02  0.11119876355E+03  0.12171161877E+03  0.00000000000E+00 0.  1.
         11    1    1    2    0    0 -0.39274684150E+02 -0.13846585738E+03  0.20462720932E+03  0.25017511720E+03  0.00000000000E+00 0. -1.
</event>
<event>
 7    1  0.2612213E-009  0.2275883E+03  0.7561462E-02  0.1128349E+00
          2   -1    0    0  501    0  0.00000000000E+00  0.00000000000E+00  0.41836675645E+03  0.41836675645E+03  0.00000000000E+00 0. -1.
         -2   -1    0    0    0  501 -0.00000000000E+00 -0.00000000000E+00 -0.17922298934E+03  0.17922298934E+03  0.00000000000E+00 0.  1.
         25    2    1    2    0    0  0.94101533747E+02  0.20482623316E+03  0.12807514068E+01  0.25779445696E+03  0.12508979683E+03 0.  0.
          5    1    3    3  502    0  0.86332812146E+02  0.18974116858E+03  0.42710195201E+02  0.21283021092E+03  0.41800000000E+01 0.  1.
         -5    1    3    3    0  502  0.77687216012E+01  0.15085064580E+02 -0.41429443794E+02  0.44964246039E+02  0.41800000000E+01 0.  1.
        -11    1    1    2    0    0 -0.24559707349E+02 -0.10304073640E+03  0.55254543678E+02  0.11947232809E+03  0.00000000000E+00 0.  1.
         11    1    1    2    0    0 -0.69541826398E+02 -0.10178549676E+03  0.18260847203E+03  0.22032296073E+03  0.00000000000E+00 0. -1.
</event>
<event>
 7    1  0.2612213E-009  0.8606913E+02  0.7561462E-02  0.1312660E+00
          1   -1    0    0  501    0  0.00000000000E+00  0.00000000000E+00  0.27090435796E+03  0.27090435796E+03  0.00000000000E+00 0. -1.
         -1   -1    0    0    0  501 -0.00000000000E+00 -0.00000000000E+00 -0.62444108769E+02  0.62444108769E+02  0.00000000000E+00 0.  1.
         25    2    1    2    0    0 -0.43164214263E+02  0.76862796334E+01  0.40296431114E+02  0.13853732008E+03  0.12508620390E+03 0.  0.
          5    1    3    3  502    0  0.23128452104E+02 -0.22031945744E+02  0.55523132533E+02  0.64192075650E+02  0.41800000000E+01 0. -1.
         -5    1    3    3    0  502 -0.66292666366E+02  0.29718225377E+02 -0.15226701418E+02  0.74345244432E+02  0.41800000000E+01 0. -1.
        -11    1    1    2    0    0  0.14629911696E+01 -0.22763824865E+02  0.20752876740E+01  0.22904996935E+02  0.00000000000E+00 0.  1.
         11    1    1    2    0    0  0.41701223093E+02  0.15077545232E+02  0.16608853041E+03  0.17190614972E+03  0.00000000000E+00 0. -1.
</event>
<event>
 7    1  0.2612213E-009  0.7954268E+02  0.7561462E-02  0.1330354E+00
          2   -1    0    0  501    0  0.00000000000E+00  0.00000000000E+00  0.58479951638E+02  0.58479951638E+02  0.00000000000E+00 0. -1.
         -2   -1    0    0    0  501 -0.00000000000E+00 -0.00000000000E+00 -0.26283731677E+03  0.26283731677E+03  0.00000000000E+00 0.  1.
         25    2    1    2    0    0 -0.52893278106E+02  0.97087029565E+01 -0.13058871047E+03  0.18866069531E+03  0.12508992313E+03 0.  0.
          5    1    3    3  502    0  0.23814727636E+01 -0.33047895240E+02 -0.11107297632E+03  0.11598496997E+03  0.41800000000E+01 0.  1.
         -5    1    3    3    0  502 -0.55274750870E+02  0.42756598196E+02 -0.19515734157E+02  0.72675725333E+02  0.41800000000E+01 0.  1.
        -11    1    1    2    0    0  0.32154093172E+02 -0.13002569758E+02  0.17608593326E+02  0.38897494610E+02  0.00000000000E+00 0. -1.
         11    1    1    2    0    0  0.20739184934E+02  0.32938668013E+01 -0.91377247985E+02  0.93759078492E+02  0.00000000000E+00 0.  1.
</event>
<event>
 7    1  0.2612213E-009  0.8800119E+02  0.7561462E-02  0.1307766E+00
          2   -1    0    0  501    0  0.00000000000E+00  0.00000000000E+00  0.29278765772E+02  0.29278765772E+02  0.00000000000E+00 0. -1.
         -2   -1    0    0    0  501 -0.00000000000E+00 -0.00000000000E+00 -0.42992734349E+03  0.42992734349E+03  0.00000000000E+00 0.  1.
         25    2    1    2    0    0 -0.42670208914E+01 -0.29188034749E+01 -0.23328905093E+03  0.26475962046E+03  0.12508856248E+03 0.  0.
          5    1    3    3  502    0 -0.52105690650E+02  0.96945043338E+01 -0.19483932484E+03  0.20196242550E+03  0.41800000000E+01 0.  1.
         -5    1    3    3    0  502  0.47838669758E+02 -0.12613307809E+02 -0.38449726091E+02  0.62797194958E+02  0.41800000000E+01 0.  1.
        -11    1    1    2    0    0  0.34359259009E+01  0.37970952876E+02 -0.20158429164E+02  0.43127266496E+02  0.00000000000E+00 0. -1.
         11    1    1    2    0    0  0.83109499048E+00 -0.35052149401E+02 -0.14720109763E+03  0.15131922230E+03  0.00000000000E+00 0.  1.
</event>
<event>
 7    1  0.2612213E-009  0.3489520E+03  0.7561462E-02  0.1063046E+00
          1   -1    0    0  501    0  0.00000000000E+00  0.00000000000E+00  0.28582049070E+04  0.28582049070E+04  0.00000000000E+00 0. -1.
         -1   -1    0    0    0  501 -0.00000000000E+00 -0.00000000000E+00 -0.49343444000E+02  0.49343444000E+02  0.00000000000E+00 0.  1.
         25    2    1    2    0    0 -0.32693669761E+03 -0.81990073773E+02  0.19051370211E+04  0.19387638365E+04  0.12509263735E+03 0.  0.
          5    1    3    3  502    0 -0.27061682307E+03 -0.13822332181E+02  0.14374486705E+04  0.14627715729E+04  0.41800000000E+01 0. -1.
         -5    1    3    3    0  502 -0.56319874543E+02 -0.68167741592E+02  0.46768835065E+03  0.47599226358E+03  0.41800000000E+01 0. -1.
        -11    1    1    2    0    0  0.18159848021E+02  0.12010391323E+02  0.18249762170E+02  0.28409213279E+02  0.00000000000E+00 0.  1.
         11    1    1    2    0    0  0.30877684959E+03  0.69979682450E+02  0.88547467970E+03  0.94037530124E+03  0.00000000000E+00 0. -1.
</event>
<event>
 7    1  0.2612213E-009  0.1271819E+03  0.7561462E-02  0.1231698E+00
         -2   -1    0    0    0  501 -0.00000000000E+00  0.00000000000E+00  0.47252213867E+02  0.47252213867E+02  0.00000000000E+00 0.  1.
          2   -1    0    0  501    0  0.00000000000E+00 -0.00000000000E+00 -0.49297255736E+03  0.49297255736E+03  0.00000000000E+00 0. -1.
         25    2    1    2    0    0  0.73774299019E+02 -0.55255594247E+01 -0.10380154080E+03  0.17859266506E+03  0.12508957246E+03 0.  0.
          5    1    3    3  502    0 -0.34586466324E+02  0.51105313566E+01 -0.16084375365E+02  0.38710731256E+02  0.41800000000E+01 0. -1.
         -5    1    3    3    0  502  0.10836076534E+03 -0.10636090781E+02 -0.87717165431E+02  0.13988193380E+03  0.41800000000E+01 0. -1.
        -11    1    1    2    0    0  0.16808190520E+02  0.98928750058E+01 -0.23438783669E+02  0.30491979672E+02  0.00000000000E+00 0. -1.
         11    1    1    2    0    0 -0.90582489539E+02 -0.43673155811E+01 -0.31848001903E+03  0.33114012650E+03  0.00000000000E+00 0.  1.
</event>
<event>
 7    1  0.2612213E-009  0.1796841E+03  0.7561462E-02  0.1168109E+00
         -2   -1    0    0    0  501 -0.00000000000E+00  0.00000000000E+00  0.62042751527E+02  0.62042751527E+02  0.00000000000E+00 0.  1.
          2   -1    0    0  501    0  0.00000000000E+00 -0.00000000000E+00 -0.66482057043E+03  0.66482057043E+03  0.00000000000E+00 0. -1.
         25    2    1    2    0    0  0.14263144645E+03 -0.38745309399E+02 -0.48056604248E+03  0.51810887708E+03  0.12509260092E+03 0.  0.
          5    1    3    3  502    0  0.28707387339E+02 -0.67588149265E+02 -0.14602642260E+03  0.16350370182E+03  0.41800000000E+01 0. -1.
         -5    1    3    3    0  502  0.11392405911E+03  0.28842839866E+02 -0.33453961988E+03  0.35460517527E+03  0.41800000000E+01 0. -1.
        -11    1    1    2    0    0 -0.50009883925E+02  0.54835756637E+02 -0.65350399010E+02  0.98886922021E+02  0.00000000000E+00 0. -1.
         11    1    1    2    0    0 -0.92621562526E+02 -0.16090447238E+02 -0.56861377408E+02  0.10986752285E+03  0.00000000000E+00 0.  1.
</event>
<event>
 7    1  0.2612213E-009  0.1083743E+03  0.7561462E-02  0.1263610E+00
          1   -1    0    0  501    0  0.00000000000E+00  0.00000000000E+00  0.13597311672E+03  0.13597311672E+03  0.00000000000E+00 0. -1.
         -1   -1    0    0    0  501 -0.00000000000E+00 -0.00000000000E+00 -0.15507149040E+03  0.15507149040E+03  0.00000000000E+00 0.  1.
         25    2    1    2    0    0  0.83202362987E+01  0.76545976559E+02 -0.63166330090E+02  0.15989436856E+03  0.12509081093E+03 0.  0.
          5    1    3    3  502    0 -0.16436453656E+02  0.67191323024E+02  0.20318088543E+02  0.72215843279E+02  0.41800000000E+01 0. -1.
         -5    1    3    3    0  502  0.24756689954E+02  0.93546535357E+01 -0.83484418633E+02  0.87678525277E+02  0.41800000000E+01 0. -1.
        -11    1    1    2    0    0  0.35697106515E+02 -0.66548809892E+02  0.40944651752E+02  0.85903969749E+02  0.00000000000E+00 0. -1.
         11    1    1    2    0    0 -0.44017342814E+02 -0.99971666677E+01  0.31233046497E+01  0.45246268815E+02  0.00000000000E+00 0.  1.
</event>
<event>
 7    1  0.2612213E-009  0.1158196E+03  0.7561462E-02  0.1250157E+00
         -2   -1    0    0    0  501 -0.00000000000E+00  0.00000000000E+00  0.88268480490E+01  0.88268480490E+01  0.00000000000E+00 0.  1.
          2   -1    0    0  501    0  0.00000000000E+00 -0.00000000000E+00 -0.19018308339E+04  0.19018308339E+04  0.00000000000E+00 0. -1.
         25    2    1    2    0    0  0.22820630145E+02 -0.43275002642E+02 -0.14429717855E+04  0.14492096606E+04  0.12509020485E+03 0.  0.
          5    1    3    3  502    0  0.73431986473E+02 -0.22152412222E+02 -0.97381304988E+03  0.97683791620E+03  0.41800000000E+01 0. -1.
         -5    1    3    3    0  502 -0.50611356328E+02 -0.21122590420E+02 -0.46915873567E+03  0.47237174436E+03  0.41800000000E+01 0. -1.
        -11    1    1    2    0    0 -0.40940566017E+02  0.61657326505E+02 -0.37090670419E+03  0.37821890364E+03  0.00000000000E+00 0. -1.
         11    1    1    2    0    0  0.18119935873E+02 -0.18382323862E+02 -0.79125496102E+02  0.83229117741E+02  0.00000000000E+00 0.  1.
</event>
<event>
 7    1  0.2612213E-009  0.2424618E+03  0.7561462E-02  0.1118164E+00
          3   -1    0    0  501    0  0.00000000000E+00  0.00000000000E+00  0.79269201149E+03  0.79269201149E+03  0.00000000000E+00 0. -1.
         -3   -1    0    0    0  501 -0.00000000000E+00 -0.00000000000E+00 -0.81825727521E+02  0.81825727521E+02  0.00000000000E+00 0.  1.
         25    2    1    2    0    0  0.20625749392E+03  0.86423101776E+02  0.44757885906E+03  0.51574004948E+03  0.12509938948E+03 0.  0.
          5    1    3    3  502    0  0.10729508385E+03 -0.16146592251E+02  0.24527734283E+03  0.26823757150E+03  0.41800000000E+01 0. -1.
         -5    1    3    3    0  502  0.98962410066E+02  0.10256969403E+03  0.20230151622E+03  0.24750247798E+03  0.41800000000E+01 0. -1.
        -11    1    1    2    0    0 -0.17642102652E+03 -0.43893569962E+02  0.15592806332E+03  0.23950904996E+03  0.00000000000E+00 0.  1.
         11    1    1    2    0    0 -0.29836467402E+02 -0.42529531814E+02  0.10735936160E+03  0.11926863957E+03  0.00000000000E+00 0. -1.
</event>
<event>
 7    1  0.2612213E-009  0.1646248E+03  0.7561462E-02  0.1183572E+00
          2   -1    0    0  501    0  0.00000000000E+00  0.00000000000E+00  0.46316581799E+03  0.46316581799E+03  0.00000000000E+00 0. -1.
         -2   -1    0    0    0  501 -0.00000000000E+00 -0.00000000000E+00 -0.13325259373E+03  0.13325259373E+03  0.00000000000E+00 0.  1.
         25    2    1    2    0    0  0.13262330639E+03 -0.35970559005E+02  0.38241996481E+03  0.42517558424E+03  0.12508567236E+03 0.  0.
          5    1    3    3  502    0  0.84280874883E+02 -0.82280603801E+02  0.22327371937E+03  0.25247176039E+03  0.41800000000E+01 0.  1.
         -5    1    3    3    0  502  0.48342431507E+02  0.46310044796E+02  0.15914624544E+03  0.17270382385E+03  0.41800000000E+01 0.  1.
        -11    1    1    2    0    0 -0.12772288774E+02 -0.97198303289E+01 -0.39116041533E+02  0.42280860532E+02  0.00000000000E+00 0.  1.
         11    1    1    2    0    0 -0.11985101762E+03  0.45690389334E+02 -0.13390699021E+02  0.12896196696E+03  0.00000000000E+00 0. -1.
</event>
<event>
 7    1  0.2612213E-009  0.1097661E+03  0.7561462E-02  0.1261004E+00
          2   -1    0    0  501    0  0.00000000000E+00  0.00000000000E+00  0.81272461914E+02  0.81272461914E+02  0.00000000000E+00 0. -1.
         -2   -1    0    0    0  501 -0.00000000000E+00 -0.00000000000E+00 -0.38973732974E+03  0.38973732974E+03  0.00000000000E+00 0.  1.
         25    2    1    2    0    0 -0.27289505035E+02  0.10834137075E+02 -0.34037075543E+03  0.36381525707E+03  0.12508874655E+03 0.  0.
          5    1    3    3  502    0  0.38197488495E+02 -0.23268878658E+02 -0.20186505314E+03  0.20680295191E+03  0.41800000000E+01 0.  1.
         -5    1    3    3    0  502 -0.65486993530E+02  0.34103015733E+02 -0.13850570229E+03  0.15701230516E+03  0.41800000000E+01 0.  1.
        -11    1    1    2    0    0 -0.35281012157E+02  0.61727280485E+01  0.22318740653E+01  0.35886399265E+02  0.00000000000E+00 0.  1.
         11    1    1    2    0    0  0.62570517191E+02 -0.17006865124E+02  0.29674013539E+02  0.71308135317E+02  0.00000000000E+00 0. -1.
</event>
<event>
 7    1  0.2612213E-009  0.2030555E+03  0.7561462E-02  0.1147186E+00
          2   -1    0    0  501    0  0.00000000000E+00  0.00000000000E+00  0.53194429385E+03  0.53194429385E+03  0.00000000000E+00 0. -1.
         -2   -1    0    0    0  501 -0.00000000000E+00 -0.00000000000E+00 -0.87400881723E+02  0.87400881723E+02  0.00000000000E+00 0.  1.
         25    2    1    2    0    0 -0.14917766583E+03 -0.87104983447E+02  0.13277255029E+03  0.25121629494E+03  0.12505927638E+03 0.  0.
          5    1    3    3  502    0 -0.70228153961E+02 -0.10948310807E+03  0.92841896756E+02  0.15986129849E+03  0.41800000000E+01 0.  1.
         -5    1    3    3    0  502 -0.78949511866E+02  0.22378124618E+02  0.39930653531E+02  0.91354996452E+02  0.41800000000E+01 0.  1.
        -11    1    1    2    0    0  0.63089355426E+02  0.87309120005E+02  0.19864945156E+03  0.22597511768E+03  0.00000000000E+00 0. -1.
         11    1    1    2    0    0  0.86088310401E+02 -0.20413655778E+00  0.11312141028E+03  0.14215376296E+03  0.00000000000E+00 0.  1.
</event>
<event>
 7    1  0.2612213E-009  0.1034175E+03  0.7561462E-02  0.1273269E+00
         -4   -1    0    0    0  501 -0.00000000000E+00  0.00000000000E+00  0.28054122085E+03  0.28054122085E+03  0.00000000000E+00 0.  1.
          4   -1    0    0  501    0  0.00000000000E+00 -0.00000000000E+00 -0.58943034716E+02  0.58943034716E+02  0.00000000000E+00 0. -1.
         25    2    1    2    0    0 -0.27664635959E+02 -0.12542886163E+02  0.19288119446E+03  0.23189119111E+03  0.12509082006E+03 0.  0.
          5    1    3    3  502    0  0.35817511299E+02 -0.40560076787E+02  0.53876474554E+02  0.76473268892E+02  0.41800000000E+01 0. -1.
         -5    1    3    3    0  502 -0.63482147258E+02  0.28017190625E+02  0.13900471990E+03  0.15541792222E+03  0.41800000000E+01 0. -1.
        -11    1    1    2    0    0  0.17762588341E+02  0.45388977959E+02 -0.15938976604E+02  0.51280794065E+02  0.00000000000E+00 0. -1.
         11    1    1    2    0    0  0.99020476178E+01 -0.32846091797E+02  0.44655968283E+02  0.56312270391E+02  0.00000000000E+00 0.  1.
</event>
<event>
 7    1  0.2612213E-009  0.1778843E+03  0.7561462E-02  0.1169866E+00
         -2   -1    0    0    0  501 -0.00000000000E+00  0.00000000000E+00  0.11217697350E+03  0.11217697350E+03  0.00000000000E+00 0.  1.
          2   -1    0    0  501    0  0.00000000000E+00 -0.00000000000E+00 -0.32984889536E+03  0.32984889536E+03  0.00000000000E+00 0. -1.
         25    2    1    2    0    0 -0.93730997893E+02  0.12492911641E+03 -0.85523092349E+02  0.21761756715E+03  0.12510164712E+03 0.  0.
          5    1    3    3  502    0 -0.10719048619E+03  0.10376678326E+03 -0.10756287503E+03  0.18396899228E+03  0.41800000000E+01 0. -1.
         -5    1    3    3    0  502  0.13459488300E+02  0.21162333156E+02  0.22039782677E+02  0.33648574863E+02  0.41800000000E+01 0. -1.
        -11    1    1    2    0    0  0.10619300925E+03 -0.75955738907E+02 -0.89625027493E+02  0.15836311136E+03  0.00000000000E+00 0.  1.
         11    1    1    2    0    0 -0.12462011352E+02 -0.48973377505E+02 -0.42523802022E+02  0.66045190360E+02  0.00000000000E+00 0. -1.
</event>
<event>
 7    1  0.2612213E-009  0.1181807E+03  0.7561462E-02  0.1246129E+00
         -1   -1    0    0    0  501 -0.00000000000E+00  0.00000000000E+00  0.44403690222E+03  0.44403690222E+03  0.00000000000E+00 0.  1.
          1   -1    0    0  501    0  0.00000000000E+00 -0.00000000000E+00 -0.42651136521E+02  0.42651136521E+02  0.00000000000E+00 0. -1.
         25    2    1    2    0    0  0.72020671345E+02  0.41869946114E+02  0.19148066461E+03  0.24342042422E+03  0.12509431851E+03 0.  0.
          5    1    3    3  502    0  0.25711594963E+01 -0.21987272493E+02 -0.70228579631E+01  0.23597541118E+02  0.41800000000E+01 0.  1.
         -5    1    3    3    0  502  0.69449511848E+02  0.63857218607E+02  0.19850352257E+03  0.21982288311E+03  0.41800000000E+01 0.  1.
        -11    1    1    2    0    0 -0.44133703212E+02  0.22285532428E+02  0.59286401563E+02  0.77196542183E+02  0.00000000000E+00 0. -1.
         11    1    1    2    0    0 -0.27886968133E+02 -0.64155478542E+02  0.15061869953E+03  0.16607107233E+03  0.00000000000E+00 0.  1.
</event>
<event>
 7    1  0.2612213E-009  0.1172989E+03  0.7561462E-02  0.1247621E+00
          2   -1    0    0  501    0  0.00000000000E+00  0.00000000000E+00  0.38935550414E+03  0.38935550414E+03  0.00000000000E+00 0. -1.
         -2   -1    0    0    0  501 -0.00000000000E+00 -0.00000000000E+00 -0.40160418915E+02  0.40160418915E+02  0.00000000000E+00 0.  1.
         25    2    1    2    0    0  0.54022601314E+02 -0.29615246024E+02  0.20049898876E+03  0.24421977417E+03  0.12509176374E+03 0.  0.
          5    1    3    3  502    0 -0.17476751629E+02  0.29541551592E+02  0.10688255881E+03  0.11233652076E+03  0.41800000000E+01 0. -1.
         -5    1    3    3    0  502  0.71499352943E+02 -0.59156797616E+02  0.93616429944E+02  0.13188325341E+03  0.41800000000E+01 0. -1.
        -11    1    1    2    0    0 -0.30163792919E+02 -0.30227612767E+02  0.82666961272E+02  0.93045093706E+02  0.00000000000E+00 0.  1.
         11    1    1    2    0    0 -0.23858808395E+02  0.59842858791E+02  0.66029135195E+02  0.92251055175E+02  0.00000000000E+00 0. -1.
</event>
<event>
 7    1  0.2612213E-009  0.2691089E+03  0.7561462E-02  0.1101791E+00
         -1   -1    0    0    0  501 -0.00000000000E+00  0.00000000000E+00  0.10421356911E+04  0.10421356911E+04  0.00000000000E+00 0.  1.
          1   -1    0    0  501    0  0.00000000000E+00 -0.00000000000E+00 -0.70379655115E+02  0.70379655115E+02  0.00000000000E+00 0. -1.
         25    2    1    2    0    0 -0.13843316167E+03  0.20344811468E+03  0.44159776860E+03  0.52077803212E+03  0.12508514657E+03 0.  0.
          5    1    3    3  502    0 -0.15488313311E+03  0.13496943576E+03  0.33088308303E+03  0.38949534085E+03  0.41800000000E+01 0. -1.
         -5    1    3    3    0  502  0.16449971433E+02  0.68478678919E+02  0.11071468557E+03  0.13128269127E+03  0.41800000000E+01 0. -1.
        -11    1    1    2    0    0 -0.50585432774E+01 -0.56756840271E+02  0.13322237956E+03  0.14489696405E+03  0.00000000000E+00 0.  1.
         11    1    1    2    0    0  0.14349170495E+03 -0.14669127441E+03  0.39693588785E+03  0.44684035005E+03  0.00000000000E+00 0. -1.
</event>
<event>
 7    1  0.2612213E-009  0.1185500E+03  0.7561462E-02  0.1245508E+00
          1   -1    0    0  501    0  0.00000000000E+00  0.00000000000E+00  0.28442292960E+02  0.28442292960E+02  0.00000000000E+00 0. -1.
         -1   -1    0    0    0  501 -0.00000000000E+00 -0.00000000000E+00 -0.51554131540E+03  0.51554131540E+03  0.00000000000E+00 0.  1.
         25    2    1    2    0    0  0.52984181496E+02  0.19179063585E+02 -0.24662764601E+03  0.28222071904E+03  0.12509267967E+03 0.  0.
          5    1    3    3  502    0  0.81245708626E+02 -0.24534970080E+02 -0.15381353304E+03  0.17572394622E+03  0.41800000000E+01 0. -1.
         -5    1    3    3    0  502 -0.28261527130E+02  0.43714033665E+02 -0.92814112966E+02  0.10649677282E+03  0.41800000000E+01 0. -1.
        -11    1    1    2    0    0  0.18003730522E+02 -0.22529063492E+02 -0.10363009347E+03  0.10756806815E+03  0.00000000000E+00 0.  1.
         11    1    1    2    0    0 -0.70987912019E+02  0.33499999066E+01 -0.13684128296E+03  0.15419482117E+03  0.00000000000E+00 0. -1.
</event>
<event>
 7    1  0.2612213E-009  0.9316400E+02  0.7561462E-02  0.1295366E+00
         -1   -1    0    0    0  501 -0.00000000000E+00  0.00000000000E+00  0.23683168816E+03  0.23683168816E+03  0.00000000000E+00 0.  1.
          1   -1    0    0  501    0  0.00000000000E+00 -0.00000000000E+00 -0.47901255153E+02  0.47901255153E+02  0.00000000000E+00 0. -1.
         25    2    1    2    0    0  0.64636604009E+01  0.21045903585E+02  0.15148192992E+03  0.19768525366E+03  0.12509186807E+03 0.  0.
          5    1    3    3  502    0  0.12905358242E+02 -0.48129338462E+02  0.97605722006E+02  0.10966918829E+03  0.41800000000E+01 0.  1.
         -5    1    3    3    0  502 -0.64416978412E+01  0.69175242047E+02  0.53876207912E+02  0.88016065365E+02  0.41800000000E+01 0.  1.
        -11    1    1    2    0    0 -0.47272626039E+01 -0.43724013489E+02  0.45155442211E+02  0.63032930509E+02  0.00000000000E+00 0.  1.
         11    1    1    2    0    0 -0.17363977970E+01  0.22678109905E+02 -0.77069391242E+01  0.24014759146E+02  0.00000000000E+00 0. -1.
</event>
<event>
 7    1  0.2612213E-009  0.8627856E+02  0.7561462E-02  0.1312122E+00
         -2   -1    0    0    0  501 -0.00000000000E+00  0.00000000000E+00  0.35403455444E+02  0.35403455444E+02  0.00000000000E+00 0.  1.
          2   -1    0    0  501    0  0.00000000000E+00 -0.00000000000E+00 -0.43721535479E+03  0.43721535479E+03  0.00000000000E+00 0. -1.
         25    2    1    2    0    0  0.32939374993E+02  0.40337230214E+02 -0.27511496553E+03  0.30667813120E+03  0.12510450564E+03 0.  0.
          5    1    3    3  502    0 -0.15655736337E+01  0.52995378747E+02 -0.34854243540E+02  0.63586569983E+02  0.41800000000E+01 0. -1.
         -5    1    3    3    0  502  0.34504948627E+02 -0.12658148533E+02 -0.24026072199E+03  0.24309156122E+03  0.41800000000E+01 0. -1.
        -11    1    1    2    0    0  0.13214757051E+02 -0.33132457502E+02 -0.55501270614E+01  0.36099770837E+02  0.00000000000E+00 0.  1.
         11    1    1    2    0    0 -0.46154132044E+02 -0.72047727121E+01 -0.12114680676E+03  0.12984090820E+03  0.00000000000E+00 0. -1.
</event>
<event>
 7    1  0.2612213E-009  0.9703641E+02  0.7561462E-02  0.1286654E+00
          3   -1    0    0  501    0  0.00000000000E+00  0.00000000000E+00  0.14400493327E+03  0.14400493327E+03  0.00000000000E+00 0. -1.
         -3   -1    0    0    0  501 -0.00000000000E+00 -0.00000000000E+00 -0.10402009833E+03  0.10402009833E+03  0.00000000000E+00 0.  1.
         25    2    1    2    0    0 -0.52777407517E+02 -0.56603699340E+01  0.34454287012E+02  0.14018904882E+03  0.12509347298E+03 0.  0.
          5    1    3    3  502    0  0.28850776669E+02 -0.48679732120E+01 -0.25326067224E+02  0.38922314405E+02  0.41800000000E+01 0.  1.
         -5    1    3    3    0  502 -0.81628184186E+02 -0.79239672204E+00  0.59780354237E+02  0.10126673441E+03  0.41800000000E+01 0.  1.
        -11    1    1    2    0    0  0.46117139355E+02  0.31660176980E+02 -0.29867668844E+02  0.63413208331E+02  0.00000000000E+00 0.  1.
         11    1    1    2    0    0  0.66602681618E+01 -0.25999807046E+02  0.35398216774E+02  0.44422774443E+02  0.00000000000E+00 0. -1.
</event>
<event>
 7    1  0.2612213E-009  0.1303029E+03  0.7561462E-02  0.1227007E+00
         -2   -1    0    0    0  501 -0.00000000000E+00  0.00000000000E+00  0.23753618801E+02  0.23753618801E+02  0.00000000000E+00 0.  1.
          2   -1    0    0  501    0  0.00000000000E+00 -0.00000000000E+00 -0.82843487471E+03  0.82843487471E+03  0.00000000000E+00 0. -1.
         25    2    1    2    0    0  0.14823904296E+01  0.77662410794E+02 -0.30445284745E+03  0.33819116927E+03  0.12509229841E+03 0.  0.
          5    1    3    3  502    0 -0.58547023377E+02  0.45108986182E+02 -0.11502915060E+03  0.13679090784E+03  0.41800000000E+01 0.  1.
         -5    1    3    3    0  502  0.60029413807E+02  0.32553424613E+02 -0.18942369685E+03  0.20140026143E+03  0.41800000000E+01 0.  1.
        -11    1    1    2    0    0 -0.18932780441E+02 -0.93013649766E+02 -0.40447529948E+03  0.41546390590E+03  0.00000000000E+00 0. -1.
         11    1    1    2    0    0  0.17450390012E+02  0.15351238972E+02 -0.95753108980E+02  0.98533418335E+02  0.00000000000E+00 0.  1.
</event>
<event>
 7    1  0.2612213E-009  0.2151396E+03  0.7561462E-02  0.1137559E+00
          1   -1    0    0  501    0  0.00000000000E+00  0.00000000000E+00  0.11395867707E+04  0.11395867707E+04  0.00000000000E+00 0. -1.
         -1   -1    0    0    0  501 -0.00000000000E+00 -0.00000000000E+00 -0.48492973324E+02  0.48492973324E+02  0.00000000000E+00 0.  1.
         25    2    1    2    0    0 -0.83512930592E+02 -0.18667927545E+03  0.65343268068E+03  0.69602113490E+03  0.12509032973E+03 0.  0.
          5    1    3    3  502    0 -0.45515622879E+02 -0.16514780603E+03  0.61249976179E+03  0.63601800317E+03  0.41800000000E+01 0. -1.
         -5    1    3    3    0  502 -0.37997307713E+02 -0.21531469423E+02  0.40932918888E+02  0.60003131732E+02  0.41800000000E+01 0. -1.
        -11    1    1    2    0    0  0.69037224793E+02  0.73083627275E+02  0.27765697329E+03  0.29529773077E+03  0.00000000000E+00 0. -1.
         11    1    1    2    0    0  0.14475705799E+02  0.11359564818E+03  0.16000414343E+03  0.19676087837E+03  0.00000000000E+00 0.  1.
</event>
<event>
 7    1  0.2612213E-009  0.2316853E+03  0.7561462E-02  0.1125459E+00
         -2   -1    0    0    0  501 -0.00000000000E+00  0.00000000000E+00  0.25908236024E+04  0.25908236024E+04  0.00000000000E+00 0. -1.
          2   -1    0    0  501    0  0.00000000000E+00 -0.00000000000E+00 -0.24752219443E+02  0.24752219443E+02  0.00000000000E+00 0.  1.
         25    2    1    2    0    0  0.21696832234E+03  0.59519770526E+02  0.15240692800E+04  0.15456561783E+04  0.12509194670E+03 0.  0.
          5    1    3    3  502    0  0.16540589653E+02  0.14639122538E+02  0.53526736800E+03  0.53573923009E+03  0.41800000000E+01 0. -1.
         -5    1    3    3    0  502  0.20042773269E+03  0.44880647988E+02  0.98880191202E+03  0.10099169482E+04  0.41800000000E+01 0. -1.
        -11    1    1    2    0    0 -0.13491374917E+02 -0.25924260620E+02  0.63239063373E+02  0.69665368887E+02  0.00000000000E+00 0. -1.
         11    1    1    2    0    0 -0.20347694742E+03 -0.33595509906E+02  0.97876303960E+03  0.10002542747E+04  0.00000000000E+00 0.  1.
</event>
<event>
 7    1  0.2612213E-009  0.1217271E+03  0.7561462E-02  0.1240275E+00
          1   -1    0    0  501    0  0.00000000000E+00  0.00000000000E+00  0.40573741040E+03  0.40573741040E+03  0.00000000000E+00 0. -1.
         -1   -1    0    0    0  501 -0.00000000000E+00 -0.00000000000E+00 -0.49775023178E+02  0.49775023178E+02  0.00000000000E+00 0.  1.
         25    2    1    2    0    0  0.86703873003E+02 -0.90403790415E+01  0.24049487326E+03  0.28474677254E+03  0.12507457919E+03 0.  0.
          5    1    3    3  502    0 -0.16639203121E+02 -0.14549976824E+02 -0.43260141948E+00  0.22499432217E+02  0.41800000000E+01 0.  1.
         -5    1    3    3    0  502  0.10334307612E+03  0.55095977829E+01  0.24092747468E+03  0.26224734032E+03  0.41800000000E+01 0.  1.
        -11    1    1    2    0    0  0.93265018587E+01  0.18672833203E+02  0.49895517500E+02  0.54085312270E+02  0.00000000000E+00 0. -1.
         11    1    1    2    0    0 -0.96030374862E+02 -0.96324541620E+01  0.65571996464E+02  0.11668034877E+03  0.00000000000E+00 0.  1.
</event>
<event>
 7    1  0.2612213E-009  0.1186040E+03  0.7561462E-02  0.1245418E+00
         -1   -1    0    0    0  501 -0.00000000000E+00  0.00000000000E+00  0.25199186317E+02  0.25199186317E+02  0.00000000000E+00 0.  1.
          1   -1    0    0  501    0  0.00000000000E+00 -0.00000000000E+00 -0.84745924564E+03  0.84745924564E+03  0.00000000000E+00 0. -1.
         25    2    1    2    0    0  0.50392745262E+02 -0.82982848780E+02 -0.42407342658E+03  0.45267111357E+03  0.12508910409E+03 0.  0.
          5    1    3    3  502    0  0.25011786189E+02 -0.11795416407E+02 -0.70615761062E+01  0.28845442512E+02  0.41800000000E+01 0. -1.
         -5    1    3    3    0  502  0.25380959072E+02 -0.71187432373E+02 -0.41701185048E+03  0.42382567106E+03  0.41800000000E+01 0. -1.
        -11    1    1    2    0    0 -0.35985320395E+02 -0.11650516566E+02 -0.11460763274E+03  0.12068797497E+03  0.00000000000E+00 0. -1.
         11    1    1    2    0    0 -0.14407424867E+02  0.94633365346E+02 -0.28357900000E+03  0.29929934341E+03  0.00000000000E+00 0.  1.
</event>
<event>
 7    1  0.2612213E-009  0.1012788E+03  0.7561462E-02  0.1277629E+00
          1   -1    0    0  501    0  0.00000000000E+00  0.00000000000E+00  0.23430842721E+03  0.23430842721E+03  0.00000000000E+00 0. -1.
         -1   -1    0    0    0  501 -0.00000000000E+00 -0.00000000000E+00 -0.79350731755E+02  0.79350731755E+02  0.00000000000E+00 0.  1.
         25    2    1    2    0    0  0.24030622892E+02 -0.43904430539E+02  0.14178490387E+02  0.13547757615E+03  0.12509226272E+03 0.  0.
          5    1    3    3  502    0  0.49083034891E+02 -0.53580376296E+02 -0.33866860738E+02  0.80277255150E+02  0.41800000000E+01 0.  1.
         -5    1    3    3    0  502 -0.25052411999E+02  0.96759457575E+01  0.48045351125E+02  0.55200320996E+02  0.41800000000E+01 0.  1.
        -11    1    1    2    0    0 -0.18846481463E+02  0.71794407310E+02  0.70408604848E+02  0.10230834971E+03  0.00000000000E+00 0.  1.
         11    1    1    2    0    0 -0.51841414291E+01 -0.27889976772E+02  0.70370600218E+02  0.75873233104E+02  0.00000000000E+00 0. -1.
</event>
<event>
 7    1  0.2612213E-009  0.8597935E+02  0.7561462E-02  0.1312891E+00
         -1   -1    0    0    0  501 -0.00000000000E+00  0.00000000000E+00  0.21843341749E+02  0.21843341749E+02  0.00000000000E+00 0.  1.
          1   -1    0    0  501    0  0.00000000000E+00 -0.00000000000E+00 -0.57715042252E+03  0.57715042252E+03  0.00000000000E+00 0. -1.
         25    2    1    2    0    0 -0.25118578673E+02 -0.16203654158E+02 -0.34666964575E+03  0.36975796800E+03  0.12509040816E+03 0.  0.
          5    1    3    3  502    0 -0.14633928368E+02 -0.61854912880E+02 -0.28594112002E+03  0.29295047128E+03  0.41800000000E+01 0. -1.
         -5    1    3    3    0  502 -0.10484650305E+02  0.45651258721E+02 -0.60728525730E+02  0.76807496719E+02  0.41800000000E+01 0. -1.
        -11    1    1    2    0    0 -0.62865192446E+01  0.27231729894E+02 -0.13064696373E+02  0.30850830274E+02  0.00000000000E+00 0.  1.
         11    1    1    2    0    0  0.31405097918E+02 -0.11028075736E+02 -0.19557273865E+03  0.19838496599E+03  0.00000000000E+00 0. -1.
</event>
<event>
 7    1  0.2612213E-009  0.1064879E+03  0.7561462E-02  0.1267216E+00
         -1   -1    0    0    0  501 -0.00000000000E+00  0.00000000000E+00  0.18824939403E+02  0.18824939403E+02  0.00000000000E+00 0.  1.
          1   -1    0    0  501    0  0.00000000000E+00 -0.00000000000E+00 -0.62326046852E+03  0.62326046852E+03  0.00000000000E+00 0. -1.
         25    2    1    2    0    0  0.72093521688E+01  0.13341888453E+02 -0.37681139762E+03  0.39732080218E+03  0.12508800792E+03 0.  0.
          5    1    3    3  502    0  0.11594917917E+02 -0.54821106635E+02 -0.14109143036E+03  0.15186856151E+03  0.41800000000E+01 0. -1.
         -5    1    3    3    0  502 -0.43855657482E+01  0.68162995088E+02 -0.23571996726E+03  0.24545224067E+03  0.41800000000E+01 0. -1.
        -11    1    1    2    0    0 -0.39621716772E+02  0.17772301532E+02 -0.88768001883E+02  0.98820510523E+02  0.00000000000E+00 0. -1.
         11    1    1    2    0    0  0.32412364603E+02 -0.31114189986E+02 -0.13885612962E+03  0.14594409522E+03  0.00000000000E+00 0.  1.
</event>
<event>
 7    1  0.2612213E-009  0.1331018E+03  0.7561462E-02  0.1222924E+00
         -1   -1    0    0    0  501 -0.00000000000E+00  0.00000000000E+00  0.70968653254E+02  0.70968653254E+02  0.00000000000E+00 0.  1.
          1   -1    0    0  501    0  0.00000000000E+00 -0.00000000000E+00 -0.26925646501E+03  0.26925646501E+03  0.00000000000E+00 0. -1.
         25    2    1    2    0    0  0.46496883560E+01  0.85708320654E+02 -0.93266344178E+02  0.17808873248E+03  0.12509776117E+03 0.  0.
          5    1    3    3  502    0 -0.54973190742E+02  0.37914459710E+02 -0.72784760386E+02  0.98866838221E+02  0.41800000000E+01 0. -1.
         -5    1    3    3    0  502  0.59622879098E+02  0.47793860944E+02 -0.20481583792E+02  0.79221894262E+02  0.41800000000E+01 0. -1.
        -11    1    1    2    0    0  0.20851569421E+01  0.18360262808E+02 -0.97933489620E+01  0.20913077577E+02  0.00000000000E+00 0.  1.
         11    1    1    2    0    0 -0.67348452981E+01 -0.10406858346E+03 -0.95228118619E+02  0.14122330821E+03  0.00000000000E+00 0. -1.
</event>
<event>
 7    1  0.2612213E-009  0.1107302E+03  0.7561462E-02  0.1259224E+00
          1   -1    0    0  501    0  0.00000000000E+00  0.00000000000E+00  0.20487065642E+03  0.20487065642E+03  0.00000000000E+00 0. -1.
         -1   -1    0    0    0  501 -0.00000000000E+00 -0.00000000000E+00 -0.71450142642E+02  0.71450142642E+02  0.00000000000E+00 0.  1.
         25    2    1    2    0    0 -0.47206224192E+02 -0.21222693591E+02  0.87610490692E+02  0.16125087553E+03  0.12508963367E+03 0.  0.
          5    1    3    3  502    0  0.33232230796E+02  0.23486726085E+02  0.13694963887E+02  0.43139678971E+02  0.41800000000E+01 0.  1.
         -5    1    3    3    0  502 -0.80438454988E+02 -0.44709419676E+02  0.73915526805E+02  0.11811119655E+03  0.41800000000E+01 0.  1.
        -11    1    1    2    0    0  0.64777497587E+02  0.26639523314E+02  0.48938507282E+01  0.70212094193E+02  0.00000000000E+00 0.  1.
         11    1    1    2    0    0 -0.17571273395E+02 -0.54168297231E+01  0.40916172356E+02  0.44857829341E+02  0.00000000000E+00 0. -1.
</event>
<event>
 7    1  0.2612213E-009  0.1206177E+03  0.7561462E-02  0.1242081E+00
         -1   -1    0    0    0  501 -0.00000000000E+00  0.00000000000E+00  0.41635831684E+02  0.41635831684E+02  0.00000000000E+00 0.  1.
          1   -1    0    0  501    0  0.00000000000E+00 -0.00000000000E+00 -0.40790675649E+03  0.40790675649E+03  0.00000000000E+00 0. -1.
         25    2    1    2    0    0 -0.69109236528E+02  0.21249011082E+02 -0.19467690644E+03  0.24243459025E+03  0.12509126908E+03 0.  0.
          5    1    3    3  502    0  0.20619656190E+02 -0.31853631306E+02 -0.71051211932E+02  0.80657120986E+02  0.41800000000E+01 0.  1.
         -5    1    3    3    0  502 -0.89728892718E+02  0.53102642388E+02 -0.12362569451E+03  0.16177746926E+03  0.41800000000E+01 0.  1.
        -11    1    1    2    0    0  0.41949711618E+02  0.22208599682E+02 -0.13773969622E+03  0.14568879202E+03  0.00000000000E+00 0. -1.
         11    1    1    2    0    0  0.27159524911E+02 -0.43457610764E+02 -0.33854322138E+02  0.61419205906E+02  0.00000000000E+00 0.  1.
</event>
<event>
 7    1  0.2612213E-009  0.1662655E+03  0.7561462E-02  0.1181799E+00
         -1   -1    0    0    0  501 -0.00000000000E+00  0.00000000000E+00  0.79296468640E+02  0.79296468640E+02  0.00000000000E+00 0.  1.
          1   -1    0    0  501    0  0.00000000000E+00 -0.00000000000E+00 -0.38382092826E+03  0.38382092826E+03  0.00000000000E+00 0. -1.
         25    2    1    2    0    0  0.77440413967E+02  0.10289377273E+03 -0.10267737685E+03  0.20681036623E+03  0.12507492826E+03 0.  0.
          5    1    3    3  502    0  0.75432119438E+02 -0.38031398434E+00 -0.51711963038E+02  0.91551891312E+02  0.41800000000E+01 0.  1.
         -5    1    3    3    0  502  0.20082945288E+01  0.10327408672E+03 -0.50965413815E+02  0.11525847492E+03  0.41800000000E+01 0.  1.
        -11    1    1    2    0    0 -0.83148403010E+02 -0.43318135489E+02 -0.92802203780E+02  0.13191803065E+03  0.00000000000E+00 0. -1.
         11    1    1    2    0    0  0.57079890430E+01 -0.59575637245E+02 -0.10904487899E+03  0.12438900002E+03  0.00000000000E+00 0.  1.
</event>
<event>
 7    1  0.2612213E-009  0.1573708E+03  0.7561462E-02  0.1191697E+00
          1   -1    0    0  501    0  0.00000000000E+00  0.00000000000E+00  0.88302020797E+03  0.88302020797E+03  0.00000000000E+00 0. -1.
         -1   -1    0    0    0  501 -0.00000000000E+00 -0.00000000000E+00 -0.55526168188E+02  0.55526168188E+02  0.00000000000E+00 0.  1.
         25    2    1    2    0    0  0.13259475513E+03  0.69745199002E+02  0.72379808640E+03  0.74964986443E+03  0.12508192311E+03 0.  0.
          5    1    3    3  502    0  0.93585630966E+02  0.71197143930E+02  0.27470181837E+03  0.29884086910E+03  0.41800000000E+01 0.  1.
         -5    1    3    3    0  502  0.39009124169E+02 -0.14519449282E+01  0.44909626803E+03  0.45080899533E+03  0.41800000000E+01 0.  1.
        -11    1    1    2    0    0 -0.11397314091E+02 -0.26995083887E+02  0.17083030745E+02  0.33918479653E+02  0.00000000000E+00 0.  1.
         11    1    1    2    0    0 -0.12119744104E+03 -0.42750115115E+02  0.86612922632E+02  0.15497803207E+03  0.00000000000E+00 0. -1.
</event>
<event>
 7    1  0.2612213E-009  0.5239189E+02  0.7561462E-02  0.1432851E+00
         -3   -1    0    0    0  501 -0.00000000000E+00  0.00000000000E+00  0.18297884951E+03  0.18297884951E+03  0.00000000000E+00 0.  1.
          3   -1    0    0  501    0  0.00000000000E+00 -0.00000000000E+00 -0.82109209734E+02  0.82109209734E+02  0.00000000000E+00 0. -1.
         25    2    1    2    0    0  0.36187168609E+02  0.35884916958E+02  0.34341827877E+02  0.13937557147E+03  0.12509576469E+03 0.  0.
          5    1    3    3  502    0  0.51805459668E+01  0.92891768176E+01 -0.46939366983E+02  0.48310489909E+02  0.41800000000E+01 0. -1.
         -5    1    3    3    0  502  0.31006622643E+02  0.26595740141E+02  0.81281194860E+02  0.91065081558E+02  0.41800000000E+01 0. -1.
        -11    1    1    2    0    0 -0.26660794710E+02 -0.18442774605E+02  0.89586164690E+02  0.95271269613E+02  0.00000000000E+00 0.  1.
         11    1    1    2    0    0 -0.95263738994E+01 -0.17442142353E+02 -0.23058352795E+02  0.30441218161E+02  0.00000000000E+00 0. -1.
</event>
<event>
 7    1  0.2612213E-009  0.1097970E+03  0.7561462E-02  0.1260946E+00
         -1   -1    0    0    0  501 -0.00000000000E+00  0.00000000000E+00  0.23510863232E+03  0.23510863232E+03  0.00000000000E+00 0.  1.
          1   -1    0    0  501    0  0.00000000000E+00 -0.00000000000E+00 -0.85049185230E+02  0.85049185230E+02  0.00000000000E+00 0. -1.
         25    2    1    2    0    0  0.48242385431E+02  0.76976087138E+02  0.74308359194E+02  0.17152800747E+03  0.12508988511E+03 0.  0.
          5    1    3    3  502    0  0.15284079418E+02  0.13867614193E+02  0.94970023778E+02  0.97276367241E+02  0.41800000000E+01 0.  1.
         -5    1    3    3    0  502  0.32958306012E+02  0.63108472945E+02 -0.20661664584E+02  0.74251640225E+02  0.41800000000E+01 0.  1.
        -11    1    1    2    0    0 -0.59198163380E+02 -0.10841856996E+02  0.28332742779E+02  0.66518514145E+02  0.00000000000E+00 0.  1.
         11    1    1    2    0    0  0.10955777950E+02 -0.66134230142E+02  0.47418345114E+02  0.82111295936E+02  0.00000000000E+00 0. -1.
</event>
<event>
 7    1  0.2612213E-009  0.8947560E+02  0.7561462E-02  0.1304127E+00
         -1   -1    0    0    0  501 -0.00000000000E+00  0.00000000000E+00  0.12185937192E+03  0.12185937192E+03  0.00000000000E+00 0.  1.
          1   -1    0    0  501    0  0.00000000000E+00 -0.00000000000E+00 -0.15458552360E+03  0.15458552360E+03  0.00000000000E+00 0. -1.
         25    2    1    2    0    0  0.87849352215E+01 -0.89113416884E+01  0.64568373782E+02  0.14132342749E+03  0.12508656669E+03 0.  0.
          5    1    3    3  502    0  0.19965461753E+02 -0.56336503755E+02 -0.51033337862E+00  0.59917895144E+02  0.41800000000E+01 0.  1.
         -5    1    3    3    0  502 -0.11180526531E+02  0.47425162067E+02  0.65078707161E+02  0.81405532344E+02  0.41800000000E+01 0.  1.
        -11    1    1    2    0    0 -0.11365232229E+02  0.38647193834E+02 -0.97261558387E+02  0.10527385637E+03  0.00000000000E+00 0.  1.
         11    1    1    2    0    0  0.25802970079E+01 -0.29735852145E+02 -0.32967078630E-01  0.29847611668E+02  0.00000000000E+00 0. -1.
</event>
<event>
 7    1  0.2612213E-009  0.9608546E+02  0.7561462E-02  0.1288750E+00
          1   -1    0    0  501    0  0.00000000000E+00  0.00000000000E+00  0.17985347611E+03  0.17985347611E+03  0.00000000000E+00 0. -1.
         -1   -1    0    0    0  501 -0.00000000000E+00 -0.00000000000E+00 -0.10902468938E+03  0.10902468938E+03  0.00000000000E+00 0.  1.
         25    2    1    2    0    0  0.88891799294E+02  0.34367750983E+01  0.40075688286E+02  0.15863890201E+03  0.12508667809E+03 0.  0.
          5    1    3    3  502    0  0.18730909513E+02 -0.21067675808E+02  0.72160233793E+02  0.77583926662E+02  0.41800000000E+01 0.  1.
         -5    1    3    3    0  502  0.70160889780E+02  0.24504450907E+02 -0.32084545508E+02  0.81054975353E+02  0.41800000000E+01 0.  1.
        -11    1    1    2    0    0 -0.32373901108E+02 -0.46551850670E+01 -0.32014262002E+02  0.45767381316E+02  0.00000000000E+00 0.  1.
         11    1    1    2    0    0 -0.56517898186E+02  0.12184099687E+01  0.62767360448E+02  0.84471882161E+02  0.00000000000E+00 0. -1.
</event>
<event>
 7    1  0.2612213E-009  0.2227482E+03  0.7561462E-02  0.1131851E+00
         -2   -1    0    0    0  501 -0.00000000000E+00  0.00000000000E+00  0.11993054757E+03  0.11993054757E+03  0.00000000000E+00 0.  1.
          2   -1    0    0  501    0  0.00000000000E+00 -0.00000000000E+00 -0.43794383782E+03  0.43794383782E+03  0.00000000000E+00 0. -1.
         25    2    1    2    0    0 -0.18592408241E+03  0.63763644446E+02 -0.21832585128E+03  0.31929209045E+03  0.12509074673E+03 0.  0.
          5    1    3    3  502    0 -0.43401783117E+02  0.78186213415E+02 -0.89545564307E+02  0.12662021653E+03  0.41800000000E+01 0. -1.
         -5    1    3    3    0  502 -0.14252229929E+03 -0.14422568969E+02 -0.12878028697E+03  0.19267187393E+03  0.41800000000E+01 0. -1.
        -11    1    1    2    0    0 -0.76322862371E+01 -0.83885696709E+01  0.41284680978E+01  0.12069140117E+02  0.00000000000E+00 0.  1.
         11    1    1    2    0    0  0.19355636864E+03 -0.55375074775E+02 -0.10381590707E+03  0.22651315483E+03  0.00000000000E+00 0. -1.
</event>
<event>
 7    1  0.2612213E-009  0.1222176E+03  0.7561462E-02  0.1239483E+00
         -1   -1    0    0    0  501 -0.00000000000E+00  0.00000000000E+00  0.28068515232E+03  0.28068515232E+03  0.00000000000E+00 0.  1.
          1   -1    0    0  501    0  0.00000000000E+00 -0.00000000000E+00 -0.78136861412E+02  0.78136861412E+02  0.00000000000E+00 0. -1.
         25    2    1    2    0    0  0.87184448924E+02  0.44618606730E+02  0.86064585060E+02  0.18068375263E+03  0.12509019730E+03 0.  0.
          5    1    3    3  502    0  0.82481082609E+02  0.76355957195E+02  0.30753760905E+02  0.11660457709E+03  0.41800000000E+01 0.  1.
         -5    1    3    3    0  502  0.47033663151E+01 -0.31737350465E+02  0.55310824155E+02  0.64079175540E+02  0.41800000000E+01 0.  1.
        -11    1    1    2    0    0 -0.68362152947E+02 -0.42889769475E+02  0.13130204026E+03  0.15412054392E+03  0.00000000000E+00 0.  1.
         11    1    1    2    0    0 -0.18822295977E+02 -0.17288372552E+01 -0.14818334413E+02  0.24017717187E+02  0.00000000000E+00 0. -1.
</event>
<event>
 7    1  0.2612213E-009  0.1002070E+03  0.7561462E-02  0.1279861E+00
          2   -1    0    0  501    0  0.00000000000E+00  0.00000000000E+00  0.37976429815E+03  0.37976429815E+03  0.00000000000E+00 0. -1.
         -2   -1    0    0    0  501 -0.00000000000E+00 -0.00000000000E+00 -0.39391161586E+02  0.39391161586E+02  0.00000000000E+00 0.  1.
         25    2    1    2    0    0  0.51429237633E+02  0.47401794927E+01  0.24745288409E+03  0.28204274987E+03  0.12509095540E+03 0.  0.
          5    1    3    3  502    0  0.10251882260E+02 -0.53617874758E+02  0.15967956010E+03  0.16880465603E+03  0.41800000000E+01 0.  1.
         -5    1    3    3    0  502  0.41177355373E+02  0.58358054251E+02  0.87773323994E+02  0.11323809384E+03  0.41800000000E+01 0.  1.
        -11    1    1    2    0    0  0.57993450271E+01  0.12975017506E+02 -0.10447902475E+02  0.17639221869E+02  0.00000000000E+00 0.  1.
         11    1    1    2    0    0 -0.57228582660E+02 -0.17715196999E+02  0.10336815494E+03  0.11947348800E+03  0.00000000000E+00 0. -1.
</event>
<event>
 7    1  0.2612213E-009  0.1030325E+03  0.7561462E-02  0.1274045E+00
         -3   -1    0    0    0  501 -0.00000000000E+00  0.00000000000E+00  0.47872228702E+02  0.47872228702E+02  0.00000000000E+00 0.  1.
          3   -1    0    0  501    0  0.00000000000E+00 -0.00000000000E+00 -0.25126092197E+03  0.25126092197E+03  0.00000000000E+00 0. -1.
         25    2    1    2    0    0  0.39057417931E+01 -0.12650776624E+02 -0.12709056051E+03  0.17881710993E+03  0.12509297049E+03 0.  0.
          5    1    3    3  502    0  0.13509692647E+02  0.52120333621E+02 -0.30419850944E+02  0.61982906544E+02  0.41800000000E+01 0. -1.
         -5    1    3    3    0  502 -0.96039508540E+01 -0.64771110245E+02 -0.96670709564E+02  0.11683420339E+03  0.41800000000E+01 0. -1.
        -11    1    1    2    0    0 -0.27138500081E+02 -0.28397998534E+02 -0.57289435504E+02  0.69462392183E+02  0.00000000000E+00 0. -1.
         11    1    1    2    0    0  0.23232758288E+02  0.41048775158E+02 -0.19008697251E+02  0.50853648550E+02  0.00000000000E+00 0.  1.
</event>
<event>
 7    1  0.2612213E-009  0.7449929E+02  0.7561462E-02  0.1345429E+00
          2   -1    0    0  501    0  0.00000000000E+00  0.00000000000E+00  0.10063928227E+03  0.10063928227E+03  0.00000000000E+00 0.  1.
         -2   -1    0    0    0  501 -0.00000000000E+00 -0.00000000000E+00 -0.13132502104E+03  0.13132502104E+03  0.00000000000E+00 0. -1.
         25    2    1    2    0    0 -0.58807119212E+01  0.34741318796E+02 -0.52747884031E+01  0.13007530461E+03  0.12510083721E+03 0.  0.
          5    1    3    3  502    0  0.32456486301E+02  0.10105459259E+02 -0.53544589175E+02  0.63561303005E+02  0.41800000000E+01 0. -1.
         -5    1    3    3    0  502 -0.38337198222E+02  0.24635859537E+02  0.48269800772E+02  0.66514001602E+02  0.41800000000E+01 0. -1.
        -11    1    1    2    0    0  0.31886410395E+02 -0.27196771912E+02 -0.50049599656E+02  0.65279169695E+02  0.00000000000E+00 0. -1.
         11    1    1    2    0    0 -0.26005698474E+02 -0.75445468844E+01  0.24638649290E+02  0.36609829003E+02  0.00000000000E+00 0.  1.
</event>
<event>
 7    1  0.2612213E-009  0.1604364E+03  0.7561462E-02  0.1188205E+00
          2   -1    0    0  501    0  0.00000000000E+00  0.00000000000E+00  0.30863313418E+03  0.30863313418E+03  0.00000000000E+00 0. -1.
         -2   -1    0    0    0  501 -0.00000000000E+00 -0.00000000000E+00 -0.10031310767E+03  0.10031310767E+03  0.00000000000E+00 0.  1.
         25    2    1    2    0    0  0.11163488910E+03 -0.76300126996E+02  0.77693797356E+02  0.19989363421E+03  0.12504831469E+03 0.  0.
          5    1    3    3  502    0  0.81410658752E+02 -0.10888452219E+03  0.74633792778E+02  0.15514899276E+03  0.41800000000E+01 0.  1.
         -5    1    3    3    0  502  0.30224230346E+02  0.32584395196E+02  0.30600045778E+01  0.44744641448E+02  0.41800000000E+01 0.  1.
        -11    1    1    2    0    0 -0.50614811937E+02  0.12926884735E+02  0.82367853090E+00  0.52245975756E+02  0.00000000000E+00 0.  1.
         11    1    1    2    0    0 -0.61020077161E+02  0.63373242261E+02  0.12980255062E+03  0.15680663187E+03  0.00000000000E+00 0. -1.
</event>
<event>
 7    1  0.2612213E-009  0.1015399E+03  0.7561462E-02  0.1277091E+00
         -1   -1    0    0    0  501 -0.00000000000E+00  0.00000000000E+00  0.60039430086E+03  0.60039430086E+03  0.00000000000E+00 0.  1.
          1   -1    0    0  501    0  0.00000000000E+00 -0.00000000000E+00 -0.32991773527E+02  0.32991773527E+02  0.00000000000E+00 0. -1.
         25    2    1    2    0    0 -0.81227832402E+02 -0.24883498668E+01  0.22370121916E+03  0.26887519266E+03  0.12508989221E+03 0.  0.
          5    1    3    3  502    0 -0.25553958010E+02 -0.24028759819E+02 -0.19940763021E+01  0.35381277658E+02  0.41800000000E+01 0. -1.
         -5    1    3    3    0  502 -0.55673874392E+02  0.21540409952E+02  0.22569529546E+03  0.23349391500E+03  0.41800000000E+01 0. -1.
        -11    1    1    2    0    0  0.72896610811E+02 -0.26643614298E+02  0.30827143483E+03  0.31789160980E+03  0.00000000000E+00 0.  1.
         11    1    1    2    0    0  0.83312215906E+01  0.29131964165E+02  0.35429873337E+02  0.46619271916E+02  0.00000000000E+00 0. -1.
</event>
<event>
 7    1  0.2612213E-009  0.1459652E+03  0.7561462E-02  0.1205520E+00
          1   -1    0    0  501    0  0.00000000000E+00  0.00000000000E+00  0.94971196455E+03  0.94971196455E+03  0.00000000000E+00 0. -1.
         -1   -1    0    0    0  501 -0.00000000000E+00 -0.00000000000E+00 -0.39340216628E+02  0.39340216628E+02  0.00000000000E+00 0.  1.
         25    2    1    2    0    0  0.93353637257E+02 -0.94229948304E+02  0.70786509662E+03  0.73096869878E+03  0.12509220135E+03 0.  0.
          5    1    3    3  502    0  0.70441671479E+02 -0.42394770651E+02  0.62554886284E+03  0.63094230945E+03  0.41800000000E+01 0.  1.
         -5    1    3    3    0  502  0.22911965779E+02 -0.51835177653E+02  0.82316233785E+02  0.10002638933E+03  0.41800000000E+01 0.  1.
        -11    1    1    2    0    0 -0.82527233767E+02  0.10758336733E+03  0.14704135355E+03  0.20001521166E+03  0.00000000000E+00 0.  1.
         11    1    1    2    0    0 -0.10826403490E+02 -0.13353419027E+02  0.55465297749E+02  0.58068270739E+02  0.00000000000E+00 0. -1.
</event>
<event>
 7    1  0.2612213E-009  0.9754351E+02  0.7561462E-02  0.1285548E+00
          2   -1    0    0  501    0  0.00000000000E+00  0.00000000000E+00  0.14575542888E+04  0.14575542888E+04  0.00000000000E+00 0. -1.
         -2   -1    0    0    0  501 -0.00000000000E+00 -0.00000000000E+00 -0.12020362271E+02  0.12020362271E+02  0.00000000000E+00 0.  1.
         25    2    1    2    0    0 -0.59623210939E+02  0.30115002054E+02  0.99381714418E+03  0.10038832817E+04  0.12508911482E+03 0.  0.
          5    1    3    3  502    0  0.15706407599E+02  0.34901880798E+01  0.16935472175E+02  0.23730892741E+02  0.41800000000E+01 0.  1.
         -5    1    3    3    0  502 -0.75329618538E+02  0.26624813974E+02  0.97688167201E+03  0.98015238900E+03  0.41800000000E+01 0.  1.
        -11    1    1    2    0    0 -0.28934021855E+01  0.18835846683E+02  0.23893800583E+02  0.30562634094E+02  0.00000000000E+00 0.  1.
         11    1    1    2    0    0  0.62516613125E+02 -0.48950848737E+02  0.42782298179E+03  0.43512873527E+03  0.00000000000E+00 0. -1.
</event>
<event>
 7    1  0.2612213E-009  0.1207482E+03  0.7561462E-02  0.1241868E+00
          1   -1    0    0  501    0  0.00000000000E+00  0.00000000000E+00  0.47733001205E+02  0.47733001205E+02  0.00000000000E+00 0. -1.
         -1   -1    0    0    0  501 -0.00000000000E+00 -0.00000000000E+00 -0.45261634009E+03  0.45261634009E+03  0.00000000000E+00 0.  1.
         25    2    1    2    0    0 -0.62482273574E+02  0.45588137162E+02 -0.11296159454E+03  0.18545272291E+03  0.12510027111E+03 0.  0.
          5    1    3    3  502    0 -0.70448283363E+02  0.75861648542E+02 -0.11374456895E+03  0.15386113776E+03  0.41800000000E+01 0. -1.
         -5    1    3    3    0  502  0.79660097885E+01 -0.30273511379E+02  0.78297440933E+00  0.31591585147E+02  0.41800000000E+01 0. -1.
        -11    1    1    2    0    0  0.49668024789E+02  0.87858069840E+01 -0.71464221302E+02  0.87471355409E+02  0.00000000000E+00 0. -1.
         11    1    1    2    0    0  0.12814248785E+02 -0.54373944146E+02 -0.22045752305E+03  0.22742526298E+03  0.00000000000E+00 0.  1.
</event>
<event>
 7    1  0.2612213E-009  0.1581211E+03  0.7561462E-02  0.1190834E+00
         -2   -1    0    0    0  501 -0.00000000000E+00  0.00000000000E+00  0.59164880091E+02  0.59164880091E+02  0.00000000000E+00 0.  1.
          2   -1    0    0  501    0  0.00000000000E+00 -0.00000000000E+00 -0.47139878974E+03  0.47139878974E+03  0.00000000000E+00 0. -1.
         25    2    1    2    0    0  0.65394701659E+02 -0.99348261173E+02 -0.29084518604E+03  0.33820827373E+03  0.12508944868E+03 0.  0.
          5    1    3    3  502    0  0.74769848848E+02 -0.62646891209E+01 -0.16532547670E+03  0.18160331019E+03  0.41800000000E+01 0. -1.
         -5    1    3    3    0  502 -0.93751471886E+01 -0.93083572052E+02 -0.12551970935E+03  0.15660496354E+03  0.41800000000E+01 0. -1.
        -11    1    1    2    0    0 -0.17501589449E+02  0.97982885386E+02 -0.67586063409E+02  0.12031137697E+03  0.00000000000E+00 0. -1.
         11    1    1    2    0    0 -0.47893112210E+02  0.13653757863E+01 -0.53802660195E+02  0.72044019129E+02  0.00000000000E+00 0.  1.
</event>
<event>
 7    1  0.2612213E-009  0.1095499E+03  0.7561462E-02  0.1261406E+00
         -2   -1    0    0    0  501 -0.00000000000E+00  0.00000000000E+00  0.62449658688E+02  0.62449658688E+02  0.00000000000E+00 0.  1.
          2   -1    0    0  501    0  0.00000000000E+00 -0.00000000000E+00 -0.29700893036E+03  0.29700893036E+03  0.00000000000E+00 0. -1.
         25    2    1    2    0    0 -0.34326869827E+02  0.54913265261E+01 -0.22521475645E+03  0.25995673214E+03  0.12508927772E+03 0.  0.
          5    1    3    3  502    0  0.16007356890E+02  0.50391621864E+02 -0.14867455265E+03  0.15785165832E+03  0.41800000000E+01 0.  1.
         -5    1    3    3    0  502 -0.50334226718E+02 -0.44900295338E+02 -0.76540203798E+02  0.10210507381E+03  0.41800000000E+01 0.  1.
        -11    1    1    2    0    0  0.65900655239E+02 -0.97650224673E+01 -0.11336816859E+02  0.67577921256E+02  0.00000000000E+00 0.  1.
         11    1    1    2    0    0 -0.31573785412E+02  0.42736959412E+01  0.19923016358E+01  0.31923935660E+02  0.00000000000E+00 0. -1.
</event>
<event>
 7    1  0.2612213E-009  0.3600691E+03  0.7561462E-02  0.1058557E+00
         -1   -1    0    0    0  501 -0.00000000000E+00  0.00000000000E+00  0.97816061429E+03  0.97816061429E+03  0.00000000000E+00 0.  1.
          1   -1    0    0  501    0  0.00000000000E+00 -0.00000000000E+00 -0.14598427366E+03  0.14598427366E+03  0.00000000000E+00 0. -1.
         25    2    1    2    0    0  0.31365407484E+03 -0.15876071259E+03  0.29480457422E+03  0.47554323966E+03  0.12509113989E+03 0.  0.
          5    1    3    3  502    0  0.10776203905E+03 -0.89831760225E+02  0.51718890717E+02  0.14958181127E+03  0.41800000000E+01 0. -1.
         -5    1    3    3    0  502  0.20589203580E+03 -0.68928952370E+02  0.24308568350E+03  0.32596142840E+03  0.41800000000E+01 0. -1.
        -11    1    1    2    0    0 -0.20451378731E+03  0.54430366443E+02  0.29535318945E+03  0.36334840100E+03  0.00000000000E+00 0.  1.
         11    1    1    2    0    0 -0.10914028753E+03  0.10433034615E+03  0.24201857696E+03  0.28525324728E+03  0.00000000000E+00 0. -1.
</event>
<event>
 7    1  0.2612213E-009  0.1032187E+03  0.7561462E-02  0.1273669E+00
          1   -1    0    0  501    0  0.00000000000E+00  0.00000000000E+00  0.32927628590E+03  0.32927628590E+03  0.00000000000E+00 0. -1.
         -1   -1    0    0    0  501 -0.00000000000E+00 -0.00000000000E+00 -0.40587396173E+02  0.40587396173E+02  0.00000000000E+00 0.  1.
         25    2    1    2    0    0 -0.90412942903E+01 -0.87218500868E+01  0.22792076093E+03  0.26029475836E+03  0.12509065631E+03 0.  0.
          5    1    3    3  502    0  0.24327477557E+02  0.50391762593E+02  0.12389968158E+03  0.13601382061E+03  0.41800000000E+01 0. -1.
         -5    1    3    3    0  502 -0.33368771847E+02 -0.59113612680E+02  0.10402107935E+03  0.12428093775E+03  0.41800000000E+01 0. -1.
        -11    1    1    2    0    0  0.45368799049E+02  0.73582342588E+01  0.98498717474E+01  0.47005228560E+02  0.00000000000E+00 0.  1.
         11    1    1    2    0    0 -0.36327504759E+02  0.13636158280E+01  0.50918257048E+02  0.62563695151E+02  0.00000000000E+00 0. -1.
</event>
<event>
 7    1  0.2612213E-009  0.1084585E+03  0.7561462E-02  0.1263451E+00
          2   -1    0    0  501    0  0.00000000000E+00  0.00000000000E+00  0.14934011885E+03  0.14934011885E+03  0.00000000000E+00 0. -1.
         -2   -1    0    0    0  501 -0.00000000000E+00 -0.00000000000E+00 -0.11701018164E+03  0.11701018164E+03  0.00000000000E+00 0.  1.
         25    2    1    2    0    0  0.46685951777E+02  0.51380485700E+02  0.51920559311E+02  0.15219334444E+03  0.12509011635E+03 0.  0.
          5    1    3    3  502    0 -0.19829041773E+02  0.35047805203E+02  0.70328609096E+02  0.81148784369E+02  0.41800000000E+01 0. -1.
         -5    1    3    3    0  502  0.66514993550E+02  0.16332680497E+02 -0.18408049785E+02  0.71044560074E+02  0.41800000000E+01 0. -1.
        -11    1    1    2    0    0  0.20275518849E+02 -0.32388395999E+02  0.84223731631E+01  0.39128521946E+02  0.00000000000E+00 0.  1.
         11    1    1    2    0    0 -0.66961470626E+02 -0.18992089702E+02 -0.28012995258E+02  0.75028434097E+02  0.00000000000E+00 0. -1.
</event>
<event>
 7    1  0.2612213E-009  0.4323646E+03  0.7561462E-02  0.1033116E+00
          2   -1    0    0  501    0  0.00000000000E+00  0.00000000000E+00  0.12705105226E+04  0.12705105226E+04  0.00000000000E+00 0. -1.
         -2   -1    0    0    0  501 -0.00000000000E+00 -0.00000000000E+00 -0.16967650539E+03  0.16967650539E+03  0.00000000000E+00 0.  1.
         25    2    1    2    0    0  0.21674296363E+03  0.36897874761E+03  0.77697251827E+03  0.89579912645E+03  0.12508777850E+03 0.  0.
          5    1    3    3  502    0  0.15214513573E+03  0.30679478760E+03  0.51153034680E+03  0.61559073427E+03  0.41800000000E+01 0. -1.
         -5    1    3    3    0  502  0.64597827901E+02  0.62183960013E+02  0.26544217147E+03  0.28020839218E+03  0.41800000000E+01 0. -1.
        -11    1    1    2    0    0 -0.51087062276E+02 -0.14623716650E+03  0.77351445927E+02  0.17314283983E+03  0.00000000000E+00 0.  1.
         11    1    1    2    0    0 -0.16565590136E+03 -0.22274158112E+03  0.24651005303E+03  0.37124506173E+03  0.00000000000E+00 0. -1.
</event>
<event>
 7    1  0.2612213E-009  0.1344575E+03  0.7561462E-02  0.1220988E+00
         -1   -1    0    0    0  501 -0.00000000000E+00  0.00000000000E+00  0.36133375733E+02  0.36133375733E+02  0.00000000000E+00 0.  1.
          1   -1    0    0  501    0  0.00000000000E+00 -0.00000000000E+00 -0.50886808916E+03  0.50886808916E+03  0.00000000000E+00 0. -1.
         25    2    1    2    0    0  0.53449239786E+02 -0.58531317989E+02 -0.28805655728E+03  0.32389340155E+03  0.12509044310E+03 0.  0.
          5    1    3    3  502    0 -0.40656545704E+02 -0.22587351722E+02 -0.78390942957E+02  0.91245577998E+02  0.41800000000E+01 0. -1.
         -5    1    3    3    0  502  0.94105785490E+02 -0.35943966268E+02 -0.20966561432E+03  0.23264782355E+03  0.41800000000E+01 0. -1.
        -11    1    1    2    0    0  0.13361788396E+02 -0.16300854974E+02 -0.27571411040E+02  0.34705013597E+02  0.00000000000E+00 0.  1.
         11    1    1    2    0    0 -0.66811028182E+02  0.74832172963E+02 -0.15710674510E+03  0.18640304974E+03  0.00000000000E+00 0. -1.
</event>
<event>
 7    1  0.2612213E-009  0.9736571E+02  0.7561462E-02  0.1285935E+00
         -2   -1    0    0    0  501 -0.00000000000E+00  0.00000000000E+00  0.11098799459E+03  0.11098799459E+03  0.00000000000E+00 0.  1.
          2   -1    0    0  501    0  0.00000000000E+00 -0.00000000000E+00 -0.13087615057E+03  0.13087615057E+03  0.00000000000E+00 0. -1.
         25    2    1    2    0    0  0.13654202078E+02 -0.39674683846E+02 -0.44456167873E+02  0.13922753022E+03  0.12508971395E+03 0.  0.
          5    1    3    3  502    0 -0.41023221613E+02 -0.26897665173E-01 -0.57054679229E+02  0.70396123876E+02  0.41800000000E+01 0.  1.
         -5    1    3    3    0  502  0.54677423690E+02 -0.39647786181E+02  0.12598511356E+02  0.68831406341E+02  0.41800000000E+01 0.  1.
        -11    1    1    2    0    0 -0.36335519598E+02  0.49253589258E+02  0.40425102979E+02  0.73351039462E+02  0.00000000000E+00 0.  1.
         11    1    1    2    0    0  0.22681317520E+02 -0.95789054121E+01 -0.15857091091E+02  0.29285575480E+02  0.00000000000E+00 0. -1.
</event>
<event>
 7    1  0.2612213E-009  0.1438462E+03  0.7561462E-02  0.1208245E+00
          2   -1    0    0  501    0  0.00000000000E+00  0.00000000000E+00  0.90302290741E+03  0.90302290741E+03  0.00000000000E+00 0. -1.
         -2   -1    0    0    0  501 -0.00000000000E+00 -0.00000000000E+00 -0.23261353595E+02  0.23261353595E+02  0.00000000000E+00 0.  1.
         25    2    1    2    0    0  0.10227895398E+03 -0.17781021126E+02  0.45075119273E+03  0.47916647410E+03  0.12508686187E+03 0.  0.
          5    1    3    3  502    0  0.13013123205E+03 -0.23752048040E+01  0.37141667043E+03  0.39358302126E+03  0.41800000000E+01 0.  1.
         -5    1    3    3    0  502 -0.27852278073E+02 -0.15405816322E+02  0.79334522307E+02  0.85583452841E+02  0.41800000000E+01 0.  1.
        -11    1    1    2    0    0  0.97171120753E+01 -0.52288264875E+01  0.51699524896E+02  0.52864012030E+02  0.00000000000E+00 0. -1.
         11    1    1    2    0    0 -0.11199606606E+03  0.23009847614E+02  0.37731083618E+03  0.39425377487E+03  0.00000000000E+00 0.  1.
</event>
<event>
 7    1  0.2612213E-009  0.1159865E+03  0.7561462E-02  0.1249869E+00
          2   -1    0    0  501    0  0.00000000000E+00  0.00000000000E+00  0.39170921239E+02  0.39170921239E+02  0.00000000000E+00 0. -1.
         -2   -1    0    0    0  501 -0.00000000000E+00 -0.00000000000E+00 -0.38107253179E+03  0.38107253179E+03  0.00000000000E+00 0.  1.
         25    2    1    2    0    0 -0.37743212678E+02 -0.43220750815E+02 -0.19114768797E+03  0.23553735919E+03  0.12509126890E+03 0.  0.
          5    1    3    3  502    0  0.42142278426E+02 -0.17769095228E+02 -0.33206476358E+02  0.56673228673E+02  0.41800000000E+01 0. -1.
         -5    1    3    3    0  502 -0.79885491104E+02 -0.25451655587E+02 -0.15794121161E+03  0.17886413052E+03  0.41800000000E+01 0. -1.
        -11    1    1    2    0    0  0.38452152150E+02  0.67568159149E+02 -0.13472668808E+03  0.15554839959E+03  0.00000000000E+00 0.  1.
         11    1    1    2    0    0 -0.70893947237E+00 -0.24347408335E+02 -0.16027234505E+02  0.29157694245E+02  0.00000000000E+00 0. -1.
</event>
<event>
 7    1  0.2612213E-009  0.1071136E+03  0.7561462E-02  0.1266010E+00
          1   -1    0    0  501    0  0.00000000000E+00  0.00000000000E+00  0.21340847627E+03  0.21340847627E+03  0.00000000000E+00 0. -1.
         -1   -1    0    0    0  501 -0.00000000000E+00 -0.00000000000E+00 -0.64076103607E+02  0.64076103607E+02  0.00000000000E+00 0.  1.
         25    2    1    2    0    0 -0.30378727022E+00  0.45247540273E+02  0.85344701740E+02  0.15804493873E+03  0.12508817832E+03 0.  0.
          5    1    3    3  502    0 -0.63374192772E+01  0.88663521628E+02  0.57313702810E+02  0.10584760687E+03  0.41800000000E+01 0.  1.
         -5    1    3    3    0  502  0.60336320070E+01 -0.43415981355E+02  0.28030998931E+02  0.52197331859E+02  0.41800000000E+01 0.  1.
        -11    1    1    2    0    0  0.27921312377E+02  0.32068719654E+00 -0.87602583767E+01  0.29265075635E+02  0.00000000000E+00 0.  1.
         11    1    1    2    0    0 -0.27617525107E+02 -0.45568227470E+02  0.72747929294E+02  0.90174565507E+02  0.00000000000E+00 0. -1.
</event>
<event>
 7    1  0.2612213E-009  0.9102703E+02  0.7561462E-02  0.1300383E+00
         -4   -1    0    0    0  501 -0.00000000000E+00  0.00000000000E+00  0.87291200416E+02  0.87291200416E+02  0.00000000000E+00 0. -1.
          4   -1    0    0  501    0  0.00000000000E+00 -0.00000000000E+00 -0.14043811933E+03  0.14043811933E+03  0.00000000000E+00 0.  1.
         25    2    1    2    0    0 -0.22617603047E+02  0.62083681933E+01 -0.30082008824E+02  0.13077327362E+03  0.12508645824E+03 0.  0.
          5    1    3    3  502    0 -0.69180589892E+02 -0.21143269797E+02 -0.23687021132E+02  0.76233452274E+02  0.41800000000E+01 0.  1.
         -5    1    3    3    0  502  0.46562986845E+02  0.27351637991E+02 -0.63949876922E+01  0.54539821344E+02  0.41800000000E+01 0.  1.
        -11    1    1    2    0    0  0.29836675263E+02  0.14735638040E+02  0.26582043218E+02  0.42590741257E+02  0.00000000000E+00 0. -1.
         11    1    1    2    0    0 -0.72190722158E+01 -0.20944006233E+02 -0.49646953304E+02  0.54365304865E+02  0.00000000000E+00 0.  1.
</event>
<event>
 7    1  0.2612213E-009  0.1147029E+03  0.7561462E-02  0.1252101E+00
          2   -1    0    0  501    0  0.00000000000E+00  0.00000000000E+00  0.61514736868E+03  0.61514736868E+03  0.00000000000E+00 0.  1.
         -2   -1    0    0    0  501 -0.00000000000E+00 -0.00000000000E+00 -0.33500805999E+02  0.33500805999E+02  0.00000000000E+00 0. -1.
         25    2    1    2    0    0 -0.85428260014E+02 -0.39211455436E+02  0.32124527055E+03  0.35732647149E+03  0.12509259581E+03 0.  0.
          5    1    3    3  502    0 -0.50766288385E+02 -0.21363020328E+01  0.25085741671E+02  0.56820301459E+02  0.41800000000E+01 0.  1.
         -5    1    3    3    0  502 -0.34661971629E+02 -0.37075153403E+02  0.29615952888E+03  0.30050617003E+03  0.41800000000E+01 0.  1.
        -11    1    1    2    0    0  0.76887174747E+02  0.64780149143E+02  0.17567256028E+03  0.20240788967E+03  0.00000000000E+00 0. -1.
         11    1    1    2    0    0  0.85410852666E+01 -0.25568693707E+02  0.84728731837E+02  0.88913813517E+02  0.00000000000E+00 0.  1.
</event>
<event>
 7    1  0.2612213E-009  0.1113171E+03  0.7561462E-02  0.1258150E+00
          2   -1    0    0  501    0  0.00000000000E+00  0.00000000000E+00  0.92001553245E+03  0.92001553245E+03  0.00000000000E+00 0.  1.
         -2   -1    0    0    0  501 -0.00000000000E+00 -0.00000000000E+00 -0.20810673914E+02  0.20810673914E+02  0.00000000000E+00 0. -1.
         25    2    1    2    0    0 -0.13447340878E+02  0.81293681416E+02  0.41449033169E+03  0.44072511068E+03  0.12508754735E+03 0.  0.
          5    1    3    3  502    0  0.25084953110E+02  0.33760010664E+02  0.34686128892E+03  0.34942698714E+03  0.41800000000E+01 0.  1.
         -5    1    3    3    0  502 -0.38532293988E+02  0.47533670752E+02  0.67629042776E+02  0.91298123540E+02  0.41800000000E+01 0.  1.
        -11    1    1    2    0    0 -0.78894984935E+01 -0.93914420734E+02  0.42718668826E+03  0.43745928866E+03  0.00000000000E+00 0. -1.
         11    1    1    2    0    0  0.21336839372E+02  0.12620739318E+02  0.57527838589E+02  0.62641807030E+02  0.00000000000E+00 0.  1.
</event>
<event>
 7    1  0.2612213E-009  0.1196446E+03  0.7561462E-02  0.1243684E+00
          2   -1    0    0  501    0  0.00000000000E+00  0.00000000000E+00  0.19520877172E+03  0.19520877172E+03  0.00000000000E+00 0. -1.
         -2   -1    0    0    0  501 -0.00000000000E+00 -0.00000000000E+00 -0.12356985284E+03  0.12356985284E+03  0.00000000000E+00 0.  1.
         25    2    1    2    0    0  0.10420601905E+03 -0.37557640905E+02  0.26692076657E+02  0.16920627006E+03  0.12509526001E+03 0.  0.
          5    1    3    3  502    0  0.19193607830E+02  0.16556956617E+02  0.58134335999E+02  0.63557854086E+02  0.41800000000E+01 0.  1.
         -5    1    3    3    0  502  0.85012411219E+02 -0.54114597522E+02 -0.31442259342E+02  0.10564841598E+03  0.41800000000E+01 0.  1.
        -11    1    1    2    0    0 -0.75245087068E+02  0.16777597229E+02 -0.16216893412E+02  0.78780064284E+02  0.00000000000E+00 0.  1.
         11    1    1    2    0    0 -0.28960931981E+02  0.20780043676E+02  0.61163735641E+02  0.70792290215E+02  0.00000000000E+00 0. -1.
</event>
<event>
 7    1  0.2713617E-009  0.8257074E+02  0.7561462E-02  0.1321910E+00
          1   -1    0    0  501    0  0.00000000000E+00  0.00000000000E+00  0.87258262371E+03  0.87258262371E+03  0.00000000000E+00 0. -1.
         -1   -1    0    0    0  501 -0.00000000000E+00 -0.00000000000E+00 -0.16988402338E+02  0.16988402338E+02  0.00000000000E+00 0.  1.
         25    2    1    2    0    0  0.24947910775E+02  0.15675429550E+02  0.65690454225E+03  0.66935755126E+03  0.12509131246E+03 0.  0.
          5    1    3    3  502    0 -0.79666694964E+01  0.52647617824E+02  0.53586805650E+03  0.53852324542E+03  0.41800000000E+01 0. -1.
         -5    1    3    3    0  502  0.32914580271E+02 -0.36972188274E+02  0.12103648575E+03  0.13083430584E+03  0.41800000000E+01 0. -1.
        -11    1    1    2    0    0  0.11305719163E+02 -0.22484019219E+02  0.86265900075E+01  0.26603918154E+02  0.00000000000E+00 0.  1.
         11    1    1    2    0    0 -0.36253629938E+02  0.68085896684E+01  0.19006308911E+03  0.19360955663E+03  0.00000000000E+00 0. -1.
</event>
<event>
 7    1  0.2612213E-009  0.8791690E+02  0.7561462E-02  0.1307976E+00
         -1   -1    0    0    0  501 -0.00000000000E+00  0.00000000000E+00  0.20178087488E+02  0.20178087488E+02  0.00000000000E+00 0.  1.
          1   -1    0    0  501    0  0.00000000000E+00 -0.00000000000E+00 -0.56081719747E+03  0.56081719747E+03  0.00000000000E+00 0. -1.
         25    2    1    2    0    0  0.23664699197E+02 -0.32580321497E+02 -0.38471406645E+03  0.40653355181E+03  0.12507246094E+03 0.  0.
          5    1    3    3  502    0  0.28307100205E+02  0.29908604049E+02 -0.45316969216E+02  0.61375211748E+02  0.41800000000E+01 0.  1.
         -5    1    3    3    0  502 -0.46424010086E+01 -0.62488925546E+02 -0.33939709723E+03  0.34515834006E+03  0.41800000000E+01 0.  1.
        -11    1    1    2    0    0 -0.43646954845E+02  0.19850514387E+02 -0.66709801222E+02  0.82154106214E+02  0.00000000000E+00 0. -1.
         11    1    1    2    0    0  0.19982255649E+02  0.12729807110E+02 -0.89215242316E+02  0.92307626940E+02  0.00000000000E+00 0.  1.
</event>
<event>
 7    1  0.2612213E-009  0.1186702E+03  0.7561462E-02  0.1245307E+00
          1   -1    0    0  501    0  0.00000000000E+00  0.00000000000E+00  0.68492790106E+02  0.68492790106E+02  0.00000000000E+00 0. -1.
         -1   -1    0    0    0  501 -0.00000000000E+00 -0.00000000000E+00 -0.23373164308E+03  0.23373164308E+03  0.00000000000E+00 0.  1.
         25    2    1    2    0    0  0.59113584718E+02  0.19273007513E+02 -0.12250393510E+03  0.18579669172E+03  0.12508929539E+03 0.  0.
          5    1    3    3  502    0  0.57688625352E+01 -0.50922342083E+02 -0.44169763223E+02  0.67784991564E+02  0.41800000000E+01 0.  1.
         -5    1    3    3    0  502  0.53344722183E+02  0.70195349596E+02 -0.78334171881E+02  0.11801170016E+03  0.41800000000E+01 0.  1.
        -11    1    1    2    0    0  0.12163141348E+02  0.14381742436E+02 -0.31648280067E+02  0.36829202465E+02  0.00000000000E+00 0.  1.
         11    1    1    2    0    0 -0.71276726066E+02 -0.33654749949E+02 -0.11086637800E+02  0.79598538997E+02  0.00000000000E+00 0. -1.
</event>
<event>
 7    1  0.2612213E-009  0.1059062E+03  0.7561462E-02  0.1268344E+00
          1   -1    0    0  501    0  0.00000000000E+00  0.00000000000E+00  0.76451520995E+03  0.76451520995E+03  0.00000000000E+00 0. -1.
         -1   -1    0    0    0  501 -0.00000000000E+00 -0.00000000000E+00 -0.18522326086E+02  0.18522326086E+02  0.00000000000E+00 0.  1.
         25    2    1    2    0    0  0.26109794813E+02 -0.25300448617E+02  0.34282659778E+03  0.36674309061E+03  0.12509430153E+03 0.  0.
          5    1    3    3  502    0 -0.52435764900E+00  0.39059372977E+02  0.40326404863E+02  0.56299208675E+02  0.41800000000E+01 0. -1.
         -5    1    3    3    0  502  0.26634152462E+02 -0.64359821594E+02  0.30250019292E+03  0.31044388193E+03  0.41800000000E+01 0. -1.
        -11    1    1    2    0    0 -0.53914103694E+02 -0.12961668980E+02  0.18892536440E+03  0.19689471490E+03  0.00000000000E+00 0.  1.
         11    1    1    2    0    0  0.27804308881E+02  0.38262117597E+02  0.21424092168E+03  0.21939973053E+03  0.00000000000E+00 0. -1.
</event>
<event>
 7    1  0.2612213E-009  0.1945481E+03  0.7561462E-02  0.1154422E+00
          1   -1    0    0  501    0  0.00000000000E+00  0.00000000000E+00  0.58074554027E+03  0.58074554027E+03  0.00000000000E+00 0. -1.
         -1   -1    0    0    0  501 -0.00000000000E+00 -0.00000000000E+00 -0.12416568876E+03  0.12416568876E+03  0.00000000000E+00 0.  1.
         25    2    1    2    0    0 -0.16162337017E+03  0.69317213016E+02  0.45913714164E+03  0.50732776223E+03  0.12509018222E+03 0.  0.
          5    1    3    3  502    0 -0.10232960900E+03  0.10212701747E+03  0.35115577893E+03  0.37977510457E+03  0.41800000000E+01 0. -1.
         -5    1    3    3    0  502 -0.59293761172E+02 -0.32809804459E+02  0.10798136272E+03  0.12755265766E+03  0.41800000000E+01 0. -1.
        -11    1    1    2    0    0  0.13507148060E+03 -0.64095968734E+02  0.32795816452E+02  0.15306261352E+03  0.00000000000E+00 0. -1.
         11    1    1    2    0    0  0.26551889570E+02 -0.52212442814E+01 -0.35353106583E+02  0.44520853279E+02  0.00000000000E+00 0.  1.
</event>
<event>
 7    1  0.2612213E-009  0.8028227E+02  0.7561462E-02  0.1328252E+00
          2   -1    0    0  501    0  0.00000000000E+00  0.00000000000E+00  0.27288600511E+03  0.27288600511E+03  0.00000000000E+00 0. -1.
         -2   -1    0    0    0  501 -0.00000000000E+00 -0.00000000000E+00 -0.75822965927E+02  0.75822965927E+02  0.00000000000E+00 0.  1.
         25    2    1    2    0    0  0.27224734128E+02 -0.67175643557E+02  0.17229056882E+03  0.22491249486E+03  0.12509131468E+03 0.  0.
          5    1    3    3  502    0  0.12226560579E+01  0.62117431335E+01 -0.17856083700E+02  0.19400844458E+02  0.41800000000E+01 0.  1.
         -5    1    3    3    0  502  0.26002078070E+02 -0.73387386690E+02  0.19014665252E+03  0.20551165041E+03  0.41800000000E+01 0.  1.
        -11    1    1    2    0    0 -0.16014996126E+02  0.16069160567E+02 -0.36654188148E+02  0.43107163338E+02  0.00000000000E+00 0.  1.
         11    1    1    2    0    0 -0.11209738002E+02  0.51106482989E+02  0.61426658515E+02  0.80689312836E+02  0.00000000000E+00 0. -1.
</event>
<event>
 7    1  0.2612213E-009  0.8357982E+02  0.7561462E-02  0.1319189E+00
         -4   -1    0    0    0  501 -0.00000000000E+00  0.00000000000E+00  0.39319994565E+02  0.39319994565E+02  0.00000000000E+00 0.  1.
          4   -1    0    0  501    0  0.00000000000E+00 -0.00000000000E+00 -0.22898954666E+03  0.22898954666E+03  0.00000000000E+00 0. -1.
         25    2    1    2    0    0  0.33547131747E+02 -0.30023708709E+02 -0.11687853520E+03  0.17701676688E+03  0.12509001013E+03 0.  0.
          5    1    3    3  502    0 -0.30872392958E+02  0.13941012945E+02  0.26487270863E+01  0.34233677046E+02  0.41800000000E+01 0.  1.
         -5    1    3    3    0  502  0.64419524706E+02 -0.43964721654E+02 -0.11952726229E+03  0.14278308984E+03  0.41800000000E+01 0.  1.
        -11    1    1    2    0    0  0.25714022305E+01  0.15957965666E+02 -0.18211059628E+02  0.24349773518E+02  0.00000000000E+00 0.  1.
         11    1    1    2    0    0 -0.36118533978E+02  0.14065743043E+02 -0.54579957262E+02  0.66943000820E+02  0.00000000000E+00 0. -1.
</event>
<event>
 7    1  0.2612213E-009  0.1271065E+03  0.7561462E-02  0.1231813E+00
         -1   -1    0    0    0  501 -0.00000000000E+00  0.00000000000E+00  0.55752968488E+02  0.55752968488E+02  0.00000000000E+00 0.  1.
          1   -1    0    0  501    0  0.00000000000E+00 -0.00000000000E+00 -0.39444950842E+03  0.39444950842E+03  0.00000000000E+00 0. -1.
         25    2    1    2    0    0 -0.19763007480E+02 -0.88920569626E+02 -0.24699374790E+03  0.29147106484E+03  0.12510805718E+03 0.  0.
          5    1    3    3  502    0  0.50069476079E+02 -0.61750473556E+02 -0.12192240729E+03  0.14561119194E+03  0.41800000000E+01 0.  1.
         -5    1    3    3    0  502 -0.69832483559E+02 -0.27170096070E+02 -0.12507134061E+03  0.14585987290E+03  0.41800000000E+01 0.  1.
        -11    1    1    2    0    0  0.29716562940E+02  0.41143117801E+02 -0.97166961225E+02  0.10962321200E+03  0.00000000000E+00 0. -1.
         11    1    1    2    0    0 -0.99535554604E+01  0.47777451825E+02  0.54641691898E+01  0.49108200070E+02  0.00000000000E+00 0.  1.
</event>
<event>
 7    1  0.2612213E-009  0.1438771E+03  0.7561462E-02  0.1208205E+00
         -2   -1    0    0    0  501 -0.00000000000E+00  0.00000000000E+00  0.79692946438E+02  0.79692946438E+02  0.00000000000E+00 0.  1.
          2   -1    0    0  501    0  0.00000000000E+00 -0.00000000000E+00 -0.32301010387E+03  0.32301010387E+03  0.00000000000E+00 0. -1.
         25    2    1    2    0    0 -0.10172501002E+03  0.38797327853E+01 -0.54231356392E+02  0.17015186745E+03  0.12509031934E+03 0.  0.
          5    1    3    3  502    0 -0.90247196600E+02  0.54247761598E+02 -0.17976487952E+02  0.10690183652E+03  0.41800000000E+01 0.  1.
         -5    1    3    3    0  502 -0.11477813422E+02 -0.50368028813E+02 -0.36254868440E+02  0.63250030933E+02  0.41800000000E+01 0.  1.
        -11    1    1    2    0    0  0.60122327148E+02  0.38313442055E+02 -0.13330812523E+03  0.15117430442E+03  0.00000000000E+00 0. -1.
         11    1    1    2    0    0  0.41602682873E+02 -0.42193174840E+02 -0.55777675813E+02  0.81376878439E+02  0.00000000000E+00 0.  1.
</event>
<event>
 7    1  0.2612213E-009  0.8719421E+02  0.7561462E-02  0.1309792E+00
         -2   -1    0    0    0  501 -0.00000000000E+00  0.00000000000E+00  0.10585664699E+02  0.10585664699E+02  0.00000000000E+00 0.  1.
          2   -1    0    0  501    0  0.00000000000E+00 -0.00000000000E+00 -0.12216322309E+04  0.12216322309E+04  0.00000000000E+00 0. -1.
         25    2    1    2    0    0 -0.81090740709E+01 -0.14005761394E+02 -0.86645561463E+03  0.87558859907E+03  0.12509254280E+03 0.  0.
          5    1    3    3  502    0 -0.31861093374E+02  0.22386177280E+02 -0.75308142174E+03  0.75409904547E+03  0.41800000000E+01 0.  1.
         -5    1    3    3    0  502  0.23752019304E+02 -0.36391938674E+02 -0.11337419289E+03  0.12148955360E+03  0.41800000000E+01 0.  1.
        -11    1    1    2    0    0  0.15490751473E+01 -0.38561490124E+02 -0.15987610571E+03  0.16446810430E+03  0.00000000000E+00 0. -1.
         11    1    1    2    0    0  0.65599989236E+01  0.52567251517E+02 -0.18471484588E+03  0.19216119224E+03  0.00000000000E+00 0.  1.
</event>
<event>
 7    1  0.2612213E-009  0.1289614E+03  0.7561462E-02  0.1229005E+00
         -2   -1    0    0    0  501 -0.00000000000E+00  0.00000000000E+00  0.24711776059E+03  0.24711776059E+03  0.00000000000E+00 0.  1.
          2   -1    0    0  501    0  0.00000000000E+00 -0.00000000000E+00 -0.90215231635E+02  0.90215231635E+02  0.00000000000E+00 0. -1.
         25    2    1    2    0    0 -0.26594258070E+02 -0.97733725176E+02  0.83557414224E+02  0.18135165746E+03  0.12508975414E+03 0.  0.
          5    1    3    3  502    0  0.23981869302E+02 -0.94732847343E+02  0.19777629699E+02  0.99790127054E+02  0.41800000000E+01 0.  1.
         -5    1    3    3    0  502 -0.50576127372E+02 -0.30008778328E+01  0.63779784525E+02  0.81561530404E+02  0.41800000000E+01 0.  1.
        -11    1    1    2    0    0  0.35103855732E+02  0.51893691088E+02  0.87172230201E+02  0.10735098314E+03  0.00000000000E+00 0. -1.
         11    1    1    2    0    0 -0.85095976616E+01  0.45840034088E+02 -0.13827115471E+02  0.48630351631E+02  0.00000000000E+00 0.  1.
</event>
<event>
 7    1  0.2612213E-009  0.9567644E+02  0.7561462E-02  0.1289660E+00
         -2   -1    0    0    0  501 -0.00000000000E+00  0.00000000000E+00  0.16703511497E+03  0.16703511497E+03  0.00000000000E+00 0.  1.
          2   -1    0    0  501    0  0.00000000000E+00 -0.00000000000E+00 -0.96953826606E+02  0.96953826606E+02  0.00000000000E+00 0. -1.
         25    2    1    2    0    0  0.15219927721E+02  0.64623674424E+02  0.47313292291E+02  0.14931298608E+03  0.12509178506E+03 0.  0.
          5    1    3    3  502    0  0.49086807546E+01  0.70798553241E+02 -0.25401403438E+02  0.75493271120E+02  0.41800000000E+01 0.  1.
         -5    1    3    3    0  502  0.10311246966E+02 -0.61748788170E+01  0.72714695729E+02  0.73819714964E+02  0.41800000000E+01 0.  1.
        -11    1    1    2    0    0 -0.29602313019E+02 -0.80704493496E+02  0.31289563227E+02  0.91479773575E+02  0.00000000000E+00 0.  1.
         11    1    1    2    0    0  0.14382385298E+02  0.16080819071E+02 -0.85215671530E+01  0.23196181919E+02  0.00000000000E+00 0. -1.
</event>
<event>
 7    1  0.2612213E-009  0.1899391E+03  0.7561462E-02  0.1158516E+00
         -2   -1    0    0    0  501 -0.00000000000E+00  0.00000000000E+00  0.77891338305E+02  0.77891338305E+02  0.00000000000E+00 0.  1.
          2   -1    0    0  501    0  0.00000000000E+00 -0.00000000000E+00 -0.51922214286E+03  0.51922214286E+03  0.00000000000E+00 0. -1.
         25    2    1    2    0    0  0.77267043190E+02 -0.14563603744E+03 -0.17482213813E+03  0.27090512297E+03  0.12508698698E+03 0.  0.
          5    1    3    3  502    0 -0.14216790153E+02 -0.10546398891E+03 -0.99009565080E+02  0.14541367355E+03  0.41800000000E+01 0.  1.
         -5    1    3    3    0  502  0.91483833343E+02 -0.40172048531E+02 -0.75812573046E+02  0.12549144942E+03  0.41800000000E+01 0.  1.
        -11    1    1    2    0    0 -0.43366976509E+02  0.29642950846E+02 -0.14760894321E+03  0.15667737329E+03  0.00000000000E+00 0. -1.
         11    1    1    2    0    0 -0.33900066681E+02  0.11599308659E+03 -0.11889972322E+03  0.16953098490E+03  0.00000000000E+00 0.  1.
</event>
<event>
 7    1  0.2612213E-009  0.8708336E+02  0.7561462E-02  0.1310073E+00
          3   -1    0    0  501    0  0.00000000000E+00  0.00000000000E+00  0.16425614720E+03  0.16425614720E+03  0.00000000000E+00 0. -1.
         -3   -1    0    0    0  501 -0.00000000000E+00 -0.00000000000E+00 -0.99664247040E+02  0.99664247040E+02  0.00000000000E+00 0.  1.
         25    2    1    2    0    0  0.39561676136E+02  0.15041354254E+02  0.90514542873E+02  0.16009974342E+03  0.12509067438E+03 0.  0.
          5    1    3    3  502    0 -0.41929330889E+02  0.77305093382E+01  0.75457461849E+01  0.43499887919E+02  0.41800000000E+01 0.  1.
         -5    1    3    3    0  502  0.81491007026E+02  0.73108449160E+01  0.82968796688E+02  0.11659985550E+03  0.41800000000E+01 0.  1.
        -11    1    1    2    0    0 -0.15446162811E+02 -0.19500718177E+02  0.32226613417E+02  0.40711381300E+02  0.00000000000E+00 0. -1.
         11    1    1    2    0    0 -0.24115513325E+02  0.44593639224E+01 -0.58149256135E+02  0.63109269514E+02  0.00000000000E+00 0.  1.
</event>
<event>
 7    1  0.2612213E-009  0.1201270E+03  0.7561462E-02  0.1242888E+00
         -2   -1    0    0    0  501 -0.00000000000E+00  0.00000000000E+00  0.59031805000E+02  0.59031805000E+02  0.00000000000E+00 0. -1.
          2   -1    0    0  501    0  0.00000000000E+00 -0.00000000000E+00 -0.55369936130E+03  0.55369936130E+03  0.00000000000E+00 0.  1.
         25    2    1    2    0    0  0.47470136233E+02  0.48712743981E+02 -0.45872020107E+02  0.14959346969E+03  0.12509044202E+03 0.  0.
          5    1    3    3  502    0 -0.33677881838E+02  0.29902815025E+02  0.13514288823E+02  0.47206847744E+02  0.41800000000E+01 0. -1.
         -5    1    3    3    0  502  0.81148018072E+02  0.18809928956E+02 -0.59386308930E+02  0.10238662194E+03  0.41800000000E+01 0. -1.
        -11    1    1    2    0    0 -0.30139456027E+02  0.22954723985E+02 -0.20364007078E+03  0.20713421879E+03  0.00000000000E+00 0.  1.
         11    1    1    2    0    0 -0.17330680206E+02 -0.71667467966E+02 -0.24515546541E+03  0.25600347783E+03  0.00000000000E+00 0. -1.
</event>
<event>
 7    1  0.2612213E-009  0.1398238E+03  0.7561462E-02  0.1213566E+00
          1   -1    0    0  501    0  0.00000000000E+00  0.00000000000E+00  0.10914509912E+03  0.10914509912E+03  0.00000000000E+00 0. -1.
         -1   -1    0    0    0  501 -0.00000000000E+00 -0.00000000000E+00 -0.28059484734E+03  0.28059484734E+03  0.00000000000E+00 0.  1.
         25    2    1    2    0    0 -0.27597751431E+02 -0.10573775974E+03 -0.18227399262E+03  0.24660279790E+03  0.12508805631E+03 0.  0.
          5    1    3    3  502    0  0.43973836775E+02 -0.77144902626E+02 -0.99411102913E+02  0.13336069175E+03  0.41800000000E+01 0.  1.
         -5    1    3    3    0  502 -0.71571588205E+02 -0.28592857111E+02 -0.82862889703E+02  0.11324210615E+03  0.41800000000E+01 0.  1.
        -11    1    1    2    0    0  0.33913535316E+02  0.76910519316E+02 -0.33001151500E+02  0.90301892889E+02  0.00000000000E+00 0.  1.
         11    1    1    2    0    0 -0.63157838848E+01  0.28827240421E+02  0.43825395893E+02  0.52835255668E+02  0.00000000000E+00 0. -1.
</event>
<event>
 7    1  0.2612213E-009  0.2284933E+03  0.7561462E-02  0.1127705E+00
         -2   -1    0    0    0  501 -0.00000000000E+00  0.00000000000E+00  0.84913663486E+02  0.84913663486E+02  0.00000000000E+00 0.  1.
          2   -1    0    0  501    0  0.00000000000E+00 -0.00000000000E+00 -0.98705201270E+03  0.98705201270E+03  0.00000000000E+00 0. -1.
         25    2    1    2    0    0 -0.96293185152E+02 -0.19016832070E+03 -0.76233366194E+03  0.80139658808E+03  0.12509001380E+03 0.  0.
          5    1    3    3  502    0 -0.20709042414E+02 -0.13945772697E+03 -0.58808552519E+03  0.60476390384E+03  0.41800000000E+01 0. -1.
         -5    1    3    3    0  502 -0.75584142738E+02 -0.50710593731E+02 -0.17424813675E+03  0.19663268424E+03  0.41800000000E+01 0. -1.
        -11    1    1    2    0    0 -0.97270668205E+01  0.38694224724E+01  0.52863430811E+01  0.11727475533E+02  0.00000000000E+00 0.  1.
         11    1    1    2    0    0  0.10602025197E+03  0.18629889823E+03 -0.14509103035E+03  0.25884161257E+03  0.00000000000E+00 0. -1.
</event>
<event>
 7    1  0.2612213E-009  0.9735569E+02  0.7561462E-02  0.1285957E+00
         -2   -1    0    0    0  501 -0.00000000000E+00  0.00000000000E+00  0.65003074573E+02  0.65003074573E+02  0.00000000000E+00 0.  1.
          2   -1    0    0  501    0  0.00000000000E+00 -0.00000000000E+00 -0.31279697124E+03  0.31279697124E+03  0.00000000000E+00 0. -1.
         25    2    1    2    0    0  0.25951141355E+02 -0.63347176499E+02 -0.21855524603E+03  0.26096061894E+03  0.12509085724E+03 0.  0.
          5    1    3    3  502    0 -0.13597004327E+02 -0.49494346545E+02 -0.15784012137E+02  0.53862568689E+02  0.41800000000E+01 0. -1.
         -5    1    3    3    0  502  0.39548145682E+02 -0.13852829954E+02 -0.20277123389E+03  0.20709805025E+03  0.41800000000E+01 0. -1.
        -11    1    1    2    0    0  0.26220026981E+02  0.26119670788E+02  0.13953050033E+02  0.39552681605E+02  0.00000000000E+00 0.  1.
         11    1    1    2    0    0 -0.52171168336E+02  0.37227505711E+02 -0.43191700671E+02  0.77286745266E+02  0.00000000000E+00 0. -1.
</event>
<event>
 6    1  0.2612213E-009  0.3310276E+03  0.7561462E-02  0.1070683E+00
          1   -1    0    0  501    0  0.00000000000E+00  0.00000000000E+00  0.45263104112E+03  0.45263104112E+03  0.00000000000E+00 0. -1.
         -1   -1    0    0    0  501 -0.00000000000E+00 -0.00000000000E+00 -0.38802624434E+03  0.38802624434E+03  0.00000000000E+00 0.  1.
          5    1    1    2  502    0 -0.26442418466E+03  0.17706379601E+02  0.27277201814E+03  0.38033631379E+03  0.41800000000E+01 0. -1.
         -5    1    1    2    0  502 -0.61073865874E+02  0.12751805232E+02 -0.13762716196E+01  0.62545920355E+02  0.41800000000E+01 0. -1.
        -11    1    1    2    0    0  0.16903227811E+03 -0.51257175619E+02 -0.14403454842E+03  0.22791480916E+03  0.00000000000E+00 0. -1.
         11    1    1    2    0    0  0.15646577242E+03  0.20798990787E+02 -0.62756401323E+02  0.16986024215E+03  0.00000000000E+00 0.  1.
</event>
<event>
 7    1  0.2612213E-009  0.1540913E+03  0.7561462E-02  0.1195534E+00
         -2   -1    0    0    0  501 -0.00000000000E+00  0.00000000000E+00  0.79247986968E+02  0.79247986968E+02  0.00000000000E+00 0.  1.
          2   -1    0    0  501    0  0.00000000000E+00 -0.00000000000E+00 -0.39575557548E+03  0.39575557548E+03  0.00000000000E+00 0. -1.
         25    2    1    2    0    0  0.23551837169E+02 -0.11177054675E+03 -0.60095307853E+02  0.17973438583E+03  0.12508260978E+03 0.  0.
          5    1    3    3  502    0  0.12760090024E+02  0.23239008104E+02 -0.31250032271E+02  0.41193546970E+02  0.41800000000E+01 0.  1.
         -5    1    3    3    0  502  0.10791747145E+02 -0.13500955485E+03 -0.28845275583E+02  0.13854083886E+03  0.41800000000E+01 0.  1.
        -11    1    1    2    0    0  0.29466126598E+02  0.76975402868E+02 -0.13183528496E+03  0.15547992675E+03  0.00000000000E+00 0.  1.
         11    1    1    2    0    0 -0.53017963767E+02  0.34795143883E+02 -0.12457699571E+03  0.13978924987E+03  0.00000000000E+00 0. -1.
</event>
<event>
 7    1  0.2612213E-009  0.2180272E+03  0.7561462E-02  0.1135362E+00
         -2   -1    0    0    0  501 -0.00000000000E+00  0.00000000000E+00  0.44243565025E+03  0.44243565025E+03  0.00000000000E+00 0.  1.
          2   -1    0    0  501    0  0.00000000000E+00 -0.00000000000E+00 -0.13839686429E+03  0.13839686429E+03  0.00000000000E+00 0. -1.
         25    2    1    2    0    0 -0.21396609634E+03 -0.57297613284E+01  0.87046858587E+02  0.26274997676E+03  0.12508426819E+03 0.  0.
          5    1    3    3  502    0 -0.16774395401E+03  0.74429502684E+01  0.11814529397E+03  0.20535144145E+03  0.41800000000E+01 0.  1.
         -5    1    3    3    0  502 -0.46222142327E+02 -0.13172711597E+02 -0.31098435387E+02  0.57398535309E+02  0.41800000000E+01 0.  1.
        -11    1    1    2    0    0  0.11945433385E+03 -0.21761863939E+02  0.67002197873E+02  0.13868024776E+03  0.00000000000E+00 0. -1.
         11    1    1    2    0    0  0.94511762488E+02  0.27491625267E+02  0.14998972950E+03  0.17940229002E+03  0.00000000000E+00 0.  1.
</event>
<event>
 7    1  0.2612213E-009  0.2182362E+03  0.7561462E-02  0.1135205E+00
          1   -1    0    0  501    0  0.00000000000E+00  0.00000000000E+00  0.15944091022E+04  0.15944091022E+04  0.00000000000E+00 0. -1.
         -1   -1    0    0    0  501 -0.00000000000E+00 -0.00000000000E+00 -0.36110849224E+02  0.36110849224E+02  0.00000000000E+00 0.  1.
         25    2    1    2    0    0 -0.97362358451E+02  0.18106018929E+03  0.56504313918E+03  0.61416329366E+03  0.12514224369E+03 0.  0.
          5    1    3    3  502    0  0.17752466282E+02  0.51348530441E+02  0.23579699613E+03  0.24201139937E+03  0.41800000000E+01 0.  1.
         -5    1    3    3    0  502 -0.11511482473E+03  0.12971165885E+03  0.32924614305E+03  0.37215189430E+03  0.41800000000E+01 0.  1.
        -11    1    1    2    0    0  0.51753884568E+02 -0.13063654879E+03  0.77903275667E+03  0.79160369404E+03  0.00000000000E+00 0. -1.
         11    1    1    2    0    0  0.45608473883E+02 -0.50423640502E+02  0.21422235709E+03  0.22475296369E+03  0.00000000000E+00 0.  1.
</event>
<event>
 7    1  0.2612213E-009  0.1120447E+03  0.7561462E-02  0.1256830E+00
          1   -1    0    0  501    0  0.00000000000E+00  0.00000000000E+00  0.16618836778E+03  0.16618836778E+03  0.00000000000E+00 0. -1.
         -1   -1    0    0    0  501 -0.00000000000E+00 -0.00000000000E+00 -0.12857280444E+03  0.12857280444E+03  0.00000000000E+00 0.  1.
         25    2    1    2    0    0 -0.28610905849E+02  0.82332887432E+02 -0.23317078383E+02  0.15423483794E+03  0.12508961109E+03 0.  0.
          5    1    3    3  502    0 -0.10572456272E+02  0.10266924861E+03 -0.51009856628E+02  0.11520516184E+03  0.41800000000E+01 0. -1.
         -5    1    3    3    0  502 -0.18038449578E+02 -0.20336361177E+02  0.27692778246E+02  0.39029676095E+02  0.41800000000E+01 0. -1.
        -11    1    1    2    0    0  0.36221913684E+02 -0.69368010403E+02  0.50567534352E+00  0.78257291071E+02  0.00000000000E+00 0.  1.
         11    1    1    2    0    0 -0.76110078344E+01 -0.12964877028E+02  0.60426966378E+02  0.62269043210E+02  0.00000000000E+00 0. -1.
</event>
<event>
 7    1  0.2612213E-009  0.7373622E+02  0.7561462E-02  0.1347830E+00
          1   -1    0    0  501    0  0.00000000000E+00  0.00000000000E+00  0.13024279744E+03  0.13024279744E+03  0.00000000000E+00 0. -1.
         -1   -1    0    0    0  501 -0.00000000000E+00 -0.00000000000E+00 -0.10267422086E+03  0.10267422086E+03  0.00000000000E+00 0.  1.
         25    2    1    2    0    0  0.17852243255E+02  0.15065341824E+02  0.45473265198E+02  0.13513035244E+03  0.12508687857E+03 0.  0.
          5    1    3    3  502    0 -0.89015294974E+01 -0.22760951373E+02  0.75697324600E+02  0.79654601162E+02  0.41800000000E+01 0.  1.
         -5    1    3    3    0  502  0.26753772753E+02  0.37826293197E+02 -0.30224059402E+02  0.55475751281E+02  0.41800000000E+01 0.  1.
        -11    1    1    2    0    0 -0.46129301193E+02 -0.63224436860E+01  0.19164893244E+02  0.50350559636E+02  0.00000000000E+00 0. -1.
         11    1    1    2    0    0  0.28277057937E+02 -0.87428981380E+01 -0.37069581859E+02  0.47436106213E+02  0.00000000000E+00 0.  1.
</event>
<event>
 7    1  0.2612213E-009  0.9474933E+02  0.7561462E-02  0.1291742E+00
         -1   -1    0    0    0  501 -0.00000000000E+00  0.00000000000E+00  0.39832361703E+03  0.39832361703E+03  0.00000000000E+00 0.  1.
          1   -1    0    0  501    0  0.00000000000E+00 -0.00000000000E+00 -0.35413859378E+02  0.35413859378E+02  0.00000000000E+00 0. -1.
         25    2    1    2    0    0 -0.10485042405E+02 -0.55810344405E+01  0.29218640734E+03  0.31805959707E+03  0.12509167278E+03 0.  0.
          5    1    3    3  502    0  0.47944852655E+02 -0.35357575670E+02  0.12968287588E+03  0.14277250348E+03  0.41800000000E+01 0.  1.
         -5    1    3    3    0  502 -0.58429895060E+02  0.29776541229E+02  0.16250353145E+03  0.17528709359E+03  0.41800000000E+01 0.  1.
        -11    1    1    2    0    0 -0.19587091930E+02  0.22283123088E+02 -0.71742590500E+01  0.30523134468E+02  0.00000000000E+00 0. -1.
         11    1    1    2    0    0  0.30072134335E+02 -0.16702088647E+02  0.77897609365E+02  0.85154744868E+02  0.00000000000E+00 0.  1.
</event>
<event>
 6    1  0.2612213E-009  0.2398051E+03  0.7561462E-02  0.1119923E+00
          2   -1    0    0  501    0  0.00000000000E+00  0.00000000000E+00  0.36216516008E+03  0.36216516008E+03  0.00000000000E+00 0. -1.
         -2   -1    0    0    0  501 -0.00000000000E+00 -0.00000000000E+00 -0.17509932369E+03  0.17509932369E+03  0.00000000000E+00 0.  1.
          5    1    1    2  502    0 -0.47741462447E+01  0.53832418032E+01  0.36133838974E+02  0.37079623564E+02  0.41800000000E+01 0. -1.
         -5    1    1    2    0  502 -0.49619818610E+02 -0.22571580106E+03  0.55490641476E+02  0.23771081788E+03  0.41800000000E+01 0. -1.
        -11    1    1    2    0    0 -0.21954468278E+01  0.14935055534E+03  0.34993719620E+02  0.15341111035E+03  0.00000000000E+00 0.  1.
         11    1    1    2    0    0  0.56589411683E+02  0.70982003913E+02  0.60447636320E+02  0.10906293197E+03  0.00000000000E+00 0. -1.
</event>
<event>
 7    1  0.2612213E-009  0.1528342E+03  0.7561462E-02  0.1197033E+00
          2   -1    0    0  501    0  0.00000000000E+00  0.00000000000E+00  0.16455417697E+04  0.16455417697E+04  0.00000000000E+00 0. -1.
         -2   -1    0    0    0  501 -0.00000000000E+00 -0.00000000000E+00 -0.29123509685E+02  0.29123509685E+02  0.00000000000E+00 0.  1.
         25    2    1    2    0    0 -0.98978749769E+02 -0.78911324084E+02  0.13790495909E+04  0.13904851687E+04  0.12508972872E+03 0.  0.
          5    1    3    3  502    0 -0.68716096801E+02  0.62072856844E+01  0.30978175147E+03  0.31739980829E+03  0.41800000000E+01 0.  1.
         -5    1    3    3    0  502 -0.30262652967E+02 -0.85118609768E+02  0.10692678394E+04  0.10730853604E+04  0.41800000000E+01 0.  1.
        -11    1    1    2    0    0  0.37035386916E+02  0.75475605371E+02  0.18418456329E+03  0.20246515810E+03  0.00000000000E+00 0. -1.
         11    1    1    2    0    0  0.61943362852E+02  0.34357187131E+01  0.53184105835E+02  0.81714952597E+02  0.00000000000E+00 0.  1.
</event>
<event>
 7    1  0.2612213E-009  0.7821717E+02  0.7561462E-02  0.1334188E+00
         -1   -1    0    0    0  501 -0.00000000000E+00  0.00000000000E+00  0.16100019026E+02  0.16100019026E+02  0.00000000000E+00 0.  1.
          1   -1    0    0  501    0  0.00000000000E+00 -0.00000000000E+00 -0.92539095654E+03  0.92539095654E+03  0.00000000000E+00 0. -1.
         25    2    1    2    0    0  0.13849702420E+02 -0.52364504089E+02 -0.46112828198E+03  0.48085324408E+03  0.12508674732E+03 0.  0.
          5    1    3    3  502    0  0.25160570072E+02 -0.33088373062E+02 -0.45552379856E+03  0.45743556724E+03  0.41800000000E+01 0.  1.
         -5    1    3    3    0  502 -0.11310867652E+02 -0.19276131027E+02 -0.56044834218E+01  0.23417676845E+02  0.41800000000E+01 0.  1.
        -11    1    1    2    0    0 -0.87764189254E+01 -0.18709013073E+02 -0.29883542197E+02  0.36332888594E+02  0.00000000000E+00 0.  1.
         11    1    1    2    0    0 -0.50732834942E+01  0.71073517162E+02 -0.41827911334E+03  0.42430484290E+03  0.00000000000E+00 0. -1.
</event>
<event>
 7    1  0.2612213E-009  0.1373012E+03  0.7561462E-02  0.1217007E+00
          1   -1    0    0  501    0  0.00000000000E+00  0.00000000000E+00  0.52723250304E+03  0.52723250304E+03  0.00000000000E+00 0. -1.
         -1   -1    0    0    0  501 -0.00000000000E+00 -0.00000000000E+00 -0.42292692242E+02  0.42292692242E+02  0.00000000000E+00 0.  1.
         25    2    1    2    0    0  0.35038055081E+01  0.89798887091E+02  0.35065469144E+03  0.38298946546E+03  0.12508437651E+03 0.  0.
          5    1    3    3  502    0  0.13794410773E+02  0.11823364729E+03  0.31040376743E+03  0.33247173166E+03  0.41800000000E+01 0. -1.
         -5    1    3    3    0  502 -0.10290605265E+02 -0.28434760198E+02  0.40250924013E+02  0.50517733799E+02  0.41800000000E+01 0. -1.
        -11    1    1    2    0    0 -0.40971159535E+02 -0.19652267701E+02  0.73612774136E+02  0.86508312060E+02  0.00000000000E+00 0.  1.
         11    1    1    2    0    0  0.37467354027E+02 -0.70146619390E+02  0.60672345218E+02  0.10002741776E+03  0.00000000000E+00 0. -1.
</event>
<event>
 7    1  0.2612213E-009  0.6539605E+02  0.7561462E-02  0.1376488E+00
         -4   -1    0    0    0  501 -0.00000000000E+00  0.00000000000E+00  0.23069568737E+02  0.23069568737E+02  0.00000000000E+00 0.  1.
          4   -1    0    0  501    0  0.00000000000E+00 -0.00000000000E+00 -0.55631553493E+03  0.55631553493E+03  0.00000000000E+00 0. -1.
         25    2    1    2    0    0  0.65040886305E+01 -0.28392687223E+02 -0.35483855950E+03  0.37737027319E+03  0.12509784938E+03 0.  0.
          5    1    3    3  502    0  0.13770614154E+02 -0.17228059064E+02 -0.36129251008E+03  0.36198920713E+03  0.41800000000E+01 0. -1.
         -5    1    3    3    0  502 -0.72665255231E+01 -0.11164628159E+02  0.64539505817E+01  0.15381066063E+02  0.41800000000E+01 0. -1.
        -11    1    1    2    0    0 -0.37139675192E+02  0.45942173155E+02 -0.10269076574E+03  0.11847122906E+03  0.00000000000E+00 0.  1.
         11    1    1    2    0    0  0.30635586562E+02 -0.17549485932E+02 -0.75716640956E+02  0.83543601419E+02  0.00000000000E+00 0. -1.
</event>
<event>
 7    1  0.2660432E-009  0.1159563E+03  0.7561462E-02  0.1249921E+00
          1   -1    0    0  501    0  0.00000000000E+00  0.00000000000E+00  0.18005497889E+03  0.18005497889E+03  0.00000000000E+00 0. -1.
         -1   -1    0    0    0  501 -0.00000000000E+00 -0.00000000000E+00 -0.11588048510E+03  0.11588048510E+03  0.00000000000E+00 0.  1.
         25    2    1    2    0    0  0.82881586955E+02 -0.33768384102E+02  0.67588212116E+02  0.16801221292E+03  0.12510106336E+03 0.  0.
          5    1    3    3  502    0 -0.94627863112E+01 -0.35707332922E+02 -0.18637587330E+02  0.41585935250E+02  0.41800000000E+01 0.  1.
         -5    1    3    3    0  502  0.92344373267E+02  0.19389488191E+01  0.86225799446E+02  0.12642627767E+03  0.41800000000E+01 0.  1.
        -11    1    1    2    0    0 -0.72085671063E+01  0.25094279162E+02 -0.36501729650E+02  0.44878308277E+02  0.00000000000E+00 0.  1.
         11    1    1    2    0    0 -0.75673019849E+02  0.86741049409E+01  0.33088011328E+02  0.83044942792E+02  0.00000000000E+00 0. -1.
</event>
<event>
 7    1  0.2612213E-009  0.1073418E+03  0.7561462E-02  0.1265573E+00
          2   -1    0    0  501    0  0.00000000000E+00  0.00000000000E+00  0.16255296724E+04  0.16255296724E+04  0.00000000000E+00 0. -1.
         -2   -1    0    0    0  501 -0.00000000000E+00 -0.00000000000E+00 -0.11373381529E+02  0.11373381529E+02  0.00000000000E+00 0.  1.
         25    2    1    2    0    0 -0.26581321912E+02 -0.65877638941E+02  0.11170811392E+04  0.11263052957E+04  0.12508763988E+03 0.  0.
          5    1    3    3  502    0 -0.57416119105E+02 -0.58649381109E+02  0.39205765806E+03  0.40057838220E+03  0.41800000000E+01 0.  1.
         -5    1    3    3    0  502  0.30834797193E+02 -0.72282578324E+01  0.72502348113E+03  0.72572691353E+03  0.41800000000E+01 0.  1.
        -11    1    1    2    0    0 -0.23098740316E+02  0.83866022299E+01  0.37840511652E+02  0.45119743165E+02  0.00000000000E+00 0.  1.
         11    1    1    2    0    0  0.49680062228E+02  0.57491036711E+02  0.45923464007E+03  0.46547801508E+03  0.00000000000E+00 0. -1.
</event>
<event>
 7    1  0.2612213E-009  0.7767661E+02  0.7561462E-02  0.1335777E+00
         -1   -1    0    0    0  501 -0.00000000000E+00  0.00000000000E+00  0.49648826345E+03  0.49648826345E+03  0.00000000000E+00 0.  1.
          1   -1    0    0  501    0  0.00000000000E+00 -0.00000000000E+00 -0.24265878164E+02  0.24265878164E+02  0.00000000000E+00 0. -1.
         25    2    1    2    0    0 -0.74715229008E-01  0.48666159326E+01  0.31129278199E+03  0.33552070544E+03  0.12508900083E+03 0.  0.
          5    1    3    3  502    0 -0.63491456336E+00  0.41482563023E+02  0.28901862958E+02  0.50734566460E+02  0.41800000000E+01 0. -1.
         -5    1    3    3    0  502  0.56019933435E+00 -0.36615947090E+02  0.28239091903E+03  0.28478613898E+03  0.41800000000E+01 0. -1.
        -11    1    1    2    0    0  0.36333213512E+02 -0.14755132027E+02  0.13229617275E+03  0.13798584583E+03  0.00000000000E+00 0.  1.
         11    1    1    2    0    0 -0.36258498283E+02  0.98885160947E+01  0.28633430548E+02  0.47247590343E+02  0.00000000000E+00 0. -1.
</event>
<event>
 7    1  0.2612213E-009  0.9602633E+02  0.7561462E-02  0.1288881E+00
          1   -1    0    0  501    0  0.00000000000E+00  0.00000000000E+00  0.15346123194E+03  0.15346123194E+03  0.00000000000E+00 0. -1.
         -1   -1    0    0    0  501 -0.00000000000E+00 -0.00000000000E+00 -0.81892419470E+02  0.81892419470E+02  0.00000000000E+00 0.  1.
         25    2    1    2    0    0  0.21731274218E+02 -0.15691561648E+02  0.30741500488E+02  0.13157225229E+03  0.12509094426E+03 0.  0.
          5    1    3    3  502    0 -0.14326196131E+02 -0.62141967880E+02 -0.23808443077E+01  0.63953146030E+02  0.41800000000E+01 0.  1.
         -5    1    3    3    0  502  0.36057470349E+02  0.46450406232E+02  0.33122344796E+02  0.67619106263E+02  0.41800000000E+01 0.  1.
        -11    1    1    2    0    0 -0.24687435207E+02 -0.20982459870E+02 -0.15959524340E+02  0.36117025022E+02  0.00000000000E+00 0.  1.
         11    1    1    2    0    0  0.29561609889E+01  0.36674021518E+02  0.56786836325E+02  0.67664374097E+02  0.00000000000E+00 0. -1.
</event>
<event>
 7    1  0.2612213E-009  0.1497599E+03  0.7561462E-02  0.1200768E+00
          2   -1    0    0  501    0  0.00000000000E+00  0.00000000000E+00  0.19034241267E+03  0.19034241267E+03  0.00000000000E+00 0. -1.
         -2   -1    0    0    0  501 -0.00000000000E+00 -0.00000000000E+00 -0.21522086133E+03  0.21522086133E+03  0.00000000000E+00 0.  1.
         25    2    1    2    0    0  0.57211048427E+02 -0.87365559657E+02 -0.14714627155E+03  0.21955625587E+03  0.12508828557E+03 0.  0.
          5    1    3    3  502    0  0.50620337830E+02  0.19263661163E+02 -0.65105035568E+02  0.84791776133E+02  0.41800000000E+01 0. -1.
         -5    1    3    3    0  502  0.65907105963E+01 -0.10662922082E+03 -0.82041235981E+02  0.13476447974E+03  0.41800000000E+01 0. -1.
        -11    1    1    2    0    0 -0.48882697642E+02 -0.16183976921E+01  0.29139857988E+02  0.56932140865E+02  0.00000000000E+00 0.  1.
         11    1    1    2    0    0 -0.83283507844E+01  0.88983957349E+02  0.93127964908E+02  0.12907487726E+03  0.00000000000E+00 0. -1.
</event>
<event>
 7    1  0.2612213E-009  0.2193523E+03  0.7561462E-02  0.1134367E+00
         -2   -1    0    0    0  501 -0.00000000000E+00  0.00000000000E+00  0.65571118912E+02  0.65571118912E+02  0.00000000000E+00 0.  1.
          2   -1    0    0  501    0  0.00000000000E+00 -0.00000000000E+00 -0.84936095121E+03  0.84936095121E+03  0.00000000000E+00 0. -1.
         25    2    1    2    0    0  0.19942779258E+03 -0.53119469407E+02 -0.46405086806E+03  0.52305120326E+03  0.12508489357E+03 0.  0.
          5    1    3    3  502    0  0.18259629930E+03 -0.13742866021E+02 -0.43253427838E+03  0.46971656268E+03  0.41800000000E+01 0. -1.
         -5    1    3    3    0  502  0.16831493277E+02 -0.39376603386E+02 -0.31516589677E+02  0.53334640573E+02  0.41800000000E+01 0. -1.
        -11    1    1    2    0    0 -0.17033706153E+03  0.25189520664E+02 -0.30239218571E+03  0.34798025873E+03  0.00000000000E+00 0. -1.
         11    1    1    2    0    0 -0.29090731046E+02  0.27929948743E+02 -0.17346778529E+02  0.43900608139E+02  0.00000000000E+00 0.  1.
</event>
<event>
 7    1  0.2612213E-009  0.1587535E+03  0.7561462E-02  0.1190111E+00
         -2   -1    0    0    0  501 -0.00000000000E+00  0.00000000000E+00  0.10548932843E+03  0.10548932843E+03  0.00000000000E+00 0. -1.
          2   -1    0    0  501    0  0.00000000000E+00 -0.00000000000E+00 -0.27700254368E+03  0.27700254368E+03  0.00000000000E+00 0.  1.
         25    2    1    2    0    0  0.13040136369E+03 -0.25458502946E+02 -0.78225812074E+02  0.19854320292E+03  0.12508986661E+03 0.  0.
          5    1    3    3  502    0  0.10715222549E+03  0.37686044506E+02 -0.60828771727E+02  0.12891644289E+03  0.41800000000E+01 0.  1.
         -5    1    3    3    0  502  0.23249138203E+02 -0.63144547452E+02 -0.17397040347E+02  0.69626760035E+02  0.41800000000E+01 0.  1.
        -11    1    1    2    0    0 -0.51791760669E+02 -0.51929936457E+01  0.74090032576E+01  0.52576106603E+02  0.00000000000E+00 0. -1.
         11    1    1    2    0    0 -0.78609603021E+02  0.30651496592E+02 -0.10069640644E+03  0.13137256258E+03  0.00000000000E+00 0.  1.
</event>
<event>
 7    1  0.2612213E-009  0.1306686E+03  0.7561462E-02  0.1226467E+00
         -1   -1    0    0    0  501 -0.00000000000E+00  0.00000000000E+00  0.22655402576E+03  0.22655402576E+03  0.00000000000E+00 0.  1.
          1   -1    0    0  501    0  0.00000000000E+00 -0.00000000000E+00 -0.13681589100E+03  0.13681589100E+03  0.00000000000E+00 0. -1.
         25    2    1    2    0    0  0.33911570167E+02  0.78112800111E+02 -0.65294599057E+02  0.16480680178E+03  0.12508514347E+03 0.  0.
          5    1    3    3  502    0 -0.38972317337E+02  0.47797810344E+02  0.72176663235E+00  0.61818003359E+02  0.41800000000E+01 0.  1.
         -5    1    3    3    0  502  0.72883887503E+02  0.30314989768E+02 -0.66016365690E+02  0.10298879843E+03  0.41800000000E+01 0.  1.
        -11    1    1    2    0    0 -0.23291414397E+02 -0.96484118446E+02  0.14329410399E+03  0.17431257939E+03  0.00000000000E+00 0.  1.
         11    1    1    2    0    0 -0.10620155770E+02  0.18371318335E+02  0.11738629825E+02  0.24250535584E+02  0.00000000000E+00 0. -1.
</event>
<event>
 7    1  0.2612213E-009  0.2069602E+03  0.7561462E-02  0.1143996E+00
         -3   -1    0    0    0  501 -0.00000000000E+00  0.00000000000E+00  0.70312891753E+03  0.70312891753E+03  0.00000000000E+00 0. -1.
          3   -1    0    0  501    0  0.00000000000E+00 -0.00000000000E+00 -0.68328540187E+02  0.68328540187E+02  0.00000000000E+00 0.  1.
         25    2    1    2    0    0  0.14817508457E+03 -0.11209911921E+03  0.41324008452E+03  0.47004220734E+03  0.12510092332E+03 0.  0.
          5    1    3    3  502    0  0.33360055855E+02 -0.89167187452E+02  0.26159794912E+03  0.27841451117E+03  0.41800000000E+01 0.  1.
         -5    1    3    3    0  502  0.11481502871E+03 -0.22931931756E+02  0.15164213539E+03  0.19162769617E+03  0.41800000000E+01 0.  1.
        -11    1    1    2    0    0 -0.13115193184E+03  0.12416383891E+03  0.21189995716E+03  0.27842248466E+03  0.00000000000E+00 0. -1.
         11    1    1    2    0    0 -0.17023152723E+02 -0.12064719705E+02  0.96603356664E+01  0.22992765719E+02  0.00000000000E+00 0.  1.
</event>
<event>
 7    1  0.2612213E-009  0.8011300E+02  0.7561462E-02  0.1328731E+00
          4   -1    0    0  501    0  0.00000000000E+00  0.00000000000E+00  0.74326002350E+02  0.74326002350E+02  0.00000000000E+00 0. -1.
         -4   -1    0    0    0  501 -0.00000000000E+00 -0.00000000000E+00 -0.17403066901E+03  0.17403066901E+03  0.00000000000E+00 0.  1.
         25    2    1    2    0    0  0.65196867329E+01  0.28132346681E+01 -0.25130133676E+02  0.12778841210E+03  0.12509170254E+03 0.  0.
          5    1    3    3  502    0 -0.23343677283E+02  0.38867573259E+02 -0.55531548299E+02  0.71811146604E+02  0.41800000000E+01 0. -1.
         -5    1    3    3    0  502  0.29863364015E+02 -0.36054338591E+02  0.30401414623E+02  0.55977265498E+02  0.41800000000E+01 0. -1.
        -11    1    1    2    0    0  0.19934739184E+02 -0.25829242884E+02  0.55599128892E+01  0.33097677345E+02  0.00000000000E+00 0. -1.
         11    1    1    2    0    0 -0.26454425917E+02  0.23016008216E+02 -0.80134445872E+02  0.87470581912E+02  0.00000000000E+00 0.  1.
</event>
<event>
 7    1  0.2612213E-009  0.1345960E+03  0.7561462E-02  0.1220791E+00
         -2   -1    0    0    0  501 -0.00000000000E+00  0.00000000000E+00  0.26861724474E+03  0.26861724474E+03  0.00000000000E+00 0.  1.
          2   -1    0    0  501    0  0.00000000000E+00 -0.00000000000E+00 -0.10820941889E+03  0.10820941889E+03  0.00000000000E+00 0. -1.
         25    2    1    2    0    0 -0.11016199736E+03 -0.11378077357E+02  0.16143812741E+03  0.23232339977E+03  0.12508703686E+03 0.  0.
          5    1    3    3  502    0 -0.12130188953E+02  0.43948159726E+02  0.83879815596E+02  0.95560860669E+02  0.41800000000E+01 0. -1.
         -5    1    3    3    0  502 -0.98031808407E+02 -0.55326237083E+02  0.77558311811E+02  0.13676253910E+03  0.41800000000E+01 0. -1.
        -11    1    1    2    0    0  0.67479867098E+02  0.79264044161E+01  0.45108988340E+02  0.81554774107E+02  0.00000000000E+00 0.  1.
         11    1    1    2    0    0  0.42682130263E+02  0.34516729408E+01 -0.46139289903E+02  0.62948489756E+02  0.00000000000E+00 0. -1.
</event>
<event>
 7    1  0.2612213E-009  0.1009136E+03  0.7561462E-02  0.1278386E+00
          2   -1    0    0  501    0  0.00000000000E+00  0.00000000000E+00  0.26439648174E+03  0.26439648174E+03  0.00000000000E+00 0. -1.
         -2   -1    0    0    0  501 -0.00000000000E+00 -0.00000000000E+00 -0.99560617642E+02  0.99560617642E+02  0.00000000000E+00 0.  1.
         25    2    1    2    0    0  0.60943316218E+02 -0.45997146582E+02  0.19140465784E+03  0.24107485512E+03  0.12510602481E+03 0.  0.
          5    1    3    3  502    0  0.43131992335E+02 -0.54662768446E+02  0.26011924225E+02  0.74447831525E+02  0.41800000000E+01 0. -1.
         -5    1    3    3    0  502  0.17811323883E+02  0.86656218633E+01  0.16539273361E+03  0.16662702360E+03  0.41800000000E+01 0. -1.
        -11    1    1    2    0    0 -0.43825578249E+02  0.69854832993E+02 -0.38722162134E+02  0.91103154949E+02  0.00000000000E+00 0.  1.
         11    1    1    2    0    0 -0.17117737969E+02 -0.23857686411E+02  0.12153368394E+02  0.31779089310E+02  0.00000000000E+00 0. -1.
</event>
<event>
 7    1  0.2612213E-009  0.9081730E+02  0.7561462E-02  0.1300884E+00
         -2   -1    0    0    0  501 -0.00000000000E+00  0.00000000000E+00  0.41202296289E+02  0.41202296289E+02  0.00000000000E+00 0.  1.
          2   -1    0    0  501    0  0.00000000000E+00 -0.00000000000E+00 -0.28513599805E+03  0.28513599805E+03  0.00000000000E+00 0. -1.
         25    2    1    2    0    0 -0.18636730674E+02 -0.10363655171E+02 -0.15066491735E+03  0.19698145163E+03  0.12508813647E+03 0.  0.
          5    1    3    3  502    0 -0.29707368112E+02  0.51958523306E+02 -0.50513522177E+02  0.78430250459E+02  0.41800000000E+01 0.  1.
         -5    1    3    3    0  502  0.11070637439E+02 -0.62322178477E+02 -0.10015139518E+03  0.11855120117E+03  0.41800000000E+01 0.  1.
        -11    1    1    2    0    0 -0.13665663155E+02 -0.12584580486E+02 -0.87337354818E+02  0.89291296116E+02  0.00000000000E+00 0. -1.
         11    1    1    2    0    0  0.32302393829E+02  0.22948235657E+02 -0.59314295911E+01  0.40065546593E+02  0.00000000000E+00 0.  1.
</event>
<event>
 7    1  0.2612213E-009  0.7007944E+02  0.7561462E-02  0.1359823E+00
          1   -1    0    0  501    0  0.00000000000E+00  0.00000000000E+00  0.17205094257E+04  0.17205094257E+04  0.00000000000E+00 0. -1.
         -1   -1    0    0    0  501 -0.00000000000E+00 -0.00000000000E+00 -0.77433632340E+01  0.77433632340E+01  0.00000000000E+00 0.  1.
         25    2    1    2    0    0 -0.56563236344E+00  0.22533570198E+02  0.12377796668E+04  0.12442875810E+04  0.12507997074E+03 0.  0.
          5    1    3    3  502    0 -0.18529960952E+02  0.10097133845E+01  0.11777346221E+04  0.11778882339E+04  0.41800000000E+01 0. -1.
         -5    1    3    3    0  502  0.17964328588E+02  0.21523856814E+02  0.60045044686E+02  0.66399347174E+02  0.41800000000E+01 0. -1.
        -11    1    1    2    0    0  0.44681945131E+02 -0.18934121413E+02  0.24770204729E+03  0.25241093757E+03  0.00000000000E+00 0. -1.
         11    1    1    2    0    0 -0.44116312768E+02 -0.35994487851E+01  0.22728434838E+03  0.23155427032E+03  0.00000000000E+00 0.  1.
</event>
<event>
 7    1  0.2612213E-009  0.9952584E+02  0.7561462E-02  0.1281296E+00
         -2   -1    0    0    0  501 -0.00000000000E+00  0.00000000000E+00  0.86427534914E+02  0.86427534914E+02  0.00000000000E+00 0.  1.
          2   -1    0    0  501    0  0.00000000000E+00 -0.00000000000E+00 -0.14134190487E+03  0.14134190487E+03  0.00000000000E+00 0. -1.
         25    2    1    2    0    0  0.88421109553E+01 -0.76289964792E+01 -0.20294693001E+02  0.12726107293E+03  0.12508845513E+03 0.  0.
          5    1    3    3  502    0  0.42576398092E+02  0.38169086261E+02 -0.36503927183E+02  0.67967918317E+02  0.41800000000E+01 0.  1.
         -5    1    3    3    0  502 -0.33734287137E+02 -0.45798082741E+02  0.16209234182E+02  0.59293154614E+02  0.41800000000E+01 0.  1.
        -11    1    1    2    0    0 -0.24301679242E+02  0.41138479701E+02  0.29170229947E+01  0.47869146109E+02  0.00000000000E+00 0.  1.
         11    1    1    2    0    0  0.15459568286E+02 -0.33509483222E+02 -0.37536699946E+02  0.52639220741E+02  0.00000000000E+00 0. -1.
</event>
<event>
 7    1  0.2612213E-009  0.1136476E+03  0.7561462E-02  0.1253960E+00
         -3   -1    0    0    0  501 -0.00000000000E+00  0.00000000000E+00  0.23015272082E+03  0.23015272082E+03  0.00000000000E+00 0.  1.
          3   -1    0    0  501    0  0.00000000000E+00 -0.00000000000E+00 -0.69456068302E+02  0.69456068302E+02  0.00000000000E+00 0. -1.
         25    2    1    2    0    0 -0.32754078337E+02  0.31571476108E+02  0.14734446018E+03  0.19856302084E+03  0.12508915040E+03 0.  0.
          5    1    3    3  502    0  0.16345001158E+02  0.68160946339E+02  0.93395745977E+02  0.11684738523E+03  0.41800000000E+01 0. -1.
         -5    1    3    3    0  502 -0.49099079495E+02 -0.36589470231E+02  0.53948714207E+02  0.81715635613E+02  0.41800000000E+01 0. -1.
        -11    1    1    2    0    0 -0.24071951940E+02 -0.30513662201E+02  0.20195226838E+02  0.43799425089E+02  0.00000000000E+00 0.  1.
         11    1    1    2    0    0  0.56826030277E+02 -0.10578139067E+01 -0.68430345026E+01  0.57246343189E+02  0.00000000000E+00 0. -1.
</event>
<event>
 7    1  0.2612213E-009  0.1042041E+03  0.7561462E-02  0.1271696E+00
         -2   -1    0    0    0  501 -0.00000000000E+00  0.00000000000E+00  0.27632319977E+02  0.27632319977E+02  0.00000000000E+00 0. -1.
          2   -1    0    0  501    0  0.00000000000E+00 -0.00000000000E+00 -0.48269046514E+03  0.48269046514E+03  0.00000000000E+00 0.  1.
         25    2    1    2    0    0  0.85638698947E+01 -0.39953846528E+02 -0.25905092470E+03  0.29055969917E+03  0.12509159635E+03 0.  0.
          5    1    3    3  502    0 -0.19460179004E+00 -0.83604325627E+02 -0.19725620227E+03  0.21428299715E+03  0.41800000000E+01 0.  1.
         -5    1    3    3    0  502  0.87584716848E+01  0.43650479098E+02 -0.61794722431E+02  0.76276702027E+02  0.41800000000E+01 0.  1.
        -11    1    1    2    0    0 -0.34896975427E+02  0.40734175228E+02 -0.56951891415E+02  0.78234198796E+02  0.00000000000E+00 0. -1.
         11    1    1    2    0    0  0.26333105532E+02 -0.78032869987E+00 -0.13905532905E+03  0.14152888715E+03  0.00000000000E+00 0.  1.
</event>
<event>
 7    1  0.2612213E-009  0.8996126E+02  0.7561462E-02  0.1302946E+00
          2   -1    0    0  501    0  0.00000000000E+00  0.00000000000E+00  0.57289449838E+02  0.57289449838E+02  0.00000000000E+00 0. -1.
         -2   -1    0    0    0  501 -0.00000000000E+00 -0.00000000000E+00 -0.23868556309E+03  0.23868556309E+03  0.00000000000E+00 0.  1.
         25    2    1    2    0    0 -0.16082295461E+02 -0.15527321200E+02 -0.63626468341E+02  0.14211862745E+03  0.12509851663E+03 0.  0.
          5    1    3    3  502    0  0.33176771736E+02  0.35704281287E+02 -0.49390015969E+02  0.69515034075E+02  0.41800000000E+01 0. -1.
         -5    1    3    3    0  502 -0.49259067196E+02 -0.51231602486E+02 -0.14236452372E+02  0.72603593372E+02  0.41800000000E+01 0. -1.
        -11    1    1    2    0    0  0.29284045367E+02  0.28812102608E+02 -0.12663738180E+03  0.13313421438E+03  0.00000000000E+00 0.  1.
         11    1    1    2    0    0 -0.13201749906E+02 -0.13284781408E+02  0.88677368874E+01  0.20722171101E+02  0.00000000000E+00 0. -1.
</event>
<event>
 7    1  0.2612213E-009  0.2106166E+03  0.7561462E-02  0.1141079E+00
          1   -1    0    0  501    0  0.00000000000E+00  0.00000000000E+00  0.40195106188E+03  0.40195106188E+03  0.00000000000E+00 0. -1.
         -1   -1    0    0    0  501 -0.00000000000E+00 -0.00000000000E+00 -0.12701012311E+03  0.12701012311E+03  0.00000000000E+00 0.  1.
         25    2    1    2    0    0 -0.14447385232E+03 -0.13092947540E+03  0.17842781938E+03  0.29240262851E+03  0.12509032297E+03 0.  0.
          5    1    3    3  502    0 -0.10524578187E+03 -0.39112486650E+02  0.15202827841E+03  0.18904108297E+03  0.41800000000E+01 0. -1.
         -5    1    3    3    0  502 -0.39228070447E+02 -0.91816988747E+02  0.26399540972E+02  0.10336154554E+03  0.41800000000E+01 0. -1.
        -11    1    1    2    0    0  0.17074019439E+02  0.61556281220E+02  0.29684390201E+01  0.63949273082E+02  0.00000000000E+00 0.  1.
         11    1    1    2    0    0  0.12739983288E+03  0.69373194176E+02  0.93544680370E+02  0.17260928339E+03  0.00000000000E+00 0. -1.
</event>
<event>
 7    1  0.2612213E-009  0.1609017E+03  0.7561462E-02  0.1187682E+00
          4   -1    0    0  501    0  0.00000000000E+00  0.00000000000E+00  0.89000214492E+02  0.89000214492E+02  0.00000000000E+00 0. -1.
         -4   -1    0    0    0  501 -0.00000000000E+00 -0.00000000000E+00 -0.37786965720E+03  0.37786965720E+03  0.00000000000E+00 0.  1.
         25    2    1    2    0    0 -0.11160785203E+01 -0.13804145238E+03 -0.21402539389E+03  0.28371885872E+03  0.12503132952E+03 0.  0.
          5    1    3    3  502    0  0.74277443725E+01  0.17899668107E+02 -0.14100443307E+01  0.19875364898E+02  0.41800000000E+01 0. -1.
         -5    1    3    3    0  502 -0.85438228928E+01 -0.15594112048E+03 -0.21261534956E+03  0.26384349383E+03  0.41800000000E+01 0. -1.
        -11    1    1    2    0    0  0.20016121874E+02  0.29995922711E+02  0.17208203760E+02  0.39956511244E+02  0.00000000000E+00 0. -1.
         11    1    1    2    0    0 -0.18900043353E+02  0.10804552966E+03 -0.92052252581E+02  0.14319450173E+03  0.00000000000E+00 0.  1.
</event>
<event>
 7    1  0.2612213E-009  0.1006473E+03  0.7561462E-02  0.1278941E+00
         -1   -1    0    0    0  501 -0.00000000000E+00  0.00000000000E+00  0.23464448849E+02  0.23464448849E+02  0.00000000000E+00 0.  1.
          1   -1    0    0  501    0  0.00000000000E+00 -0.00000000000E+00 -0.88650253875E+03  0.88650253875E+03  0.00000000000E+00 0. -1.
         25    2    1    2    0    0  0.80667115044E+02 -0.22949440196E+02 -0.59757778447E+03  0.61626308735E+03  0.12508846504E+03 0.  0.
          5    1    3    3  502    0  0.44890953950E+02 -0.53423744751E+02 -0.52541514744E+03  0.53004513375E+03  0.41800000000E+01 0. -1.
         -5    1    3    3    0  502  0.35776161094E+02  0.30474304555E+02 -0.72162637030E+02  0.86217953605E+02  0.41800000000E+01 0. -1.
        -11    1    1    2    0    0 -0.31257682885E+02  0.50882369119E+01 -0.10466546546E+02  0.33353882695E+02  0.00000000000E+00 0.  1.
         11    1    1    2    0    0 -0.49409432158E+02  0.17861203284E+02 -0.25499375888E+03  0.26035001755E+03  0.00000000000E+00 0. -1.
</event>
<event>
 7    1  0.2612213E-009  0.1848025E+03  0.7561462E-02  0.1163234E+00
          1   -1    0    0  501    0  0.00000000000E+00  0.00000000000E+00  0.12227185596E+03  0.12227185596E+03  0.00000000000E+00 0. -1.
         -1   -1    0    0    0  501 -0.00000000000E+00 -0.00000000000E+00 -0.39658700412E+03  0.39658700412E+03  0.00000000000E+00 0.  1.
         25    2    1    2    0    0  0.13583514991E+02 -0.16168565943E+03 -0.23468391710E+02  0.20621555499E+03  0.12508926960E+03 0.  0.
          5    1    3    3  502    0 -0.46204109480E+02 -0.58789842761E+02  0.23075153557E+02  0.78364535706E+02  0.41800000000E+01 0.  1.
         -5    1    3    3    0  502  0.59787624471E+02 -0.10289581667E+03 -0.46543545267E+02  0.12785101929E+03  0.41800000000E+01 0.  1.
        -11    1    1    2    0    0  0.27444744933E+02  0.70113535364E+02 -0.16190374252E+03  0.17855515593E+03  0.00000000000E+00 0.  1.
         11    1    1    2    0    0 -0.41028259924E+02  0.91572124063E+02 -0.88943013935E+02  0.13408814916E+03  0.00000000000E+00 0. -1.
</event>
<event>
 7    1  0.2612213E-009  0.1033702E+03  0.7561462E-02  0.1273364E+00
          1   -1    0    0  501    0  0.00000000000E+00  0.00000000000E+00  0.17372767712E+02  0.17372767712E+02  0.00000000000E+00 0. -1.
         -1   -1    0    0    0  501 -0.00000000000E+00 -0.00000000000E+00 -0.79182483076E+03  0.79182483076E+03  0.00000000000E+00 0.  1.
         25    2    1    2    0    0 -0.45769268497E+02  0.96696869881E+01 -0.36571129019E+03  0.38933384421E+03  0.12509102963E+03 0.  0.
          5    1    3    3  502    0 -0.14508285647E+02 -0.47465126124E+02 -0.66484052609E+02  0.83072439483E+02  0.41800000000E+01 0. -1.
         -5    1    3    3    0  502 -0.31260982850E+02  0.57134813112E+02 -0.29922723758E+03  0.30626140473E+03  0.41800000000E+01 0. -1.
        -11    1    1    2    0    0  0.32560327041E+02  0.33385280664E+02 -0.14527079259E+03  0.15257245834E+03  0.00000000000E+00 0. -1.
         11    1    1    2    0    0  0.13208941456E+02 -0.43054967652E+02 -0.26346998027E+03  0.26729129592E+03  0.00000000000E+00 0.  1.
</event>
<event>
 7    1  0.2612213E-009  0.1113919E+03  0.7561462E-02  0.1258014E+00
          1   -1    0    0  501    0  0.00000000000E+00  0.00000000000E+00  0.56829790077E+03  0.56829790077E+03  0.00000000000E+00 0. -1.
         -1   -1    0    0    0  501 -0.00000000000E+00 -0.00000000000E+00 -0.25791562645E+02  0.25791562645E+02  0.00000000000E+00 0.  1.
         25    2    1    2    0    0  0.28469014449E+02 -0.33931479677E+02  0.38288936854E+03  0.40524918872E+03  0.12514314333E+03 0.  0.
          5    1    3    3  502    0  0.68680737751E+02  0.10622526465E+02  0.16230651504E+03  0.17660905704E+03  0.41800000000E+01 0.  1.
         -5    1    3    3    0  502 -0.40211723302E+02 -0.44554006142E+02  0.22058285350E+03  0.22864013168E+03  0.41800000000E+01 0.  1.
        -11    1    1    2    0    0  0.87256113247E+01 -0.23222352749E+02  0.15096669037E+02  0.29040030582E+02  0.00000000000E+00 0.  1.
         11    1    1    2    0    0 -0.37194625774E+02  0.57153832425E+02  0.14452030055E+03  0.15980024411E+03  0.00000000000E+00 0. -1.
</event>
<event>
 7    1  0.2612213E-009  0.1221736E+03  0.7561462E-02  0.1239554E+00
         -2   -1    0    0    0  501 -0.00000000000E+00  0.00000000000E+00  0.15118751221E+02  0.15118751221E+02  0.00000000000E+00 0.  1.
          2   -1    0    0  501    0  0.00000000000E+00 -0.00000000000E+00 -0.11105834520E+04  0.11105834520E+04  0.00000000000E+00 0. -1.
         25    2    1    2    0    0 -0.51311620554E+02 -0.43411409260E+02 -0.72282619390E+03  0.73664295052E+03  0.12509075543E+03 0.  0.
          5    1    3    3  502    0  0.21079343947E+02  0.31218320222E+02 -0.18455479850E+03  0.18840612599E+03  0.41800000000E+01 0. -1.
         -5    1    3    3    0  502 -0.72390964502E+02 -0.74629729482E+02 -0.53827139540E+03  0.54823682453E+03  0.41800000000E+01 0. -1.
        -11    1    1    2    0    0  0.12734627301E+02 -0.22596543832E+02 -0.39460779068E+02  0.47222109337E+02  0.00000000000E+00 0.  1.
         11    1    1    2    0    0  0.38576993253E+02  0.66007953091E+02 -0.33317772785E+03  0.34183714341E+03  0.00000000000E+00 0. -1.
</event>
<event>
 7    1  0.2612213E-009  0.1537025E+03  0.7561462E-02  0.1195996E+00
          1   -1    0    0  501    0  0.00000000000E+00  0.00000000000E+00  0.40618088582E+03  0.40618088582E+03  0.00000000000E+00 0. -1.
         -1   -1    0    0    0  501 -0.00000000000E+00 -0.00000000000E+00 -0.96404350703E+02  0.96404350703E+02  0.00000000000E+00 0.  1.
         25    2    1    2    0    0 -0.81194849581E+02  0.97829062191E+02  0.29429881851E+03  0.34412478578E+03  0.12508774761E+03 0.  0.
          5    1    3    3  502    0 -0.19734922875E+02 -0.13930036937E+02  0.13087021161E+01  0.24549912651E+02  0.41800000000E+01 0.  1.
         -5    1    3    3    0  502 -0.61459926706E+02  0.11175909913E+03  0.29299011640E+03  0.31957487313E+03  0.41800000000E+01 0.  1.
        -11    1    1    2    0    0  0.84472891647E+02 -0.33512505573E+02 -0.46262699800E+01  0.90995383548E+02  0.00000000000E+00 0.  1.
         11    1    1    2    0    0 -0.32780420665E+01 -0.64316556617E+02  0.20103986580E+02  0.67465067193E+02  0.00000000000E+00 0. -1.
</event>
<event>
 7    1  0.2612213E-009  0.1068852E+03  0.7561462E-02  0.1266449E+00
         -2   -1    0    0    0  501 -0.00000000000E+00  0.00000000000E+00  0.46666902450E+02  0.46666902450E+02  0.00000000000E+00 0. -1.
          2   -1    0    0  501    0  0.00000000000E+00 -0.00000000000E+00 -0.44493871138E+03  0.44493871138E+03  0.00000000000E+00 0.  1.
         25    2    1    2    0    0  0.23985882530E+02 -0.78151578176E+02 -0.31013760768E+03  0.34425982594E+03  0.12508597176E+03 0.  0.
          5    1    3    3  502    0 -0.56050110930E+01 -0.61182993338E+02 -0.30295600300E+03  0.30915139814E+03  0.41800000000E+01 0. -1.
         -5    1    3    3    0  502  0.29590893623E+02 -0.16968584838E+02 -0.71816046799E+01  0.35108427800E+02  0.41800000000E+01 0. -1.
        -11    1    1    2    0    0  0.17127150838E+02 -0.10508787435E+02 -0.11489747250E+02  0.23147099193E+02  0.00000000000E+00 0.  1.
         11    1    1    2    0    0 -0.41113033368E+02  0.88660365611E+02 -0.76644453999E+02  0.12419868869E+03  0.00000000000E+00 0. -1.
</event>
<event>
 7    1  0.3394019E-009  0.3042531E+03  0.7561462E-02  0.1083134E+00
         -2   -1    0    0    0  501 -0.00000000000E+00  0.00000000000E+00  0.95395433407E+02  0.95395433407E+02  0.00000000000E+00 0.  1.
          2   -1    0    0  501    0  0.00000000000E+00 -0.00000000000E+00 -0.12043617942E+04  0.12043617942E+04  0.00000000000E+00 0. -1.
         25    2    1    2    0    0 -0.17243641389E+03 -0.23640145595E+03 -0.31101763531E+03  0.44497117976E+03  0.12508963240E+03 0.  0.
          5    1    3    3  502    0 -0.88193490094E+02 -0.20888659353E+03 -0.19622313708E+03  0.29988779998E+03  0.41800000000E+01 0.  1.
         -5    1    3    3    0  502 -0.84242923797E+02 -0.27514862414E+02 -0.11479449823E+03  0.14508337978E+03  0.41800000000E+01 0.  1.
        -11    1    1    2    0    0  0.10430107322E+03  0.13019057494E+03 -0.32525947258E+03  0.36554346415E+03  0.00000000000E+00 0.  1.
         11    1    1    2    0    0  0.68135340667E+02  0.10621088100E+03 -0.47268925288E+03  0.48924258367E+03  0.00000000000E+00 0. -1.
</event>
<event>
 7    1  0.2612213E-009  0.1501942E+03  0.7561462E-02  0.1200235E+00
          2   -1    0    0  501    0  0.00000000000E+00  0.00000000000E+00  0.17314132759E+04  0.17314132759E+04  0.00000000000E+00 0. -1.
         -2   -1    0    0    0  501 -0.00000000000E+00 -0.00000000000E+00 -0.18360780678E+02  0.18360780678E+02  0.00000000000E+00 0.  1.
         25    2    1    2    0    0 -0.72633447263E+02 -0.11399447140E+03  0.10907651428E+04  0.11062032650E+04  0.12508680779E+03 0.  0.
          5    1    3    3  502    0 -0.50519549720E+02 -0.90633561538E+02  0.35896058655E+03  0.37368013391E+03  0.41800000000E+01 0. -1.
         -5    1    3    3    0  502 -0.22113897543E+02 -0.23360909858E+02  0.73180455626E+03  0.73252313106E+03  0.41800000000E+01 0. -1.
        -11    1    1    2    0    0  0.66513167938E+02  0.19362850082E+02  0.26937291051E+03  0.27813789096E+03  0.00000000000E+00 0. -1.
         11    1    1    2    0    0  0.61202793254E+01  0.94631621315E+02  0.35291444187E+03  0.36543290061E+03  0.00000000000E+00 0.  1.
</event>
<event>
 7    1  0.2612213E-009  0.2231661E+03  0.7561462E-02  0.1131544E+00
         -1   -1    0    0    0  501 -0.00000000000E+00  0.00000000000E+00  0.10980284643E+03  0.10980284643E+03  0.00000000000E+00 0.  1.
          1   -1    0    0  501    0  0.00000000000E+00 -0.00000000000E+00 -0.52209405010E+03  0.52209405010E+03  0.00000000000E+00 0. -1.
         25    2    1    2    0    0 -0.76592768034E+02 -0.18844695939E+03 -0.29709091839E+03  0.38116814589E+03  0.12508969997E+03 0.  0.
          5    1    3    3  502    0 -0.10801873642E+03 -0.11864140082E+03 -0.22115939032E+03  0.27326320230E+03  0.41800000000E+01 0.  1.
         -5    1    3    3    0  502  0.31425968390E+02 -0.69805558569E+02 -0.75931528070E+02  0.10790494359E+03  0.41800000000E+01 0.  1.
        -11    1    1    2    0    0  0.46408936761E+02  0.16363415310E+03 -0.12423017926E+03  0.21062540899E+03  0.00000000000E+00 0. -1.
         11    1    1    2    0    0  0.30183831273E+02  0.24812806288E+02  0.90298939717E+01  0.40103341648E+02  0.00000000000E+00 0.  1.
</event>
<event>
 7    1  0.2612213E-009  0.1460012E+03  0.7561462E-02  0.1205475E+00
          2   -1    0    0  501    0  0.00000000000E+00  0.00000000000E+00  0.94568752565E+03  0.94568752565E+03  0.00000000000E+00 0. -1.
         -2   -1    0    0    0  501 -0.00000000000E+00 -0.00000000000E+00 -0.27254376630E+02  0.27254376630E+02  0.00000000000E+00 0.  1.
         25    2    1    2    0    0  0.61979078836E+01 -0.11685240012E+03  0.54630030539E+03  0.57252437863E+03  0.12508894027E+03 0.  0.
          5    1    3    3  502    0 -0.10708843706E+02 -0.14029074580E+03  0.47667158780E+03  0.49702057070E+03  0.41800000000E+01 0. -1.
         -5    1    3    3    0  502  0.16906751590E+02  0.23438345676E+02  0.69628717593E+02  0.75503807924E+02  0.41800000000E+01 0. -1.
        -11    1    1    2    0    0  0.14421820191E+02  0.42372921187E+02  0.42068025000E+02  0.61426151393E+02  0.00000000000E+00 0.  1.
         11    1    1    2    0    0 -0.20619728074E+02  0.74479478938E+02  0.33006481863E+03  0.33899137226E+03  0.00000000000E+00 0. -1.
</event>
<event>
 7    1  0.3007473E-009  0.8141128E+02  0.7561462E-02  0.1325093E+00
         -2   -1    0    0    0  501 -0.00000000000E+00  0.00000000000E+00  0.28978742964E+02  0.28978742964E+02  0.00000000000E+00 0.  1.
          2   -1    0    0  501    0  0.00000000000E+00 -0.00000000000E+00 -0.51983206110E+03  0.51983206110E+03  0.00000000000E+00 0. -1.
         25    2    1    2    0    0 -0.11240473738E+02  0.11646124586E+02 -0.40037918922E+03  0.41977732598E+03  0.12509007868E+03 0.  0.
          5    1    3    3  502    0  0.39802511025E+02  0.23850755762E+02 -0.32202804512E+03  0.32538075032E+03  0.41800000000E+01 0. -1.
         -5    1    3    3    0  502 -0.51042984763E+02 -0.12204631175E+02 -0.78351144093E+02  0.94396575660E+02  0.41800000000E+01 0. -1.
        -11    1    1    2    0    0  0.26003395041E+02  0.17202513919E+02  0.18036932810E+01  0.31230695610E+02  0.00000000000E+00 0.  1.
         11    1    1    2    0    0 -0.14762921303E+02 -0.28848638506E+02 -0.92277822199E+02  0.97802782470E+02  0.00000000000E+00 0. -1.
</event>
<event>
 7    1  0.2612213E-009  0.1413071E+03  0.7561462E-02  0.1211581E+00
         -1   -1    0    0    0  501 -0.00000000000E+00  0.00000000000E+00  0.60868793770E+02  0.60868793770E+02  0.00000000000E+00 0.  1.
          1   -1    0    0  501    0  0.00000000000E+00 -0.00000000000E+00 -0.58117691363E+03  0.58117691363E+03  0.00000000000E+00 0. -1.
         25    2    1    2    0    0 -0.11961066737E+03 -0.79750341219E+01 -0.43674122799E+03  0.46985276195E+03  0.12509358405E+03 0.  0.
          5    1    3    3  502    0 -0.13048223401E+03  0.13309337593E+02 -0.25782696224E+03  0.28930082391E+03  0.41800000000E+01 0. -1.
         -5    1    3    3    0  502  0.10871566643E+02 -0.21284371715E+02 -0.17891426575E+03  0.18055193804E+03  0.41800000000E+01 0. -1.
        -11    1    1    2    0    0  0.53305522175E+02 -0.17485466015E+02  0.76132026521E+01  0.56614318602E+02  0.00000000000E+00 0.  1.
         11    1    1    2    0    0  0.66305145192E+02  0.25460500137E+02 -0.91180094518E+02  0.11557862684E+03  0.00000000000E+00 0. -1.
</event>
<event>
 7    1  0.2612213E-009  0.1073649E+03  0.7561462E-02  0.1265529E+00
         -2   -1    0    0    0  501 -0.00000000000E+00  0.00000000000E+00  0.57394788464E+02  0.57394788464E+02  0.00000000000E+00 0.  1.
          2   -1    0    0  501    0  0.00000000000E+00 -0.00000000000E+00 -0.28234116068E+03  0.28234116068E+03  0.00000000000E+00 0. -1.
         25    2    1    2    0    0 -0.48992490948E+02 -0.27619835290E+01 -0.17957843017E+03  0.22428773168E+03  0.12509468925E+03 0.  0.
          5    1    3    3  502    0 -0.74791064376E+02  0.17130087258E+02 -0.52574854273E+02  0.93106019686E+02  0.41800000000E+01 0.  1.
         -5    1    3    3    0  502  0.25798573427E+02 -0.19892070787E+02 -0.12700357590E+03  0.13118171200E+03  0.41800000000E+01 0.  1.
        -11    1    1    2    0    0  0.66144869756E+02  0.30178751876E+02 -0.23496727492E+02  0.76406786758E+02  0.00000000000E+00 0.  1.
         11    1    1    2    0    0 -0.17152378807E+02 -0.27416768347E+02 -0.21871214548E+02  0.39041430701E+02  0.00000000000E+00 0. -1.
</event>
<event>
 7    1  0.2612213E-009  0.1134656E+03  0.7561462E-02  0.1254283E+00
          1   -1    0    0  501    0  0.00000000000E+00  0.00000000000E+00  0.10680881862E+03  0.10680881862E+03  0.00000000000E+00 0. -1.
         -1   -1    0    0    0  501 -0.00000000000E+00 -0.00000000000E+00 -0.16868596621E+03  0.16868596621E+03  0.00000000000E+00 0.  1.
         25    2    1    2    0    0  0.53593273556E+02 -0.24545942625E+02 -0.88845552610E+02  0.16436198676E+03  0.12508632301E+03 0.  0.
          5    1    3    3  502    0  0.81186624756E+02  0.97951895013E+00 -0.16836765868E+02  0.83025156318E+02  0.41800000000E+01 0.  1.
         -5    1    3    3    0  502 -0.27593351200E+02 -0.25525461575E+02 -0.72008786741E+02  0.81336830446E+02  0.41800000000E+01 0.  1.
        -11    1    1    2    0    0 -0.78603513956E+02  0.25907817099E+02  0.20858388836E+02  0.85351038528E+02  0.00000000000E+00 0.  1.
         11    1    1    2    0    0  0.25010240400E+02 -0.13618744733E+01  0.61100161807E+01  0.25781759534E+02  0.00000000000E+00 0. -1.
</event>
<event>
 7    1  0.2612213E-009  0.1027098E+03  0.7561462E-02  0.1274699E+00
         -2   -1    0    0    0  501 -0.00000000000E+00  0.00000000000E+00  0.50243281219E+03  0.50243281219E+03  0.00000000000E+00 0.  1.
          2   -1    0    0  501    0  0.00000000000E+00 -0.00000000000E+00 -0.35051416610E+02  0.35051416610E+02  0.00000000000E+00 0. -1.
         25    2    1    2    0    0  0.22117329456E+02 -0.55665722397E+02  0.33122386807E+03  0.35909023073E+03  0.12509474057E+03 0.  0.
          5    1    3    3  502    0  0.71825288415E+02 -0.43920433034E+02  0.24115516792E+03  0.25546264680E+03  0.41800000000E+01 0.  1.
         -5    1    3    3    0  502 -0.49707958959E+02 -0.11745289363E+02  0.90068700143E+02  0.10362758393E+03  0.41800000000E+01 0.  1.
        -11    1    1    2    0    0  0.75858445932E+01  0.28954486479E+02  0.13515988640E+03  0.13843446903E+03  0.00000000000E+00 0.  1.
         11    1    1    2    0    0 -0.29703174050E+02  0.26711235917E+02  0.99764111518E+00  0.39959529035E+02  0.00000000000E+00 0. -1.
</event>
<event>
 7    1  0.2612213E-009  0.6631304E+02  0.7561462E-02  0.1373099E+00
         -3   -1    0    0    0  501 -0.00000000000E+00  0.00000000000E+00  0.11476874777E+03  0.11476874777E+03  0.00000000000E+00 0.  1.
          3   -1    0    0  501    0  0.00000000000E+00 -0.00000000000E+00 -0.11262793291E+03  0.11262793291E+03  0.00000000000E+00 0. -1.
         25    2    1    2    0    0 -0.23755617197E+02  0.22297943378E+02 -0.12877393769E+02  0.12990520735E+03  0.12509199814E+03 0.  0.
          5    1    3    3  502    0  0.57810716580E+01  0.29723110667E+02  0.50747821400E+02  0.59242703129E+02  0.41800000000E+01 0. -1.
         -5    1    3    3    0  502 -0.29536688855E+02 -0.74251672885E+01 -0.63625215169E+02  0.70662504223E+02  0.41800000000E+01 0. -1.
        -11    1    1    2    0    0  0.35444975740E+02  0.10116056630E+02  0.40404769418E+02  0.54692104536E+02  0.00000000000E+00 0.  1.
         11    1    1    2    0    0 -0.11689358543E+02 -0.32414000008E+02 -0.25386560791E+02  0.42799368786E+02  0.00000000000E+00 0. -1.
</event>
<event>
 7    1  0.2612213E-009  0.1289515E+03  0.7561462E-02  0.1229020E+00
         -1   -1    0    0    0  501 -0.00000000000E+00  0.00000000000E+00  0.35810973112E+02  0.35810973112E+02  0.00000000000E+00 0.  1.
          1   -1    0    0  501    0  0.00000000000E+00 -0.00000000000E+00 -0.60715874189E+03  0.60715874189E+03  0.00000000000E+00 0. -1.
         25    2    1    2    0    0  0.56187586223E+02 -0.59538214256E+02 -0.18613476442E+03  0.23873767588E+03  0.12509070131E+03 0.  0.
          5    1    3    3  502    0  0.31173371755E+02  0.33244077640E+02 -0.98516103348E+02  0.10862708145E+03  0.41800000000E+01 0.  1.
         -5    1    3    3    0  502  0.25014214467E+02 -0.92782291896E+02 -0.87618661070E+02  0.13011059443E+03  0.41800000000E+01 0.  1.
        -11    1    1    2    0    0 -0.30970115518E+02  0.78508281815E+02 -0.33016338754E+03  0.34077934333E+03  0.00000000000E+00 0. -1.
         11    1    1    2    0    0 -0.25217470705E+02 -0.18970067559E+02 -0.55049616828E+02  0.63452695804E+02  0.00000000000E+00 0.  1.
</event>
<event>
 7    1  0.2612213E-009  0.1240230E+03  0.7561462E-02  0.1236604E+00
         -2   -1    0    0    0  501 -0.00000000000E+00  0.00000000000E+00  0.30083059578E+02  0.30083059578E+02  0.00000000000E+00 0.  1.
          2   -1    0    0  501    0  0.00000000000E+00 -0.00000000000E+00 -0.81041316391E+03  0.81041316391E+03  0.00000000000E+00 0. -1.
         25    2    1    2    0    0 -0.36440171006E+02 -0.10480463419E+03 -0.48291316416E+03  0.51104381272E+03  0.12509499184E+03 0.  0.
          5    1    3    3  502    0 -0.17375298690E+02 -0.27959085882E+02 -0.37843963310E+03  0.37989161585E+03  0.41800000000E+01 0.  1.
         -5    1    3    3    0  502 -0.19064872317E+02 -0.76845548308E+02 -0.10447353106E+03  0.13115219687E+03  0.41800000000E+01 0.  1.
        -11    1    1    2    0    0  0.50086198244E+02  0.27621267552E+02 -0.17483994677E+03  0.18395806224E+03  0.00000000000E+00 0. -1.
         11    1    1    2    0    0 -0.13646027237E+02  0.77183366637E+02 -0.12257699341E+03  0.14549434854E+03  0.00000000000E+00 0.  1.
</event>
<event>
 7    1  0.2612213E-009  0.9779176E+02  0.7561462E-02  0.1285009E+00
          2   -1    0    0  501    0  0.00000000000E+00  0.00000000000E+00  0.58280651119E+03  0.58280651119E+03  0.00000000000E+00 0. -1.
         -2   -1    0    0    0  501 -0.00000000000E+00 -0.00000000000E+00 -0.33585369561E+02  0.33585369561E+02  0.00000000000E+00 0.  1.
         25    2    1    2    0    0  0.40943580993E+02 -0.39927834712E+02  0.45180645880E+03  0.47227971451E+03  0.12509373973E+03 0.  0.
          5    1    3    3  502    0  0.24461324784E+02 -0.59320001811E+02  0.43862873179E+03  0.44331687964E+03  0.41800000000E+01 0. -1.
         -5    1    3    3    0  502  0.16482256209E+02  0.19392167099E+02  0.13177727008E+02  0.28962834869E+02  0.41800000000E+01 0. -1.
        -11    1    1    2    0    0  0.19966344004E+02  0.39859493683E+02  0.49490887366E+02  0.66609174006E+02  0.00000000000E+00 0. -1.
         11    1    1    2    0    0 -0.60909924996E+02  0.68341029085E-01  0.47923795467E+02  0.77502992236E+02  0.00000000000E+00 0.  1.
</event>
<event>
 7    1  0.2612213E-009  0.1075478E+03  0.7561462E-02  0.1265180E+00
          1   -1    0    0  501    0  0.00000000000E+00  0.00000000000E+00  0.11725695803E+03  0.11725695803E+03  0.00000000000E+00 0. -1.
         -1   -1    0    0    0  501 -0.00000000000E+00 -0.00000000000E+00 -0.12454920753E+03  0.12454920753E+03  0.00000000000E+00 0.  1.
         25    2    1    2    0    0  0.23901807630E+02  0.37397093866E+02 -0.18388512425E+02  0.13400307052E+03  0.12509534956E+03 0.  0.
          5    1    3    3  502    0 -0.26834918507E+02  0.62766258191E+02 -0.32017275622E+02  0.75513537573E+02  0.41800000000E+01 0. -1.
         -5    1    3    3    0  502  0.50736726137E+02 -0.25369164325E+02  0.13628763197E+02  0.58489532944E+02  0.41800000000E+01 0. -1.
        -11    1    1    2    0    0 -0.52779668471E+02 -0.23386133667E+02  0.35243731146E+02  0.67636715154E+02  0.00000000000E+00 0. -1.
         11    1    1    2    0    0  0.28877860841E+02 -0.14010960198E+02 -0.24147468218E+02  0.40166379893E+02  0.00000000000E+00 0.  1.
</event>
<event>
 7    1  0.2612213E-009  0.1769743E+03  0.7561462E-02  0.1170764E+00
          1   -1    0    0  501    0  0.00000000000E+00  0.00000000000E+00  0.14256674342E+04  0.14256674342E+04  0.00000000000E+00 0. -1.
         -1   -1    0    0    0  501 -0.00000000000E+00 -0.00000000000E+00 -0.22744927941E+02  0.22744927941E+02  0.00000000000E+00 0.  1.
         25    2    1    2    0    0 -0.69808068617E+02 -0.12665713253E+03  0.81069756580E+03  0.83294292181E+03  0.12509265416E+03 0.  0.
          5    1    3    3  502    0  0.34941974381E+02 -0.44340935562E+02  0.19920435137E+03  0.20709154050E+03  0.41800000000E+01 0. -1.
         -5    1    3    3    0  502 -0.10475004300E+03 -0.82316196971E+02  0.61149321443E+03  0.62585138131E+03  0.41800000000E+01 0. -1.
        -11    1    1    2    0    0 -0.12273682672E+02  0.50877988506E+02  0.13488120221E+03  0.14467947923E+03  0.00000000000E+00 0.  1.
         11    1    1    2    0    0  0.82081751290E+02  0.75779144027E+02  0.45734373826E+03  0.47078996112E+03  0.00000000000E+00 0. -1.
</event>
<event>
 7    1  0.2612213E-009  0.9777025E+02  0.7561462E-02  0.1285056E+00
          1   -1    0    0  501    0  0.00000000000E+00  0.00000000000E+00  0.27765563754E+03  0.27765563754E+03  0.00000000000E+00 0. -1.
         -1   -1    0    0    0  501 -0.00000000000E+00 -0.00000000000E+00 -0.78398349907E+02  0.78398349907E+02  0.00000000000E+00 0.  1.
         25    2    1    2    0    0  0.16463674378E+02  0.60936826080E+02  0.20036268375E+03  0.24449539403E+03  0.12509373811E+03 0.  0.
          5    1    3    3  502    0 -0.68469688412E+01  0.91728420312E+02  0.17603008117E+03  0.19865811323E+03  0.41800000000E+01 0.  1.
         -5    1    3    3    0  502  0.23310643219E+02 -0.30791594232E+02  0.24332602579E+02  0.45837280798E+02  0.41800000000E+01 0.  1.
        -11    1    1    2    0    0 -0.15875870996E+02 -0.32469188321E+02 -0.45935902591E+02  0.58449966784E+02  0.00000000000E+00 0.  1.
         11    1    1    2    0    0 -0.58780338180E+00 -0.28467637759E+02  0.44830506480E+02  0.53108626641E+02  0.00000000000E+00 0. -1.
</event>
<event>
 7    1  0.2612213E-009  0.1161648E+03  0.7561462E-02  0.1249561E+00
          3   -1    0    0  501    0  0.00000000000E+00  0.00000000000E+00  0.24737202140E+03  0.24737202140E+03  0.00000000000E+00 0. -1.
         -3   -1    0    0    0  501 -0.00000000000E+00 -0.00000000000E+00 -0.65528131976E+02  0.65528131976E+02  0.00000000000E+00 0.  1.
         25    2    1    2    0    0  0.40084583605E+02  0.49462621946E+02  0.71719016480E+02  0.15762078058E+03  0.12508944134E+03 0.  0.
          5    1    3    3  502    0 -0.35081498486E+02 -0.14591164706E+02  0.54347522963E+01  0.38608581378E+02  0.41800000000E+01 0. -1.
         -5    1    3    3    0  502  0.75166082091E+02  0.64053786652E+02  0.66284264183E+02  0.11901219921E+03  0.41800000000E+01 0. -1.
        -11    1    1    2    0    0  0.20469817911E+02 -0.16658511584E+02  0.12124104677E+01  0.26419488879E+02  0.00000000000E+00 0.  1.
         11    1    1    2    0    0 -0.60554401515E+02 -0.32804110362E+02  0.10891246248E+03  0.12885988392E+03  0.00000000000E+00 0. -1.
</event>
<event>
 7    1  0.2612213E-009  0.3025329E+03  0.7561462E-02  0.1083981E+00
          1   -1    0    0  501    0  0.00000000000E+00  0.00000000000E+00  0.29908905927E+04  0.29908905927E+04  0.00000000000E+00 0. -1.
         -1   -1    0    0    0  501 -0.00000000000E+00 -0.00000000000E+00 -0.33109226241E+02  0.33109226241E+02  0.00000000000E+00 0.  1.
         25    2    1    2    0    0 -0.13899081531E+03  0.25991265207E+03  0.14551818900E+04  0.14899918796E+04  0.12509370454E+03 0.  0.
          5    1    3    3  502    0 -0.13100234240E+03  0.25384493304E+03  0.11618239235E+04  0.11964326832E+04  0.41800000000E+01 0. -1.
         -5    1    3    3    0  502 -0.79884729125E+01  0.60677190301E+01  0.29335796646E+03  0.29355919642E+03  0.41800000000E+01 0. -1.
        -11    1    1    2    0    0 -0.17203003084E+01 -0.80425499627E+02  0.42301747264E+03  0.43059842380E+03  0.00000000000E+00 0. -1.
         11    1    1    2    0    0  0.14071111562E+03 -0.17948715245E+03  0.10795820039E+04  0.11034095156E+04  0.00000000000E+00 0.  1.
</event>
<event>
 7    1  0.2612213E-009  0.1428864E+03  0.7561462E-02  0.1209497E+00
         -1   -1    0    0    0  501 -0.00000000000E+00  0.00000000000E+00  0.20843338644E+03  0.20843338644E+03  0.00000000000E+00 0.  1.
          1   -1    0    0  501    0  0.00000000000E+00 -0.00000000000E+00 -0.12339442475E+03  0.12339442475E+03  0.00000000000E+00 0. -1.
         25    2    1    2    0    0 -0.93351477825E+02  0.52325607351E+02  0.96347086638E+02  0.19074193516E+03  0.12508899683E+03 0.  0.
          5    1    3    3  502    0 -0.52538832654E+02  0.86904314858E+02  0.31146065537E+02  0.10630258076E+03  0.41800000000E+01 0. -1.
         -5    1    3    3    0  502 -0.40812645171E+02 -0.34578707507E+02  0.65201021101E+02  0.84439354399E+02  0.41800000000E+01 0. -1.
        -11    1    1    2    0    0  0.76560940412E+02 -0.71665522550E+02  0.13127292010E+02  0.10568751352E+03  0.00000000000E+00 0.  1.
         11    1    1    2    0    0  0.16790537412E+02  0.19339915200E+02 -0.24435416954E+02  0.35398362508E+02  0.00000000000E+00 0. -1.
</event>
<event>
 7    1  0.2612213E-009  0.1357382E+03  0.7561462E-02  0.1219181E+00
         -2   -1    0    0    0  501 -0.00000000000E+00  0.00000000000E+00  0.55784060811E+02  0.55784060811E+02  0.00000000000E+00 0.  1.
          2   -1    0    0  501    0  0.00000000000E+00 -0.00000000000E+00 -0.48241527076E+03  0.48241527076E+03  0.00000000000E+00 0. -1.
         25    2    1    2    0    0  0.49445662193E+02 -0.92161806006E+02 -0.12044788961E+03  0.20271628934E+03  0.12509007897E+03 0.  0.
          5    1    3    3  502    0  0.53016310051E+02 -0.11035994986E+03 -0.13230503654E+03  0.18031123859E+03  0.41800000000E+01 0. -1.
         -5    1    3    3    0  502 -0.35706478583E+01  0.18198143858E+02  0.11857146933E+02  0.22405050756E+02  0.41800000000E+01 0. -1.
        -11    1    1    2    0    0 -0.54789003777E+02  0.10367846915E+03 -0.29834301789E+03  0.32056140788E+03  0.00000000000E+00 0. -1.
         11    1    1    2    0    0  0.53433415842E+01 -0.11516663140E+02 -0.78403024468E+01  0.14921634348E+02  0.00000000000E+00 0.  1.
</event>
<event>
 7    1  0.2612213E-009  0.2057642E+03  0.7561462E-02  0.1144965E+00
          1   -1    0    0  501    0  0.00000000000E+00  0.00000000000E+00  0.19259111198E+02  0.19259111198E+02  0.00000000000E+00 0. -1.
         -1   -1    0    0    0  501 -0.00000000000E+00 -0.00000000000E+00 -0.23258318416E+04  0.23258318416E+04  0.00000000000E+00 0.  1.
         25    2    1    2    0    0  0.88234063782E+02  0.15090992308E+03 -0.14623139912E+04  0.14780287015E+04  0.12509028254E+03 0.  0.
          5    1    3    3  502    0  0.67437511367E+02  0.61678088928E+01 -0.52545373145E+03  0.52981596436E+03  0.41800000000E+01 0.  1.
         -5    1    3    3    0  502  0.20796552415E+02  0.14474211418E+03 -0.93686025978E+03  0.94821273718E+03  0.41800000000E+01 0.  1.
        -11    1    1    2    0    0 -0.46934089512E+02 -0.67304699440E+01 -0.21771478346E+03  0.22281794120E+03  0.00000000000E+00 0. -1.
         11    1    1    2    0    0 -0.41299974271E+02 -0.14417945313E+03 -0.62654395574E+03  0.64424431007E+03  0.00000000000E+00 0.  1.
</event>
<event>
 7    1  0.2612213E-009  0.1174446E+03  0.7561462E-02  0.1247373E+00
         -2   -1    0    0    0  501 -0.00000000000E+00  0.00000000000E+00  0.34552655343E+02  0.34552655343E+02  0.00000000000E+00 0.  1.
          2   -1    0    0  501    0  0.00000000000E+00 -0.00000000000E+00 -0.79139004776E+03  0.79139004776E+03  0.00000000000E+00 0. -1.
         25    2    1    2    0    0 -0.37796224934E+02  0.41253557940E+02 -0.68278304891E+03  0.69639852355E+03  0.12509117097E+03 0.  0.
          5    1    3    3  502    0 -0.73138216554E+02 -0.76708606666E+01 -0.44412841165E+03  0.45019502358E+03  0.41800000000E+01 0.  1.
         -5    1    3    3    0  502  0.35341991620E+02  0.48924418606E+02 -0.23865463726E+03  0.24620349996E+03  0.41800000000E+01 0.  1.
        -11    1    1    2    0    0  0.55677128189E+02  0.10124353385E+00 -0.61102042019E+02  0.82664456645E+02  0.00000000000E+00 0. -1.
         11    1    1    2    0    0 -0.17880903255E+02 -0.41354801474E+02 -0.12952301482E+02  0.46879722907E+02  0.00000000000E+00 0.  1.
</event>
<event>
 7    1  0.2612213E-009  0.5347340E+02  0.7561462E-02  0.1427459E+00
         -3   -1    0    0    0  501 -0.00000000000E+00  0.00000000000E+00  0.63059098868E+02  0.63059098868E+02  0.00000000000E+00 0.  1.
          3   -1    0    0  501    0  0.00000000000E+00 -0.00000000000E+00 -0.18657628089E+03  0.18657628089E+03  0.00000000000E+00 0. -1.
         25    2    1    2    0    0 -0.17948526676E+02 -0.61921756468E+01 -0.98511957777E+02  0.16035234734E+03  0.12509107411E+03 0.  0.
          5    1    3    3  502    0  0.68083967194E+01  0.27405747082E+02  0.19855994546E+02  0.34773009050E+02  0.41800000000E+01 0.  1.
         -5    1    3    3    0  502 -0.24756923395E+02 -0.33597922729E+02 -0.11836795232E+03  0.12557933829E+03  0.41800000000E+01 0.  1.
        -11    1    1    2    0    0  0.11528662586E+02 -0.12314588485E+02  0.28047467341E+02  0.32729490903E+02  0.00000000000E+00 0.  1.
         11    1    1    2    0    0  0.64198640899E+01  0.18506764131E+02 -0.53052691589E+02  0.56553541520E+02  0.00000000000E+00 0. -1.
</event>
<event>
 7    1  0.2612213E-009  0.9607583E+02  0.7561462E-02  0.1288771E+00
         -2   -1    0    0    0  501 -0.00000000000E+00  0.00000000000E+00  0.55201305003E+02  0.55201305003E+02  0.00000000000E+00 0. -1.
          2   -1    0    0  501    0  0.00000000000E+00 -0.00000000000E+00 -0.23584696432E+03  0.23584696432E+03  0.00000000000E+00 0.  1.
         25    2    1    2    0    0  0.30806421714E+02 -0.90692244775E+01 -0.87857293415E+02  0.15620628490E+03  0.12510081128E+03 0.  0.
          5    1    3    3  502    0  0.78175620933E+02 -0.73537857246E+01 -0.38162295482E+02  0.87403312690E+02  0.41800000000E+01 0. -1.
         -5    1    3    3    0  502 -0.47369199219E+02 -0.17154387529E+01 -0.49694997933E+02  0.68802972206E+02  0.41800000000E+01 0. -1.
        -11    1    1    2    0    0  0.16813312266E+02 -0.23203683152E+01 -0.83245120831E+02  0.84957764334E+02  0.00000000000E+00 0.  1.
         11    1    1    2    0    0 -0.47619733980E+02  0.11389592793E+02 -0.95432450765E+01  0.49884220099E+02  0.00000000000E+00 0. -1.
</event>
<event>
 7    1  0.2612213E-009  0.9914164E+02  0.7561462E-02  0.1282111E+00
          3   -1    0    0  501    0  0.00000000000E+00  0.00000000000E+00  0.42054312163E+02  0.42054312163E+02  0.00000000000E+00 0. -1.
         -3   -1    0    0    0  501 -0.00000000000E+00 -0.00000000000E+00 -0.35166958276E+03  0.35166958276E+03  0.00000000000E+00 0.  1.
         25    2    1    2    0    0 -0.15718536975E+00 -0.15625972581E+02 -0.87740176342E+02  0.15358789007E+03  0.12508679269E+03 0.  0.
          5    1    3    3  502    0 -0.10828163805E+02 -0.66984241372E+02 -0.26804415111E+02  0.73075897484E+02  0.41800000000E+01 0.  1.
         -5    1    3    3    0  502  0.10670978435E+02  0.51358268791E+02 -0.60935761231E+02  0.80511992590E+02  0.41800000000E+01 0.  1.
        -11    1    1    2    0    0 -0.37638731332E+02  0.27044944793E+01 -0.44626372985E+02  0.58442292498E+02  0.00000000000E+00 0. -1.
         11    1    1    2    0    0  0.37795916702E+02  0.12921478102E+02 -0.17724872128E+03  0.18169371236E+03  0.00000000000E+00 0.  1.
</event>
<event>
 7    1  0.2612213E-009  0.1133815E+03  0.7561462E-02  0.1254433E+00
         -2   -1    0    0    0  501 -0.00000000000E+00  0.00000000000E+00  0.28360484328E+02  0.28360484328E+02  0.00000000000E+00 0.  1.
          2   -1    0    0  501    0  0.00000000000E+00 -0.00000000000E+00 -0.56991878427E+03  0.56991878427E+03  0.00000000000E+00 0. -1.
         25    2    1    2    0    0 -0.32662153689E+02  0.24616497327E+02 -0.17232757270E+03  0.21683486613E+03  0.12509108135E+03 0.  0.
          5    1    3    3  502    0  0.28986176519E+02 -0.35001424545E+02 -0.64035905260E+02  0.78634392678E+02  0.41800000000E+01 0.  1.
         -5    1    3    3    0  502 -0.61648330209E+02  0.59617921872E+02 -0.10829166744E+03  0.13820047345E+03  0.41800000000E+01 0.  1.
        -11    1    1    2    0    0  0.93445649588E+01  0.32369648291E+02 -0.11272418238E+03  0.11765141868E+03  0.00000000000E+00 0.  1.
         11    1    1    2    0    0  0.23317588731E+02 -0.56986145617E+02 -0.25650654487E+03  0.26379298379E+03  0.00000000000E+00 0. -1.
</event>
<event>
 7    1  0.2612213E-009  0.1360700E+03  0.7561462E-02  0.1218717E+00
          2   -1    0    0  501    0  0.00000000000E+00  0.00000000000E+00  0.48266258761E+03  0.48266258761E+03  0.00000000000E+00 0. -1.
         -2   -1    0    0    0  501 -0.00000000000E+00 -0.00000000000E+00 -0.56249302590E+02  0.56249302590E+02  0.00000000000E+00 0.  1.
         25    2    1    2    0    0  0.10093521213E+03  0.55725198763E+02  0.18689251922E+03  0.25272448931E+03  0.12509052295E+03 0.  0.
          5    1    3    3  502    0  0.81422288356E+02  0.25261100203E+02  0.28176391694E+02  0.89883778701E+02  0.41800000000E+01 0.  1.
         -5    1    3    3    0  502  0.19512923770E+02  0.30464098560E+02  0.15871612753E+03  0.16284071061E+03  0.41800000000E+01 0.  1.
        -11    1    1    2    0    0 -0.10196299328E+03 -0.76145526912E+01  0.12190278706E+03  0.15910601153E+03  0.00000000000E+00 0. -1.
         11    1    1    2    0    0  0.10277811523E+01 -0.48110646071E+02  0.11761797874E+03  0.12708138937E+03  0.00000000000E+00 0.  1.
</event>
<event>
 7    1  0.2612213E-009  0.2043853E+03  0.7561462E-02  0.1146091E+00
          2   -1    0    0  501    0  0.00000000000E+00  0.00000000000E+00  0.24075665866E+04  0.24075665866E+04  0.00000000000E+00 0. -1.
         -2   -1    0    0    0  501 -0.00000000000E+00 -0.00000000000E+00 -0.23540305999E+02  0.23540305999E+02  0.00000000000E+00 0.  1.
         25    2    1    2    0    0 -0.12122456659E+03  0.13532703519E+03  0.17893960231E+04  0.18029404366E+04  0.12508912182E+03 0.  0.
          5    1    3    3  502    0 -0.38561344791E+02  0.11510147417E+03  0.13433175915E+04  0.13487975944E+04  0.41800000000E+01 0.  1.
         -5    1    3    3    0  502 -0.82663221802E+02  0.20225561017E+02  0.44607843161E+03  0.45414284219E+03  0.41800000000E+01 0.  1.
        -11    1    1    2    0    0  0.29553507034E+01  0.12468679597E+02  0.48385773557E+02  0.50053822545E+02  0.00000000000E+00 0. -1.
         11    1    1    2    0    0  0.11826921589E+03 -0.14779571478E+03  0.54624448398E+03  0.57811263350E+03  0.00000000000E+00 0.  1.
</event>
<event>
 7    1  0.2612213E-009  0.1845953E+03  0.7561462E-02  0.1163428E+00
         -1   -1    0    0    0  501 -0.00000000000E+00  0.00000000000E+00  0.99116441955E+02  0.99116441955E+02  0.00000000000E+00 0.  1.
          1   -1    0    0  501    0  0.00000000000E+00 -0.00000000000E+00 -0.67565302418E+03  0.67565302418E+03  0.00000000000E+00 0. -1.
         25    2    1    2    0    0 -0.51665362702E+02 -0.14718536082E+03 -0.55525108660E+03  0.59015575246E+03  0.12508877987E+03 0.  0.
          5    1    3    3  502    0  0.15887233849E+01 -0.12945335251E+03 -0.27073569874E+03  0.30012661576E+03  0.41800000000E+01 0. -1.
         -5    1    3    3    0  502 -0.53254086087E+02 -0.17732008312E+02 -0.28451538786E+03  0.29002913670E+03  0.41800000000E+01 0. -1.
        -11    1    1    2    0    0 -0.28630154535E+02  0.46304114618E+02 -0.56091995222E+01  0.54728602198E+02  0.00000000000E+00 0.  1.
         11    1    1    2    0    0  0.80295517237E+02  0.10088124620E+03 -0.15676296100E+02  0.12988511147E+03  0.00000000000E+00 0. -1.
</event>
<event>
 7    1  0.4365533E-009  0.2541329E+03  0.7561462E-02  0.1110720E+00
         -2   -1    0    0    0  501 -0.00000000000E+00  0.00000000000E+00  0.86101747279E+02  0.86101747279E+02  0.00000000000E+00 0.  1.
          2   -1    0    0  501    0  0.00000000000E+00 -0.00000000000E+00 -0.82646763037E+03  0.82646763037E+03  0.00000000000E+00 0. -1.
         25    2    1    2    0    0 -0.21703401388E+02 -0.24044997690E+03 -0.32686134489E+03  0.42517545659E+03  0.12509436868E+03 0.  0.
          5    1    3    3  502    0  0.24610212790E+02 -0.55498975251E+02 -0.16212135404E+03  0.17316640744E+03  0.41800000000E+01 0.  1.
         -5    1    3    3    0  502 -0.46313614179E+02 -0.18495100165E+03 -0.16473999085E+03  0.25200904915E+03  0.41800000000E+01 0.  1.
        -11    1    1    2    0    0  0.54989450686E+02  0.12520882988E+03 -0.24454248600E+03  0.28018229463E+03  0.00000000000E+00 0.  1.
         11    1    1    2    0    0 -0.33286049298E+02  0.11524114702E+03 -0.16896205220E+03  0.20721162643E+03  0.00000000000E+00 0. -1.
</event>
<event>
 7    1  0.2612213E-009  0.2401077E+03  0.7561462E-02  0.1119721E+00
         -1   -1    0    0    0  501 -0.00000000000E+00  0.00000000000E+00  0.34815569371E+03  0.34815569371E+03  0.00000000000E+00 0.  1.
          1   -1    0    0  501    0  0.00000000000E+00 -0.00000000000E+00 -0.18368590736E+03  0.18368590736E+03  0.00000000000E+00 0. -1.
         25    2    1    2    0    0 -0.18209151057E+03 -0.13732425657E+03  0.84607892787E+02  0.27353286449E+03  0.12508582163E+03 0.  0.
          5    1    3    3  502    0 -0.66955691109E+02 -0.11569142542E+03  0.89946908887E+01  0.13403711184E+03  0.41800000000E+01 0.  1.
         -5    1    3    3    0  502 -0.11513581946E+03 -0.21632831147E+02  0.75613201899E+02  0.13949575265E+03  0.41800000000E+01 0.  1.
        -11    1    1    2    0    0  0.12355804271E+03  0.79182627017E+02  0.94459170684E+02  0.17452510784E+03  0.00000000000E+00 0.  1.
         11    1    1    2    0    0  0.58533467854E+02  0.58141629549E+02 -0.14597277116E+02  0.83783628740E+02  0.00000000000E+00 0. -1.
</event>
<event>
 7    1  0.2612213E-009  0.1198827E+03  0.7561462E-02  0.1243291E+00
         -1   -1    0    0    0  501 -0.00000000000E+00  0.00000000000E+00  0.35602474885E+02  0.35602474885E+02  0.00000000000E+00 0.  1.
          1   -1    0    0  501    0  0.00000000000E+00 -0.00000000000E+00 -0.74830388447E+03  0.74830388447E+03  0.00000000000E+00 0. -1.
         25    2    1    2    0    0  0.62784773287E+02  0.88464377753E+02 -0.56723557522E+03  0.59090767498E+03  0.12509120139E+03 0.  0.
          5    1    3    3  502    0  0.39568828507E+02  0.66116585822E+01 -0.41086484491E+03  0.41283991983E+03  0.41800000000E+01 0. -1.
         -5    1    3    3    0  502  0.23215944780E+02  0.81852719171E+02 -0.15637073031E+03  0.17806775515E+03  0.41800000000E+01 0. -1.
        -11    1    1    2    0    0 -0.43087781519E+02 -0.29865732764E+02 -0.26076972108E+02  0.58553628275E+02  0.00000000000E+00 0.  1.
         11    1    1    2    0    0 -0.19696991768E+02 -0.58598644989E+02 -0.11938886225E+03  0.13444505610E+03  0.00000000000E+00 0. -1.
</event>
<event>
 7    1  0.2612213E-009  0.1213660E+03  0.7561462E-02  0.1240860E+00
         -1   -1    0    0    0  501 -0.00000000000E+00  0.00000000000E+00  0.25789956065E+03  0.25789956065E+03  0.00000000000E+00 0.  1.
          1   -1    0    0  501    0  0.00000000000E+00 -0.00000000000E+00 -0.97428850582E+02  0.97428850582E+02  0.00000000000E+00 0. -1.
         25    2    1    2    0    0 -0.11126984811E+03 -0.17275444717E+02  0.64475962894E+02  0.18023280658E+03  0.12508914696E+03 0.  0.
          5    1    3    3  502    0 -0.15286857308E+02  0.18051257028E+02 -0.31702245695E+02  0.39774874843E+02  0.41800000000E+01 0.  1.
         -5    1    3    3    0  502 -0.95982990803E+02 -0.35326701745E+02  0.96178208589E+02  0.14045793173E+03  0.41800000000E+01 0.  1.
        -11    1    1    2    0    0  0.19785373781E+02 -0.81466742278E+01  0.74810280222E+02  0.77810072250E+02  0.00000000000E+00 0.  1.
         11    1    1    2    0    0  0.91484474331E+02  0.25422118945E+02  0.21184466953E+02  0.97285532405E+02  0.00000000000E+00 0. -1.
</event>
<event>
 7    1  0.2612213E-009  0.1031598E+03  0.7561462E-02  0.1273788E+00
          2   -1    0    0  501    0  0.00000000000E+00  0.00000000000E+00  0.11733735101E+03  0.11733735101E+03  0.00000000000E+00 0. -1.
         -2   -1    0    0    0  501 -0.00000000000E+00 -0.00000000000E+00 -0.12901897539E+03  0.12901897539E+03  0.00000000000E+00 0.  1.
         25    2    1    2    0    0  0.16646357532E+02 -0.10250617823E+02 -0.68997466548E+02  0.14418466499E+03  0.12508553411E+03 0.  0.
          5    1    3    3  502    0  0.69001016014E+02 -0.36850514374E+01 -0.19998653265E+02  0.72056494138E+02  0.41800000000E+01 0. -1.
         -5    1    3    3    0  502 -0.52354658483E+02 -0.65655663855E+01 -0.48998813284E+02  0.72128170849E+02  0.41800000000E+01 0. -1.
        -11    1    1    2    0    0  0.10021198723E+02 -0.32371262491E+02  0.28102465600E+02  0.44023534977E+02  0.00000000000E+00 0.  1.
         11    1    1    2    0    0 -0.26667556254E+02  0.42621880314E+02  0.29213376563E+02  0.58148126438E+02  0.00000000000E+00 0. -1.
</event>
<event>
 7    1  0.2612213E-009  0.1403575E+03  0.7561462E-02  0.1212849E+00
         -2   -1    0    0    0  501 -0.00000000000E+00  0.00000000000E+00  0.25454130627E+02  0.25454130627E+02  0.00000000000E+00 0.  1.
          2   -1    0    0  501    0  0.00000000000E+00 -0.00000000000E+00 -0.80951948251E+03  0.80951948251E+03  0.00000000000E+00 0. -1.
         25    2    1    2    0    0 -0.89562777867E+02  0.16532330009E+02 -0.46902600159E+03  0.49389060524E+03  0.12509088962E+03 0.  0.
          5    1    3    3  502    0 -0.13076283200E+02 -0.48400171206E+02 -0.21335201483E+03  0.21920337677E+03  0.41800000000E+01 0. -1.
         -5    1    3    3    0  502 -0.76486494667E+02  0.64932501215E+02 -0.25567398676E+03  0.27468722847E+03  0.41800000000E+01 0. -1.
        -11    1    1    2    0    0  0.13460754159E+01  0.30150077774E+02 -0.58822059289E+02  0.66112584035E+02  0.00000000000E+00 0.  1.
         11    1    1    2    0    0  0.88216702452E+02 -0.46682407783E+02 -0.25621729101E+03  0.27497042386E+03  0.00000000000E+00 0. -1.
</event>
<event>
 7    1  0.2612213E-009  0.1055783E+03  0.7561462E-02  0.1268984E+00
          1   -1    0    0  501    0  0.00000000000E+00  0.00000000000E+00  0.10270708271E+04  0.10270708271E+04  0.00000000000E+00 0. -1.
         -1   -1    0    0    0  501 -0.00000000000E+00 -0.00000000000E+00 -0.22630132096E+02  0.22630132096E+02  0.00000000000E+00 0.  1.
         25    2    1    2    0    0  0.99236805334E+02  0.93036924549E+01  0.66530426383E+03  0.68426013744E+03  0.12509064710E+03 0.  0.
          5    1    3    3  502    0  0.49085219132E+02  0.25532945254E+02  0.58793551639E+03  0.59054799455E+03  0.41800000000E+01 0.  1.
         -5    1    3    3    0  502  0.50151586202E+02 -0.16229252799E+02  0.77368747437E+02  0.93712142890E+02  0.41800000000E+01 0.  1.
        -11    1    1    2    0    0 -0.46669025269E+02  0.82064763385E+01  0.42430378871E+02  0.63605669752E+02  0.00000000000E+00 0.  1.
         11    1    1    2    0    0 -0.52567780065E+02 -0.17510168793E+02  0.29670605227E+03  0.30183515197E+03  0.00000000000E+00 0. -1.
</event>
<event>
 7    1  0.2612213E-009  0.7702074E+02  0.7561462E-02  0.1337725E+00
          2   -1    0    0  501    0  0.00000000000E+00  0.00000000000E+00  0.31732678655E+03  0.31732678655E+03  0.00000000000E+00 0. -1.
         -2   -1    0    0    0  501 -0.00000000000E+00 -0.00000000000E+00 -0.37681720705E+02  0.37681720705E+02  0.00000000000E+00 0.  1.
         25    2    1    2    0    0  0.12870626018E+02  0.95156402877E+01  0.15343236775E+03  0.19861039026E+03  0.12509354589E+03 0.  0.
          5    1    3    3  502    0  0.40055047657E+02 -0.34909906123E+01 -0.17619810859E+01  0.40461967768E+02  0.41800000000E+01 0.  1.
         -5    1    3    3    0  502 -0.27184421639E+02  0.13006630900E+02  0.15519434883E+03  0.15814842249E+03  0.41800000000E+01 0.  1.
        -11    1    1    2    0    0 -0.45457462153E+02  0.80642022844E+01  0.34931343527E+02  0.57893099627E+02  0.00000000000E+00 0.  1.
         11    1    1    2    0    0  0.32586836135E+02 -0.17579842572E+02  0.91281354570E+02  0.98505017366E+02  0.00000000000E+00 0. -1.
</event>
<event>
 7    1  0.2612213E-009  0.2245684E+03  0.7561462E-02  0.1130522E+00
         -2   -1    0    0    0  501 -0.00000000000E+00  0.00000000000E+00  0.28327567994E+03  0.28327567994E+03  0.00000000000E+00 0.  1.
          2   -1    0    0  501    0  0.00000000000E+00 -0.00000000000E+00 -0.26071344285E+03  0.26071344285E+03  0.00000000000E+00 0. -1.
         25    2    1    2    0    0 -0.18633559904E+03  0.10219599151E+03 -0.11838326327E+03  0.27354458799E+03  0.12508824264E+03 0.  0.
          5    1    3    3  502    0 -0.18531397786E+03  0.11028430893E+03 -0.73700598332E+02  0.22793233597E+03  0.41800000000E+01 0.  1.
         -5    1    3    3    0  502 -0.10216211791E+01 -0.80883174234E+01 -0.44682664934E+02  0.45612252018E+02  0.41800000000E+01 0.  1.
        -11    1    1    2    0    0  0.35606407921E+02  0.93011352078E+01  0.49950869694E+02  0.62043668366E+02  0.00000000000E+00 0.  1.
         11    1    1    2    0    0  0.15072919112E+03 -0.11149712672E+03  0.90994630654E+02  0.20840086643E+03  0.00000000000E+00 0. -1.
</event>
<event>
 7    1  0.2612213E-009  0.1152416E+03  0.7561462E-02  0.1251160E+00
         -1   -1    0    0    0  501 -0.00000000000E+00  0.00000000000E+00  0.11696863787E+03  0.11696863787E+03  0.00000000000E+00 0.  1.
          1   -1    0    0  501    0  0.00000000000E+00 -0.00000000000E+00 -0.14626680707E+03  0.14626680707E+03  0.00000000000E+00 0. -1.
         25    2    1    2    0    0  0.36618189223E+02  0.62716423149E+02 -0.60886271400E+01  0.14477337965E+03  0.12509204036E+03 0.  0.
          5    1    3    3  502    0  0.31560023941E+02 -0.25180999677E+02 -0.33326229526E+02  0.52518833101E+02  0.41800000000E+01 0. -1.
         -5    1    3    3    0  502  0.50581652823E+01  0.87897422826E+02  0.27237602386E+02  0.92254546550E+02  0.41800000000E+01 0. -1.
        -11    1    1    2    0    0 -0.16713435751E+02 -0.76002913260E+02  0.89971068562E+01  0.78337281612E+02  0.00000000000E+00 0.  1.
         11    1    1    2    0    0 -0.19904753471E+02  0.13286490111E+02 -0.32206648920E+02  0.40124783674E+02  0.00000000000E+00 0. -1.
</event>
<event>
 7    1  0.2612213E-009  0.1012690E+03  0.7561462E-02  0.1277650E+00
         -1   -1    0    0    0  501 -0.00000000000E+00  0.00000000000E+00  0.25575563211E+03  0.25575563211E+03  0.00000000000E+00 0.  1.
          1   -1    0    0  501    0  0.00000000000E+00 -0.00000000000E+00 -0.66173877649E+02  0.66173877649E+02  0.00000000000E+00 0. -1.
         25    2    1    2    0    0 -0.43501027556E+02 -0.53743468335E+02  0.85359255439E+02  0.16648482659E+03  0.12510113991E+03 0.  0.
          5    1    3    3  502    0  0.23100713802E+01  0.13303199977E+02  0.83981588186E+02  0.85162733126E+02  0.41800000000E+01 0. -1.
         -5    1    3    3    0  502 -0.45811098936E+02 -0.67046668312E+02  0.13776672537E+01  0.81322093459E+02  0.41800000000E+01 0. -1.
        -11    1    1    2    0    0 -0.22402142255E+02  0.56337671109E+00  0.17049096679E+01  0.22473986917E+02  0.00000000000E+00 0.  1.
         11    1    1    2    0    0  0.65903169811E+02  0.53180091624E+02  0.10251758935E+03  0.13297069625E+03  0.00000000000E+00 0. -1.
</event>
<event>
 7    1  0.2612213E-009  0.8097727E+02  0.7561462E-02  0.1326301E+00
         -4   -1    0    0    0  501 -0.00000000000E+00  0.00000000000E+00  0.40573884866E+02  0.40573884866E+02  0.00000000000E+00 0.  1.
          4   -1    0    0  501    0  0.00000000000E+00 -0.00000000000E+00 -0.35996044723E+03  0.35996044723E+03  0.00000000000E+00 0. -1.
         25    2    1    2    0    0  0.27876745770E+02  0.48041876273E+00 -0.25637187060E+03  0.28662071164E+03  0.12509017767E+03 0.  0.
          5    1    3    3  502    0 -0.29990227432E+02  0.68124167824E+01 -0.87967171990E+01  0.32259531883E+02  0.41800000000E+01 0. -1.
         -5    1    3    3    0  502  0.57866973202E+02 -0.63319980197E+01 -0.24757515340E+03  0.25436117976E+03  0.41800000000E+01 0. -1.
        -11    1    1    2    0    0  0.13305036885E+02 -0.22286917250E+02  0.95648183560E+01  0.27662545747E+02  0.00000000000E+00 0.  1.
         11    1    1    2    0    0 -0.41181782654E+02  0.21806498488E+02 -0.72579510119E+02  0.86251074707E+02  0.00000000000E+00 0. -1.
</event>
<event>
 7    1  0.2908545E-009  0.9371050E+02  0.7561462E-02  0.1294107E+00
         -2   -1    0    0    0  501 -0.00000000000E+00  0.00000000000E+00  0.93859560536E+02  0.93859560536E+02  0.00000000000E+00 0. -1.
          2   -1    0    0  501    0  0.00000000000E+00 -0.00000000000E+00 -0.16471760135E+03  0.16471760135E+03  0.00000000000E+00 0.  1.
         25    2    1    2    0    0 -0.26064854239E+02 -0.99522730009E+01 -0.95934847625E+02  0.16009622992E+03  0.12509549745E+03 0.  0.
          5    1    3    3  502    0  0.26705216497E+01 -0.65230228503E+02 -0.54639631980E+02  0.85235416227E+02  0.41800000000E+01 0.  1.
         -5    1    3    3    0  502 -0.28735375889E+02  0.55277955502E+02 -0.41295215645E+02  0.74860813695E+02  0.41800000000E+01 0.  1.
        -11    1    1    2    0    0 -0.10060130768E+02  0.19721410742E+02  0.49203693172E+02  0.53955015472E+02  0.00000000000E+00 0. -1.
         11    1    1    2    0    0  0.36124985007E+02 -0.97691377414E+01 -0.24126886361E+02  0.44525916492E+02  0.00000000000E+00 0.  1.
</event>
<event>
 7    1  0.2886614E-009  0.1100917E+03  0.7561462E-02  0.1260400E+00
          1   -1    0    0  501    0  0.00000000000E+00  0.00000000000E+00  0.46715257334E+03  0.46715257334E+03  0.00000000000E+00 0.  1.
         -1   -1    0    0    0  501 -0.00000000000E+00 -0.00000000000E+00 -0.63095896566E+02  0.63095896566E+02  0.00000000000E+00 0. -1.
         25    2    1    2    0    0  0.60414655858E+02 -0.79973263769E+02  0.80246628062E+02  0.17925834525E+03  0.12509348290E+03 0.  0.
          5    1    3    3  502    0  0.59514764320E+01 -0.52208383854E+02 -0.24326840599E+02  0.58055171947E+02  0.41800000000E+01 0.  1.
         -5    1    3    3    0  502  0.54463179426E+02 -0.27764879915E+02  0.10457346866E+03  0.12120317330E+03  0.41800000000E+01 0.  1.
        -11    1    1    2    0    0 -0.59956976746E+02  0.55446155981E+02  0.31420685594E+03  0.32464605895E+03  0.00000000000E+00 0.  1.
         11    1    1    2    0    0 -0.45767911235E+00  0.24527107787E+02  0.96031927719E+01  0.26344065707E+02  0.00000000000E+00 0. -1.
</event>
<event>
 7    1  0.2612213E-009  0.1227235E+03  0.7561462E-02  0.1238671E+00
          1   -1    0    0  501    0  0.00000000000E+00  0.00000000000E+00  0.72864525161E+03  0.72864525161E+03  0.00000000000E+00 0. -1.
         -1   -1    0    0    0  501 -0.00000000000E+00 -0.00000000000E+00 -0.29099174846E+02  0.29099174846E+02  0.00000000000E+00 0.  1.
         25    2    1    2    0    0 -0.46330257528E+02 -0.95557732684E+02  0.29840030210E+03  0.34054056298E+03  0.12508941483E+03 0.  0.
          5    1    3    3  502    0 -0.62555237581E+02 -0.38943475326E+02  0.60528953270E+02  0.95451446313E+02  0.41800000000E+01 0.  1.
         -5    1    3    3    0  502  0.16224980053E+02 -0.56614257359E+02  0.23787134883E+03  0.24508911666E+03  0.41800000000E+01 0.  1.
        -11    1    1    2    0    0  0.23840666058E+02  0.13250095933E+02  0.67068276654E+02  0.72402321328E+02  0.00000000000E+00 0.  1.
         11    1    1    2    0    0  0.22489591470E+02  0.82307636751E+02  0.33407749802E+03  0.34480154216E+03  0.00000000000E+00 0. -1.
</event>
<event>
 7    1  0.2612213E-009  0.1364536E+03  0.7561462E-02  0.1218182E+00
         -2   -1    0    0    0  501 -0.00000000000E+00  0.00000000000E+00  0.88271557868E+02  0.88271557868E+02  0.00000000000E+00 0.  1.
          2   -1    0    0  501    0  0.00000000000E+00 -0.00000000000E+00 -0.34754129478E+03  0.34754129478E+03  0.00000000000E+00 0. -1.
         25    2    1    2    0    0 -0.46376269369E+02  0.11073881983E+03 -0.21785291781E+03  0.27842677916E+03  0.12509089885E+03 0.  0.
          5    1    3    3  502    0 -0.59817572707E+02  0.95202946677E+02 -0.77748918552E+02  0.13676296939E+03  0.41800000000E+01 0. -1.
         -5    1    3    3    0  502  0.13441303338E+02  0.15535873154E+02 -0.14010399926E+03  0.14166380977E+03  0.41800000000E+01 0. -1.
        -11    1    1    2    0    0 -0.12529094774E+02 -0.61179703247E+02  0.12126536301E+02  0.63615935016E+02  0.00000000000E+00 0.  1.
         11    1    1    2    0    0  0.58905364143E+02 -0.49559116583E+02 -0.53543355399E+02  0.93770138471E+02  0.00000000000E+00 0. -1.
</event>
<event>
 7    1  0.2612213E-009  0.1211195E+03  0.7561462E-02  0.1241262E+00
         -1   -1    0    0    0  501 -0.00000000000E+00  0.00000000000E+00  0.58043555950E+02  0.58043555950E+02  0.00000000000E+00 0.  1.
          1   -1    0    0  501    0  0.00000000000E+00 -0.00000000000E+00 -0.62644198606E+03  0.62644198606E+03  0.00000000000E+00 0. -1.
         25    2    1    2    0    0 -0.17477289773E+02  0.10325310139E+03 -0.50677950743E+03  0.53239121797E+03  0.12509309017E+03 0.  0.
          5    1    3    3  502    0 -0.10815924831E+02  0.62023756058E+02 -0.47644302068E+03  0.48060311579E+03  0.41800000000E+01 0. -1.
         -5    1    3    3    0  502 -0.66613649426E+01  0.41229345328E+02 -0.30336486750E+02  0.51788102180E+02  0.41800000000E+01 0. -1.
        -11    1    1    2    0    0 -0.14480595378E+02 -0.10419481193E+03 -0.57422926351E+02  0.11984839985E+03  0.00000000000E+00 0.  1.
         11    1    1    2    0    0  0.31957885151E+02  0.94171054383E+00 -0.41959963276E+01  0.32245924196E+02  0.00000000000E+00 0. -1.
</event>
<event>
 7    1  0.2612213E-009  0.1023640E+03  0.7561462E-02  0.1275402E+00
          1   -1    0    0  501    0  0.00000000000E+00  0.00000000000E+00  0.88391073184E+02  0.88391073184E+02  0.00000000000E+00 0. -1.
         -1   -1    0    0    0  501 -0.00000000000E+00 -0.00000000000E+00 -0.14141476886E+03  0.14141476886E+03  0.00000000000E+00 0.  1.
         25    2    1    2    0    0  0.20416948892E+02 -0.21072332764E+02 -0.82207834160E+01  0.12874794265E+03  0.12509019325E+03 0.  0.
          5    1    3    3  502    0 -0.41878003180E+02 -0.34299606723E+02 -0.29098688079E+02  0.61598995281E+02  0.41800000000E+01 0. -1.
         -5    1    3    3    0  502  0.62294952073E+02  0.13227273959E+02  0.20877904663E+02  0.67148947372E+02  0.41800000000E+01 0. -1.
        -11    1    1    2    0    0 -0.37929681201E+02 -0.19336245375E+02 -0.36846458367E+02  0.56304640976E+02  0.00000000000E+00 0.  1.
         11    1    1    2    0    0  0.17512732309E+02  0.40408578139E+02 -0.79564538924E+01  0.44753258414E+02  0.00000000000E+00 0. -1.
</event>
<event>
 7    1  0.2612213E-009  0.1651223E+03  0.7561462E-02  0.1183032E+00
          2   -1    0    0  501    0  0.00000000000E+00  0.00000000000E+00  0.88313695761E+03  0.88313695761E+03  0.00000000000E+00 0. -1.
         -2   -1    0    0    0  501 -0.00000000000E+00 -0.00000000000E+00 -0.91026375984E+02  0.91026375984E+02  0.00000000000E+00 0.  1.
         25    2    1    2    0    0 -0.16096842147E+03  0.15168313105E+01  0.50344562988E+02  0.20998486203E+03  0.12508370707E+03 0.  0.
          5    1    3    3  502    0 -0.61474744761E+01 -0.11537850945E+02 -0.31475297742E+02  0.34337737474E+02  0.41800000000E+01 0. -1.
         -5    1    3    3    0  502 -0.15482094699E+03  0.13054682256E+02  0.81819860730E+02  0.17564712456E+03  0.41800000000E+01 0. -1.
        -11    1    1    2    0    0  0.43310578517E+02  0.23155295119E+01  0.71295940679E+02  0.83452256085E+02  0.00000000000E+00 0.  1.
         11    1    1    2    0    0  0.11765784295E+03 -0.38323608223E+01  0.67047007795E+03  0.68072621547E+03  0.00000000000E+00 0. -1.
</event>
<event>
 7    1  0.2612213E-009  0.9879758E+02  0.7561462E-02  0.1282845E+00
          1   -1    0    0  501    0  0.00000000000E+00  0.00000000000E+00  0.12751786420E+03  0.12751786420E+03  0.00000000000E+00 0. -1.
         -1   -1    0    0    0  501 -0.00000000000E+00 -0.00000000000E+00 -0.10497902929E+03  0.10497902929E+03  0.00000000000E+00 0.  1.
         25    2    1    2    0    0  0.26964556445E+02 -0.22394219023E+02  0.30607252026E+02  0.13347371095E+03  0.12509931770E+03 0.  0.
          5    1    3    3  502    0  0.35360470179E+02  0.35943810139E+02  0.50150852198E+02  0.71238337395E+02  0.41800000000E+01 0.  1.
         -5    1    3    3    0  502 -0.83959137344E+01 -0.58338029162E+02 -0.19543600172E+02  0.62235373556E+02  0.41800000000E+01 0.  1.
        -11    1    1    2    0    0  0.16639332249E+02  0.38093991154E+02  0.18614024995E+02  0.45546695448E+02  0.00000000000E+00 0. -1.
         11    1    1    2    0    0 -0.43603888693E+02 -0.15699772131E+02 -0.26682442107E+02  0.53476487085E+02  0.00000000000E+00 0.  1.
</event>
<event>
 7    1  0.2612213E-009  0.7455703E+02  0.7561462E-02  0.1345248E+00
          1   -1    0    0  501    0  0.00000000000E+00  0.00000000000E+00  0.11265524133E+03  0.11265524133E+03  0.00000000000E+00 0. -1.
         -1   -1    0    0    0  501 -0.00000000000E+00 -0.00000000000E+00 -0.11799866404E+03  0.11799866404E+03  0.00000000000E+00 0.  1.
         25    2    1    2    0    0 -0.25070218283E+02 -0.19481863418E+02  0.19430076034E+02  0.13051018026E+03  0.12508924994E+03 0.  0.
          5    1    3    3  502    0  0.18229958876E+02 -0.24853357698E+01 -0.46231267797E+02  0.49933063361E+02  0.41800000000E+01 0. -1.
         -5    1    3    3    0  502 -0.43300177159E+02 -0.16996527648E+02  0.65661343832E+02  0.80577116900E+02  0.41800000000E+01 0. -1.
        -11    1    1    2    0    0  0.48037424668E+02 -0.69375792927E+01 -0.39092769699E+02  0.62321495633E+02  0.00000000000E+00 0.  1.
         11    1    1    2    0    0 -0.22967206385E+02  0.26419442710E+02  0.14319270949E+02  0.37822229479E+02  0.00000000000E+00 0. -1.
</event>
<event>
 7    1  0.2612213E-009  0.9636564E+02  0.7561462E-02  0.1288130E+00
          4   -1    0    0  501    0  0.00000000000E+00  0.00000000000E+00  0.14686792605E+03  0.14686792605E+03  0.00000000000E+00 0. -1.
         -4   -1    0    0    0  501 -0.00000000000E+00 -0.00000000000E+00 -0.91332951639E+02  0.91332951639E+02  0.00000000000E+00 0.  1.
         25    2    1    2    0    0 -0.30193021509E+02  0.11070345229E+02  0.78183973362E+01  0.12939762250E+03  0.12509374997E+03 0.  0.
          5    1    3    3  502    0 -0.62348627556E+02  0.20436449271E+02 -0.35313801917E+02  0.74629329508E+02  0.41800000000E+01 0. -1.
         -5    1    3    3    0  502  0.32155606048E+02 -0.93661040415E+01  0.43132199253E+02  0.54768292995E+02  0.41800000000E+01 0. -1.
        -11    1    1    2    0    0  0.61153223248E+02 -0.29388130618E+01  0.46303635811E+02  0.76761839642E+02  0.00000000000E+00 0.  1.
         11    1    1    2    0    0 -0.30960201740E+02 -0.81315321675E+01  0.14129412660E+01  0.32041415546E+02  0.00000000000E+00 0. -1.
</event>
<event>
 7    1  0.2612213E-009  0.1129658E+03  0.7561462E-02  0.1255174E+00
         -1   -1    0    0    0  501 -0.00000000000E+00  0.00000000000E+00  0.23683066755E+02  0.23683066755E+02  0.00000000000E+00 0.  1.
          1   -1    0    0  501    0  0.00000000000E+00 -0.00000000000E+00 -0.95814202026E+03  0.95814202026E+03  0.00000000000E+00 0. -1.
         25    2    1    2    0    0 -0.54978355954E+02  0.26232685291E+02 -0.79144818031E+03  0.80358413062E+03  0.12508580843E+03 0.  0.
          5    1    3    3  502    0 -0.68831062430E+02  0.55183098338E+02 -0.35073432514E+03  0.36168346482E+03  0.41800000000E+01 0.  1.
         -5    1    3    3    0  502  0.13852706477E+02 -0.28950413047E+02 -0.44071385517E+03  0.44190066580E+03  0.41800000000E+01 0.  1.
        -11    1    1    2    0    0  0.43405639221E+02 -0.57421066283E+02 -0.10935739469E+03  0.13092084686E+03  0.00000000000E+00 0. -1.
         11    1    1    2    0    0  0.11572716733E+02  0.31188380992E+02 -0.33653378512E+02  0.47320109539E+02  0.00000000000E+00 0.  1.
</event>
<event>
 7    1  0.2612213E-009  0.1192183E+03  0.7561462E-02  0.1244392E+00
         -2   -1    0    0    0  501 -0.00000000000E+00  0.00000000000E+00  0.80777546873E+02  0.80777546873E+02  0.00000000000E+00 0.  1.
          2   -1    0    0  501    0  0.00000000000E+00 -0.00000000000E+00 -0.26448653781E+03  0.26448653781E+03  0.00000000000E+00 0. -1.
         25    2    1    2    0    0 -0.74424955771E+02 -0.42350984685E+02 -0.43312196292E+02  0.15765598711E+03  0.12508710557E+03 0.  0.
          5    1    3    3  502    0 -0.20763208446E+02 -0.81404580817E+02 -0.33022637159E+02  0.90364725241E+02  0.41800000000E+01 0. -1.
         -5    1    3    3    0  502 -0.53661747326E+02  0.39053596132E+02 -0.10289559133E+02  0.67291261870E+02  0.41800000000E+01 0. -1.
        -11    1    1    2    0    0  0.18837375592E+02  0.16157892920E+01  0.10566243558E+02  0.21658785680E+02  0.00000000000E+00 0.  1.
         11    1    1    2    0    0  0.55587580180E+02  0.40735195393E+02 -0.15096303820E+03  0.16594931189E+03  0.00000000000E+00 0. -1.
</event>
<event>
 7    1  0.2612213E-009  0.8986160E+02  0.7561462E-02  0.1303187E+00
         -2   -1    0    0    0  501 -0.00000000000E+00  0.00000000000E+00  0.28986214805E+02  0.28986214805E+02  0.00000000000E+00 0.  1.
          2   -1    0    0  501    0  0.00000000000E+00 -0.00000000000E+00 -0.66642117947E+03  0.66642117947E+03  0.00000000000E+00 0. -1.
         25    2    1    2    0    0  0.68629818906E+02  0.89175524519E+01 -0.48427362032E+03  0.50493645824E+03  0.12510120998E+03 0.  0.
          5    1    3    3  502    0  0.42477229591E+02 -0.23603772778E+02 -0.44439214272E+03  0.44706073640E+03  0.41800000000E+01 0. -1.
         -5    1    3    3    0  502  0.26152589315E+02  0.32521325230E+02 -0.39881477603E+02  0.57875721839E+02  0.41800000000E+01 0. -1.
        -11    1    1    2    0    0  0.10507714142E+01 -0.18624640600E+02  0.32778758356E+01  0.18940058818E+02  0.00000000000E+00 0.  1.
         11    1    1    2    0    0 -0.69680590320E+02  0.97070881478E+01 -0.15643922018E+03  0.17153087721E+03  0.00000000000E+00 0. -1.
</event>
<event>
 7    1  0.2612213E-009  0.7801872E+02  0.7561462E-02  0.1334770E+00
          1   -1    0    0  501    0  0.00000000000E+00  0.00000000000E+00  0.54957103756E+03  0.54957103756E+03  0.00000000000E+00 0.  1.
         -1   -1    0    0    0  501 -0.00000000000E+00 -0.00000000000E+00 -0.23676103023E+02  0.23676103023E+02  0.00000000000E+00 0. -1.
         25    2    1    2    0    0  0.29208627879E+02  0.49412589598E+02  0.28047204628E+03  0.31242112305E+03  0.12509053293E+03 0.  0.
          5    1    3    3  502    0  0.45314646566E+02  0.27390080499E+02  0.31147388333E+02  0.61573256395E+02  0.41800000000E+01 0. -1.
         -5    1    3    3    0  502 -0.16106018687E+02  0.22022509100E+02  0.24932465795E+03  0.25084786665E+03  0.41800000000E+01 0. -1.
        -11    1    1    2    0    0 -0.21774136536E+02 -0.59173022694E+02  0.23859318254E+03  0.24678384548E+03  0.00000000000E+00 0. -1.
         11    1    1    2    0    0 -0.74344913423E+01  0.97604330956E+01  0.68297057200E+01  0.14042172053E+02  0.00000000000E+00 0.  1.
</event>
<event>
 7    1  0.2612213E-009  0.9716410E+02  0.7561462E-02  0.1286375E+00
         -1   -1    0    0    0  501 -0.00000000000E+00  0.00000000000E+00  0.53964781886E+02  0.53964781886E+02  0.00000000000E+00 0.  1.
          1   -1    0    0  501    0  0.00000000000E+00 -0.00000000000E+00 -0.28352476443E+03  0.28352476443E+03  0.00000000000E+00 0. -1.
         25    2    1    2    0    0 -0.37816870559E+02 -0.40884006185E+02 -0.16240311070E+03  0.21241829826E+03  0.12508055568E+03 0.  0.
          5    1    3    3  502    0  0.33307078053E+02 -0.45754687499E+02 -0.35899981378E+02  0.67150085178E+02  0.41800000000E+01 0. -1.
         -5    1    3    3    0  502 -0.71123948612E+02  0.48706813133E+01 -0.12650312932E+03  0.14526821308E+03  0.41800000000E+01 0. -1.
        -11    1    1    2    0    0  0.41878917626E+02  0.22901575289E+02  0.73705496095E+01  0.48297524718E+02  0.00000000000E+00 0.  1.
         11    1    1    2    0    0 -0.40620470670E+01  0.17982430896E+02 -0.74527421453E+02  0.76773723341E+02  0.00000000000E+00 0. -1.
</event>
<event>
 7    1  0.2612213E-009  0.1245282E+03  0.7561462E-02  0.1235808E+00
          3   -1    0    0  501    0  0.00000000000E+00  0.00000000000E+00  0.40006804394E+02  0.40006804394E+02  0.00000000000E+00 0. -1.
         -3   -1    0    0    0  501 -0.00000000000E+00 -0.00000000000E+00 -0.73935258865E+03  0.73935258865E+03  0.00000000000E+00 0.  1.
         25    2    1    2    0    0 -0.18873602334E+02  0.73807105972E+02 -0.60802370062E+03  0.62541491061E+03  0.12508912078E+03 0.  0.
          5    1    3    3  502    0 -0.57959523446E+02  0.74940141057E+02 -0.29343587632E+03  0.30837869092E+03  0.41800000000E+01 0. -1.
         -5    1    3    3    0  502  0.39085921111E+02 -0.11330350851E+01 -0.31458782430E+03  0.31703621969E+03  0.41800000000E+01 0. -1.
        -11    1    1    2    0    0 -0.93123216862E+01 -0.84309223959E+02 -0.90239056443E+02  0.12384608144E+03  0.00000000000E+00 0.  1.
         11    1    1    2    0    0  0.28185924021E+02  0.10502117987E+02 -0.10830271969E+01  0.30098401004E+02  0.00000000000E+00 0. -1.
</event>
<event>
 7    1  0.2612213E-009  0.1260905E+03  0.7561462E-02  0.1233375E+00
          1   -1    0    0  501    0  0.00000000000E+00  0.00000000000E+00  0.20518587821E+03  0.20518587821E+03  0.00000000000E+00 0. -1.
         -1   -1    0    0    0  501 -0.00000000000E+00 -0.00000000000E+00 -0.85233413163E+02  0.85233413163E+02  0.00000000000E+00 0.  1.
         25    2    1    2    0    0  0.45690874073E+02 -0.59979595973E+02  0.58052566299E+02  0.15716930033E+03  0.12508749180E+03 0.  0.
          5    1    3    3  502    0  0.76064920381E+02 -0.79231536829E+01  0.49772587413E+01  0.76752159458E+02  0.41800000000E+01 0.  1.
         -5    1    3    3    0  502 -0.30374046307E+02 -0.52056442290E+02  0.53075307558E+02  0.80417140867E+02  0.41800000000E+01 0.  1.
        -11    1    1    2    0    0 -0.24778153222E+02  0.81490833342E+02  0.32267588605E+02  0.91081886620E+02  0.00000000000E+00 0.  1.
         11    1    1    2    0    0 -0.20912720851E+02 -0.21511237369E+02  0.29632310140E+02  0.42168104425E+02  0.00000000000E+00 0. -1.
</event>
<event>
 7    1  0.2612213E-009  0.1663397E+03  0.7561462E-02  0.1181720E+00
          2   -1    0    0  501    0  0.00000000000E+00  0.00000000000E+00  0.10021033170E+04  0.10021033170E+04  0.00000000000E+00 0. -1.
         -2   -1    0    0    0  501 -0.00000000000E+00 -0.00000000000E+00 -0.39744344297E+02  0.39744344297E+02  0.00000000000E+00 0.  1.
         25    2    1    2    0    0  0.14323959565E+03 -0.11708766201E+02  0.72793487227E+03  0.75245618319E+03  0.12508578010E+03 0.  0.
          5    1    3    3  502    0  0.14960802982E+02 -0.50096726618E+02  0.14132669115E+03  0.15074552622E+03  0.41800000000E+01 0. -1.
         -5    1    3    3    0  502  0.12827879267E+03  0.38387960418E+02  0.58660818113E+03  0.60171065698E+03  0.41800000000E+01 0. -1.
        -11    1    1    2    0    0 -0.81502890590E+02  0.20141652240E+02  0.57347200459E+02  0.10167157287E+03  0.00000000000E+00 0.  1.
         11    1    1    2    0    0 -0.61736705064E+02 -0.84328860392E+01  0.17707690002E+03  0.18771990528E+03  0.00000000000E+00 0. -1.
</event>
<event>
 7    1  0.2612213E-009  0.1129663E+03  0.7561462E-02  0.1255173E+00
          1   -1    0    0  501    0  0.00000000000E+00  0.00000000000E+00  0.72254084311E+03  0.72254084311E+03  0.00000000000E+00 0. -1.
         -1   -1    0    0    0  501 -0.00000000000E+00 -0.00000000000E+00 -0.20961610645E+02  0.20961610645E+02  0.00000000000E+00 0.  1.
         25    2    1    2    0    0  0.10772251321E+02 -0.47435377409E+02  0.30335050253E+03  0.33171537482E+03  0.12508959220E+03 0.  0.
          5    1    3    3  502    0 -0.48355460006E+02 -0.61721458212E+01  0.57616063228E+02  0.75587228010E+02  0.41800000000E+01 0.  1.
         -5    1    3    3    0  502  0.59127711327E+02 -0.41263231588E+02  0.24573443930E+03  0.25612814681E+03  0.41800000000E+01 0.  1.
        -11    1    1    2    0    0 -0.50827814867E+02  0.38446886393E+02  0.23883107868E+03  0.24718801342E+03  0.00000000000E+00 0.  1.
         11    1    1    2    0    0  0.40055563546E+02  0.89884910160E+01  0.15939765126E+03  0.16459906551E+03  0.00000000000E+00 0. -1.
</event>
<event>
 7    1  0.2612213E-009  0.9486776E+02  0.7561462E-02  0.1291474E+00
          1   -1    0    0  501    0  0.00000000000E+00  0.00000000000E+00  0.84400411405E+03  0.84400411405E+03  0.00000000000E+00 0. -1.
         -1   -1    0    0    0  501 -0.00000000000E+00 -0.00000000000E+00 -0.27205319568E+02  0.27205319568E+02  0.00000000000E+00 0.  1.
         25    2    1    2    0    0 -0.62579139540E+02  0.29776925278E+02  0.67181626891E+03  0.68686818574E+03  0.12509193192E+03 0.  0.
          5    1    3    3  502    0 -0.64689912267E+02  0.25704134721E+02  0.67586834856E+03  0.67945638880E+03  0.41800000000E+01 0. -1.
         -5    1    3    3    0  502  0.21107727270E+01  0.40727905564E+01 -0.40520796547E+01  0.74117969447E+01  0.41800000000E+01 0. -1.
        -11    1    1    2    0    0  0.12010641370E+02 -0.55691932333E+02  0.69716446094E+02  0.90034602731E+02  0.00000000000E+00 0.  1.
         11    1    1    2    0    0  0.50568498170E+02  0.25915007055E+02  0.75266079477E+02  0.94306645141E+02  0.00000000000E+00 0. -1.
</event>
<event>
 7    1  0.2612213E-009  0.1475771E+03  0.7561462E-02  0.1203482E+00
          2   -1    0    0  501    0  0.00000000000E+00  0.00000000000E+00  0.99031258316E+03  0.99031258316E+03  0.00000000000E+00 0. -1.
         -2   -1    0    0    0  501 -0.00000000000E+00 -0.00000000000E+00 -0.32956144570E+02  0.32956144570E+02  0.00000000000E+00 0.  1.
         25    2    1    2    0    0 -0.13517908166E+03  0.39480974207E+02  0.59928318068E+03  0.62818642362E+03  0.12508285544E+03 0.  0.
          5    1    3    3  502    0 -0.70864860635E+02  0.20667116707E+01  0.95987485269E+02  0.11940338981E+03  0.41800000000E+01 0. -1.
         -5    1    3    3    0  502 -0.64314221026E+02  0.37414262536E+02  0.50329569541E+03  0.50878303381E+03  0.41800000000E+01 0. -1.
        -11    1    1    2    0    0  0.48611517242E+02  0.10388403683E+02  0.21440740539E+03  0.22009437528E+03  0.00000000000E+00 0.  1.
         11    1    1    2    0    0  0.86567564419E+02 -0.49869377890E+02  0.14366585251E+03  0.17498792884E+03  0.00000000000E+00 0. -1.
</event>
<event>
 7    1  0.2612213E-009  0.1012692E+03  0.7561462E-02  0.1277649E+00
          2   -1    0    0  501    0  0.00000000000E+00  0.00000000000E+00  0.52678698937E+02  0.52678698937E+02  0.00000000000E+00 0. -1.
         -2   -1    0    0    0  501 -0.00000000000E+00 -0.00000000000E+00 -0.24911268328E+03  0.24911268328E+03  0.00000000000E+00 0.  1.
         25    2    1    2    0    0 -0.27002025432E+02  0.21534168478E+02 -0.11993252212E+03  0.17670447857E+03  0.12509129904E+03 0.  0.
          5    1    3    3  502    0 -0.53815216993E+02  0.60241708004E+02 -0.88717300850E+02  0.12005570721E+03  0.41800000000E+01 0.  1.
         -5    1    3    3    0  502  0.26813191560E+02 -0.38707539526E+02 -0.31215221267E+02  0.56648771360E+02  0.41800000000E+01 0.  1.
        -11    1    1    2    0    0 -0.71911816198E+01 -0.36393448534E+02 -0.79454117676E+02  0.87687815601E+02  0.00000000000E+00 0.  1.
         11    1    1    2    0    0  0.34193207052E+02  0.14859280055E+02  0.29526554540E+01  0.37399088044E+02  0.00000000000E+00 0. -1.
</event>
<event>
 7    1  0.2612213E-009  0.2223040E+03  0.7561462E-02  0.1132177E+00
         -2   -1    0    0    0  501 -0.00000000000E+00  0.00000000000E+00  0.74532874817E+02  0.74532874817E+02  0.00000000000E+00 0.  1.
          2   -1    0    0  501    0  0.00000000000E+00 -0.00000000000E+00 -0.81702558270E+03  0.81702558270E+03  0.00000000000E+00 0. -1.
         25    2    1    2    0    0 -0.13213194870E+03 -0.15480883727E+03 -0.53762945172E+03  0.58831742323E+03  0.12508930872E+03 0.  0.
          5    1    3    3  502    0 -0.13156892022E+02  0.21761550731E+02 -0.65274108140E+02  0.70177279025E+02  0.41800000000E+01 0. -1.
         -5    1    3    3    0  502 -0.11897505668E+03 -0.17657038800E+03 -0.47235534358E+03  0.51814014420E+03  0.41800000000E+01 0. -1.
        -11    1    1    2    0    0  0.33622796898E+02  0.62052491941E+02 -0.18539068278E+02  0.72970550771E+02  0.00000000000E+00 0.  1.
         11    1    1    2    0    0  0.98509151803E+02  0.92756345324E+02 -0.18632418788E+03  0.23027048351E+03  0.00000000000E+00 0. -1.
</event>
<event>
 7    1  0.2612213E-009  0.1164595E+03  0.7561462E-02  0.1249055E+00
          2   -1    0    0  501    0  0.00000000000E+00  0.00000000000E+00  0.52033608147E+03  0.52033608147E+03  0.00000000000E+00 0. -1.
         -2   -1    0    0    0  501 -0.00000000000E+00 -0.00000000000E+00 -0.10260342181E+03  0.10260342181E+03  0.00000000000E+00 0.  1.
         25    2    1    2    0    0 -0.70219459817E+01 -0.30476251417E+02 -0.51015185120E+02  0.13866770242E+03  0.12509225778E+03 0.  0.
          5    1    3    3  502    0 -0.63673256058E+02 -0.26217914240E+02 -0.42613777546E+02  0.81086799178E+02  0.41800000000E+01 0.  1.
         -5    1    3    3    0  502  0.56651310076E+02 -0.42583371768E+01 -0.84014075740E+01  0.57580903241E+02  0.41800000000E+01 0.  1.
        -11    1    1    2    0    0  0.18734312465E+01 -0.38126295379E+02  0.70929918631E+02  0.80549224086E+02  0.00000000000E+00 0.  1.
         11    1    1    2    0    0  0.51485147353E+01  0.68602546796E+02  0.39781792615E+03  0.40372257677E+03  0.00000000000E+00 0. -1.
</event>
<event>
 7    1  0.2612213E-009  0.9111699E+02  0.7561462E-02  0.1300169E+00
         -1   -1    0    0    0  501 -0.00000000000E+00  0.00000000000E+00  0.17073527146E+02  0.17073527146E+02  0.00000000000E+00 0.  1.
          1   -1    0    0  501    0  0.00000000000E+00 -0.00000000000E+00 -0.72880614262E+03  0.72880614262E+03  0.00000000000E+00 0. -1.
         25    2    1    2    0    0  0.30108723920E+01  0.28741707579E+02 -0.41208044858E+03  0.43161690971E+03  0.12509080515E+03 0.  0.
          5    1    3    3  502    0 -0.32538568809E+02 -0.13038297799E+02 -0.33533905089E+03  0.33719209232E+03  0.41800000000E+01 0. -1.
         -5    1    3    3    0  502  0.35549441201E+02  0.41780005379E+02 -0.76741397690E+02  0.94424817387E+02  0.41800000000E+01 0. -1.
        -11    1    1    2    0    0  0.33697361404E+02  0.13189471578E+02 -0.82761018406E+02  0.90326410832E+02  0.00000000000E+00 0. -1.
         11    1    1    2    0    0 -0.36708233796E+02 -0.41931179158E+02 -0.21689114848E+03  0.22393634922E+03  0.00000000000E+00 0.  1.
</event>
<event>
 7    1  0.2612213E-009  0.1355596E+03  0.7561462E-02  0.1219432E+00
         -1   -1    0    0    0  501 -0.00000000000E+00  0.00000000000E+00  0.72108299710E+02  0.72108299710E+02  0.00000000000E+00 0.  1.
          1   -1    0    0  501    0  0.00000000000E+00 -0.00000000000E+00 -0.32739137528E+03  0.32739137528E+03  0.00000000000E+00 0. -1.
         25    2    1    2    0    0  0.69583480314E+02 -0.71709615407E+02 -0.85579421257E+02  0.18153768556E+03  0.12509182333E+03 0.  0.
          5    1    3    3  502    0 -0.29657961411E+02 -0.23075387906E+02 -0.55087772505E+02  0.66814693606E+02  0.41800000000E+01 0.  1.
         -5    1    3    3    0  502  0.99241441724E+02 -0.48634227501E+02 -0.30491648751E+02  0.11472299196E+03  0.41800000000E+01 0.  1.
        -11    1    1    2    0    0 -0.46306711634E+02  0.84350625727E+02 -0.16507396554E+03  0.19107263986E+03  0.00000000000E+00 0. -1.
         11    1    1    2    0    0 -0.23276768679E+02 -0.12641010320E+02 -0.46296887719E+01  0.26889349568E+02  0.00000000000E+00 0.  1.
</event>
<event>
 7    1  0.2612213E-009  0.1948039E+03  0.7561462E-02  0.1154199E+00
          3   -1    0    0  501    0  0.00000000000E+00  0.00000000000E+00  0.85571812307E+03  0.85571812307E+03  0.00000000000E+00 0. -1.
         -3   -1    0    0    0  501 -0.00000000000E+00 -0.00000000000E+00 -0.46714433077E+02  0.46714433077E+02  0.00000000000E+00 0.  1.
         25    2    1    2    0    0  0.12055863799E+03  0.11206254971E+03  0.49798264069E+03  0.53919201309E+03  0.12509562864E+03 0.  0.
          5    1    3    3  502    0  0.44537710574E+02 -0.23960169375E+02  0.13010530754E+03  0.13965156938E+03  0.41800000000E+01 0.  1.
         -5    1    3    3    0  502  0.76020927413E+02  0.13602271908E+03  0.36787733315E+03  0.39954044370E+03  0.41800000000E+01 0.  1.
        -11    1    1    2    0    0 -0.12467994614E+03 -0.74602848468E+02  0.27543513648E+03  0.31140839484E+03  0.00000000000E+00 0.  1.
         11    1    1    2    0    0  0.41213081511E+01 -0.37459701241E+02  0.35585912823E+02  0.51832148223E+02  0.00000000000E+00 0. -1.
</event>
<event>
 7    1  0.2612213E-009  0.1240496E+03  0.7561462E-02  0.1236562E+00
         -2   -1    0    0    0  501 -0.00000000000E+00  0.00000000000E+00  0.62134333872E+02  0.62134333872E+02  0.00000000000E+00 0.  1.
          2   -1    0    0  501    0  0.00000000000E+00 -0.00000000000E+00 -0.26438025314E+03  0.26438025314E+03  0.00000000000E+00 0. -1.
         25    2    1    2    0    0 -0.44950724711E+02  0.52752366962E+02 -0.10700680353E+03  0.17861028462E+03  0.12509115835E+03 0.  0.
          5    1    3    3  502    0 -0.84113661115E+02  0.50407316455E+02 -0.52461750970E+02  0.11129111938E+03  0.41800000000E+01 0. -1.
         -5    1    3    3    0  502  0.39162936404E+02  0.23450505074E+01 -0.54545052560E+02  0.67319165239E+02  0.41800000000E+01 0. -1.
        -11    1    1    2    0    0  0.59752057335E+02 -0.43855071110E+01 -0.67358476022E+02  0.90148240805E+02  0.00000000000E+00 0. -1.
         11    1    1    2    0    0 -0.14801332624E+02 -0.48366859851E+02 -0.27880639720E+02  0.57756061591E+02  0.00000000000E+00 0.  1.
</event>
<event>
 7    1  0.2612213E-009  0.1199589E+03  0.7561462E-02  0.1243165E+00
          1   -1    0    0  501    0  0.00000000000E+00  0.00000000000E+00  0.72760853287E+02  0.72760853287E+02  0.00000000000E+00 0. -1.
         -1   -1    0    0    0  501 -0.00000000000E+00 -0.00000000000E+00 -0.24050269964E+03  0.24050269964E+03  0.00000000000E+00 0.  1.
         25    2    1    2    0    0 -0.71185537141E+01 -0.74395250132E+02 -0.11200410658E+03  0.18378779372E+03  0.12509079174E+03 0.  0.
          5    1    3    3  502    0 -0.42960523843E+02  0.16057098045E+02 -0.21435665740E+02  0.50797609907E+02  0.41800000000E+01 0.  1.
         -5    1    3    3    0  502  0.35841970129E+02 -0.90452348176E+02 -0.90568440841E+02  0.13299018381E+03  0.41800000000E+01 0.  1.
        -11    1    1    2    0    0  0.34151379726E+02  0.45779185913E+02  0.47443911923E+01  0.57311079625E+02  0.00000000000E+00 0. -1.
         11    1    1    2    0    0 -0.27032826012E+02  0.28616064219E+02 -0.60482130963E+02  0.72164679584E+02  0.00000000000E+00 0.  1.
</event>
<event>
 7    1  0.2612213E-009  0.9665594E+02  0.7561462E-02  0.1287489E+00
         -1   -1    0    0    0  501 -0.00000000000E+00  0.00000000000E+00  0.37614615680E+02  0.37614615680E+02  0.00000000000E+00 0.  1.
          1   -1    0    0  501    0  0.00000000000E+00 -0.00000000000E+00 -0.51279491534E+03  0.51279491534E+03  0.00000000000E+00 0. -1.
         25    2    1    2    0    0  0.25371485966E+02 -0.69082215613E+02 -0.35038383911E+03  0.37924796135E+03  0.12507644330E+03 0.  0.
          5    1    3    3  502    0  0.13302821966E+02 -0.61457119120E+02 -0.55455641228E+02  0.83944881362E+02  0.41800000000E+01 0. -1.
         -5    1    3    3    0  502  0.12068664000E+02 -0.76250964930E+01 -0.29492819788E+03  0.29530307999E+03  0.41800000000E+01 0. -1.
        -11    1    1    2    0    0  0.17918459659E+02  0.69859370579E+02 -0.63348014181E+02  0.95991529600E+02  0.00000000000E+00 0.  1.
         11    1    1    2    0    0 -0.43289945625E+02 -0.77715496567E+00 -0.61448446365E+02  0.75170040061E+02  0.00000000000E+00 0. -1.
</event>
<event>
 7    1  0.2612213E-009  0.9977848E+02  0.7561462E-02  0.1280762E+00
         -1   -1    0    0    0  501 -0.00000000000E+00  0.00000000000E+00  0.14961700269E+02  0.14961700269E+02  0.00000000000E+00 0.  1.
          1   -1    0    0  501    0  0.00000000000E+00 -0.00000000000E+00 -0.86347087834E+03  0.86347087834E+03  0.00000000000E+00 0. -1.
         25    2    1    2    0    0 -0.13872355487E+02 -0.21938752628E+02 -0.57965826498E+03  0.59356956163E+03  0.12508944487E+03 0.  0.
          5    1    3    3  502    0  0.42167709396E+02  0.60009605470E+01 -0.87281701972E+02  0.97209542444E+02  0.41800000000E+01 0. -1.
         -5    1    3    3    0  502 -0.56040064882E+02 -0.27939713175E+02 -0.49237656301E+03  0.49636001918E+03  0.41800000000E+01 0. -1.
        -11    1    1    2    0    0  0.24899404108E+02 -0.31093819006E+02 -0.12216355552E+03  0.12849412517E+03  0.00000000000E+00 0. -1.
         11    1    1    2    0    0 -0.11027048622E+02  0.53032571634E+02 -0.14668735757E+03  0.15636889181E+03  0.00000000000E+00 0.  1.
</event>
<event>
 7    1  0.2612213E-009  0.1287104E+03  0.7561462E-02  0.1229382E+00
          3   -1    0    0  501    0  0.00000000000E+00  0.00000000000E+00  0.76859485131E+03  0.76859485131E+03  0.00000000000E+00 0. -1.
         -3   -1    0    0    0  501 -0.00000000000E+00 -0.00000000000E+00 -0.24506631436E+02  0.24506631436E+02  0.00000000000E+00 0.  1.
         25    2    1    2    0    0 -0.25280904143E+02 -0.67233180442E+02  0.31086741477E+03  0.34270285264E+03  0.12508905218E+03 0.  0.
          5    1    3    3  502    0 -0.75690436449E+02 -0.49961552818E+02  0.19414479461E+03  0.21432422309E+03  0.41800000000E+01 0. -1.
         -5    1    3    3    0  502  0.50409532306E+02 -0.17271627624E+02  0.11672262015E+03  0.12837862954E+03  0.41800000000E+01 0. -1.
        -11    1    1    2    0    0 -0.19244310348E+02  0.65882785695E+02  0.16827755591E+03  0.18173667972E+03  0.00000000000E+00 0.  1.
         11    1    1    2    0    0  0.44525214491E+02  0.13503947478E+01  0.26494324920E+03  0.26866195039E+03  0.00000000000E+00 0. -1.
</event>
<event>
 7    1  0.2612213E-009  0.2143403E+03  0.7561462E-02  0.1138174E+00
          2   -1    0    0  501    0  0.00000000000E+00  0.00000000000E+00  0.25739708567E+03  0.25739708567E+03  0.00000000000E+00 0. -1.
         -2   -1    0    0    0  501 -0.00000000000E+00 -0.00000000000E+00 -0.21285653141E+03  0.21285653141E+03  0.00000000000E+00 0.  1.
         25    2    1    2    0    0  0.10654464405E+03 -0.17732809144E+03  0.36940211697E+02  0.24456078420E+03  0.12509350398E+03 0.  0.
          5    1    3    3  502    0  0.84451816415E+01  0.57842728508E+00  0.40237740135E+02  0.41330422237E+02  0.41800000000E+01 0. -1.
         -5    1    3    3    0  502  0.98099462412E+02 -0.17790651872E+03 -0.32975284382E+01  0.20323036196E+03  0.41800000000E+01 0. -1.
        -11    1    1    2    0    0 -0.10360249715E+03  0.11959861083E+03 -0.23637791372E+02  0.15998765674E+03  0.00000000000E+00 0.  1.
         11    1    1    2    0    0 -0.29421468999E+01  0.57729480604E+02  0.31238133932E+02  0.65705176134E+02  0.00000000000E+00 0. -1.
</event>
<event>
 7    1  0.2612213E-009  0.9779799E+02  0.7561462E-02  0.1284996E+00
          2   -1    0    0  501    0  0.00000000000E+00  0.00000000000E+00  0.35085572302E+03  0.35085572302E+03  0.00000000000E+00 0. -1.
         -2   -1    0    0    0  501 -0.00000000000E+00 -0.00000000000E+00 -0.54302532312E+02  0.54302532312E+02  0.00000000000E+00 0.  1.
         25    2    1    2    0    0 -0.53129938032E+02 -0.52235500160E+02  0.10182182700E+03  0.17766379205E+03  0.12508157642E+03 0.  0.
          5    1    3    3  502    0 -0.13683793084E+02 -0.58181514376E+02 -0.82790726019E+01  0.60484297561E+02  0.41800000000E+01 0.  1.
         -5    1    3    3    0  502 -0.39446144948E+02  0.59460142166E+01  0.11010089960E+03  0.11717949449E+03  0.41800000000E+01 0.  1.
        -11    1    1    2    0    0  0.45087350242E+00 -0.12275424625E+02 -0.32511098301E+01  0.12706653838E+02  0.00000000000E+00 0.  1.
         11    1    1    2    0    0  0.52679064530E+02  0.64510924785E+02  0.19798247354E+03  0.21478780944E+03  0.00000000000E+00 0. -1.
</event>
<event>
 7    1  0.2612213E-009  0.5098298E+03  0.7561462E-02  0.1011245E+00
          1   -1    0    0  501    0  0.00000000000E+00  0.00000000000E+00  0.29776090702E+03  0.29776090702E+03  0.00000000000E+00 0. -1.
         -1   -1    0    0    0  501 -0.00000000000E+00 -0.00000000000E+00 -0.89117667697E+03  0.89117667697E+03  0.00000000000E+00 0.  1.
         25    2    1    2    0    0  0.49826142225E+03 -0.60738472003E+02 -0.33847624242E+03  0.61819564449E+03  0.12508429677E+03 0.  0.
          5    1    3    3  502    0  0.21291724050E+03 -0.87478762277E+02 -0.16361675204E+03  0.28244326705E+03  0.41800000000E+01 0.  1.
         -5    1    3    3    0  502  0.28534418175E+03  0.26740290273E+02 -0.17485949038E+03  0.33575237744E+03  0.41800000000E+01 0.  1.
        -11    1    1    2    0    0 -0.36298225113E+03  0.31027942653E+02 -0.22762222465E+03  0.42957039588E+03  0.00000000000E+00 0. -1.
         11    1    1    2    0    0 -0.13527917112E+03  0.29710529350E+02 -0.27317302882E+02  0.14117154363E+03  0.00000000000E+00 0.  1.
</event>
<event>
 7    1  0.2612213E-009  0.1618259E+03  0.7561462E-02  0.1186651E+00
          2   -1    0    0  501    0  0.00000000000E+00  0.00000000000E+00  0.42507521422E+02  0.42507521422E+02  0.00000000000E+00 0. -1.
         -2   -1    0    0    0  501 -0.00000000000E+00 -0.00000000000E+00 -0.67435193977E+03  0.67435193977E+03  0.00000000000E+00 0.  1.
         25    2    1    2    0    0 -0.11538274340E+03  0.47384706221E+02 -0.25720743694E+03  0.31202708327E+03  0.12508695864E+03 0.  0.
          5    1    3    3  502    0 -0.26666272062E+02 -0.40579991483E+02 -0.48559600188E+02  0.68799221979E+02  0.41800000000E+01 0.  1.
         -5    1    3    3    0  502 -0.88716471334E+02  0.87964697705E+02 -0.20864783675E+03  0.24322786129E+03  0.41800000000E+01 0.  1.
        -11    1    1    2    0    0  0.25510488839E+02  0.24086357069E+02 -0.55429219710E+02  0.65599817343E+02  0.00000000000E+00 0.  1.
         11    1    1    2    0    0  0.89872254557E+02 -0.71471063290E+02 -0.31920776170E+03  0.33923256057E+03  0.00000000000E+00 0. -1.
</event>
<event>
 7    1  0.2612213E-009  0.7260548E+02  0.7561462E-02  0.1351451E+00
          4   -1    0    0  501    0  0.00000000000E+00  0.00000000000E+00  0.20585263968E+03  0.20585263968E+03  0.00000000000E+00 0. -1.
         -4   -1    0    0    0  501 -0.00000000000E+00 -0.00000000000E+00 -0.61242547559E+02  0.61242547559E+02  0.00000000000E+00 0.  1.
         25    2    1    2    0    0  0.62831567806E+01  0.13080414092E+02  0.88602037208E+02  0.15397533536E+03  0.12508999804E+03 0.  0.
          5    1    3    3  502    0 -0.26365291621E+02 -0.29998321237E+02 -0.10062118670E+02  0.41397421555E+02  0.41800000000E+01 0.  1.
         -5    1    3    3    0  502  0.32648448402E+02  0.43078735330E+02  0.98664155878E+02  0.11257791380E+03  0.41800000000E+01 0.  1.
        -11    1    1    2    0    0 -0.44327584688E+01  0.18592679399E+02  0.74148774888E+02  0.76572696781E+02  0.00000000000E+00 0. -1.
         11    1    1    2    0    0 -0.18503983118E+01 -0.31673093491E+02 -0.18140719971E+02  0.36547155105E+02  0.00000000000E+00 0.  1.
</event>
<event>
 7    1  0.4363641E-009  0.1430249E+03  0.7561462E-02  0.1209316E+00
          2   -1    0    0  501    0  0.00000000000E+00  0.00000000000E+00  0.13219502297E+04  0.13219502297E+04  0.00000000000E+00 0. -1.
         -2   -1    0    0    0  501 -0.00000000000E+00 -0.00000000000E+00 -0.23201450682E+02  0.23201450682E+02  0.00000000000E+00 0.  1.
         25    2    1    2    0    0  0.10023133120E+03 -0.63029167942E+02  0.95564816941E+03  0.97104592062E+03  0.12509100882E+03 0.  0.
          5    1    3    3  502    0  0.69103245457E+02  0.25093206507E+02  0.30825644510E+03  0.31692970181E+03  0.41800000000E+01 0.  1.
         -5    1    3    3    0  502  0.31128085747E+02 -0.88122374449E+02  0.64739172431E+03  0.65411621881E+03  0.41800000000E+01 0.  1.
        -11    1    1    2    0    0 -0.52556720252E+02  0.39179675834E+02  0.29535548454E+03  0.30254275415E+03  0.00000000000E+00 0. -1.
         11    1    1    2    0    0 -0.47674610952E+02  0.23849492108E+02  0.47745125045E+02  0.71563005588E+02  0.00000000000E+00 0.  1.
</event>
<event>
 7    1  0.2612213E-009  0.2634844E+03  0.7561462E-02  0.1105068E+00
          2   -1    0    0  501    0  0.00000000000E+00  0.00000000000E+00  0.73268583743E+03  0.73268583743E+03  0.00000000000E+00 0. -1.
         -2   -1    0    0    0  501 -0.00000000000E+00 -0.00000000000E+00 -0.11344348560E+03  0.11344348560E+03  0.00000000000E+00 0.  1.
         25    2    1    2    0    0  0.90959199102E+02  0.24450439966E+03  0.23330168798E+03  0.37166367600E+03  0.12509289783E+03 0.  0.
          5    1    3    3  502    0  0.55935378067E+02  0.15149814859E+03  0.21752200055E+03  0.27094971612E+03  0.41800000000E+01 0.  1.
         -5    1    3    3    0  502  0.35023821035E+02  0.93006251072E+02  0.15779687433E+02  0.10071395988E+03  0.41800000000E+01 0.  1.
        -11    1    1    2    0    0 -0.29673480421E+02 -0.27497035978E+02  0.21263269206E+02  0.45702615299E+02  0.00000000000E+00 0.  1.
         11    1    1    2    0    0 -0.61285718681E+02 -0.21700736368E+03  0.36467739465E+03  0.42876303172E+03  0.00000000000E+00 0. -1.
</event>
<event>
 7    1  0.2612213E-009  0.1488240E+03  0.7561462E-02  0.1201925E+00
         -2   -1    0    0    0  501 -0.00000000000E+00  0.00000000000E+00  0.19379362237E+02  0.19379362237E+02  0.00000000000E+00 0. -1.
          2   -1    0    0  501    0  0.00000000000E+00 -0.00000000000E+00 -0.14631744744E+04  0.14631744744E+04  0.00000000000E+00 0.  1.
         25    2    1    2    0    0 -0.79403342263E+02 -0.93186183269E+02 -0.93957235675E+03  0.95573206492E+03  0.12505603074E+03 0.  0.
          5    1    3    3  502    0 -0.41569615229E+02 -0.12065438202E+03 -0.65797916707E+03  0.67025336217E+03  0.41800000000E+01 0. -1.
         -5    1    3    3    0  502 -0.37833727034E+02  0.27468198747E+02 -0.28159318969E+03  0.28547870275E+03  0.41800000000E+01 0. -1.
        -11    1    1    2    0    0  0.26788301578E+02  0.23003116185E+02 -0.35896347988E+02  0.50351804879E+02  0.00000000000E+00 0. -1.
         11    1    1    2    0    0  0.52615040685E+02  0.70183067084E+02 -0.46832640746E+03  0.47646996687E+03  0.00000000000E+00 0.  1.
</event>
<event>
 7    1  0.2612213E-009  0.1342425E+03  0.7561462E-02  0.1221293E+00
          2   -1    0    0  501    0  0.00000000000E+00  0.00000000000E+00  0.16066039952E+04  0.16066039952E+04  0.00000000000E+00 0. -1.
         -2   -1    0    0    0  501 -0.00000000000E+00 -0.00000000000E+00 -0.24124875002E+02  0.24124875002E+02  0.00000000000E+00 0.  1.
         25    2    1    2    0    0  0.99487680848E+02  0.21255162824E+02  0.13603401510E+04  0.13698621258E+04  0.12508931487E+03 0.  0.
          5    1    3    3  502    0  0.11694523510E+03  0.48934334601E+02  0.11460014023E+04  0.11529993250E+04  0.41800000000E+01 0. -1.
         -5    1    3    3    0  502 -0.17457554256E+02 -0.27679171778E+02  0.21433874873E+03  0.21686280077E+03  0.41800000000E+01 0. -1.
        -11    1    1    2    0    0 -0.54940521808E+01 -0.13222984765E+02 -0.47994604320E+01  0.15101879217E+02  0.00000000000E+00 0.  1.
         11    1    1    2    0    0 -0.93993628668E+02 -0.80321780588E+01  0.22693842959E+03  0.24576486515E+03  0.00000000000E+00 0. -1.
</event>
<event>
 7    1  0.2612213E-009  0.8680816E+02  0.7561462E-02  0.1310771E+00
         -1   -1    0    0    0  501 -0.00000000000E+00  0.00000000000E+00  0.49262134758E+02  0.49262134758E+02  0.00000000000E+00 0.  1.
          1   -1    0    0  501    0  0.00000000000E+00 -0.00000000000E+00 -0.29543573902E+03  0.29543573902E+03  0.00000000000E+00 0. -1.
         25    2    1    2    0    0  0.85614196885E+01 -0.55044627789E+01 -0.21106399056E+03  0.24555890466E+03  0.12509024954E+03 0.  0.
          5    1    3    3  502    0 -0.44722243183E+02  0.10756399192E+02 -0.17016522825E+03  0.17632202490E+03  0.41800000000E+01 0.  1.
         -5    1    3    3    0  502  0.53283662872E+02 -0.16260861971E+02 -0.40898762306E+02  0.69236879762E+02  0.41800000000E+01 0.  1.
        -11    1    1    2    0    0 -0.32546395306E+02  0.24687553085E+02 -0.50362778033E+02  0.64847147478E+02  0.00000000000E+00 0. -1.
         11    1    1    2    0    0  0.23984975618E+02 -0.19183090306E+02  0.15253164331E+02  0.34291821637E+02  0.00000000000E+00 0.  1.
</event>
<event>
 7    1  0.2612213E-009  0.1215482E+03  0.7561462E-02  0.1240565E+00
          1   -1    0    0  501    0  0.00000000000E+00  0.00000000000E+00  0.41295949344E+03  0.41295949344E+03  0.00000000000E+00 0. -1.
         -1   -1    0    0    0  501 -0.00000000000E+00 -0.00000000000E+00 -0.37562750681E+02  0.37562750681E+02  0.00000000000E+00 0.  1.
         25    2    1    2    0    0 -0.23341868790E+02  0.51834296358E+02  0.17071407041E+03  0.21914114912E+03  0.12509161557E+03 0.  0.
          5    1    3    3  502    0 -0.65451339215E+02  0.64415778585E+02  0.10050508403E+03  0.13620578054E+03  0.41800000000E+01 0. -1.
         -5    1    3    3    0  502  0.42109470425E+02 -0.12581482227E+02  0.70208986377E+02  0.82935368587E+02  0.41800000000E+01 0. -1.
        -11    1    1    2    0    0  0.19246506320E+02  0.24175565009E+02  0.73171620736E+02  0.79429037701E+02  0.00000000000E+00 0. -1.
         11    1    1    2    0    0  0.40953624696E+01 -0.76009861368E+02  0.13151105162E+03  0.15195205730E+03  0.00000000000E+00 0.  1.
</event>
<event>
 7    1  0.2612213E-009  0.1618560E+03  0.7561462E-02  0.1186617E+00
         -1   -1    0    0    0  501 -0.00000000000E+00  0.00000000000E+00  0.18056970506E+03  0.18056970506E+03  0.00000000000E+00 0.  1.
          1   -1    0    0  501    0  0.00000000000E+00 -0.00000000000E+00 -0.30872433528E+03  0.30872433528E+03  0.00000000000E+00 0. -1.
         25    2    1    2    0    0 -0.82140600126E+02 -0.97566192097E+02 -0.23804533160E+03  0.29762207622E+03  0.12508829012E+03 0.  0.
          5    1    3    3  502    0 -0.48490974354E+02  0.22679166540E+02 -0.69929033733E+02  0.88166100898E+02  0.41800000000E+01 0. -1.
         -5    1    3    3    0  502 -0.33649625772E+02 -0.12024535864E+03 -0.16811629787E+03  0.20945597532E+03  0.41800000000E+01 0. -1.
        -11    1    1    2    0    0  0.59216639114E+02  0.10536696213E+03  0.57273054975E+02  0.13374980330E+03  0.00000000000E+00 0. -1.
         11    1    1    2    0    0  0.22923961012E+02 -0.78007700314E+01  0.52617646405E+02  0.57922160826E+02  0.00000000000E+00 0.  1.
</event>
<event>
 7    1  0.2688810E-009  0.5861035E+02  0.7561462E-02  0.1403758E+00
          1   -1    0    0  501    0  0.00000000000E+00  0.00000000000E+00  0.24829547344E+03  0.24829547344E+03  0.00000000000E+00 0. -1.
         -1   -1    0    0    0  501 -0.00000000000E+00 -0.00000000000E+00 -0.65717940583E+02  0.65717940583E+02  0.00000000000E+00 0.  1.
         25    2    1    2    0    0  0.13936684997E+02 -0.21485338901E+02  0.17966183852E+03  0.22040126343E+03  0.12506993933E+03 0.  0.
          5    1    3    3  502    0  0.24093835921E+02  0.20900310610E+02  0.17317534848E+03  0.17613775755E+03  0.41800000000E+01 0.  1.
         -5    1    3    3    0  502 -0.10157150925E+02 -0.42385649511E+02  0.64864900355E+01  0.44263505875E+02  0.41800000000E+01 0.  1.
        -11    1    1    2    0    0 -0.14955579330E+02 -0.42212087650E+01 -0.40370326713E+02  0.43257961526E+02  0.00000000000E+00 0.  1.
         11    1    1    2    0    0  0.10188943330E+01  0.25706547666E+02  0.43286021051E+02  0.50354189071E+02  0.00000000000E+00 0. -1.
</event>
<event>
 7    1  0.2612213E-009  0.1493540E+03  0.7561462E-02  0.1201269E+00
          2   -1    0    0  501    0  0.00000000000E+00  0.00000000000E+00  0.20479097256E+03  0.20479097256E+03  0.00000000000E+00 0. -1.
         -2   -1    0    0    0  501 -0.00000000000E+00 -0.00000000000E+00 -0.17936284808E+03  0.17936284808E+03  0.00000000000E+00 0.  1.
         25    2    1    2    0    0 -0.99244180884E+02  0.21077822642E+02  0.13121674080E+03  0.20774705676E+03  0.12508926605E+03 0.  0.
          5    1    3    3  502    0 -0.21787382432E+02 -0.48833700195E+02  0.64242354790E+02  0.83689741647E+02  0.41800000000E+01 0.  1.
         -5    1    3    3    0  502 -0.77456798452E+02  0.69911522837E+02  0.66974386006E+02  0.12405731511E+03  0.41800000000E+01 0.  1.
        -11    1    1    2    0    0  0.89529464625E+02 -0.55192657841E+02 -0.72331678829E+02  0.12764648948E+03  0.00000000000E+00 0.  1.
         11    1    1    2    0    0  0.97147162599E+01  0.34114835199E+02 -0.33456937485E+02  0.48760274390E+02  0.00000000000E+00 0. -1.
</event>
<event>
 7    1  0.2612213E-009  0.1067822E+03  0.7561462E-02  0.1266647E+00
         -2   -1    0    0    0  501 -0.00000000000E+00  0.00000000000E+00  0.26256717198E+02  0.26256717198E+02  0.00000000000E+00 0.  1.
          2   -1    0    0  501    0  0.00000000000E+00 -0.00000000000E+00 -0.65226103610E+03  0.65226103610E+03  0.00000000000E+00 0. -1.
         25    2    1    2    0    0 -0.11171088701E+02 -0.73848271481E+02 -0.34883951872E+03  0.37804082369E+03  0.12508994417E+03 0.  0.
          5    1    3    3  502    0  0.34445643046E+02  0.60522726572E+01 -0.30325440520E+02  0.46478350572E+02  0.41800000000E+01 0. -1.
         -5    1    3    3    0  502 -0.45616731747E+02 -0.79900544138E+02 -0.31851407820E+03  0.33156247312E+03  0.41800000000E+01 0. -1.
        -11    1    1    2    0    0  0.22355438301E+02  0.71365995709E+02 -0.27902235905E+03  0.28887081510E+03  0.00000000000E+00 0. -1.
         11    1    1    2    0    0 -0.11184349600E+02  0.24822757720E+01  0.18575588712E+01  0.11606114507E+02  0.00000000000E+00 0.  1.
</event>
<event>
 7    1  0.2612213E-009  0.1115946E+03  0.7561462E-02  0.1257645E+00
         -2   -1    0    0    0  501 -0.00000000000E+00  0.00000000000E+00  0.18377461154E+03  0.18377461154E+03  0.00000000000E+00 0.  1.
          2   -1    0    0  501    0  0.00000000000E+00 -0.00000000000E+00 -0.84671368889E+02  0.84671368889E+02  0.00000000000E+00 0. -1.
         25    2    1    2    0    0 -0.30521728616E+02  0.17174114447E+02  0.66993860079E+01  0.13007452605E+03  0.12509186397E+03 0.  0.
          5    1    3    3  502    0 -0.74154900869E+02 -0.12730818622E+02 -0.57378305029E+01  0.75573925164E+02  0.41800000000E+01 0.  1.
         -5    1    3    3    0  502  0.43633172254E+02  0.29904933069E+02  0.12437216511E+02  0.54500600890E+02  0.41800000000E+01 0.  1.
        -11    1    1    2    0    0  0.34013358522E+02 -0.50706130931E+02  0.31368309272E+02  0.68643944369E+02  0.00000000000E+00 0. -1.
         11    1    1    2    0    0 -0.34916299064E+01  0.33532016483E+02  0.61035547370E+02  0.69727510006E+02  0.00000000000E+00 0.  1.
</event>
<event>
 7    1  0.2612213E-009  0.6530494E+02  0.7561462E-02  0.1376828E+00
         -2   -1    0    0    0  501 -0.00000000000E+00  0.00000000000E+00  0.21146594638E+02  0.21146594638E+02  0.00000000000E+00 0.  1.
          2   -1    0    0  501    0  0.00000000000E+00 -0.00000000000E+00 -0.71985282602E+03  0.71985282602E+03  0.00000000000E+00 0. -1.
         25    2    1    2    0    0  0.20521177665E+01  0.18128690611E+02 -0.55430432744E+03  0.56853661956E+03  0.12509092592E+03 0.  0.
          5    1    3    3  502    0  0.39637903464E+02 -0.75074918570E+01 -0.47714238390E+03  0.47886308350E+03  0.41800000000E+01 0.  1.
         -5    1    3    3    0  502 -0.37585785697E+02  0.25636182468E+02 -0.77161943541E+02  0.89673536058E+02  0.41800000000E+01 0.  1.
        -11    1    1    2    0    0  0.14727351851E+02 -0.22621349372E+02 -0.15136179979E+03  0.15374984479E+03  0.00000000000E+00 0. -1.
         11    1    1    2    0    0 -0.16779469618E+02  0.44926587602E+01  0.69598958484E+01  0.18712956303E+02  0.00000000000E+00 0.  1.
</event>
<event>
 7    1  0.2612213E-009  0.8426458E+02  0.7561462E-02  0.1317367E+00
         -1   -1    0    0    0  501 -0.00000000000E+00  0.00000000000E+00  0.76509447064E+02  0.76509447064E+02  0.00000000000E+00 0.  1.
          1   -1    0    0  501    0  0.00000000000E+00 -0.00000000000E+00 -0.17802196699E+03  0.17802196699E+03  0.00000000000E+00 0. -1.
         25    2    1    2    0    0 -0.78214143040E+01  0.84004652347E+01 -0.10174446294E+02  0.12602667968E+03  0.12508981691E+03 0.  0.
          5    1    3    3  502    0 -0.52986252398E+02  0.29429922305E+02  0.24153982248E+02  0.65380046868E+02  0.41800000000E+01 0. -1.
         -5    1    3    3    0  502  0.45164838094E+02 -0.21029457070E+02 -0.34328428542E+02  0.60646632807E+02  0.41800000000E+01 0. -1.
        -11    1    1    2    0    0  0.30313540377E+02 -0.15691896203E+02 -0.98135597265E+02  0.10390255910E+03  0.00000000000E+00 0. -1.
         11    1    1    2    0    0 -0.22492126073E+02  0.72914309683E+01  0.67975236352E+01  0.24602175279E+02  0.00000000000E+00 0.  1.
</event>
<event>
 7    1  0.2612213E-009  0.1556726E+03  0.7561462E-02  0.1193671E+00
          3   -1    0    0  501    0  0.00000000000E+00  0.00000000000E+00  0.23449492788E+03  0.23449492788E+03  0.00000000000E+00 0. -1.
         -3   -1    0    0    0  501 -0.00000000000E+00 -0.00000000000E+00 -0.11064187238E+03  0.11064187238E+03  0.00000000000E+00 0.  1.
         25    2    1    2    0    0  0.93984726719E+02  0.74266795178E+02  0.76793974827E+02  0.18945871412E+03  0.12509438062E+03 0.  0.
          5    1    3    3  502    0 -0.15586608894E+02  0.50057760072E+02 -0.14180526721E+01  0.52613733888E+02  0.41800000000E+01 0. -1.
         -5    1    3    3    0  502  0.10957133561E+03  0.24209035106E+02  0.78212027499E+02  0.13684498023E+03  0.41800000000E+01 0. -1.
        -11    1    1    2    0    0 -0.42227163299E+01 -0.54349942238E+02  0.29799910141E+02  0.62127145426E+02  0.00000000000E+00 0. -1.
         11    1    1    2    0    0 -0.89762010390E+02 -0.19916852941E+02  0.17259170536E+02  0.93550940711E+02  0.00000000000E+00 0.  1.
</event>
<event>
 7    1  0.2612213E-009  0.1222544E+03  0.7561462E-02  0.1239424E+00
          2   -1    0    0  501    0  0.00000000000E+00  0.00000000000E+00  0.23965547108E+03  0.23965547108E+03  0.00000000000E+00 0. -1.
         -2   -1    0    0    0  501 -0.00000000000E+00 -0.00000000000E+00 -0.99341804404E+02  0.99341804404E+02  0.00000000000E+00 0.  1.
         25    2    1    2    0    0 -0.66717531067E+02  0.82743050119E+02  0.42592922957E+02  0.16958449992E+03  0.12508838568E+03 0.  0.
          5    1    3    3  502    0  0.21031594301E+02  0.20118730970E+02  0.53604187998E+02  0.61138961928E+02  0.41800000000E+01 0.  1.
         -5    1    3    3    0  502 -0.87749125368E+02  0.62624319149E+02 -0.11011265041E+02  0.10844553799E+03  0.41800000000E+01 0.  1.
        -11    1    1    2    0    0  0.53137650271E+02 -0.73877602699E+02  0.24256927522E+02  0.94180192130E+02  0.00000000000E+00 0.  1.
         11    1    1    2    0    0  0.13579880796E+02 -0.88654474199E+01  0.73463816195E+02  0.75232583436E+02  0.00000000000E+00 0. -1.
</event>
<event>
 7    1  0.2612213E-009  0.1607077E+03  0.7561462E-02  0.1187900E+00
          2   -1    0    0  501    0  0.00000000000E+00  0.00000000000E+00  0.13641813608E+03  0.13641813608E+03  0.00000000000E+00 0. -1.
         -2   -1    0    0    0  501 -0.00000000000E+00 -0.00000000000E+00 -0.20829557459E+03  0.20829557459E+03  0.00000000000E+00 0.  1.
         25    2    1    2    0    0  0.35283765383E+02 -0.12001319908E+03 -0.67267647293E+02  0.18926420784E+03  0.12509153426E+03 0.  0.
          5    1    3    3  502    0  0.82359426436E+02 -0.81451347765E+02 -0.44391832694E+02  0.12411891228E+03  0.41800000000E+01 0.  1.
         -5    1    3    3    0  502 -0.47075661052E+02 -0.38561851316E+02 -0.22875814600E+02  0.65145295564E+02  0.41800000000E+01 0.  1.
        -11    1    1    2    0    0 -0.51025154350E+02  0.45542862841E+02  0.26328182383E+02  0.73286369264E+02  0.00000000000E+00 0. -1.
         11    1    1    2    0    0  0.15741388967E+02  0.74470336241E+02 -0.30937973603E+02  0.82163133564E+02  0.00000000000E+00 0.  1.
</event>
<event>
 7    1  0.2612213E-009  0.1042335E+03  0.7561462E-02  0.1271637E+00
         -1   -1    0    0    0  501 -0.00000000000E+00  0.00000000000E+00  0.95923100321E+02  0.95923100321E+02  0.00000000000E+00 0.  1.
          1   -1    0    0  501    0  0.00000000000E+00 -0.00000000000E+00 -0.19271398215E+03  0.19271398215E+03  0.00000000000E+00 0. -1.
         25    2    1    2    0    0 -0.10734104170E+02  0.68521632176E+02 -0.94875951367E+02  0.17163781352E+03  0.12509059842E+03 0.  0.
          5    1    3    3  502    0  0.49629123933E+02  0.17772787684E+02 -0.72162333497E+02  0.89463940781E+02  0.41800000000E+01 0.  1.
         -5    1    3    3    0  502 -0.60363228102E+02  0.50748844493E+02 -0.22713617869E+02  0.82173872740E+02  0.41800000000E+01 0.  1.
        -11    1    1    2    0    0  0.15993416746E+02 -0.12377046753E+02  0.41279172602E+02  0.45966844097E+02  0.00000000000E+00 0.  1.
         11    1    1    2    0    0 -0.52593125761E+01 -0.56144585423E+02 -0.43194103064E+02  0.71032424854E+02  0.00000000000E+00 0. -1.
</event>
<event>
 7    1  0.2612213E-009  0.1241517E+03  0.7561462E-02  0.1236401E+00
          3   -1    0    0  501    0  0.00000000000E+00  0.00000000000E+00  0.86667827890E+03  0.86667827890E+03  0.00000000000E+00 0. -1.
         -3   -1    0    0    0  501 -0.00000000000E+00 -0.00000000000E+00 -0.25898094534E+02  0.25898094534E+02  0.00000000000E+00 0.  1.
         25    2    1    2    0    0  0.54398744819E+02 -0.73957974841E+02  0.59392762005E+03  0.61386556997E+03  0.12510761231E+03 0.  0.
          5    1    3    3  502    0 -0.14133948772E+02 -0.41880493373E+02  0.60291281421E+02  0.74874930707E+02  0.41800000000E+01 0. -1.
         -5    1    3    3    0  502  0.68532693591E+02 -0.32077481468E+02  0.53363633863E+03  0.53899063927E+03  0.41800000000E+01 0. -1.
        -11    1    1    2    0    0 -0.72321182624E+00 -0.19946081718E+02  0.54403756747E+02  0.57949443133E+02  0.00000000000E+00 0.  1.
         11    1    1    2    0    0 -0.53675532992E+02  0.93904056559E+02  0.19244880757E+03  0.22076136033E+03  0.00000000000E+00 0. -1.
</event>
<event>
 7    1  0.2612213E-009  0.1372233E+03  0.7561462E-02  0.1217115E+00
          2   -1    0    0  501    0  0.00000000000E+00  0.00000000000E+00  0.31416095798E+03  0.31416095798E+03  0.00000000000E+00 0.  1.
         -2   -1    0    0    0  501 -0.00000000000E+00 -0.00000000000E+00 -0.14865721856E+03  0.14865721856E+03  0.00000000000E+00 0. -1.
         25    2    1    2    0    0 -0.49666256504E+02  0.11308410567E+03 -0.59251009144E+02  0.18550824349E+03  0.12509146385E+03 0.  0.
          5    1    3    3  502    0 -0.50675715055E+02  0.43551243041E+02 -0.87635207768E+02  0.11028209695E+03  0.41800000000E+01 0.  1.
         -5    1    3    3    0  502  0.10094585513E+01  0.69532862629E+02  0.28384198624E+02  0.75226146542E+02  0.41800000000E+01 0.  1.
        -11    1    1    2    0    0  0.27497667689E+02 -0.55705999684E+01  0.12781761217E+03  0.13086059489E+03  0.00000000000E+00 0.  1.
         11    1    1    2    0    0  0.22168588815E+02 -0.10751350570E+03  0.96937136390E+02  0.14644933817E+03  0.00000000000E+00 0. -1.
</event>
<event>
 7    1  0.2612213E-009  0.1247129E+03  0.7561462E-02  0.1235519E+00
         -1   -1    0    0    0  501 -0.00000000000E+00  0.00000000000E+00  0.44357740169E+02  0.44357740169E+02  0.00000000000E+00 0.  1.
          1   -1    0    0  501    0  0.00000000000E+00 -0.00000000000E+00 -0.42403011911E+03  0.42403011911E+03  0.00000000000E+00 0. -1.
         25    2    1    2    0    0  0.35883154778E+02 -0.59821493762E+02 -0.28929075089E+03  0.32280568279E+03  0.12509259921E+03 0.  0.
          5    1    3    3  502    0 -0.45206826398E+02 -0.32972381461E+02 -0.13879749701E+03  0.14970989502E+03  0.41800000000E+01 0. -1.
         -5    1    3    3    0  502  0.81089981176E+02 -0.26849112302E+02 -0.15049325388E+03  0.17309578776E+03  0.41800000000E+01 0. -1.
        -11    1    1    2    0    0 -0.34402188356E+02 -0.11639739227E+02 -0.92923244328E+01  0.37487883193E+02  0.00000000000E+00 0.  1.
         11    1    1    2    0    0 -0.14809664221E+01  0.71461232989E+02 -0.81089303619E+02  0.10809429330E+03  0.00000000000E+00 0. -1.
</event>
<event>
 7    1  0.2612213E-009  0.1231300E+03  0.7561462E-02  0.1238021E+00
          2   -1    0    0  501    0  0.00000000000E+00  0.00000000000E+00  0.81930417443E+02  0.81930417443E+02  0.00000000000E+00 0. -1.
         -2   -1    0    0    0  501 -0.00000000000E+00 -0.00000000000E+00 -0.20745656696E+03  0.20745656696E+03  0.00000000000E+00 0.  1.
         25    2    1    2    0    0 -0.28512262370E+02 -0.52695947144E+02 -0.11683370026E+03  0.18134176059E+03  0.12507960931E+03 0.  0.
          5    1    3    3  502    0 -0.26183278045E+02  0.38810651359E+02 -0.42031796148E+02  0.63055332808E+02  0.41800000000E+01 0.  1.
         -5    1    3    3    0  502 -0.23289843249E+01 -0.91506598503E+02 -0.74801904114E+02  0.11828642778E+03  0.41800000000E+01 0.  1.
        -11    1    1    2    0    0  0.52094209660E+01  0.75111066663E+02 -0.78635206815E+01  0.75701026146E+02  0.00000000000E+00 0.  1.
         11    1    1    2    0    0  0.23302841404E+02 -0.22415119519E+02 -0.82892857809E+00  0.32344197674E+02  0.00000000000E+00 0. -1.
</event>
<event>
 7    1  0.2612213E-009  0.2251908E+03  0.7561462E-02  0.1130071E+00
         -2   -1    0    0    0  501 -0.00000000000E+00  0.00000000000E+00  0.76520111311E+02  0.76520111311E+02  0.00000000000E+00 0.  1.
          2   -1    0    0  501    0  0.00000000000E+00 -0.00000000000E+00 -0.96156040459E+03  0.96156040459E+03  0.00000000000E+00 0. -1.
         25    2    1    2    0    0 -0.50196526306E+02  0.20460510024E+03 -0.70251519391E+03  0.74401513282E+03  0.12509189378E+03 0.  0.
          5    1    3    3  502    0 -0.53628602548E+02  0.21270404444E+03 -0.56420553610E+03  0.60536302902E+03  0.41800000000E+01 0.  1.
         -5    1    3    3    0  502  0.34320762419E+01 -0.80989442069E+01 -0.13830965781E+03  0.13865210380E+03  0.41800000000E+01 0.  1.
        -11    1    1    2    0    0 -0.69007731457E+01 -0.11359451596E+03 -0.13504632157E+03  0.17660363443E+03  0.00000000000E+00 0.  1.
         11    1    1    2    0    0  0.57097299451E+02 -0.91010584281E+02 -0.47478777806E+02  0.11746174866E+03  0.00000000000E+00 0. -1.
</event>
<event>
 7    1  0.2612213E-009  0.1428513E+03  0.7561462E-02  0.1209543E+00
         -2   -1    0    0    0  501 -0.00000000000E+00  0.00000000000E+00  0.38184354976E+02  0.38184354976E+02  0.00000000000E+00 0.  1.
          2   -1    0    0  501    0  0.00000000000E+00 -0.00000000000E+00 -0.63860046502E+03  0.63860046502E+03  0.00000000000E+00 0. -1.
         25    2    1    2    0    0  0.10407861723E+03 -0.15684082471E+02 -0.28130453484E+03  0.32535835080E+03  0.12508983216E+03 0.  0.
          5    1    3    3  502    0  0.18280436737E+02 -0.58140076474E+02 -0.15659205316E+03  0.16808624682E+03  0.41800000000E+01 0. -1.
         -5    1    3    3    0  502  0.85798180497E+02  0.42455994004E+02 -0.12471248168E+03  0.15727210398E+03  0.41800000000E+01 0. -1.
        -11    1    1    2    0    0 -0.18935758879E+02 -0.27450579346E+02 -0.17780551602E+03  0.18090577325E+03  0.00000000000E+00 0. -1.
         11    1    1    2    0    0 -0.85142858354E+02  0.43134661816E+02 -0.14130605919E+03  0.17052069593E+03  0.00000000000E+00 0.  1.
</event>
<event>
 7    1  0.2612213E-009  0.7724810E+02  0.7561462E-02  0.1337047E+00
          1   -1    0    0  501    0  0.00000000000E+00  0.00000000000E+00  0.88090464361E+02  0.88090464361E+02  0.00000000000E+00 0. -1.
         -1   -1    0    0    0  501 -0.00000000000E+00 -0.00000000000E+00 -0.19888954468E+03  0.19888954468E+03  0.00000000000E+00 0.  1.
         25    2    1    2    0    0 -0.21423833018E+02  0.64287533679E+02 -0.28528712385E+02  0.14505739244E+03  0.12504356067E+03 0.  0.
          5    1    3    3  502    0  0.25433065571E+01  0.49827815376E+02 -0.75278689549E+02  0.90408147274E+02  0.41800000000E+01 0.  1.
         -5    1    3    3    0  502 -0.23967139575E+02  0.14459718303E+02  0.46749977164E+02  0.54649245170E+02  0.41800000000E+01 0.  1.
        -11    1    1    2    0    0  0.13232542488E+02 -0.20948261902E+01  0.18729394057E+02  0.23027780596E+02  0.00000000000E+00 0.  1.
         11    1    1    2    0    0  0.81912905299E+01 -0.62192707489E+02 -0.10099976199E+03  0.11889483600E+03  0.00000000000E+00 0. -1.
</event>
<event>
 7    1  0.2612213E-009  0.9149230E+02  0.7561462E-02  0.1299278E+00
          1   -1    0    0  501    0  0.00000000000E+00  0.00000000000E+00  0.37052280832E+03  0.37052280832E+03  0.00000000000E+00 0. -1.
         -1   -1    0    0    0  501 -0.00000000000E+00 -0.00000000000E+00 -0.38847243207E+02  0.38847243207E+02  0.00000000000E+00 0.  1.
         25    2    1    2    0    0  0.17346974177E+02 -0.36997758874E+02  0.12417486111E+03  0.18093238065E+03  0.12508948221E+03 0.  0.
          5    1    3    3  502    0  0.20828281273E+02 -0.80955067074E+02  0.10023667610E+03  0.13058485296E+03  0.41800000000E+01 0. -1.
         -5    1    3    3    0  502 -0.34813070950E+01  0.43957308200E+02  0.23938185009E+02  0.50347527693E+02  0.41800000000E+01 0. -1.
        -11    1    1    2    0    0 -0.28126680574E+02  0.33324371567E+02  0.21181661700E+03  0.21625887991E+03  0.00000000000E+00 0. -1.
         11    1    1    2    0    0  0.10779706397E+02  0.36733873068E+01 -0.43159130066E+01  0.12178790966E+02  0.00000000000E+00 0.  1.
</event>
<event>
 7    1  0.2612213E-009  0.9270858E+02  0.7561462E-02  0.1296422E+00
          1   -1    0    0  501    0  0.00000000000E+00  0.00000000000E+00  0.21538141398E+03  0.21538141398E+03  0.00000000000E+00 0. -1.
         -1   -1    0    0    0  501 -0.00000000000E+00 -0.00000000000E+00 -0.82042152082E+02  0.82042152082E+02  0.00000000000E+00 0.  1.
         25    2    1    2    0    0 -0.52763667505E+02  0.51898231363E+02  0.11969349104E+03  0.18828595108E+03  0.12509051344E+03 0.  0.
          5    1    3    3  502    0 -0.14090123460E+01  0.11085289305E+02 -0.25914729951E+02  0.28529188267E+02  0.41800000000E+01 0. -1.
         -5    1    3    3    0  502 -0.51354655159E+02  0.40812942058E+02  0.14560822099E+03  0.15975676282E+03  0.41800000000E+01 0. -1.
        -11    1    1    2    0    0  0.62702365334E+02 -0.85493082336E+01  0.13287691703E+02  0.64662508771E+02  0.00000000000E+00 0.  1.
         11    1    1    2    0    0 -0.99386978284E+01 -0.43348923130E+02  0.35807915157E+00  0.44475106202E+02  0.00000000000E+00 0. -1.
</event>
<event>
 7    1  0.2612213E-009  0.1053956E+03  0.7561462E-02  0.1269342E+00
         -1   -1    0    0    0  501 -0.00000000000E+00  0.00000000000E+00  0.52956107108E+02  0.52956107108E+02  0.00000000000E+00 0.  1.
          1   -1    0    0  501    0  0.00000000000E+00 -0.00000000000E+00 -0.31822665602E+03  0.31822665602E+03  0.00000000000E+00 0. -1.
         25    2    1    2    0    0 -0.26306791966E+01 -0.73157161820E+02 -0.97123452063E+02  0.17447015882E+03  0.12509188854E+03 0.  0.
          5    1    3    3  502    0  0.41291138160E+02 -0.47171690764E+02 -0.10529743396E+03  0.12261789632E+03  0.41800000000E+01 0.  1.
         -5    1    3    3    0  502 -0.43921817357E+02 -0.25985471056E+02  0.81739818968E+01  0.51852262496E+02  0.41800000000E+01 0.  1.
        -11    1    1    2    0    0 -0.29335507417E+02  0.47227251928E+02 -0.12639897602E+03  0.13808579384E+03  0.00000000000E+00 0.  1.
         11    1    1    2    0    0  0.31966186613E+02  0.25929909892E+02 -0.41748120826E+02  0.58626810472E+02  0.00000000000E+00 0. -1.
</event>
<event>
 7    1  0.2612213E-009  0.8370551E+02  0.7561462E-02  0.1318853E+00
         -2   -1    0    0    0  501 -0.00000000000E+00  0.00000000000E+00  0.49945214867E+03  0.49945214867E+03  0.00000000000E+00 0.  1.
          2   -1    0    0  501    0  0.00000000000E+00 -0.00000000000E+00 -0.42754073010E+02  0.42754073010E+02  0.00000000000E+00 0. -1.
         25    2    1    2    0    0 -0.40276763381E+02  0.40872543426E+02  0.10133142620E+03  0.17090310621E+03  0.12508809418E+03 0.  0.
          5    1    3    3  502    0 -0.14411485689E+02  0.43162023976E+02  0.12649973792E+03  0.13450021311E+03  0.41800000000E+01 0.  1.
         -5    1    3    3    0  502 -0.25865277692E+02 -0.22894805498E+01 -0.25168311724E+02  0.36402893103E+02  0.41800000000E+01 0.  1.
        -11    1    1    2    0    0 -0.20926603676E+02  0.14909826745E+01  0.24912966282E+02  0.32569950257E+02  0.00000000000E+00 0. -1.
         11    1    1    2    0    0  0.61203367058E+02 -0.42363526100E+02  0.33045368318E+03  0.33873316521E+03  0.00000000000E+00 0.  1.
</event>
<event>
 7    1  0.2612213E-009  0.1666904E+03  0.7561462E-02  0.1181344E+00
          2   -1    0    0  501    0  0.00000000000E+00  0.00000000000E+00  0.27251035962E+03  0.27251035962E+03  0.00000000000E+00 0. -1.
         -2   -1    0    0    0  501 -0.00000000000E+00 -0.00000000000E+00 -0.11771951745E+03  0.11771951745E+03  0.00000000000E+00 0.  1.
         25    2    1    2    0    0 -0.58162140174E+02 -0.12812157618E+03  0.10054985517E+03  0.21343748862E+03  0.12508922951E+03 0.  0.
          5    1    3    3  502    0 -0.19704470850E+02 -0.14475627703E+03  0.77184185958E+02  0.16528011639E+03  0.41800000000E+01 0. -1.
         -5    1    3    3    0  502 -0.38457669324E+02  0.16634700849E+02  0.23365669216E+02  0.48157372229E+02  0.41800000000E+01 0. -1.
        -11    1    1    2    0    0  0.21449863985E+02  0.88679602001E+02 -0.11312281040E+02  0.91935500098E+02  0.00000000000E+00 0.  1.
         11    1    1    2    0    0  0.36712276190E+02  0.39441974181E+02  0.65553268042E+02  0.84856888355E+02  0.00000000000E+00 0. -1.
</event>
<event>
 7    1  0.2612213E-009  0.9080718E+02  0.7561462E-02  0.1300909E+00
         -2   -1    0    0    0  501 -0.00000000000E+00  0.00000000000E+00  0.87226553617E+02  0.87226553617E+02  0.00000000000E+00 0.  1.
          2   -1    0    0  501    0  0.00000000000E+00 -0.00000000000E+00 -0.14303584968E+03  0.14303584968E+03  0.00000000000E+00 0. -1.
         25    2    1    2    0    0 -0.15412115962E+02  0.25445593623E+02 -0.36911975646E+02  0.13376458915E+03  0.12508181247E+03 0.  0.
          5    1    3    3  502    0 -0.26777765478E+02  0.52849441370E+02  0.25421119811E+02  0.64605091978E+02  0.41800000000E+01 0.  1.
         -5    1    3    3    0  502  0.11365649516E+02 -0.27403847747E+02 -0.62333095456E+02  0.69159497174E+02  0.41800000000E+01 0.  1.
        -11    1    1    2    0    0 -0.35503855217E+02 -0.20763825686E+02  0.21928866390E+01  0.41188213657E+02  0.00000000000E+00 0.  1.
         11    1    1    2    0    0  0.50915971179E+02 -0.46817679370E+01 -0.21090207052E+02  0.55309600483E+02  0.00000000000E+00 0. -1.
</event>
<event>
 7    1  0.2612213E-009  0.1115999E+03  0.7561462E-02  0.1257636E+00
         -1   -1    0    0    0  501 -0.00000000000E+00  0.00000000000E+00  0.18745670629E+02  0.18745670629E+02  0.00000000000E+00 0.  1.
          1   -1    0    0  501    0  0.00000000000E+00 -0.00000000000E+00 -0.91661150146E+03  0.91661150146E+03  0.00000000000E+00 0. -1.
         25    2    1    2    0    0  0.12776777792E+02  0.60594884338E+02 -0.63872112717E+03  0.65379314694E+03  0.12508323085E+03 0.  0.
          5    1    3    3  502    0  0.61834648677E+02  0.24550034944E+02 -0.46310454638E+03  0.46787767768E+03  0.41800000000E+01 0. -1.
         -5    1    3    3    0  502 -0.49057870885E+02  0.36044849394E+02 -0.17561658079E+03  0.18591546926E+03  0.41800000000E+01 0. -1.
        -11    1    1    2    0    0  0.29690077173E+02 -0.15191659300E+02 -0.32574912826E+02  0.46619868516E+02  0.00000000000E+00 0.  1.
         11    1    1    2    0    0 -0.42466854965E+02 -0.45403225038E+02 -0.22656979084E+03  0.23494415663E+03  0.00000000000E+00 0. -1.
</event>
<event>
 7    1  0.2612213E-009  0.8440246E+02  0.7561462E-02  0.1317003E+00
         -1   -1    0    0    0  501 -0.00000000000E+00  0.00000000000E+00  0.10668374725E+03  0.10668374725E+03  0.00000000000E+00 0.  1.
          1   -1    0    0  501    0  0.00000000000E+00 -0.00000000000E+00 -0.11134840080E+03  0.11134840080E+03  0.00000000000E+00 0. -1.
         25    2    1    2    0    0  0.15750420351E+02 -0.10696957946E+02 -0.18375693791E+01  0.12655463960E+03  0.12510075737E+03 0.  0.
          5    1    3    3  502    0 -0.29146024271E+02 -0.17895358128E+02  0.47919683559E+02  0.59021208440E+02  0.41800000000E+01 0.  1.
         -5    1    3    3    0  502  0.44896444622E+02  0.71984001823E+01 -0.49757252938E+02  0.67533431164E+02  0.41800000000E+01 0.  1.
        -11    1    1    2    0    0 -0.37952070963E+02 -0.25854310428E+02 -0.12580200302E+02  0.47613721738E+02  0.00000000000E+00 0. -1.
         11    1    1    2    0    0  0.22201650612E+02  0.36551268374E+02  0.97531161278E+01  0.43863786702E+02  0.00000000000E+00 0.  1.
</event>
<event>
 7    1  0.2612213E-009  0.9638023E+02  0.7561462E-02  0.1288097E+00
          1   -1    0    0  501    0  0.00000000000E+00  0.00000000000E+00  0.74236841347E+02  0.74236841347E+02  0.00000000000E+00 0. -1.
         -1   -1    0    0    0  501 -0.00000000000E+00 -0.00000000000E+00 -0.20491368656E+03  0.20491368656E+03  0.00000000000E+00 0.  1.
         25    2    1    2    0    0  0.79436636499E+01 -0.54665752456E+02 -0.47207000266E+02  0.14466421518E+03  0.12509111877E+03 0.  0.
          5    1    3    3  502    0 -0.11090755702E+02 -0.82534089728E+02  0.36781879043E+01  0.83461861323E+02  0.41800000000E+01 0. -1.
         -5    1    3    3    0  502  0.19034419352E+02  0.27868337271E+02 -0.50885188170E+02  0.61202353855E+02  0.41800000000E+01 0. -1.
        -11    1    1    2    0    0 -0.23598245021E+02  0.61384151274E+01  0.11296343375E+02  0.26873121925E+02  0.00000000000E+00 0. -1.
         11    1    1    2    0    0  0.15654581371E+02  0.48527337329E+02 -0.94766188323E+02  0.10761319081E+03  0.00000000000E+00 0.  1.
</event>
<event>
 7    1  0.2612213E-009  0.9699958E+02  0.7561462E-02  0.1286735E+00
          2   -1    0    0  501    0  0.00000000000E+00  0.00000000000E+00  0.50960860383E+03  0.50960860383E+03  0.00000000000E+00 0. -1.
         -2   -1    0    0    0  501 -0.00000000000E+00 -0.00000000000E+00 -0.35389125319E+02  0.35389125319E+02  0.00000000000E+00 0.  1.
         25    2    1    2    0    0 -0.69009745156E+02 -0.35880974758E+02  0.28288035723E+03  0.31893366145E+03  0.12509034585E+03 0.  0.
          5    1    3    3  502    0 -0.43207025907E+02 -0.39274986080E+02  0.28641777868E+03  0.29233882390E+03  0.41800000000E+01 0.  1.
         -5    1    3    3    0  502 -0.25802719248E+02  0.33940113220E+01 -0.35374214520E+01  0.26594837544E+02  0.41800000000E+01 0.  1.
        -11    1    1    2    0    0 -0.12003731729E+02  0.24512933134E+02  0.13801710902E+02  0.30585301864E+02  0.00000000000E+00 0.  1.
         11    1    1    2    0    0  0.81013476885E+02  0.11368041623E+02  0.17753741038E+03  0.19547876584E+03  0.00000000000E+00 0. -1.
</event>
<event>
 7    1  0.2612213E-009  0.1245207E+03  0.7561462E-02  0.1235820E+00
          2   -1    0    0  501    0  0.00000000000E+00  0.00000000000E+00  0.10512252699E+03  0.10512252699E+03  0.00000000000E+00 0. -1.
         -2   -1    0    0    0  501 -0.00000000000E+00 -0.00000000000E+00 -0.21811776874E+03  0.21811776874E+03  0.00000000000E+00 0.  1.
         25    2    1    2    0    0 -0.42379712111E+02 -0.88353151928E+02 -0.10108901632E+03  0.18832867444E+03  0.12508549453E+03 0.  0.
          5    1    3    3  502    0 -0.47691322037E+02 -0.10623382267E+03 -0.11574671157E+03  0.16424025364E+03  0.41800000000E+01 0. -1.
         -5    1    3    3    0  502  0.53116099260E+01  0.17880670745E+02  0.14657695253E+02  0.24088420796E+02  0.41800000000E+01 0. -1.
        -11    1    1    2    0    0 -0.13077521577E+02  0.66899865094E+01  0.25434451643E+02  0.29371564829E+02  0.00000000000E+00 0. -1.
         11    1    1    2    0    0  0.55457233688E+02  0.81663165419E+02 -0.37340677077E+02  0.10554005647E+03  0.00000000000E+00 0.  1.
</event>
<event>
 7    1  0.2612213E-009  0.1142980E+03  0.7561462E-02  0.1252811E+00
         -2   -1    0    0    0  501 -0.00000000000E+00  0.00000000000E+00  0.60984876659E+02  0.60984876659E+02  0.00000000000E+00 0.  1.
          2   -1    0    0  501    0  0.00000000000E+00 -0.00000000000E+00 -0.42026024198E+03  0.42026024198E+03  0.00000000000E+00 0. -1.
         25    2    1    2    0    0  0.10740262343E+02 -0.97968031719E+02 -0.28923935623E+03  0.33018226009E+03  0.12509129150E+03 0.  0.
          5    1    3    3  502    0 -0.28245815537E+02 -0.43798124671E+02 -0.24377706394E+03  0.24932073946E+03  0.41800000000E+01 0.  1.
         -5    1    3    3    0  502  0.38986077880E+02 -0.54169907048E+02 -0.45462292291E+02  0.80861520629E+02  0.41800000000E+01 0.  1.
        -11    1    1    2    0    0  0.18646578427E+02  0.29053089915E+02  0.15079559169E+02  0.37671873133E+02  0.00000000000E+00 0.  1.
         11    1    1    2    0    0 -0.29386840770E+02  0.68914941804E+02 -0.85115568256E+02  0.11339098542E+03  0.00000000000E+00 0. -1.
</event>
<event>
 7    1  0.2612213E-009  0.8971543E+02  0.7561462E-02  0.1303542E+00
         -4   -1    0    0    0  501 -0.00000000000E+00  0.00000000000E+00  0.16154373778E+03  0.16154373778E+03  0.00000000000E+00 0. -1.
          4   -1    0    0  501    0  0.00000000000E+00 -0.00000000000E+00 -0.84323661202E+02  0.84323661202E+02  0.00000000000E+00 0.  1.
         25    2    1    2    0    0  0.36982992887E+02 -0.12860497889E+02  0.26715116739E+02  0.13377046155E+03  0.12509078604E+03 0.  0.
          5    1    3    3  502    0  0.27435865581E+01 -0.37060635163E+02  0.66195367077E+02  0.76028395803E+02  0.41800000000E+01 0.  1.
         -5    1    3    3    0  502  0.34239406329E+02  0.24200137274E+02 -0.39480250337E+02  0.57742065745E+02  0.41800000000E+01 0.  1.
        -11    1    1    2    0    0 -0.67121773632E+02  0.17595803505E+02  0.38112438831E+02  0.79167561476E+02  0.00000000000E+00 0.  1.
         11    1    1    2    0    0  0.30138780745E+02 -0.47353056155E+01  0.12392521008E+02  0.32929375958E+02  0.00000000000E+00 0. -1.
</event>
<event>
 7    1  0.2612213E-009  0.1042879E+03  0.7561462E-02  0.1271529E+00
         -1   -1    0    0    0  501 -0.00000000000E+00  0.00000000000E+00  0.12900197281E+03  0.12900197281E+03  0.00000000000E+00 0.  1.
          1   -1    0    0  501    0  0.00000000000E+00 -0.00000000000E+00 -0.12116996996E+03  0.12116996996E+03  0.00000000000E+00 0. -1.
         25    2    1    2    0    0  0.56054987882E+02 -0.20255739137E+02  0.22747128130E+02  0.14041894479E+03  0.12509033369E+03 0.  0.
          5    1    3    3  502    0  0.90349001759E+02 -0.56121869305E+01 -0.92702157248E+01  0.91092524724E+02  0.41800000000E+01 0.  1.
         -5    1    3    3    0  502 -0.34294013877E+02 -0.14643552207E+02  0.32017343855E+02  0.49326420066E+02  0.41800000000E+01 0.  1.
        -11    1    1    2    0    0 -0.61348180853E+02  0.19518114879E+01  0.24410017137E+02  0.66054960440E+02  0.00000000000E+00 0.  1.
         11    1    1    2    0    0  0.52931929710E+01  0.18303927650E+02 -0.39325142412E+02  0.43698037541E+02  0.00000000000E+00 0. -1.
</event>
<event>
 7    1  0.2612213E-009  0.1280154E+03  0.7561462E-02  0.1230431E+00
          2   -1    0    0  501    0  0.00000000000E+00  0.00000000000E+00  0.63326610941E+03  0.63326610941E+03  0.00000000000E+00 0. -1.
         -2   -1    0    0    0  501 -0.00000000000E+00 -0.00000000000E+00 -0.33467628392E+02  0.33467628392E+02  0.00000000000E+00 0.  1.
         25    2    1    2    0    0  0.53966233658E+02  0.72802896230E+02  0.24571562874E+03  0.29023402938E+03  0.12508799115E+03 0.  0.
          5    1    3    3  502    0  0.13125227360E+02  0.94674868369E+02  0.21259561660E+03  0.23313080211E+03  0.41800000000E+01 0. -1.
         -5    1    3    3    0  502  0.40841006298E+02 -0.21871972140E+02  0.33120012135E+02  0.57103227269E+02  0.41800000000E+01 0. -1.
        -11    1    1    2    0    0 -0.12105423485E+02  0.13372156906E+02  0.13044384241E+02  0.22260094750E+02  0.00000000000E+00 0.  1.
         11    1    1    2    0    0 -0.41860810174E+02 -0.86175053136E+02  0.34103846804E+03  0.35423961367E+03  0.00000000000E+00 0. -1.
</event>
<event>
 7    1  0.2612213E-009  0.1909689E+03  0.7561462E-02  0.1157590E+00
          2   -1    0    0  501    0  0.00000000000E+00  0.00000000000E+00  0.18431237206E+03  0.18431237206E+03  0.00000000000E+00 0. -1.
         -2   -1    0    0    0  501 -0.00000000000E+00 -0.00000000000E+00 -0.24069472229E+03  0.24069472229E+03  0.00000000000E+00 0.  1.
         25    2    1    2    0    0 -0.73731370729E+02  0.14611518343E+03  0.45002587621E+02  0.21085139504E+03  0.12508843288E+03 0.  0.
          5    1    3    3  502    0 -0.48049512324E+02  0.33745650648E+01  0.44570115046E+02  0.65757971983E+02  0.41800000000E+01 0.  1.
         -5    1    3    3    0  502 -0.25681858404E+02  0.14274061836E+03  0.43247257472E+00  0.14509342306E+03  0.41800000000E+01 0.  1.
        -11    1    1    2    0    0  0.89715076859E+02 -0.79115583762E+02 -0.68295679407E+02  0.13774022809E+03  0.00000000000E+00 0.  1.
         11    1    1    2    0    0 -0.15983706130E+02 -0.66999599665E+02 -0.33089258445E+02  0.76415471217E+02  0.00000000000E+00 0. -1.
</event>
<event>
 7    1  0.2612213E-009  0.8972969E+02  0.7561462E-02  0.1303508E+00
          1   -1    0    0  501    0  0.00000000000E+00  0.00000000000E+00  0.22546152610E+03  0.22546152610E+03  0.00000000000E+00 0. -1.
         -1   -1    0    0    0  501 -0.00000000000E+00 -0.00000000000E+00 -0.55059496114E+02  0.55059496114E+02  0.00000000000E+00 0.  1.
         25    2    1    2    0    0 -0.34379405488E+01 -0.23075634207E+02  0.10333900189E+03  0.16392364909E+03  0.12509080337E+03 0.  0.
          5    1    3    3  502    0 -0.62234530402E+02 -0.18722082069E+02  0.71781339303E+02  0.96921030759E+02  0.41800000000E+01 0.  1.
         -5    1    3    3    0  502  0.58796589853E+02 -0.43535521377E+01  0.31557662591E+02  0.67002618328E+02  0.41800000000E+01 0.  1.
        -11    1    1    2    0    0 -0.19286300751E+02  0.25941929351E+02 -0.11848792703E+02  0.34428752281E+02  0.00000000000E+00 0.  1.
         11    1    1    2    0    0  0.22724241300E+02 -0.28662951438E+01  0.78911820799E+02  0.82168620850E+02  0.00000000000E+00 0. -1.
</event>
<event>
 7    1  0.2612213E-009  0.9343719E+02  0.7561462E-02  0.1294735E+00
          2   -1    0    0  501    0  0.00000000000E+00  0.00000000000E+00  0.14189827273E+03  0.14189827273E+03  0.00000000000E+00 0. -1.
         -2   -1    0    0    0  501 -0.00000000000E+00 -0.00000000000E+00 -0.92846197898E+02  0.92846197898E+02  0.00000000000E+00 0.  1.
         25    2    1    2    0    0  0.32451653062E+02 -0.65591528126E+01  0.41222890138E+02  0.13580417061E+03  0.12508922341E+03 0.  0.
          5    1    3    3  502    0  0.68981652663E+01  0.41667845867E+02  0.63771519417E+02  0.76603349483E+02  0.41800000000E+01 0.  1.
         -5    1    3    3    0  502  0.25553487796E+02 -0.48226998680E+02 -0.22548629279E+02  0.59200821131E+02  0.41800000000E+01 0.  1.
        -11    1    1    2    0    0 -0.33198191217E+02 -0.34935380812E+02 -0.16371709456E+02  0.50898267191E+02  0.00000000000E+00 0.  1.
         11    1    1    2    0    0  0.74653815511E+00  0.41494533624E+02  0.24200894146E+02  0.48042032819E+02  0.00000000000E+00 0. -1.
</event>
<event>
 7    1  0.2612213E-009  0.6482493E+02  0.7561462E-02  0.1378631E+00
         -1   -1    0    0    0  501 -0.00000000000E+00  0.00000000000E+00  0.45869452601E+02  0.45869452601E+02  0.00000000000E+00 0.  1.
          1   -1    0    0  501    0  0.00000000000E+00 -0.00000000000E+00 -0.48098284455E+03  0.48098284455E+03  0.00000000000E+00 0. -1.
         25    2    1    2    0    0 -0.14175691798E+02 -0.60392304663E+02 -0.38261183730E+03  0.40729312552E+03  0.12509073250E+03 0.  0.
          5    1    3    3  502    0 -0.44503841496E+01 -0.17338280849E+02 -0.35410794640E+03  0.35458473177E+03  0.41800000000E+01 0. -1.
         -5    1    3    3    0  502 -0.97253076487E+01 -0.43054023814E+02 -0.28503890897E+02  0.52708393750E+02  0.41800000000E+01 0. -1.
        -11    1    1    2    0    0  0.13453732957E+02  0.10583418452E+02  0.23265040750E+02  0.28883798187E+02  0.00000000000E+00 0.  1.
         11    1    1    2    0    0  0.72195884105E+00  0.49808886210E+02 -0.75766595404E+02  0.90675373443E+02  0.00000000000E+00 0. -1.
</event>
<event>
 7    1  0.2612213E-009  0.1258493E+03  0.7561462E-02  0.1233748E+00
          2   -1    0    0  501    0  0.00000000000E+00  0.00000000000E+00  0.13621530243E+04  0.13621530243E+04  0.00000000000E+00 0. -1.
         -2   -1    0    0    0  501 -0.00000000000E+00 -0.00000000000E+00 -0.20412694634E+02  0.20412694634E+02  0.00000000000E+00 0.  1.
         25    2    1    2    0    0  0.11188405454E+03  0.41922731334E+02  0.88026808122E+03  0.89710317707E+03  0.12508660372E+03 0.  0.
          5    1    3    3  502    0  0.21841192404E+02  0.65633107566E+01  0.60243445921E+03  0.60288047304E+03  0.41800000000E+01 0. -1.
         -5    1    3    3    0  502  0.90042862132E+02  0.35359420578E+02  0.27783362201E+03  0.29422270403E+03  0.41800000000E+01 0. -1.
        -11    1    1    2    0    0 -0.96977492776E+02 -0.11307783176E+02  0.42284004142E+03  0.43396566765E+03  0.00000000000E+00 0. -1.
         11    1    1    2    0    0 -0.14906561760E+02 -0.30614948158E+02  0.38632207003E+02  0.51496874198E+02  0.00000000000E+00 0.  1.
</event>
<event>
 7    1  0.2612213E-009  0.1354104E+03  0.7561462E-02  0.1219641E+00
         -2   -1    0    0    0  501 -0.00000000000E+00  0.00000000000E+00  0.80234623948E+02  0.80234623948E+02  0.00000000000E+00 0.  1.
          2   -1    0    0  501    0  0.00000000000E+00 -0.00000000000E+00 -0.28267889155E+03  0.28267889155E+03  0.00000000000E+00 0. -1.
         25    2    1    2    0    0  0.89473151643E+02 -0.51840762717E+02 -0.92819972466E+02  0.18696866248E+03  0.12509525937E+03 0.  0.
          5    1    3    3  502    0  0.10250306628E+03 -0.74741028135E+02 -0.49797525728E+02  0.13634649189E+03  0.41800000000E+01 0.  1.
         -5    1    3    3    0  502 -0.13029914635E+02  0.22900265418E+02 -0.43022446738E+02  0.50622170587E+02  0.41800000000E+01 0.  1.
        -11    1    1    2    0    0 -0.89512681596E+02  0.28593156040E+02 -0.39261130363E+02  0.10184068488E+03  0.00000000000E+00 0.  1.
         11    1    1    2    0    0  0.39529953086E-01  0.23247606676E+02 -0.70363164773E+02  0.74104168139E+02  0.00000000000E+00 0. -1.
</event>
<event>
 7    1  0.2612213E-009  0.1082033E+03  0.7561462E-02  0.1263934E+00
          2   -1    0    0  501    0  0.00000000000E+00  0.00000000000E+00  0.81652994742E+02  0.81652994742E+02  0.00000000000E+00 0. -1.
         -2   -1    0    0    0  501 -0.00000000000E+00 -0.00000000000E+00 -0.21583816443E+03  0.21583816443E+03  0.00000000000E+00 0.  1.
         25    2    1    2    0    0  0.53191064502E+02  0.48957148514E+02 -0.51473724986E+02  0.15336796002E+03  0.12508435179E+03 0.  0.
          5    1    3    3  502    0 -0.27285992209E+01 -0.15909267803E+02  0.30489176339E+02  0.34750716965E+02  0.41800000000E+01 0. -1.
         -5    1    3    3    0  502  0.55919663723E+02  0.64866416317E+02 -0.81962901325E+02  0.11861724306E+03  0.41800000000E+01 0. -1.
        -11    1    1    2    0    0  0.14237164898E+02 -0.44149778641E+02 -0.52563536057E+02  0.70105813890E+02  0.00000000000E+00 0.  1.
         11    1    1    2    0    0 -0.67428229400E+02 -0.48073698729E+01 -0.30147908645E+02  0.74017385261E+02  0.00000000000E+00 0. -1.
</event>
<event>
 7    1  0.2612213E-009  0.1019503E+03  0.7561462E-02  0.1276247E+00
          1   -1    0    0  501    0  0.00000000000E+00  0.00000000000E+00  0.12782626099E+03  0.12782626099E+03  0.00000000000E+00 0. -1.
         -1   -1    0    0    0  501 -0.00000000000E+00 -0.00000000000E+00 -0.11914252446E+03  0.11914252446E+03  0.00000000000E+00 0.  1.
         25    2    1    2    0    0 -0.37637649254E+02 -0.28915852586E+02  0.39579232920E+02  0.13952247895E+03  0.12508911736E+03 0.  0.
          5    1    3    3  502    0 -0.48948090331E+02  0.35114569495E+02 -0.49743393362E+01  0.60590139376E+02  0.41800000000E+01 0.  1.
         -5    1    3    3    0  502  0.11310441076E+02 -0.64030422081E+02  0.44553572257E+02  0.78932339570E+02  0.41800000000E+01 0.  1.
        -11    1    1    2    0    0  0.40288044546E+02  0.45955318224E+02 -0.51964166314E+02  0.80220274165E+02  0.00000000000E+00 0.  1.
         11    1    1    2    0    0 -0.26503952914E+01 -0.17039465638E+02  0.21068669928E+02  0.27226032340E+02  0.00000000000E+00 0. -1.
</event>
<event>
 7    1  0.2612213E-009  0.1095892E+03  0.7561462E-02  0.1261332E+00
         -1   -1    0    0    0  501 -0.00000000000E+00  0.00000000000E+00  0.56901743479E+03  0.56901743479E+03  0.00000000000E+00 0.  1.
          1   -1    0    0  501    0  0.00000000000E+00 -0.00000000000E+00 -0.22939166600E+02  0.22939166600E+02  0.00000000000E+00 0. -1.
         25    2    1    2    0    0 -0.17985073392E+02 -0.26143205691E+02  0.33976894370E+03  0.36345318091E+03  0.12509336331E+03 0.  0.
          5    1    3    3  502    0  0.28000349587E+02  0.37731367078E+02  0.16739815600E+03  0.17391748236E+03  0.41800000000E+01 0. -1.
         -5    1    3    3    0  502 -0.45985422979E+02 -0.63874572769E+02  0.17237078770E+03  0.18953569855E+03  0.41800000000E+01 0. -1.
        -11    1    1    2    0    0  0.38527373990E+02  0.49082358097E+02  0.16886103801E+03  0.18002079486E+03  0.00000000000E+00 0.  1.
         11    1    1    2    0    0 -0.20542300598E+02 -0.22939152406E+02  0.37448286480E+02  0.48482625622E+02  0.00000000000E+00 0. -1.
</event>
<event>
 7    1  0.2612213E-009  0.1152583E+03  0.7561462E-02  0.1251131E+00
         -2   -1    0    0    0  501 -0.00000000000E+00  0.00000000000E+00  0.81984336208E+02  0.81984336208E+02  0.00000000000E+00 0. -1.
          2   -1    0    0  501    0  0.00000000000E+00 -0.00000000000E+00 -0.18420407572E+03  0.18420407572E+03  0.00000000000E+00 0.  1.
         25    2    1    2    0    0  0.13523855564E+02  0.49083609961E+02 -0.22648397031E+02  0.13693346987E+03  0.12508289190E+03 0.  0.
          5    1    3    3  502    0  0.36793614796E+02  0.83596530844E+02 -0.51159489394E+01  0.91573988624E+02  0.41800000000E+01 0. -1.
         -5    1    3    3    0  502 -0.23269759232E+02 -0.34512920884E+02 -0.17532448092E+02  0.45359481244E+02  0.41800000000E+01 0. -1.
        -11    1    1    2    0    0  0.34644097562E+02 -0.28538397657E+02 -0.17829988965E+02  0.48296605918E+02  0.00000000000E+00 0. -1.
         11    1    1    2    0    0 -0.48167953126E+02 -0.20545212303E+02 -0.61741353516E+02  0.80958336142E+02  0.00000000000E+00 0.  1.
</event>
<event>
 7    1  0.2612213E-009  0.1841016E+03  0.7561462E-02  0.1163891E+00
          1   -1    0    0  501    0  0.00000000000E+00  0.00000000000E+00  0.10355595708E+03  0.10355595708E+03  0.00000000000E+00 0. -1.
         -1   -1    0    0    0  501 -0.00000000000E+00 -0.00000000000E+00 -0.46301210414E+03  0.46301210414E+03  0.00000000000E+00 0.  1.
         25    2    1    2    0    0 -0.10836518619E+03  0.13328396164E+03 -0.29129218813E+03  0.36056515767E+03  0.12509382900E+03 0.  0.
          5    1    3    3  502    0 -0.38109334854E+02  0.10591196808E+03 -0.25067746929E+03  0.27482054580E+03  0.41800000000E+01 0. -1.
         -5    1    3    3    0  502 -0.70255851340E+02  0.27371993557E+02 -0.40614718843E+02  0.85744611874E+02  0.41800000000E+01 0. -1.
        -11    1    1    2    0    0  0.36946794235E+02 -0.88114461995E+02 -0.74649292580E+02  0.12125073567E+03  0.00000000000E+00 0.  1.
         11    1    1    2    0    0  0.71418391959E+02 -0.45169499644E+02  0.64853336495E+01  0.84752167881E+02  0.00000000000E+00 0. -1.
</event>
<event>
 7    1  0.2612213E-009  0.1356864E+03  0.7561462E-02  0.1219254E+00
          1   -1    0    0  501    0  0.00000000000E+00  0.00000000000E+00  0.11101282437E+04  0.11101282437E+04  0.00000000000E+00 0. -1.
         -1   -1    0    0    0  501 -0.00000000000E+00 -0.00000000000E+00 -0.26765829531E+02  0.26765829531E+02  0.00000000000E+00 0.  1.
         25    2    1    2    0    0 -0.39368061832E+02 -0.72160506581E+02  0.90913725822E+03  0.92137663929E+03  0.12508946456E+03 0.  0.
          5    1    3    3  502    0 -0.58470767233E+02  0.10543093884E+02  0.26209904999E+03  0.26878127140E+03  0.41800000000E+01 0. -1.
         -5    1    3    3    0  502  0.19102705400E+02 -0.82703600465E+02  0.64703820822E+03  0.65259536788E+03  0.41800000000E+01 0. -1.
        -11    1    1    2    0    0  0.65389376716E+02  0.76293097008E+02  0.13994851559E+03  0.17228463151E+03  0.00000000000E+00 0.  1.
         11    1    1    2    0    0 -0.26021314884E+02 -0.41325904272E+01  0.34276640366E+02  0.43232802439E+02  0.00000000000E+00 0. -1.
</event>
<event>
 7    1  0.2612213E-009  0.9405130E+02  0.7561462E-02  0.1293327E+00
          2   -1    0    0  501    0  0.00000000000E+00  0.00000000000E+00  0.92650314176E+02  0.92650314176E+02  0.00000000000E+00 0.  1.
         -2   -1    0    0    0  501 -0.00000000000E+00 -0.00000000000E+00 -0.15482300675E+03  0.15482300675E+03  0.00000000000E+00 0. -1.
         25    2    1    2    0    0  0.14433038407E+02  0.48933982539E+02 -0.51335598938E+02  0.14451706061E+03  0.12508792845E+03 0.  0.
          5    1    3    3  502    0  0.63531556931E+02  0.26976285294E+01 -0.79594607629E+01  0.64221190751E+02  0.41800000000E+01 0.  1.
         -5    1    3    3    0  502 -0.49098518525E+02  0.46236354010E+02 -0.43376138176E+02  0.80295869859E+02  0.41800000000E+01 0.  1.
        -11    1    1    2    0    0 -0.21567354000E+02 -0.34164454552E+02  0.35511714429E+02  0.53790729453E+02  0.00000000000E+00 0.  1.
         11    1    1    2    0    0  0.71343155937E+01 -0.14769527988E+02 -0.46348808061E+02  0.49165530859E+02  0.00000000000E+00 0. -1.
</event>
<event>
 7    1  0.2612213E-009  0.1025961E+03  0.7561462E-02  0.1274930E+00
          4   -1    0    0  501    0  0.00000000000E+00  0.00000000000E+00  0.19266545470E+03  0.19266545470E+03  0.00000000000E+00 0. -1.
         -4   -1    0    0    0  501 -0.00000000000E+00 -0.00000000000E+00 -0.11639661708E+03  0.11639661708E+03  0.00000000000E+00 0.  1.
         25    2    1    2    0    0  0.53212797976E+02 -0.25505300102E+02  0.12803179581E+03  0.18847370011E+03  0.12509225673E+03 0.  0.
          5    1    3    3  502    0  0.23268342568E+02  0.48453251382E+02  0.75794625458E+02  0.93013068887E+02  0.41800000000E+01 0. -1.
         -5    1    3    3    0  502  0.29944455407E+02 -0.73958551484E+02  0.52237170355E+02  0.95460631225E+02  0.41800000000E+01 0. -1.
        -11    1    1    2    0    0 -0.22705155760E+02  0.32913195767E+02 -0.72617940654E+02  0.82898539544E+02  0.00000000000E+00 0.  1.
         11    1    1    2    0    0 -0.30507642215E+02 -0.74078956657E+01  0.20854982462E+02  0.37689832120E+02  0.00000000000E+00 0. -1.
</event>
<event>
 7    1  0.2612213E-009  0.9161187E+02  0.7561462E-02  0.1298995E+00
          1   -1    0    0  501    0  0.00000000000E+00  0.00000000000E+00  0.20528076065E+03  0.20528076065E+03  0.00000000000E+00 0. -1.
         -1   -1    0    0    0  501 -0.00000000000E+00 -0.00000000000E+00 -0.74819033160E+02  0.74819033160E+02  0.00000000000E+00 0.  1.
         25    2    1    2    0    0  0.33525596952E+02  0.41034599154E+02  0.43005389809E+02  0.14249721310E+03  0.12509271845E+03 0.  0.
          5    1    3    3  502    0  0.19614475151E+02  0.57200363008E+02  0.79530169191E+02  0.99995646781E+02  0.41800000000E+01 0.  1.
         -5    1    3    3    0  502  0.13911121801E+02 -0.16165763853E+02 -0.36524779381E+02  0.42501566319E+02  0.41800000000E+01 0.  1.
        -11    1    1    2    0    0 -0.66985745517E+01 -0.64734551618E+02  0.34434920827E+02  0.73628777300E+02  0.00000000000E+00 0.  1.
         11    1    1    2    0    0 -0.26827022400E+02  0.23699952464E+02  0.53021416848E+02  0.63973803406E+02  0.00000000000E+00 0. -1.
</event>
<event>
 7    1  0.2612213E-009  0.9251995E+02  0.7561462E-02  0.1296862E+00
         -2   -1    0    0    0  501 -0.00000000000E+00  0.00000000000E+00  0.92710155329E+02  0.92710155329E+02  0.00000000000E+00 0.  1.
          2   -1    0    0  501    0  0.00000000000E+00 -0.00000000000E+00 -0.16074884991E+03  0.16074884991E+03  0.00000000000E+00 0. -1.
         25    2    1    2    0    0 -0.61996175542E+01 -0.42041344330E+02 -0.75975627184E+02  0.15240250565E+03  0.12509323687E+03 0.  0.
          5    1    3    3  502    0  0.22833496846E+02  0.94824978634E+01 -0.88347595836E+02  0.91837119042E+02  0.41800000000E+01 0. -1.
         -5    1    3    3    0  502 -0.29033114400E+02 -0.51523842193E+02  0.12371968652E+02  0.60565386603E+02  0.41800000000E+01 0. -1.
        -11    1    1    2    0    0 -0.33864695473E+02  0.49448712525E+02  0.65430955263E+01  0.60289342914E+02  0.00000000000E+00 0. -1.
         11    1    1    2    0    0  0.40064313027E+02 -0.74073681955E+01  0.13938370772E+01  0.40767156679E+02  0.00000000000E+00 0.  1.
</event>
<event>
 7    1  0.2612213E-009  0.1490429E+03  0.7561462E-02  0.1201654E+00
          1   -1    0    0  501    0  0.00000000000E+00  0.00000000000E+00  0.47905302912E+02  0.47905302912E+02  0.00000000000E+00 0. -1.
         -1   -1    0    0    0  501 -0.00000000000E+00 -0.00000000000E+00 -0.73873265023E+03  0.73873265023E+03  0.00000000000E+00 0.  1.
         25    2    1    2    0    0  0.48221423645E+02  0.11875647785E+03 -0.54079537842E+03  0.56968077584E+03  0.12509251901E+03 0.  0.
          5    1    3    3  502    0  0.63209815316E+02  0.15353901724E+02 -0.30264948914E+03  0.30958909659E+03  0.41800000000E+01 0.  1.
         -5    1    3    3    0  502 -0.14988391671E+02  0.10340257613E+03 -0.23814588928E+03  0.26009167925E+03  0.41800000000E+01 0.  1.
        -11    1    1    2    0    0 -0.25388055092E+02 -0.70999163050E+02 -0.14543939878E+03  0.16382323770E+03  0.00000000000E+00 0.  1.
         11    1    1    2    0    0 -0.22833368553E+02 -0.47757314801E+02 -0.45925701157E+01  0.53133939593E+02  0.00000000000E+00 0. -1.
</event>
<event>
 7    1  0.2612213E-009  0.9767022E+02  0.7561462E-02  0.1285273E+00
         -2   -1    0    0    0  501 -0.00000000000E+00  0.00000000000E+00  0.18086758719E+03  0.18086758719E+03  0.00000000000E+00 0.  1.
          2   -1    0    0  501    0  0.00000000000E+00 -0.00000000000E+00 -0.77385594320E+02  0.77385594320E+02  0.00000000000E+00 0. -1.
         25    2    1    2    0    0 -0.19188215997E+02  0.28773916339E+02  0.95622392091E+01  0.13013593838E+03  0.12509116734E+03 0.  0.
          5    1    3    3  502    0 -0.17974744111E+02 -0.48754724693E+02  0.42708662269E+01  0.52305136498E+02  0.41800000000E+01 0.  1.
         -5    1    3    3    0  502 -0.12134718865E+01  0.77528641032E+02  0.52913729823E+01  0.77830801887E+02  0.41800000000E+01 0.  1.
        -11    1    1    2    0    0  0.37835373021E+02 -0.10080047084E+02  0.10385086760E+02  0.40508922818E+02  0.00000000000E+00 0. -1.
         11    1    1    2    0    0 -0.18647157024E+02 -0.18693869255E+02  0.83534666896E+02  0.87608320302E+02  0.00000000000E+00 0.  1.
</event>
<event>
 7    1  0.2612213E-009  0.8877036E+02  0.7561462E-02  0.1305857E+00
         -1   -1    0    0    0  501 -0.00000000000E+00  0.00000000000E+00  0.42954534399E+02  0.42954534399E+02  0.00000000000E+00 0.  1.
          1   -1    0    0  501    0  0.00000000000E+00 -0.00000000000E+00 -0.39289592432E+03  0.39289592432E+03  0.00000000000E+00 0. -1.
         25    2    1    2    0    0  0.20718486142E+02 -0.83167905172E+01 -0.80534292401E+02  0.15043882256E+03  0.12509053684E+03 0.  0.
          5    1    3    3  502    0 -0.12408463662E+02 -0.39191674453E+02 -0.94273857248E+02  0.10293196723E+03  0.41800000000E+01 0. -1.
         -5    1    3    3    0  502  0.33126949804E+02  0.30874883936E+02  0.13739564847E+02  0.47506855332E+02  0.41800000000E+01 0. -1.
        -11    1    1    2    0    0 -0.53404180861E+02  0.18484015220E+02 -0.12799635631E+03  0.13991687739E+03  0.00000000000E+00 0. -1.
         11    1    1    2    0    0  0.32685694719E+02 -0.10167224703E+02 -0.14141074121E+03  0.14549475877E+03  0.00000000000E+00 0.  1.
</event>
<event>
 7    1  0.2612213E-009  0.1493244E+03  0.7561462E-02  0.1201306E+00
         -1   -1    0    0    0  501 -0.00000000000E+00  0.00000000000E+00  0.79576725123E+02  0.79576725123E+02  0.00000000000E+00 0.  1.
          1   -1    0    0  501    0  0.00000000000E+00 -0.00000000000E+00 -0.31049840927E+03  0.31049840927E+03  0.00000000000E+00 0. -1.
         25    2    1    2    0    0 -0.10514389216E+03  0.41683307926E+02 -0.12575902659E+03  0.21037020774E+03  0.12509018873E+03 0.  0.
          5    1    3    3  502    0 -0.49529039270E+02  0.79702394980E+02 -0.42255408277E+02  0.10299800690E+03  0.41800000000E+01 0. -1.
         -5    1    3    3    0  502 -0.55614852887E+02 -0.38019087054E+02 -0.83503618308E+02  0.10737220084E+03  0.41800000000E+01 0. -1.
        -11    1    1    2    0    0  0.41329590528E+02 -0.58125692825E+02 -0.84644195883E+02  0.11068591200E+03  0.00000000000E+00 0. -1.
         11    1    1    2    0    0  0.63814301629E+02  0.16442384899E+02 -0.20518461675E+02  0.69019014649E+02  0.00000000000E+00 0.  1.
</event>
<event>
 7    1  0.2612213E-009  0.8787238E+02  0.7561462E-02  0.1308087E+00
         -4   -1    0    0    0  501 -0.00000000000E+00  0.00000000000E+00  0.16981137971E+03  0.16981137971E+03  0.00000000000E+00 0.  1.
          4   -1    0    0  501    0  0.00000000000E+00 -0.00000000000E+00 -0.82624086773E+02  0.82624086773E+02  0.00000000000E+00 0. -1.
         25    2    1    2    0    0  0.43116262864E+02 -0.40188768227E+02  0.20763589457E+02  0.13983110695E+03  0.12508981817E+03 0.  0.
          5    1    3    3  502    0  0.26063576006E+02 -0.73416035445E+02 -0.23771585077E+02  0.81558475413E+02  0.41800000000E+01 0.  1.
         -5    1    3    3    0  502  0.17052686858E+02  0.33227267218E+02  0.44535174534E+02  0.58272631540E+02  0.41800000000E+01 0.  1.
        -11    1    1    2    0    0 -0.31723716446E+02  0.36061788579E+02  0.80680137115E+02  0.93894255978E+02  0.00000000000E+00 0.  1.
         11    1    1    2    0    0 -0.11392546418E+02  0.41269796474E+01 -0.14256433636E+02  0.18710103552E+02  0.00000000000E+00 0. -1.
</event>
<event>
 7    1  0.2612213E-009  0.1240205E+03  0.7561462E-02  0.1236608E+00
          1   -1    0    0  501    0  0.00000000000E+00  0.00000000000E+00  0.33708619008E+03  0.33708619008E+03  0.00000000000E+00 0. -1.
         -1   -1    0    0    0  501 -0.00000000000E+00 -0.00000000000E+00 -0.72136464886E+02  0.72136464886E+02  0.00000000000E+00 0.  1.
         25    2    1    2    0    0  0.86870481434E+02 -0.73166406866E+02  0.13977094275E+03  0.21927917936E+03  0.12509052093E+03 0.  0.
          5    1    3    3  502    0  0.71344051045E+02 -0.14626775720E+02  0.69943230611E+01  0.73282393128E+02  0.41800000000E+01 0.  1.
         -5    1    3    3    0  502  0.15526430389E+02 -0.58539631146E+02  0.13277661969E+03  0.14599678623E+03  0.41800000000E+01 0.  1.
        -11    1    1    2    0    0 -0.37106121219E+02  0.22643356204E+02  0.10879757455E+03  0.11716013844E+03  0.00000000000E+00 0. -1.
         11    1    1    2    0    0 -0.49764360214E+02  0.50523050661E+02  0.16381207892E+02  0.72783337157E+02  0.00000000000E+00 0.  1.
</event>
<event>
 7    1  0.2612213E-009  0.1277781E+03  0.7561462E-02  0.1230790E+00
         -2   -1    0    0    0  501 -0.00000000000E+00  0.00000000000E+00  0.10931710479E+03  0.10931710479E+03  0.00000000000E+00 0. -1.
          2   -1    0    0  501    0  0.00000000000E+00 -0.00000000000E+00 -0.20826993792E+03  0.20826993792E+03  0.00000000000E+00 0.  1.
         25    2    1    2    0    0  0.76357328560E+02  0.27852126291E+02 -0.12243695843E+03  0.19300435111E+03  0.12511470015E+03 0.  0.
          5    1    3    3  502    0  0.56736040143E+02 -0.36988590468E+02 -0.10127853856E+03  0.12190959293E+03  0.41800000000E+01 0. -1.
         -5    1    3    3    0  502  0.19621288417E+02  0.64840716759E+02 -0.21158419868E+02  0.71094758177E+02  0.41800000000E+01 0. -1.
        -11    1    1    2    0    0 -0.58585409508E+01 -0.46527811283E+02  0.21592948521E+02  0.51627658776E+02  0.00000000000E+00 0.  1.
         11    1    1    2    0    0 -0.70498787609E+02  0.18675684992E+02  0.18911767788E+01  0.72955032821E+02  0.00000000000E+00 0. -1.
</event>
<event>
 7    1  0.2612213E-009  0.8145583E+02  0.7561462E-02  0.1324970E+00
         -1   -1    0    0    0  501 -0.00000000000E+00  0.00000000000E+00  0.19172961713E+03  0.19172961713E+03  0.00000000000E+00 0.  1.
          1   -1    0    0  501    0  0.00000000000E+00 -0.00000000000E+00 -0.67422952221E+02  0.67422952221E+02  0.00000000000E+00 0. -1.
         25    2    1    2    0    0 -0.32346200334E+02  0.51090341661E+01  0.74958262331E+02  0.14946171017E+03  0.12509069833E+03 0.  0.
          5    1    3    3  502    0 -0.27513770016E+02 -0.56843395325E+02  0.19932500897E+02  0.66354774693E+02  0.41800000000E+01 0.  1.
         -5    1    3    3    0  502 -0.48324303183E+01  0.61952429491E+02  0.55025761434E+02  0.83106935475E+02  0.41800000000E+01 0.  1.
        -11    1    1    2    0    0  0.17810750258E+02 -0.11773078641E+02  0.75817764811E+02  0.78766500915E+02  0.00000000000E+00 0.  1.
         11    1    1    2    0    0  0.14535450077E+02  0.66640444747E+01 -0.26469362229E+02  0.30924358271E+02  0.00000000000E+00 0. -1.
</event>
<event>
 7    1  0.2612213E-009  0.8096261E+02  0.7561462E-02  0.1326342E+00
         -1   -1    0    0    0  501 -0.00000000000E+00  0.00000000000E+00  0.27757469418E+03  0.27757469418E+03  0.00000000000E+00 0.  1.
          1   -1    0    0  501    0  0.00000000000E+00 -0.00000000000E+00 -0.53613111339E+02  0.53613111339E+02  0.00000000000E+00 0. -1.
         25    2    1    2    0    0  0.21199655581E+02  0.45710542707E+02  0.15961491197E+03  0.20895081391E+03  0.12507854891E+03 0.  0.
          5    1    3    3  502    0  0.31066937358E+02  0.32535101517E+02 -0.31625886620E+01  0.45289753748E+02  0.41800000000E+01 0.  1.
         -5    1    3    3    0  502 -0.98672817773E+01  0.13175441191E+02  0.16277750063E+03  0.16366106016E+03  0.41800000000E+01 0.  1.
        -11    1    1    2    0    0 -0.29449970933E+02  0.18661165149E+02  0.68469114629E+01  0.35530551209E+02  0.00000000000E+00 0.  1.
         11    1    1    2    0    0  0.82503153517E+01 -0.64371707856E+02  0.57499759412E+02  0.86706440408E+02  0.00000000000E+00 0. -1.
</event>
<event>
 6    1  0.2612213E-009  0.8553290E+02  0.7561462E-02  0.1314045E+00
         -1   -1    0    0    0  501 -0.00000000000E+00  0.00000000000E+00  0.47228484373E+03  0.47228484373E+03  0.00000000000E+00 0.  1.
          1   -1    0    0  501    0  0.00000000000E+00 -0.00000000000E+00 -0.33307653933E+02  0.33307653933E+02  0.00000000000E+00 0. -1.
          5    1    1    2  502    0 -0.49198059890E+02 -0.33231886372E+02  0.21450040400E+02  0.63264397587E+02  0.41800000000E+01 0. -1.
         -5    1    1    2    0  502  0.82264823732E+01  0.46286453294E+02  0.12770005048E+03  0.13614288840E+03  0.41800000000E+01 0. -1.
        -11    1    1    2    0    0  0.51208323089E+02 -0.16085770634E+02  0.29056743979E+03  0.29548347067E+03  0.00000000000E+00 0.  1.
         11    1    1    2    0    0 -0.10236745572E+02  0.30312037128E+01 -0.74034087607E+00  0.10701741002E+02  0.00000000000E+00 0. -1.
</event>
<event>
 7    1  0.2612213E-009  0.1895540E+03  0.7561462E-02  0.1158864E+00
         -2   -1    0    0    0  501 -0.00000000000E+00  0.00000000000E+00  0.29971063183E+03  0.29971063183E+03  0.00000000000E+00 0. -1.
          2   -1    0    0  501    0  0.00000000000E+00 -0.00000000000E+00 -0.16326103842E+03  0.16326103842E+03  0.00000000000E+00 0.  1.
         25    2    1    2    0    0 -0.16332872668E+03  0.11893679737E+02 -0.38425666898E+02  0.20962250091E+03  0.12508928185E+03 0.  0.
          5    1    3    3  502    0  0.30337400341E+01 -0.33137156756E+02 -0.34885075663E+01  0.33718197187E+02  0.41800000000E+01 0. -1.
         -5    1    3    3    0  502 -0.16636246671E+03  0.45030836494E+02 -0.34937159331E+02  0.17590430372E+03  0.41800000000E+01 0. -1.
        -11    1    1    2    0    0  0.14536323247E+03 -0.29153475896E+02  0.17375613113E+03  0.22841100590E+03  0.00000000000E+00 0. -1.
         11    1    1    2    0    0  0.17965494211E+02  0.17259796158E+02  0.11191291756E+01  0.24938163440E+02  0.00000000000E+00 0.  1.
</event>
<event>
 7    1  0.2612213E-009  0.6579691E+02  0.7561462E-02  0.1374999E+00
          2   -1    0    0  501    0  0.00000000000E+00  0.00000000000E+00  0.64463863942E+02  0.64463863942E+02  0.00000000000E+00 0. -1.
         -2   -1    0    0    0  501 -0.00000000000E+00 -0.00000000000E+00 -0.19879137343E+03  0.19879137343E+03  0.00000000000E+00 0.  1.
         25    2    1    2    0    0  0.23027158645E+01 -0.25563643236E+01 -0.34487309705E+02  0.12980002132E+03  0.12508730354E+03 0.  0.
          5    1    3    3  502    0  0.36996224924E+02  0.10440673578E+02  0.34215796242E+02  0.51632561779E+02  0.41800000000E+01 0.  1.
         -5    1    3    3    0  502 -0.34693509060E+02 -0.12997037902E+02 -0.68703105947E+02  0.78167459546E+02  0.41800000000E+01 0.  1.
        -11    1    1    2    0    0 -0.21465897246E+02  0.20286826796E+02  0.73722614513E+00  0.29544603372E+02  0.00000000000E+00 0. -1.
         11    1    1    2    0    0  0.19163181382E+02 -0.17730462472E+02 -0.10057742593E+03  0.10391061268E+03  0.00000000000E+00 0.  1.
</event>
<event>
 7    1  0.2612213E-009  0.1421599E+03  0.7561462E-02  0.1210452E+00
          2   -1    0    0  501    0  0.00000000000E+00  0.00000000000E+00  0.32794220389E+03  0.32794220389E+03  0.00000000000E+00 0.  1.
         -2   -1    0    0    0  501 -0.00000000000E+00 -0.00000000000E+00 -0.90335769410E+02  0.90335769410E+02  0.00000000000E+00 0. -1.
         25    2    1    2    0    0 -0.97961671187E+02 -0.65348985972E+02  0.50636788874E+02  0.17910418679E+03  0.12508895374E+03 0.  0.
          5    1    3    3  502    0  0.15738024863E+02 -0.11103547143E+02 -0.25208144038E+02  0.31998392328E+02  0.41800000000E+01 0.  1.
         -5    1    3    3    0  502 -0.11369969605E+03 -0.54245438829E+02  0.75844932912E+02  0.14710579446E+03  0.41800000000E+01 0.  1.
        -11    1    1    2    0    0  0.86149558708E+02  0.15748834121E+02  0.71889816454E+02  0.11330453632E+03  0.00000000000E+00 0. -1.
         11    1    1    2    0    0  0.11812112479E+02  0.49600151851E+02  0.11507982915E+03  0.12586925018E+03  0.00000000000E+00 0.  1.
</event>
<event>
 7    1  0.2612213E-009  0.9279307E+02  0.7561462E-02  0.1296225E+00
         -2   -1    0    0    0  501 -0.00000000000E+00  0.00000000000E+00  0.59932535529E+02  0.59932535529E+02  0.00000000000E+00 0.  1.
          2   -1    0    0  501    0  0.00000000000E+00 -0.00000000000E+00 -0.48546827096E+03  0.48546827096E+03  0.00000000000E+00 0. -1.
         25    2    1    2    0    0  0.25341007627E+01 -0.70173373980E+02 -0.40248803144E+03  0.42728674040E+03  0.12508644604E+03 0.  0.
          5    1    3    3  502    0  0.16119525633E+01  0.24049547886E+01 -0.30810894846E+03  0.30815090251E+03  0.41800000000E+01 0.  1.
         -5    1    3    3    0  502  0.92214819939E+00 -0.72578328768E+02 -0.94379082984E+02  0.11913583789E+03  0.41800000000E+01 0.  1.
        -11    1    1    2    0    0 -0.39093535477E+02  0.56622308934E+02  0.66137174293E+01  0.69124030867E+02  0.00000000000E+00 0.  1.
         11    1    1    2    0    0  0.36559434714E+02  0.13551065045E+02 -0.29661421415E+02  0.48990035220E+02  0.00000000000E+00 0. -1.
</event>
<event>
 7    1  0.2612213E-009  0.1196541E+03  0.7561462E-02  0.1243669E+00
         -2   -1    0    0    0  501 -0.00000000000E+00  0.00000000000E+00  0.44443281550E+02  0.44443281550E+02  0.00000000000E+00 0.  1.
          2   -1    0    0  501    0  0.00000000000E+00 -0.00000000000E+00 -0.59244782470E+03  0.59244782470E+03  0.00000000000E+00 0. -1.
         25    2    1    2    0    0 -0.74557818482E+02  0.48905924276E+02 -0.45082960325E+03  0.47628227012E+03  0.12508721731E+03 0.  0.
          5    1    3    3  502    0  0.23489104060E+02  0.39807618671E+02 -0.22730011428E+03  0.23198965250E+03  0.41800000000E+01 0. -1.
         -5    1    3    3    0  502 -0.98046922542E+02  0.90983056051E+01 -0.22352948897E+03  0.24429261762E+03  0.41800000000E+01 0. -1.
        -11    1    1    2    0    0  0.10796256442E+02 -0.23208269129E+02  0.14539037196E+02  0.29437501792E+02  0.00000000000E+00 0.  1.
         11    1    1    2    0    0  0.63761562040E+02 -0.25697655147E+02 -0.11171397709E+03  0.13117133434E+03  0.00000000000E+00 0. -1.
</event>
<event>
 7    1  0.2612213E-009  0.8279108E+02  0.7561462E-02  0.1321312E+00
          2   -1    0    0  501    0  0.00000000000E+00  0.00000000000E+00  0.52237415315E+02  0.52237415315E+02  0.00000000000E+00 0. -1.
         -2   -1    0    0    0  501 -0.00000000000E+00 -0.00000000000E+00 -0.28356152119E+03  0.28356152119E+03  0.00000000000E+00 0.  1.
         25    2    1    2    0    0 -0.48963441934E+02 -0.19465698111E+02 -0.14537181409E+03  0.19889106685E+03  0.12509340547E+03 0.  0.
          5    1    3    3  502    0 -0.78223293428E+02 -0.15334019209E+02 -0.14879276819E+03  0.16885134304E+03  0.41800000000E+01 0. -1.
         -5    1    3    3    0  502  0.29259851493E+02 -0.41316789017E+01  0.34209540971E+01  0.30039723815E+02  0.41800000000E+01 0. -1.
        -11    1    1    2    0    0  0.34655391141E+02  0.22461586575E+02 -0.10503922178E+03  0.11286610261E+03  0.00000000000E+00 0.  1.
         11    1    1    2    0    0  0.14308050793E+02 -0.29958884644E+01  0.19086930004E+02  0.24041767035E+02  0.00000000000E+00 0. -1.
</event>
<event>
 7    1  0.2612213E-009  0.9446273E+02  0.7561462E-02  0.1292391E+00
          1   -1    0    0  501    0  0.00000000000E+00  0.00000000000E+00  0.41281524276E+02  0.41281524276E+02  0.00000000000E+00 0. -1.
         -1   -1    0    0    0  501 -0.00000000000E+00 -0.00000000000E+00 -0.39305819613E+03  0.39305819613E+03  0.00000000000E+00 0.  1.
         25    2    1    2    0    0  0.18508016986E+02 -0.58851809103E+02 -0.24126111007E+03  0.27867357692E+03  0.12508380037E+03 0.  0.
          5    1    3    3  502    0 -0.34068468952E+02  0.13221070215E+02 -0.24392756261E+02  0.44135430579E+02  0.41800000000E+01 0.  1.
         -5    1    3    3    0  502  0.52576485938E+02 -0.72072879318E+02 -0.21686835381E+03  0.23453814634E+03  0.41800000000E+01 0.  1.
        -11    1    1    2    0    0 -0.19559885274E+02  0.46628326110E+02 -0.12608351081E+03  0.13584491749E+03  0.00000000000E+00 0.  1.
         11    1    1    2    0    0  0.10518682884E+01  0.12223482993E+02  0.15567949024E+02  0.19821226002E+02  0.00000000000E+00 0. -1.
</event>
<event>
 7    1  0.2612213E-009  0.9048146E+02  0.7561462E-02  0.1301690E+00
         -4   -1    0    0    0  501 -0.00000000000E+00  0.00000000000E+00  0.11141189067E+03  0.11141189067E+03  0.00000000000E+00 0.  1.
          4   -1    0    0  501    0  0.00000000000E+00 -0.00000000000E+00 -0.11558977196E+03  0.11558977196E+03  0.00000000000E+00 0. -1.
         25    2    1    2    0    0  0.57765757357E+01  0.15150704266E+01  0.20531699976E+02  0.12690520066E+03  0.12509082694E+03 0.  0.
          5    1    3    3  502    0 -0.22304941442E+02  0.37596991325E+02  0.54355626945E+02  0.69878829054E+02  0.41800000000E+01 0. -1.
         -5    1    3    3    0  502  0.28081517178E+02 -0.36081920898E+02 -0.33823926968E+02  0.57026371603E+02  0.41800000000E+01 0. -1.
        -11    1    1    2    0    0 -0.24000909332E+02  0.39519181258E+02 -0.29649525601E+02  0.54926347999E+02  0.00000000000E+00 0.  1.
         11    1    1    2    0    0  0.18224333597E+02 -0.41034251685E+02  0.49399443262E+01  0.45170113973E+02  0.00000000000E+00 0. -1.
</event>
<event>
 7    1  0.2612213E-009  0.9958304E+02  0.7561462E-02  0.1281175E+00
         -2   -1    0    0    0  501 -0.00000000000E+00  0.00000000000E+00  0.40794175712E+02  0.40794175712E+02  0.00000000000E+00 0.  1.
          2   -1    0    0  501    0  0.00000000000E+00 -0.00000000000E+00 -0.37349980770E+03  0.37349980770E+03  0.00000000000E+00 0. -1.
         25    2    1    2    0    0  0.39509834846E+02 -0.15402218919E+02 -0.24230270355E+03  0.27596487429E+03  0.12509099208E+03 0.  0.
          5    1    3    3  502    0 -0.33924641453E+02  0.27684792024E+02 -0.57030343430E+02  0.72022645598E+02  0.41800000000E+01 0.  1.
         -5    1    3    3    0  502  0.73434476299E+02 -0.43087010943E+02 -0.18527236012E+03  0.20394222870E+03  0.41800000000E+01 0.  1.
        -11    1    1    2    0    0 -0.17012282038E+02  0.35756150193E+02  0.33993823243E+01  0.39742619653E+02  0.00000000000E+00 0.  1.
         11    1    1    2    0    0 -0.22497552808E+02 -0.20353931273E+02 -0.93802310765E+02  0.98586489467E+02  0.00000000000E+00 0. -1.
</event>
<event>
 7    1  0.2612213E-009  0.8724760E+02  0.7561462E-02  0.1309657E+00
          2   -1    0    0  501    0  0.00000000000E+00  0.00000000000E+00  0.16196396005E+03  0.16196396005E+03  0.00000000000E+00 0. -1.
         -2   -1    0    0    0  501 -0.00000000000E+00 -0.00000000000E+00 -0.79166364904E+02  0.79166364904E+02  0.00000000000E+00 0.  1.
         25    2    1    2    0    0  0.24897873261E+02  0.21553473853E+02  0.33534228096E+02  0.13362993273E+03  0.12509179885E+03 0.  0.
          5    1    3    3  502    0  0.11285780199E+02 -0.26582135678E+02 -0.36959566668E+02  0.47089921854E+02  0.41800000000E+01 0. -1.
         -5    1    3    3    0  502  0.13612093062E+02  0.48135609531E+02  0.70493794764E+02  0.86540010878E+02  0.41800000000E+01 0. -1.
        -11    1    1    2    0    0 -0.51240653295E+02  0.11834138770E+02  0.22147120420E+02  0.57062652702E+02  0.00000000000E+00 0.  1.
         11    1    1    2    0    0  0.26342780034E+02 -0.33387612623E+02  0.27116246633E+02  0.50437739521E+02  0.00000000000E+00 0. -1.
</event>
<event>
 7    1  0.2612213E-009  0.7788884E+02  0.7561462E-02  0.1335152E+00
         -1   -1    0    0    0  501 -0.00000000000E+00  0.00000000000E+00  0.77928953567E+02  0.77928953567E+02  0.00000000000E+00 0.  1.
          1   -1    0    0  501    0  0.00000000000E+00 -0.00000000000E+00 -0.18448187088E+03  0.18448187088E+03  0.00000000000E+00 0. -1.
         25    2    1    2    0    0 -0.71251195497E+01 -0.30941163634E+02 -0.10394316199E+03  0.16571017622E+03  0.12509020202E+03 0.  0.
          5    1    3    3  502    0  0.37936108163E+02 -0.22651003868E+02 -0.11064756622E+03  0.11921649462E+03  0.41800000000E+01 0.  1.
         -5    1    3    3    0  502 -0.45061227713E+02 -0.82901597661E+01  0.67044042323E+01  0.46493681593E+02  0.41800000000E+01 0.  1.
        -11    1    1    2    0    0  0.10109989580E+02  0.47499517553E+02 -0.35230298709E+02  0.59996583271E+02  0.00000000000E+00 0. -1.
         11    1    1    2    0    0 -0.29848700303E+01 -0.16558353919E+02  0.32620543389E+02  0.36704064960E+02  0.00000000000E+00 0.  1.
</event>
<event>
 7    1  0.2612213E-009  0.1050678E+03  0.7561462E-02  0.1269986E+00
          2   -1    0    0  501    0  0.00000000000E+00  0.00000000000E+00  0.20728831214E+02  0.20728831214E+02  0.00000000000E+00 0.  1.
         -2   -1    0    0    0  501 -0.00000000000E+00 -0.00000000000E+00 -0.60715741080E+03  0.60715741080E+03  0.00000000000E+00 0. -1.
         25    2    1    2    0    0  0.13097760140E+02  0.18136641907E+02 -0.39737089793E+03  0.41719507396E+03  0.12509040778E+03 0.  0.
          5    1    3    3  502    0  0.68186119124E+02 -0.40863835452E+00 -0.19619898015E+03  0.20775231898E+03  0.41800000000E+01 0.  1.
         -5    1    3    3    0  502 -0.55088358984E+02  0.18545280262E+02 -0.20117191777E+03  0.20944275499E+03  0.41800000000E+01 0.  1.
        -11    1    1    2    0    0 -0.73069023577E+01 -0.50317976748E+02 -0.15648223307E+03  0.16453564620E+03  0.00000000000E+00 0.  1.
         11    1    1    2    0    0 -0.57908577819E+01  0.32181334840E+02 -0.32575448585E+02  0.46155521842E+02  0.00000000000E+00 0. -1.
</event>
<event>
 7    1  0.2612213E-009  0.8105773E+02  0.7561462E-02  0.1326076E+00
          1   -1    0    0  501    0  0.00000000000E+00  0.00000000000E+00  0.42066969889E+03  0.42066969889E+03  0.00000000000E+00 0. -1.
         -1   -1    0    0    0  501 -0.00000000000E+00 -0.00000000000E+00 -0.44632505901E+02  0.44632505901E+02  0.00000000000E+00 0.  1.
         25    2    1    2    0    0 -0.57888575267E+02 -0.65210159011E+01  0.30895925849E+03  0.33837495123E+03  0.12509265932E+03 0.  0.
          5    1    3    3  502    0 -0.40386196971E+02  0.62629784124E+01  0.31321269792E+03  0.31589545160E+03  0.41800000000E+01 0.  1.
         -5    1    3    3    0  502 -0.17502378296E+02 -0.12783994313E+02 -0.42534394248E+01  0.22479499629E+02  0.41800000000E+01 0.  1.
        -11    1    1    2    0    0  0.17052411180E+02  0.41705391598E+02  0.59827212433E+01  0.45452363732E+02  0.00000000000E+00 0.  1.
         11    1    1    2    0    0  0.40836164088E+02 -0.35184375697E+02  0.61095213255E+02  0.81474889833E+02  0.00000000000E+00 0. -1.
</event>
<event>
 7    1  0.2612213E-009  0.1064553E+03  0.7561462E-02  0.1267279E+00
         -1   -1    0    0    0  501 -0.00000000000E+00  0.00000000000E+00  0.18535718396E+02  0.18535718396E+02  0.00000000000E+00 0.  1.
          1   -1    0    0  501    0  0.00000000000E+00 -0.00000000000E+00 -0.81691967500E+03  0.81691967500E+03  0.00000000000E+00 0. -1.
         25    2    1    2    0    0  0.26770970200E+02  0.42936757080E+02 -0.34382096937E+03  0.36935123159E+03  0.12508886178E+03 0.  0.
          5    1    3    3  502    0  0.67340299928E+02  0.22048978041E+02 -0.10881275264E+03  0.12991751600E+03  0.41800000000E+01 0. -1.
         -5    1    3    3    0  502 -0.40569329728E+02  0.20887779039E+02 -0.23500821673E+03  0.23943371559E+03  0.41800000000E+01 0. -1.
        -11    1    1    2    0    0 -0.30905585181E+02  0.17508795302E+02 -0.94021432883E+02  0.10050742734E+03  0.00000000000E+00 0.  1.
         11    1    1    2    0    0  0.41346149818E+01 -0.60445552382E+02 -0.36054155435E+03  0.36559673447E+03  0.00000000000E+00 0. -1.
</event>
<event>
 7    1  0.2612213E-009  0.1051765E+03  0.7561462E-02  0.1269772E+00
          2   -1    0    0  501    0  0.00000000000E+00  0.00000000000E+00  0.26756460484E+03  0.26756460484E+03  0.00000000000E+00 0. -1.
         -2   -1    0    0    0  501 -0.00000000000E+00 -0.00000000000E+00 -0.60086464282E+02  0.60086464282E+02  0.00000000000E+00 0.  1.
         25    2    1    2    0    0 -0.65570738676E+02 -0.92049754488E+00  0.12860997026E+03  0.19101965389E+03  0.12509042583E+03 0.  0.
          5    1    3    3  502    0 -0.13134464449E+02  0.41756476508E+02  0.11335579261E+03  0.12158587749E+03  0.41800000000E+01 0.  1.
         -5    1    3    3    0  502 -0.52436274227E+02 -0.42676974053E+02  0.15254177650E+02  0.69433776398E+02  0.41800000000E+01 0.  1.
        -11    1    1    2    0    0  0.67246658397E+02 -0.25684795427E+02  0.24431532196E+02  0.76017902807E+02  0.00000000000E+00 0.  1.
         11    1    1    2    0    0 -0.16759197211E+01  0.26605292972E+02  0.54436638102E+02  0.60613512428E+02  0.00000000000E+00 0. -1.
</event>
<event>
 7    1  0.2612213E-009  0.1053760E+03  0.7561462E-02  0.1269381E+00
          2   -1    0    0  501    0  0.00000000000E+00  0.00000000000E+00  0.77193420175E+03  0.77193420175E+03  0.00000000000E+00 0. -1.
         -2   -1    0    0    0  501 -0.00000000000E+00 -0.00000000000E+00 -0.20200475541E+02  0.20200475541E+02  0.00000000000E+00 0.  1.
         25    2    1    2    0    0  0.89225364505E+01 -0.40928301150E+02  0.56526487999E+03  0.58045416927E+03  0.12509164873E+03 0.  0.
          5    1    3    3  502    0  0.62371489459E+02 -0.18130399286E+02  0.39909644139E+03  0.40436908389E+03  0.41800000000E+01 0.  1.
         -5    1    3    3    0  502 -0.53448953009E+02 -0.22797901864E+02  0.16616843860E+03  0.17608508538E+03  0.41800000000E+01 0.  1.
        -11    1    1    2    0    0 -0.42553336248E+02  0.29922234429E+02  0.55724512391E+02  0.76232196743E+02  0.00000000000E+00 0. -1.
         11    1    1    2    0    0  0.33630799798E+02  0.11006066721E+02  0.13074433383E+03  0.13544831128E+03  0.00000000000E+00 0.  1.
</event>
<event>
 7    1  0.2612213E-009  0.9883140E+02  0.7561462E-02  0.1282773E+00
         -1   -1    0    0    0  501 -0.00000000000E+00  0.00000000000E+00  0.10262734571E+03  0.10262734571E+03  0.00000000000E+00 0.  1.
          1   -1    0    0  501    0  0.00000000000E+00 -0.00000000000E+00 -0.21172395928E+03  0.21172395928E+03  0.00000000000E+00 0. -1.
         25    2    1    2    0    0 -0.31772543190E+02 -0.76195380199E+02  0.13913724648E+01  0.14988281100E+03  0.12509072968E+03 0.  0.
          5    1    3    3  502    0 -0.67397021788E+01  0.12734255473E+02  0.45146616443E+02  0.47573881743E+02  0.41800000000E+01 0.  1.
         -5    1    3    3    0  502 -0.25032841011E+02 -0.88929635672E+02 -0.43755243978E+02  0.10230892926E+03  0.41800000000E+01 0.  1.
        -11    1    1    2    0    0  0.39290470527E+02  0.54252561758E+02 -0.12153850709E+03  0.13877568316E+03  0.00000000000E+00 0. -1.
         11    1    1    2    0    0 -0.75179273369E+01  0.21942818442E+02  0.11050521058E+02  0.25692810828E+02  0.00000000000E+00 0.  1.
</event>
<event>
 7    1  0.2612213E-009  0.1196804E+03  0.7561462E-02  0.1243625E+00
          2   -1    0    0  501    0  0.00000000000E+00  0.00000000000E+00  0.58048849328E+03  0.58048849328E+03  0.00000000000E+00 0. -1.
         -2   -1    0    0    0  501 -0.00000000000E+00 -0.00000000000E+00 -0.29750234238E+02  0.29750234238E+02  0.00000000000E+00 0.  1.
         25    2    1    2    0    0 -0.54535746855E+02  0.48610300525E+02  0.34476431746E+03  0.37396635321E+03  0.12510511476E+03 0.  0.
          5    1    3    3  502    0  0.28781673606E+02  0.52137728381E+02  0.17237050754E+03  0.18241653359E+03  0.41800000000E+01 0.  1.
         -5    1    3    3    0  502 -0.83317420461E+02 -0.35274278557E+01  0.17239380992E+03  0.19154981962E+03  0.41800000000E+01 0.  1.
        -11    1    1    2    0    0  0.64061386013E+02 -0.55214107103E+02  0.20797236467E+03  0.22451049701E+03  0.00000000000E+00 0. -1.
         11    1    1    2    0    0 -0.95256391584E+01  0.66038065776E+01 -0.19984230893E+01  0.11761877296E+02  0.00000000000E+00 0.  1.
</event>
<event>
 6    1  0.2612213E-009  0.1412494E+03  0.7561462E-02  0.1211658E+00
         -4   -1    0    0    0  501 -0.00000000000E+00  0.00000000000E+00  0.12382370664E+03  0.12382370664E+03  0.00000000000E+00 0.  1.
          4   -1    0    0  501    0  0.00000000000E+00 -0.00000000000E+00 -0.20397303274E+03  0.20397303274E+03  0.00000000000E+00 0. -1.
          5    1    1    2  502    0  0.83653229902E+02  0.99471947710E+02 -0.70775656335E+02  0.14805133294E+03  0.41800000000E+01 0.  1.
         -5    1    1    2    0  502 -0.36166969876E+01 -0.32377016091E+02 -0.17377347525E+02  0.37159067199E+02  0.41800000000E+01 0.  1.
        -11    1    1    2    0    0 -0.82956191562E+02 -0.39525443844E+02 -0.28991411834E+02  0.96356070850E+02  0.00000000000E+00 0. -1.
         11    1    1    2    0    0  0.29196586472E+01 -0.27569487774E+02  0.36995089594E+02  0.46230268405E+02  0.00000000000E+00 0.  1.
</event>
<event>
 7    1  0.2612213E-009  0.1784755E+03  0.7561462E-02  0.1169287E+00
          2   -1    0    0  501    0  0.00000000000E+00  0.00000000000E+00  0.41035606877E+03  0.41035606877E+03  0.00000000000E+00 0. -1.
         -2   -1    0    0    0  501 -0.00000000000E+00 -0.00000000000E+00 -0.10388765346E+03  0.10388765346E+03  0.00000000000E+00 0.  1.
         25    2    1    2    0    0  0.11970669487E+03  0.12416634943E+03  0.19788439767E+03  0.29077985767E+03  0.12509082964E+03 0.  0.
          5    1    3    3  502    0  0.19757601317E+02  0.61503378680E+02  0.15004221774E+03  0.16341103972E+03  0.41800000000E+01 0. -1.
         -5    1    3    3    0  502  0.99949093555E+02  0.62662970747E+02  0.47842179928E+02  0.12736881795E+03  0.41800000000E+01 0. -1.
        -11    1    1    2    0    0 -0.77361433183E+02 -0.96115547145E+02  0.25354931255E+02  0.12595976455E+03  0.00000000000E+00 0.  1.
         11    1    1    2    0    0 -0.42345261689E+02 -0.28050802282E+02  0.83229086392E+02  0.97504100005E+02  0.00000000000E+00 0. -1.
</event>
<event>
 7    1  0.2961547E-009  0.1649136E+03  0.7561462E-02  0.1183258E+00
          2   -1    0    0  501    0  0.00000000000E+00  0.00000000000E+00  0.90538348120E+03  0.90538348120E+03  0.00000000000E+00 0. -1.
         -2   -1    0    0    0  501 -0.00000000000E+00 -0.00000000000E+00 -0.46475081614E+02  0.46475081614E+02  0.00000000000E+00 0.  1.
         25    2    1    2    0    0  0.16234052741E+03  0.38899726875E+01  0.58997427042E+03  0.62456918172E+03  0.12508974484E+03 0.  0.
          5    1    3    3  502    0  0.38414105173E+02 -0.10925312340E+02  0.28165452693E+02  0.49048660036E+02  0.41800000000E+01 0.  1.
         -5    1    3    3    0  502  0.12392642224E+03  0.14815285028E+02  0.56180881773E+03  0.57552052168E+03  0.41800000000E+01 0.  1.
        -11    1    1    2    0    0 -0.12453156952E+03  0.89758457497E+01  0.12029020858E+03  0.17337361937E+03  0.00000000000E+00 0.  1.
         11    1    1    2    0    0 -0.37808957898E+02 -0.12865818437E+02  0.14864392059E+03  0.15391576173E+03  0.00000000000E+00 0. -1.
</event>
<event>
 7    1  0.2612213E-009  0.1136315E+03  0.7561462E-02  0.1253989E+00
          4   -1    0    0  501    0  0.00000000000E+00  0.00000000000E+00  0.10513643537E+03  0.10513643537E+03  0.00000000000E+00 0. -1.
         -4   -1    0    0    0  501 -0.00000000000E+00 -0.00000000000E+00 -0.20223951888E+03  0.20223951888E+03  0.00000000000E+00 0.  1.
         25    2    1    2    0    0  0.43360704567E+02  0.65284950267E+02  0.79520599205E+01  0.14782819308E+03  0.12509062307E+03 0.  0.
          5    1    3    3  502    0  0.10832753634E+02 -0.30523322009E+02  0.29825126178E+02  0.44227053816E+02  0.41800000000E+01 0. -1.
         -5    1    3    3    0  502  0.32527950933E+02  0.95808272276E+02 -0.21873066257E+02  0.10360113926E+03  0.41800000000E+01 0. -1.
        -11    1    1    2    0    0 -0.52242917117E+01 -0.53024382184E+02 -0.10690435234E+03  0.11944630124E+03  0.00000000000E+00 0.  1.
         11    1    1    2    0    0 -0.38136412855E+02 -0.12260568083E+02  0.18492089048E+01  0.40101459933E+02  0.00000000000E+00 0. -1.
</event>
<event>
 7    1  0.2612213E-009  0.1178050E+03  0.7561462E-02  0.1246763E+00
          2   -1    0    0  501    0  0.00000000000E+00  0.00000000000E+00  0.59946008777E+03  0.59946008777E+03  0.00000000000E+00 0. -1.
         -2   -1    0    0    0  501 -0.00000000000E+00 -0.00000000000E+00 -0.80066997669E+02  0.80066997669E+02  0.00000000000E+00 0.  1.
         25    2    1    2    0    0 -0.61591238331E+02 -0.82165372555E+02  0.51884893466E+03  0.54350396498E+03  0.12509082246E+03 0.  0.
          5    1    3    3  502    0  0.19423050374E+02 -0.92365535001E+01  0.11862866162E+02  0.24915232288E+02  0.41800000000E+01 0. -1.
         -5    1    3    3    0  502 -0.81014288704E+02 -0.72928819055E+02  0.50698606850E+03  0.51858873269E+03  0.41800000000E+01 0. -1.
        -11    1    1    2    0    0  0.48460028001E+02  0.75937267706E+02 -0.35757932527E+02  0.96919929215E+02  0.00000000000E+00 0.  1.
         11    1    1    2    0    0  0.13131210330E+02  0.62281048496E+01  0.36302087967E+02  0.39103191245E+02  0.00000000000E+00 0. -1.
</event>
<event>
 7    1  0.2612213E-009  0.7631313E+02  0.7561462E-02  0.1339852E+00
          2   -1    0    0  501    0  0.00000000000E+00  0.00000000000E+00  0.44006726948E+03  0.44006726948E+03  0.00000000000E+00 0. -1.
         -2   -1    0    0    0  501 -0.00000000000E+00 -0.00000000000E+00 -0.46843055728E+02  0.46843055728E+02  0.00000000000E+00 0.  1.
         25    2    1    2    0    0 -0.27247817886E+02  0.39784949995E+01  0.63427076919E+02  0.14292997181E+03  0.12509081003E+03 0.  0.
          5    1    3    3  502    0  0.14009261834E+02  0.18169449883E+02 -0.31020068737E+02  0.38808573675E+02  0.41800000000E+01 0.  1.
         -5    1    3    3    0  502 -0.41257079721E+02 -0.14190954884E+02  0.94447145656E+02  0.10412139814E+03  0.41800000000E+01 0.  1.
        -11    1    1    2    0    0  0.24832825543E+02  0.36926575693E+02  0.86692645421E+02  0.97446682791E+02  0.00000000000E+00 0.  1.
         11    1    1    2    0    0  0.24149923434E+01 -0.40905070693E+02  0.24310449141E+03  0.24653367060E+03  0.00000000000E+00 0. -1.
</event>
<event>
 7    1  0.2612213E-009  0.9669366E+02  0.7561462E-02  0.1287406E+00
         -2   -1    0    0    0  501 -0.00000000000E+00  0.00000000000E+00  0.62294677500E+02  0.62294677500E+02  0.00000000000E+00 0.  1.
          2   -1    0    0  501    0  0.00000000000E+00 -0.00000000000E+00 -0.20237380084E+03  0.20237380084E+03  0.00000000000E+00 0. -1.
         25    2    1    2    0    0 -0.57288499958E+01  0.26195174734E+02 -0.55696762499E+02  0.13952763752E+03  0.12508727104E+03 0.  0.
          5    1    3    3  502    0 -0.40373612772E+02 -0.32234252150E+02 -0.48684231059E+02  0.71110494118E+02  0.41800000000E+01 0. -1.
         -5    1    3    3    0  502  0.34644762776E+02  0.58429426884E+02 -0.70125314409E+01  0.68417143400E+02  0.41800000000E+01 0. -1.
        -11    1    1    2    0    0  0.16234864600E+02 -0.47253704486E+02 -0.88132147559E+02  0.10131021098E+03  0.00000000000E+00 0. -1.
         11    1    1    2    0    0 -0.10506014604E+02  0.21058529752E+02  0.37497867172E+01  0.23830629841E+02  0.00000000000E+00 0.  1.
</event>
<event>
 7    1  0.2612213E-009  0.1343847E+03  0.7561462E-02  0.1221091E+00
          1   -1    0    0  501    0  0.00000000000E+00  0.00000000000E+00  0.18681561304E+03  0.18681561304E+03  0.00000000000E+00 0. -1.
         -1   -1    0    0    0  501 -0.00000000000E+00 -0.00000000000E+00 -0.11423338076E+03  0.11423338076E+03  0.00000000000E+00 0.  1.
         25    2    1    2    0    0 -0.64656730836E+02  0.62119555725E+02  0.79834610389E+02  0.17337897287E+03  0.12508945268E+03 0.  0.
          5    1    3    3  502    0  0.11648980364E+02  0.75214006701E+02  0.43347482248E+02  0.87688780154E+02  0.41800000000E+01 0.  1.
         -5    1    3    3    0  502 -0.76305711200E+02 -0.13094450977E+02  0.36487128141E+02  0.85690192718E+02  0.41800000000E+01 0.  1.
        -11    1    1    2    0    0  0.34573125156E+02 -0.74768908721E+02 -0.30241480709E+02  0.87750999138E+02  0.00000000000E+00 0.  1.
         11    1    1    2    0    0  0.30083605680E+02  0.12649352996E+02  0.22989102603E+02  0.39919021787E+02  0.00000000000E+00 0. -1.
</event>
<event>
 7    1  0.2612213E-009  0.1353347E+03  0.7561462E-02  0.1219748E+00
          1   -1    0    0  501    0  0.00000000000E+00  0.00000000000E+00  0.18213842808E+03  0.18213842808E+03  0.00000000000E+00 0.  1.
         -1   -1    0    0    0  501 -0.00000000000E+00 -0.00000000000E+00 -0.12209488284E+03  0.12209488284E+03  0.00000000000E+00 0. -1.
         25    2    1    2    0    0  0.15971206062E+02  0.95540547317E+02 -0.13000744120E+01  0.15823964946E+03  0.12512002583E+03 0.  0.
          5    1    3    3  502    0  0.44714146839E+02  0.10178478548E+03 -0.31754038035E+02  0.11569480894E+03  0.41800000000E+01 0.  1.
         -5    1    3    3    0  502 -0.28742940777E+02 -0.62442381678E+01  0.30453963623E+02  0.42544840523E+02  0.41800000000E+01 0.  1.
        -11    1    1    2    0    0  0.17988518485E+02  0.87677421212E+01  0.21275004777E+02  0.29207634746E+02  0.00000000000E+00 0.  1.
         11    1    1    2    0    0 -0.33959724547E+02 -0.10430828944E+03  0.40068614876E+02  0.11678602671E+03  0.00000000000E+00 0. -1.
</event>
<event>
 7    1  0.2612213E-009  0.8726607E+02  0.7561462E-02  0.1309611E+00
          2   -1    0    0  501    0  0.00000000000E+00  0.00000000000E+00  0.12515359627E+04  0.12515359627E+04  0.00000000000E+00 0. -1.
         -2   -1    0    0    0  501 -0.00000000000E+00 -0.00000000000E+00 -0.19821334423E+02  0.19821334423E+02  0.00000000000E+00 0.  1.
         25    2    1    2    0    0 -0.59960793144E+02  0.96814865830E+01  0.10531862049E+04  0.10623264404E+04  0.12508899148E+03 0.  0.
          5    1    3    3  502    0 -0.30374469381E+01 -0.27603019602E+02  0.78854281422E+03  0.78904270799E+03  0.41800000000E+01 0. -1.
         -5    1    3    3    0  502 -0.56923346206E+02  0.37284506185E+02  0.26464339071E+03  0.27328373239E+03  0.41800000000E+01 0. -1.
        -11    1    1    2    0    0  0.38643093875E+02  0.18577246585E+02  0.21316531973E+02  0.47883163328E+02  0.00000000000E+00 0.  1.
         11    1    1    2    0    0  0.21317699268E+02 -0.28258733168E+02  0.15721189142E+03  0.16114769345E+03  0.00000000000E+00 0. -1.
</event>
<event>
 7    1  0.2612213E-009  0.9300840E+02  0.7561462E-02  0.1295726E+00
          2   -1    0    0  501    0  0.00000000000E+00  0.00000000000E+00  0.36067923563E+02  0.36067923563E+02  0.00000000000E+00 0. -1.
         -2   -1    0    0    0  501 -0.00000000000E+00 -0.00000000000E+00 -0.39617133635E+03  0.39617133635E+03  0.00000000000E+00 0.  1.
         25    2    1    2    0    0  0.24748453089E+02 -0.43798911047E+02 -0.20096033606E+03  0.24200126850E+03  0.12509487099E+03 0.  0.
          5    1    3    3  502    0  0.10193092993E+02  0.43968686494E+02 -0.77223733970E+02  0.89543966994E+02  0.41800000000E+01 0. -1.
         -5    1    3    3    0  502  0.14555360096E+02 -0.87767597541E+02 -0.12373660209E+03  0.15245730150E+03  0.41800000000E+01 0. -1.
        -11    1    1    2    0    0 -0.61041156622E+01  0.22521999745E+02  0.48411402773E+01  0.23831435955E+02  0.00000000000E+00 0. -1.
         11    1    1    2    0    0 -0.18644337427E+02  0.21276911302E+02 -0.16398421701E+03  0.16640655546E+03  0.00000000000E+00 0.  1.
</event>
<event>
 7    1  0.2612213E-009  0.9864894E+02  0.7561462E-02  0.1283163E+00
         -1   -1    0    0    0  501 -0.00000000000E+00  0.00000000000E+00  0.88549830332E+02  0.88549830332E+02  0.00000000000E+00 0.  1.
          1   -1    0    0  501    0  0.00000000000E+00 -0.00000000000E+00 -0.19499716205E+03  0.19499716205E+03  0.00000000000E+00 0. -1.
         25    2    1    2    0    0  0.28219266324E+02 -0.44163111668E+02 -0.10859415972E+03  0.17371389579E+03  0.12504846517E+03 0.  0.
          5    1    3    3  502    0  0.66024391113E+02 -0.62114599079E+02 -0.57058656842E+02  0.10719424593E+03  0.41800000000E+01 0.  1.
         -5    1    3    3    0  502 -0.37805124790E+02  0.17951487412E+02 -0.51535502876E+02  0.66519649859E+02  0.41800000000E+01 0.  1.
        -11    1    1    2    0    0 -0.37455739210E+02  0.32311977656E+02 -0.40933901254E+02  0.64207324907E+02  0.00000000000E+00 0. -1.
         11    1    1    2    0    0  0.92364728863E+01  0.11851134011E+02  0.43080729253E+02  0.45625771684E+02  0.00000000000E+00 0.  1.
</event>
<event>
 7    1  0.2612213E-009  0.8975232E+02  0.7561462E-02  0.1303453E+00
         -2   -1    0    0    0  501 -0.00000000000E+00  0.00000000000E+00  0.73642145345E+02  0.73642145345E+02  0.00000000000E+00 0.  1.
          2   -1    0    0  501    0  0.00000000000E+00 -0.00000000000E+00 -0.20076847437E+03  0.20076847437E+03  0.00000000000E+00 0. -1.
         25    2    1    2    0    0  0.25742059335E+02 -0.42894318604E+02 -0.92972445032E+02  0.16368900903E+03  0.12509052704E+03 0.  0.
          5    1    3    3  502    0 -0.44273143795E+02 -0.15534453155E+02 -0.71100997512E+02  0.85289241664E+02  0.41800000000E+01 0. -1.
         -5    1    3    3    0  502  0.70015203131E+02 -0.27359865449E+02 -0.21871447520E+02  0.78399767368E+02  0.41800000000E+01 0. -1.
        -11    1    1    2    0    0 -0.30841058242E+02  0.29087976950E+02  0.25369667632E+02  0.49405478565E+02  0.00000000000E+00 0.  1.
         11    1    1    2    0    0  0.50989989072E+01  0.13806341654E+02 -0.59523551621E+02  0.61316132113E+02  0.00000000000E+00 0. -1.
</event>
<event>
 7    1  0.2612213E-009  0.1104468E+03  0.7561462E-02  0.1259745E+00
          1   -1    0    0  501    0  0.00000000000E+00  0.00000000000E+00  0.44478905145E+03  0.44478905145E+03  0.00000000000E+00 0. -1.
         -1   -1    0    0    0  501 -0.00000000000E+00 -0.00000000000E+00 -0.28627761169E+02  0.28627761169E+02  0.00000000000E+00 0.  1.
         25    2    1    2    0    0 -0.28088939411E+02 -0.15589700406E+02  0.23201086606E+03  0.26553496660E+03  0.12509096387E+03 0.  0.
          5    1    3    3  502    0 -0.49771541786E+02 -0.59866717069E+02  0.12027559796E+03  0.14333499938E+03  0.41800000000E+01 0. -1.
         -5    1    3    3    0  502  0.21682602374E+02  0.44277016663E+02  0.11173526810E+03  0.12219996722E+03  0.41800000000E+01 0. -1.
        -11    1    1    2    0    0 -0.30545488268E+02 -0.56943946885E+01  0.87469902856E+02  0.92824764422E+02  0.00000000000E+00 0.  1.
         11    1    1    2    0    0  0.58634427680E+02  0.21284095094E+02  0.96680521365E+02  0.11505708159E+03  0.00000000000E+00 0. -1.
</event>
<event>
 7    1  0.4638520E-009  0.2390256E+03  0.7561462E-02  0.1120444E+00
          2   -1    0    0  501    0  0.00000000000E+00  0.00000000000E+00  0.76640924617E+03  0.76640924617E+03  0.00000000000E+00 0. -1.
         -2   -1    0    0    0  501 -0.00000000000E+00 -0.00000000000E+00 -0.81987707077E+02  0.81987707077E+02  0.00000000000E+00 0.  1.
         25    2    1    2    0    0  0.63276931171E+02  0.21600763022E+03  0.37799845843E+03  0.45737640569E+03  0.12508827113E+03 0.  0.
          5    1    3    3  502    0  0.82224057948E+02  0.21735489395E+03  0.36863526339E+03  0.43579051784E+03  0.41800000000E+01 0. -1.
         -5    1    3    3    0  502 -0.18947126778E+02 -0.13472637303E+01  0.93631950404E+01  0.21585887845E+02  0.41800000000E+01 0. -1.
        -11    1    1    2    0    0 -0.51245273095E+02 -0.13723962823E+03  0.26099774552E+03  0.29930021172E+03  0.00000000000E+00 0. -1.
         11    1    1    2    0    0 -0.12031658076E+02 -0.78768001986E+02  0.45425335145E+02  0.91720335837E+02  0.00000000000E+00 0.  1.
</event>
<event>
 6    1  0.2612213E-009  0.1007489E+03  0.7561462E-02  0.1278729E+00
          2   -1    0    0  501    0  0.00000000000E+00  0.00000000000E+00  0.37224810347E+03  0.37224810347E+03  0.00000000000E+00 0. -1.
         -2   -1    0    0    0  501 -0.00000000000E+00 -0.00000000000E+00 -0.53341976107E+02  0.53341976107E+02  0.00000000000E+00 0.  1.
          5    1    1    2  502    0 -0.77167750335E+02 -0.10505659245E+02  0.27521031565E+03  0.28604793446E+03  0.41800000000E+01 0.  1.
         -5    1    1    2    0  502  0.22717376708E+02  0.11706032711E+02  0.60455116872E+01  0.26591935204E+02  0.41800000000E+01 0.  1.
        -11    1    1    2    0    0  0.27180158258E+02 -0.41104570352E+02  0.41554846252E+02  0.64460468148E+02  0.00000000000E+00 0. -1.
         11    1    1    2    0    0  0.27270215369E+02  0.39904196886E+02 -0.39045462255E+01  0.48489741767E+02  0.00000000000E+00 0.  1.
</event>
<event>
 7    1  0.2758798E-009  0.1426974E+03  0.7561462E-02  0.1209745E+00
          1   -1    0    0  501    0  0.00000000000E+00  0.00000000000E+00  0.48387166028E+03  0.48387166028E+03  0.00000000000E+00 0. -1.
         -1   -1    0    0    0  501 -0.00000000000E+00 -0.00000000000E+00 -0.59979818196E+02  0.59979818196E+02  0.00000000000E+00 0.  1.
         25    2    1    2    0    0  0.99793542439E+02 -0.78416710066E+02  0.27875933042E+03  0.33085057687E+03  0.12508960143E+03 0.  0.
          5    1    3    3  502    0  0.48856298962E+02 -0.55756234804E+02  0.37470798339E+02  0.83169879138E+02  0.41800000000E+01 0.  1.
         -5    1    3    3    0  502  0.50937243477E+02 -0.22660475263E+02  0.24128853208E+03  0.24768069773E+03  0.41800000000E+01 0.  1.
        -11    1    1    2    0    0 -0.96430402491E+02  0.22242467423E+02  0.82889708240E+02  0.12909009882E+03  0.00000000000E+00 0.  1.
         11    1    1    2    0    0 -0.33631399474E+01  0.56174242644E+02  0.62242803423E+02  0.83910802790E+02  0.00000000000E+00 0. -1.
</event>
<event>
 7    1  0.2612213E-009  0.1269444E+03  0.7561462E-02  0.1232061E+00
          1   -1    0    0  501    0  0.00000000000E+00  0.00000000000E+00  0.23728279948E+03  0.23728279948E+03  0.00000000000E+00 0. -1.
         -1   -1    0    0    0  501 -0.00000000000E+00 -0.00000000000E+00 -0.95637840535E+02  0.95637840535E+02  0.00000000000E+00 0.  1.
         25    2    1    2    0    0 -0.62864133771E+02  0.74635033752E+02  0.37226027498E+02  0.16295910487E+03  0.12509038795E+03 0.  0.
          5    1    3    3  502    0 -0.25275972331E+01  0.56685616641E+02 -0.35203580112E+02  0.66905996252E+02  0.41800000000E+01 0.  1.
         -5    1    3    3    0  502 -0.60336536538E+02  0.17949417111E+02  0.72429607610E+02  0.96053108615E+02  0.41800000000E+01 0.  1.
        -11    1    1    2    0    0 -0.52773088573E+01  0.18084430404E+02  0.18019893746E+02  0.26069391677E+02  0.00000000000E+00 0. -1.
         11    1    1    2    0    0  0.68141442629E+02 -0.92719464156E+02  0.86399037698E+02  0.14389214347E+03  0.00000000000E+00 0.  1.
</event>
<event>
 7    1  0.2612213E-009  0.1001793E+03  0.7561462E-02  0.1279919E+00
         -2   -1    0    0    0  501 -0.00000000000E+00  0.00000000000E+00  0.18594177608E+03  0.18594177608E+03  0.00000000000E+00 0.  1.
          2   -1    0    0  501    0  0.00000000000E+00 -0.00000000000E+00 -0.77534339720E+02  0.77534339720E+02  0.00000000000E+00 0. -1.
         25    2    1    2    0    0 -0.13200406859E+02  0.49891073188E+02  0.61058134998E+02  0.14845284929E+03  0.12508710040E+03 0.  0.
          5    1    3    3  502    0  0.30772824915E+02  0.70367767942E+02  0.94348088122E+01  0.77492435345E+02  0.41800000000E+01 0.  1.
         -5    1    3    3    0  502 -0.43973231774E+02 -0.20476694754E+02  0.51623326185E+02  0.70960413944E+02  0.41800000000E+01 0.  1.
        -11    1    1    2    0    0 -0.18530663535E+02 -0.39911114901E+01  0.55484487551E+02  0.58633120510E+02  0.00000000000E+00 0.  1.
         11    1    1    2    0    0  0.31731070394E+02 -0.45899961698E+02 -0.81351861841E+01  0.56390146005E+02  0.00000000000E+00 0. -1.
</event>
<event>
 7    1  0.2612213E-009  0.1049458E+03  0.7561462E-02  0.1270226E+00
         -3   -1    0    0    0  501 -0.00000000000E+00  0.00000000000E+00  0.61242280363E+02  0.61242280363E+02  0.00000000000E+00 0.  1.
          3   -1    0    0  501    0  0.00000000000E+00 -0.00000000000E+00 -0.41405344217E+03  0.41405344217E+03  0.00000000000E+00 0. -1.
         25    2    1    2    0    0 -0.27532075124E+02  0.31785842934E+01 -0.32046483589E+03  0.34512700602E+03  0.12508725227E+03 0.  0.
          5    1    3    3  502    0 -0.36989548046E+02  0.46333050979E+02 -0.27592655313E+03  0.28225505026E+03  0.41800000000E+01 0.  1.
         -5    1    3    3    0  502  0.94574729225E+01 -0.43154466686E+02 -0.44538282764E+02  0.62871955756E+02  0.41800000000E+01 0.  1.
        -11    1    1    2    0    0 -0.15482887981E+02 -0.44082722841E+02 -0.49810722577E+02  0.68294321557E+02  0.00000000000E+00 0. -1.
         11    1    1    2    0    0  0.43014963105E+02  0.40904138548E+02  0.17464396658E+02  0.61874394961E+02  0.00000000000E+00 0.  1.
</event>
<event>
 7    1  0.2612213E-009  0.1124800E+03  0.7561462E-02  0.1256045E+00
          2   -1    0    0  501    0  0.00000000000E+00  0.00000000000E+00  0.47145947841E+03  0.47145947841E+03  0.00000000000E+00 0.  1.
         -2   -1    0    0    0  501 -0.00000000000E+00 -0.00000000000E+00 -0.36358845608E+02  0.36358845608E+02  0.00000000000E+00 0. -1.
         25    2    1    2    0    0  0.31710558312E+02  0.18703335668E+02  0.36541174868E+03  0.38797993072E+03  0.12508919336E+03 0.  0.
          5    1    3    3  502    0  0.78578466107E+02  0.69036951869E+01  0.26396946735E+03  0.27553509475E+03  0.41800000000E+01 0. -1.
         -5    1    3    3    0  502 -0.46867907795E+02  0.11799640481E+02  0.10144228133E+03  0.11244483597E+03  0.41800000000E+01 0. -1.
        -11    1    1    2    0    0  0.31964389032E+02 -0.57167144380E+01  0.24734785383E+02  0.40819267486E+02  0.00000000000E+00 0. -1.
         11    1    1    2    0    0 -0.63674947344E+02 -0.12986621230E+02  0.44954098736E+02  0.79019125807E+02  0.00000000000E+00 0.  1.
</event>
<event>
 7    1  0.2612213E-009  0.9532446E+02  0.7561462E-02  0.1290447E+00
          1   -1    0    0  501    0  0.00000000000E+00  0.00000000000E+00  0.69401563963E+02  0.69401563963E+02  0.00000000000E+00 0. -1.
         -1   -1    0    0    0  501 -0.00000000000E+00 -0.00000000000E+00 -0.25011373866E+03  0.25011373866E+03  0.00000000000E+00 0.  1.
         25    2    1    2    0    0 -0.45867680881E+02  0.54236674000E+02 -0.74174261674E+02  0.16184709069E+03  0.12508876334E+03 0.  0.
          5    1    3    3  502    0  0.74697128930E+01  0.42992654848E+01 -0.87017710068E+02  0.87543329614E+02  0.41800000000E+01 0.  1.
         -5    1    3    3    0  502 -0.53337393774E+02  0.49937408515E+02  0.12843448395E+02  0.74303761079E+02  0.41800000000E+01 0.  1.
        -11    1    1    2    0    0 -0.18993511819E+01 -0.59768381138E+02 -0.87431540492E+02  0.10592516789E+03  0.00000000000E+00 0.  1.
         11    1    1    2    0    0  0.47767032063E+02  0.55317071381E+01 -0.19106372534E+02  0.51743044048E+02  0.00000000000E+00 0. -1.
</event>
<event>
 7    1  0.2612213E-009  0.1719987E+03  0.7561462E-02  0.1175779E+00
         -2   -1    0    0    0  501 -0.00000000000E+00  0.00000000000E+00  0.13240562385E+03  0.13240562385E+03  0.00000000000E+00 0.  1.
          2   -1    0    0  501    0  0.00000000000E+00 -0.00000000000E+00 -0.28222118603E+03  0.28222118603E+03  0.00000000000E+00 0. -1.
         25    2    1    2    0    0  0.14629255008E+03 -0.52685825109E+02 -0.86311427182E+02  0.21742770759E+03  0.12509132341E+03 0.  0.
          5    1    3    3  502    0  0.79020407576E+02 -0.78882833507E+02 -0.98174980800E+01  0.11216319318E+03  0.41800000000E+01 0.  1.
         -5    1    3    3    0  502  0.67272142502E+02  0.26197008398E+02 -0.76493929102E+02  0.10526451442E+03  0.41800000000E+01 0.  1.
        -11    1    1    2    0    0 -0.68299927412E+02  0.44527546322E+02 -0.83049200898E+02  0.11638192401E+03  0.00000000000E+00 0. -1.
         11    1    1    2    0    0 -0.77992622666E+02  0.81582787873E+01  0.19545065900E+02  0.80817178274E+02  0.00000000000E+00 0.  1.
</event>
<event>
 7    1  0.2612213E-009  0.2653395E+03  0.7561462E-02  0.1103977E+00
          1   -1    0    0  501    0  0.00000000000E+00  0.00000000000E+00  0.19596433604E+03  0.19596433604E+03  0.00000000000E+00 0. -1.
         -1   -1    0    0    0  501 -0.00000000000E+00 -0.00000000000E+00 -0.39073245223E+03  0.39073245223E+03  0.00000000000E+00 0.  1.
         25    2    1    2    0    0  0.18183529749E+03 -0.16821417707E+03 -0.38940629331E+02  0.28022206132E+03  0.12509175134E+03 0.  0.
          5    1    3    3  502    0  0.80664420544E+02 -0.14218182387E+03 -0.58854870320E+02  0.17379237021E+03  0.41800000000E+01 0. -1.
         -5    1    3    3    0  502  0.10117087695E+03 -0.26032353196E+02  0.19914240989E+02  0.10642969111E+03  0.41800000000E+01 0. -1.
        -11    1    1    2    0    0 -0.15081486273E+03  0.83492806224E+02 -0.11647099934E+03  0.20804246008E+03  0.00000000000E+00 0. -1.
         11    1    1    2    0    0 -0.31020434765E+02  0.84721370844E+02 -0.39356487526E+02  0.98432266869E+02  0.00000000000E+00 0.  1.
</event>
<event>
 7    1  0.2612213E-009  0.1070702E+03  0.7561462E-02  0.1266094E+00
          2   -1    0    0  501    0  0.00000000000E+00  0.00000000000E+00  0.13880658687E+03  0.13880658687E+03  0.00000000000E+00 0. -1.
         -2   -1    0    0    0  501 -0.00000000000E+00 -0.00000000000E+00 -0.10163024042E+03  0.10163024042E+03  0.00000000000E+00 0.  1.
         25    2    1    2    0    0  0.35689968646E+02  0.40777750065E+02  0.30139921900E+02  0.13961966354E+03  0.12509451144E+03 0.  0.
          5    1    3    3  502    0  0.69211579249E+02  0.14641520377E+02  0.55441117029E+02  0.89976700753E+02  0.41800000000E+01 0. -1.
         -5    1    3    3    0  502 -0.33521610603E+02  0.26136229689E+02 -0.25301195128E+02  0.49642962791E+02  0.41800000000E+01 0. -1.
        -11    1    1    2    0    0  0.23884785462E+02 -0.32622890778E+02  0.34957919855E+01  0.40582712341E+02  0.00000000000E+00 0.  1.
         11    1    1    2    0    0 -0.59574754108E+02 -0.81548592868E+01  0.35406325649E+01  0.60234451405E+02  0.00000000000E+00 0. -1.
</event>
<event>
 7    1  0.2612213E-009  0.1438038E+03  0.7561462E-02  0.1208300E+00
          4   -1    0    0  501    0  0.00000000000E+00  0.00000000000E+00  0.32178159998E+02  0.32178159998E+02  0.00000000000E+00 0. -1.
         -4   -1    0    0    0  501 -0.00000000000E+00 -0.00000000000E+00 -0.10292766020E+04  0.10292766020E+04  0.00000000000E+00 0.  1.
         25    2    1    2    0    0 -0.96121254688E+02  0.55217499245E+02 -0.80321596821E+03  0.82042253454E+03  0.12509586633E+03 0.  0.
          5    1    3    3  502    0 -0.12519650108E+03  0.56651541934E+02 -0.64363245357E+03  0.65815178248E+03  0.41800000000E+01 0.  1.
         -5    1    3    3    0  502  0.29075246397E+02 -0.14340426895E+01 -0.15958351464E+03  0.16227075206E+03  0.41800000000E+01 0.  1.
        -11    1    1    2    0    0  0.86294426403E+02 -0.26356995492E+02 -0.18995097275E+03  0.21029215698E+03  0.00000000000E+00 0.  1.
         11    1    1    2    0    0  0.98268282851E+01 -0.28860503753E+02 -0.39315010195E+01  0.30740070450E+02  0.00000000000E+00 0. -1.
</event>
<event>
 7    1  0.2612213E-009  0.1626370E+03  0.7561462E-02  0.1185751E+00
          2   -1    0    0  501    0  0.00000000000E+00  0.00000000000E+00  0.72116354273E+02  0.72116354273E+02  0.00000000000E+00 0. -1.
         -2   -1    0    0    0  501 -0.00000000000E+00 -0.00000000000E+00 -0.44828861623E+03  0.44828861623E+03  0.00000000000E+00 0.  1.
         25    2    1    2    0    0 -0.64987063146E+02  0.11610906327E+03 -0.11823963476E+03  0.21756059814E+03  0.12508944674E+03 0.  0.
          5    1    3    3  502    0 -0.46841600101E+02  0.14261776199E+03 -0.95123417872E+02  0.17776360303E+03  0.41800000000E+01 0.  1.
         -5    1    3    3    0  502 -0.18145463045E+02 -0.26508698719E+02 -0.23116216886E+02  0.39796995113E+02  0.41800000000E+01 0.  1.
        -11    1    1    2    0    0 -0.89149460571E+01 -0.15366342950E+02 -0.17916852075E+01  0.17855276384E+02  0.00000000000E+00 0. -1.
         11    1    1    2    0    0  0.73902009203E+02 -0.10074272032E+03 -0.25614094199E+03  0.28498909598E+03  0.00000000000E+00 0.  1.
</event>
<event>
 7    1  0.2612213E-009  0.1357983E+03  0.7561462E-02  0.1219097E+00
         -3   -1    0    0    0  501 -0.00000000000E+00  0.00000000000E+00  0.10468200099E+03  0.10468200099E+03  0.00000000000E+00 0.  1.
          3   -1    0    0  501    0  0.00000000000E+00 -0.00000000000E+00 -0.25459120962E+03  0.25459120962E+03  0.00000000000E+00 0. -1.
         25    2    1    2    0    0  0.16484153801E+02  0.10277161139E+03 -0.10961185768E+02  0.16309620644E+03  0.12508594457E+03 0.  0.
          5    1    3    3  502    0 -0.15784231326E+02 -0.25099358910E+02  0.43788610789E+01  0.30261635788E+02  0.41800000000E+01 0.  1.
         -5    1    3    3    0  502  0.32268385128E+02  0.12787097030E+03 -0.15340046847E+02  0.13283457066E+03  0.41800000000E+01 0.  1.
        -11    1    1    2    0    0 -0.17247089119E+02 -0.17987483640E+02  0.82971280006E+01  0.26265071556E+02  0.00000000000E+00 0.  1.
         11    1    1    2    0    0  0.76293531773E+00 -0.84784127751E+02 -0.14724515087E+03  0.16991193261E+03  0.00000000000E+00 0. -1.
</event>
<event>
 7    1  0.2612213E-009  0.8898684E+02  0.7561462E-02  0.1305324E+00
         -2   -1    0    0    0  501 -0.00000000000E+00  0.00000000000E+00  0.97219755646E+02  0.97219755646E+02  0.00000000000E+00 0.  1.
          2   -1    0    0  501    0  0.00000000000E+00 -0.00000000000E+00 -0.21210680678E+03  0.21210680678E+03  0.00000000000E+00 0. -1.
         25    2    1    2    0    0  0.46464166396E+02  0.11932901381E+02  0.20114218160E+02  0.13547451861E+03  0.12508976987E+03 0.  0.
          5    1    3    3  502    0  0.35474009035E+01  0.28269362986E+02 -0.46358747723E+02  0.54574232264E+02  0.41800000000E+01 0. -1.
         -5    1    3    3    0  502  0.42916765493E+02 -0.16336461605E+02  0.66472965883E+02  0.80900286350E+02  0.41800000000E+01 0. -1.
        -11    1    1    2    0    0 -0.67297931524E+02 -0.31661942318E+02 -0.67227820552E+02  0.10025502499E+03  0.00000000000E+00 0.  1.
         11    1    1    2    0    0  0.20833765128E+02  0.19729040937E+02 -0.67773448745E+02  0.73597018829E+02  0.00000000000E+00 0. -1.
</event>
<event>
 7    1  0.2612213E-009  0.1996947E+03  0.7561462E-02  0.1149997E+00
         -2   -1    0    0    0  501 -0.00000000000E+00  0.00000000000E+00  0.55920890747E+02  0.55920890747E+02  0.00000000000E+00 0.  1.
          2   -1    0    0  501    0  0.00000000000E+00 -0.00000000000E+00 -0.89896417212E+03  0.89896417212E+03  0.00000000000E+00 0. -1.
         25    2    1    2    0    0 -0.17232750839E+03  0.17509203218E+02 -0.40378691106E+03  0.45683376807E+03  0.12509947945E+03 0.  0.
          5    1    3    3  502    0 -0.93362805202E+02 -0.51847253603E+02 -0.23146391127E+03  0.25494659386E+03  0.41800000000E+01 0.  1.
         -5    1    3    3    0  502 -0.78964703186E+02  0.69356456821E+02 -0.17232299979E+03  0.20188717420E+03  0.41800000000E+01 0.  1.
        -11    1    1    2    0    0  0.10352015355E+03  0.24943666567E+02 -0.38794537627E+03  0.40229370323E+03  0.00000000000E+00 0. -1.
         11    1    1    2    0    0  0.68807354838E+02 -0.42452869785E+02 -0.51310994043E+02  0.95757591566E+02  0.00000000000E+00 0.  1.
</event>
<event>
 7    1  0.2612213E-009  0.2676826E+03  0.7561462E-02  0.1102613E+00
         -2   -1    0    0    0  501 -0.00000000000E+00  0.00000000000E+00  0.36855600914E+03  0.36855600914E+03  0.00000000000E+00 0.  1.
          2   -1    0    0  501    0  0.00000000000E+00 -0.00000000000E+00 -0.22399816131E+03  0.22399816131E+03  0.00000000000E+00 0. -1.
         25    2    1    2    0    0  0.16727413131E+02 -0.25574794078E+03  0.14653887051E+03  0.32063741766E+03  0.12509155634E+03 0.  0.
          5    1    3    3  502    0 -0.33974165274E+02 -0.16691234101E+03  0.13545400084E+03  0.21766771058E+03  0.41800000000E+01 0. -1.
         -5    1    3    3    0  502  0.50701578406E+02 -0.88835599770E+02  0.11084869673E+02  0.10296970707E+03  0.41800000000E+01 0. -1.
        -11    1    1    2    0    0  0.10678173751E+02  0.20194445114E+03 -0.31569181750E+02  0.20467583633E+03  0.00000000000E+00 0.  1.
         11    1    1    2    0    0 -0.27405586882E+02  0.53803489637E+02  0.29588159071E+02  0.67240916462E+02  0.00000000000E+00 0. -1.
</event>
<event>
 7    1  0.2612213E-009  0.1942011E+03  0.7561462E-02  0.1154726E+00
         -1   -1    0    0    0  501 -0.00000000000E+00  0.00000000000E+00  0.27803240112E+02  0.27803240112E+02  0.00000000000E+00 0.  1.
          1   -1    0    0  501    0  0.00000000000E+00 -0.00000000000E+00 -0.13867611161E+04  0.13867611161E+04  0.00000000000E+00 0. -1.
         25    2    1    2    0    0  0.53082057154E+02  0.15774619756E+03 -0.81532866050E+03  0.84149256456E+03  0.12508934383E+03 0.  0.
          5    1    3    3  502    0  0.93332042340E+02  0.95514604554E+02 -0.54754319161E+03  0.56360884387E+03  0.41800000000E+01 0. -1.
         -5    1    3    3    0  502 -0.40249985186E+02  0.62231593008E+02 -0.26778546889E+03  0.27788372069E+03  0.41800000000E+01 0. -1.
        -11    1    1    2    0    0  0.33136209467E+01 -0.99257205133E+02 -0.27265516861E+03  0.29017893415E+03  0.00000000000E+00 0. -1.
         11    1    1    2    0    0 -0.56395678101E+02 -0.58488992429E+02 -0.27097404687E+03  0.28289285749E+03  0.00000000000E+00 0.  1.
</event>
<event>
 7    1  0.2612213E-009  0.1762829E+03  0.7561462E-02  0.1171450E+00
         -2   -1    0    0    0  501 -0.00000000000E+00  0.00000000000E+00  0.66896488878E+02  0.66896488878E+02  0.00000000000E+00 0.  1.
          2   -1    0    0  501    0  0.00000000000E+00 -0.00000000000E+00 -0.51937898674E+03  0.51937898674E+03  0.00000000000E+00 0. -1.
         25    2    1    2    0    0  0.11004476041E+03  0.96866702117E+02 -0.29655240216E+03  0.35367179718E+03  0.12508959037E+03 0.  0.
          5    1    3    3  502    0 -0.10673522620E+02  0.67382640183E+02 -0.10823298528E+03  0.12800857700E+03  0.41800000000E+01 0. -1.
         -5    1    3    3    0  502  0.12071828303E+03  0.29484061933E+02 -0.18831941688E+03  0.22566322018E+03  0.41800000000E+01 0. -1.
        -11    1    1    2    0    0 -0.31298697038E+02 -0.69993781503E+02 -0.31442205516E+02  0.82869476727E+02  0.00000000000E+00 0.  1.
         11    1    1    2    0    0 -0.78746063375E+02 -0.26872920614E+02 -0.12448789018E+03  0.14973420171E+03  0.00000000000E+00 0. -1.
</event>
<event>
 7    1  0.2612213E-009  0.8573093E+02  0.7561462E-02  0.1313532E+00
         -2   -1    0    0    0  501 -0.00000000000E+00  0.00000000000E+00  0.49005966613E+03  0.49005966613E+03  0.00000000000E+00 0.  1.
          2   -1    0    0  501    0  0.00000000000E+00 -0.00000000000E+00 -0.29181608281E+02  0.29181608281E+02  0.00000000000E+00 0. -1.
         25    2    1    2    0    0  0.62788803167E+01 -0.30291757220E+02  0.34753013591E+03  0.37064955617E+03  0.12508750232E+03 0.  0.
          5    1    3    3  502    0  0.38602249593E+02  0.55410008825E+01  0.30079425136E+03  0.30334055188E+03  0.41800000000E+01 0. -1.
         -5    1    3    3    0  502 -0.32323369276E+02 -0.35832758102E+02  0.46735884547E+02  0.67309004294E+02  0.41800000000E+01 0. -1.
        -11    1    1    2    0    0  0.11240669358E+02  0.53531402272E+02  0.10487086514E+03  0.11827874717E+03  0.00000000000E+00 0.  1.
         11    1    1    2    0    0 -0.17519549674E+02 -0.23239645052E+02  0.84770568032E+01  0.30312971068E+02  0.00000000000E+00 0. -1.
</event>
<event>
 7    1  0.2612213E-009  0.1128299E+03  0.7561462E-02  0.1255417E+00
          1   -1    0    0  501    0  0.00000000000E+00  0.00000000000E+00  0.40258866521E+02  0.40258866521E+02  0.00000000000E+00 0. -1.
         -1   -1    0    0    0  501 -0.00000000000E+00 -0.00000000000E+00 -0.57128944747E+03  0.57128944747E+03  0.00000000000E+00 0.  1.
         25    2    1    2    0    0 -0.28061566774E+02  0.31414462655E+02 -0.47872169909E+03  0.49658403716E+03  0.12508765243E+03 0.  0.
          5    1    3    3  502    0 -0.49202867820E+02  0.68087536819E+02 -0.24532127080E+03  0.25933922414E+03  0.41800000000E+01 0.  1.
         -5    1    3    3    0  502  0.21141301046E+02 -0.36673074164E+02 -0.23340042829E+03  0.23724481302E+03  0.41800000000E+01 0.  1.
        -11    1    1    2    0    0  0.28770209662E+02  0.27675326145E+02 -0.70692147902E+01  0.40541613670E+02  0.00000000000E+00 0. -1.
         11    1    1    2    0    0 -0.70864288757E+00 -0.59089788800E+02 -0.45239667069E+02  0.74422663159E+02  0.00000000000E+00 0.  1.
</event>
<event>
 7    1  0.2612213E-009  0.9274728E+02  0.7561462E-02  0.1296332E+00
          1   -1    0    0  501    0  0.00000000000E+00  0.00000000000E+00  0.65321164331E+03  0.65321164331E+03  0.00000000000E+00 0. -1.
         -1   -1    0    0    0  501 -0.00000000000E+00 -0.00000000000E+00 -0.28071394189E+02  0.28071394189E+02  0.00000000000E+00 0.  1.
         25    2    1    2    0    0 -0.69660957815E+02  0.32311918315E+02  0.43109113910E+03  0.45539363525E+03  0.12508830366E+03 0.  0.
          5    1    3    3  502    0 -0.16771636079E+02 -0.51946687921E+01  0.35448708272E+03  0.35494624463E+03  0.41800000000E+01 0.  1.
         -5    1    3    3    0  502 -0.52889321736E+02  0.37506587107E+02  0.76604056374E+02  0.10044739062E+03  0.41800000000E+01 0.  1.
        -11    1    1    2    0    0 -0.29581474410E+01 -0.29658391325E+02  0.16551872244E+02  0.34093038689E+02  0.00000000000E+00 0.  1.
         11    1    1    2    0    0  0.72619105256E+02 -0.26535269898E+01  0.17749723778E+03  0.19179636355E+03  0.00000000000E+00 0. -1.
</event>
<event>
 7    1  0.2612213E-009  0.1763809E+03  0.7561462E-02  0.1171352E+00
         -1   -1    0    0    0  501 -0.00000000000E+00  0.00000000000E+00  0.17119062236E+04  0.17119062236E+04  0.00000000000E+00 0.  1.
          1   -1    0    0  501    0  0.00000000000E+00 -0.00000000000E+00 -0.26327027829E+02  0.26327027829E+02  0.00000000000E+00 0. -1.
         25    2    1    2    0    0 -0.15598774032E+03 -0.18997236304E+02  0.12678297990E+04  0.12836403223E+04  0.12508800008E+03 0.  0.
          5    1    3    3  502    0 -0.16566339794E+03 -0.28138473653E+02  0.12487047183E+04  0.12599670952E+04  0.41800000000E+01 0.  1.
         -5    1    3    3    0  502  0.96756576220E+01  0.91412373484E+01  0.19125080739E+02  0.23673227155E+02  0.41800000000E+01 0.  1.
        -11    1    1    2    0    0  0.73512886707E+02 -0.24489213605E+02  0.26050531697E+03  0.27178463214E+03  0.00000000000E+00 0.  1.
         11    1    1    2    0    0  0.82474853612E+02  0.43486449910E+02  0.15724407975E+03  0.18280829692E+03  0.00000000000E+00 0. -1.
</event>
<event>
 7    1  0.2612213E-009  0.7871064E+02  0.7561462E-02  0.1332751E+00
          2   -1    0    0  501    0  0.00000000000E+00  0.00000000000E+00  0.77565886884E+02  0.77565886884E+02  0.00000000000E+00 0.  1.
         -2   -1    0    0    0  501 -0.00000000000E+00 -0.00000000000E+00 -0.23454541930E+03  0.23454541930E+03  0.00000000000E+00 0. -1.
         25    2    1    2    0    0  0.27787404210E+02  0.32512651183E+02 -0.15092195784E+03  0.20063365581E+03  0.12508882510E+03 0.  0.
          5    1    3    3  502    0  0.23594606674E+02 -0.13403789044E+02 -0.15186550733E+03  0.15432748213E+03  0.41800000000E+01 0. -1.
         -5    1    3    3    0  502  0.41927975362E+01  0.45916440227E+02  0.94354949208E+00  0.46306173670E+02  0.41800000000E+01 0. -1.
        -11    1    1    2    0    0 -0.27565541861E+02  0.18150762207E+02 -0.38965142823E+02  0.51064582853E+02  0.00000000000E+00 0. -1.
         11    1    1    2    0    0 -0.22186234861E+00 -0.50663413389E+02  0.32907568251E+02  0.60413067521E+02  0.00000000000E+00 0.  1.
</event>
<event>
 7    1  0.2612213E-009  0.1539420E+03  0.7561462E-02  0.1195711E+00
         -2   -1    0    0    0  501 -0.00000000000E+00  0.00000000000E+00  0.52340603963E+02  0.52340603963E+02  0.00000000000E+00 0.  1.
          2   -1    0    0  501    0  0.00000000000E+00 -0.00000000000E+00 -0.57392316559E+03  0.57392316559E+03  0.00000000000E+00 0. -1.
         25    2    1    2    0    0  0.69034505609E+02 -0.10214699750E+03 -0.37608926588E+03  0.41507961440E+03  0.12509267892E+03 0.  0.
          5    1    3    3  502    0 -0.32643774367E+02 -0.22703886850E+02 -0.47795285058E+02  0.62313274322E+02  0.41800000000E+01 0. -1.
         -5    1    3    3    0  502  0.10167827998E+03 -0.79443110646E+02 -0.32829398083E+03  0.35276634008E+03  0.41800000000E+01 0. -1.
        -11    1    1    2    0    0  0.12244559765E+02  0.18355362191E+02  0.30340591452E+01  0.22272271548E+02  0.00000000000E+00 0.  1.
         11    1    1    2    0    0 -0.81279065375E+02  0.83791635305E+02 -0.14852735489E+03  0.18891188360E+03  0.00000000000E+00 0. -1.
</event>
<event>
 7    1  0.2612213E-009  0.1989313E+03  0.7561462E-02  0.1150644E+00
          1   -1    0    0  501    0  0.00000000000E+00  0.00000000000E+00  0.14200397372E+03  0.14200397372E+03  0.00000000000E+00 0. -1.
         -1   -1    0    0    0  501 -0.00000000000E+00 -0.00000000000E+00 -0.39603141587E+03  0.39603141587E+03  0.00000000000E+00 0.  1.
         25    2    1    2    0    0 -0.38555006636E+02 -0.18875982692E+03 -0.22589831924E+03  0.32217052815E+03  0.12508812006E+03 0.  0.
          5    1    3    3  502    0 -0.51539385344E+02 -0.15078954805E+03 -0.23187454487E+03  0.28138420887E+03  0.41800000000E+01 0.  1.
         -5    1    3    3    0  502  0.12984378708E+02 -0.37970278866E+02  0.59762256329E+01  0.40786319280E+02  0.41800000000E+01 0.  1.
        -11    1    1    2    0    0 -0.75939571564E+01  0.74408110748E+02  0.28668038337E+02  0.80100509065E+02  0.00000000000E+00 0. -1.
         11    1    1    2    0    0  0.46148963792E+02  0.11435171617E+03 -0.56797161252E+02  0.13576435238E+03  0.00000000000E+00 0.  1.
</event>
<event>
 7    1  0.2612213E-009  0.9397799E+02  0.7561462E-02  0.1293495E+00
          3   -1    0    0  501    0  0.00000000000E+00  0.00000000000E+00  0.21580825806E+02  0.21580825806E+02  0.00000000000E+00 0. -1.
         -3   -1    0    0    0  501 -0.00000000000E+00 -0.00000000000E+00 -0.55082457473E+03  0.55082457473E+03  0.00000000000E+00 0.  1.
         25    2    1    2    0    0 -0.31243404452E+01 -0.15026757396E+02 -0.28508188563E+03  0.31169635003E+03  0.12508944068E+03 0.  0.
          5    1    3    3  502    0  0.52786985873E+02 -0.19351953470E+02 -0.72715245553E+02  0.92010560897E+02  0.41800000000E+01 0.  1.
         -5    1    3    3    0  502 -0.55911326318E+02  0.43251960735E+01 -0.21236664008E+03  0.21968578914E+03  0.41800000000E+01 0.  1.
        -11    1    1    2    0    0  0.21858025582E+02  0.39127596471E+02 -0.21070624171E+03  0.21542019957E+03  0.00000000000E+00 0.  1.
         11    1    1    2    0    0 -0.18733685137E+02 -0.24100839075E+02 -0.33455621584E+02  0.45288850929E+02  0.00000000000E+00 0. -1.
</event>
<event>
 7    1  0.2612213E-009  0.1306648E+03  0.7561462E-02  0.1226473E+00
          1   -1    0    0  501    0  0.00000000000E+00  0.00000000000E+00  0.30229776993E+03  0.30229776993E+03  0.00000000000E+00 0. -1.
         -1   -1    0    0    0  501 -0.00000000000E+00 -0.00000000000E+00 -0.80397189378E+02  0.80397189378E+02  0.00000000000E+00 0.  1.
         25    2    1    2    0    0  0.67916449575E+02 -0.72177141802E+02  0.53917938386E+02  0.16844926646E+03  0.12508328174E+03 0.  0.
          5    1    3    3  502    0  0.86896333310E+02 -0.95054857888E+02  0.49823562938E+02  0.13815302593E+03  0.41800000000E+01 0.  1.
         -5    1    3    3    0  502 -0.18979883735E+02  0.22877716086E+02  0.40943754480E+01  0.30296240530E+02  0.41800000000E+01 0.  1.
        -11    1    1    2    0    0 -0.34694148901E+02  0.55069257157E+02  0.30692197035E+02  0.71960530923E+02  0.00000000000E+00 0.  1.
         11    1    1    2    0    0 -0.33222300674E+02  0.17107884644E+02  0.13729044513E+03  0.14228516193E+03  0.00000000000E+00 0. -1.
</event>
<event>
 7    1  0.2612213E-009  0.1743856E+03  0.7561462E-02  0.1173350E+00
          1   -1    0    0  501    0  0.00000000000E+00  0.00000000000E+00  0.26172864881E+03  0.26172864881E+03  0.00000000000E+00 0. -1.
         -1   -1    0    0    0  501 -0.00000000000E+00 -0.00000000000E+00 -0.14624402824E+03  0.14624402824E+03  0.00000000000E+00 0.  1.
         25    2    1    2    0    0 -0.40157346397E+02  0.14819656606E+03  0.11203725385E+03  0.22753991959E+03  0.12508890475E+03 0.  0.
          5    1    3    3  502    0  0.79733859848E+01  0.14388183860E+03  0.59283631320E+02  0.15587680939E+03  0.41800000000E+01 0.  1.
         -5    1    3    3    0  502 -0.48130732382E+02  0.43147274627E+01  0.52753622535E+02  0.71663110198E+02  0.41800000000E+01 0.  1.
        -11    1    1    2    0    0  0.41730756715E+02 -0.10659546977E+03 -0.39042063761E+02  0.12094764559E+03  0.00000000000E+00 0.  1.
         11    1    1    2    0    0 -0.15734103184E+01 -0.41601096295E+02  0.42489430472E+02  0.59485111875E+02  0.00000000000E+00 0. -1.
</event>
<event>
 7    1  0.2612213E-009  0.1074141E+03  0.7561462E-02  0.1265435E+00
          1   -1    0    0  501    0  0.00000000000E+00  0.00000000000E+00  0.11871773233E+03  0.11871773233E+03  0.00000000000E+00 0. -1.
         -1   -1    0    0    0  501 -0.00000000000E+00 -0.00000000000E+00 -0.15375908540E+03  0.15375908540E+03  0.00000000000E+00 0.  1.
         25    2    1    2    0    0  0.14927867002E+02  0.55518893877E+02 -0.76538810740E+02  0.15751572484E+03  0.12509126760E+03 0.  0.
          5    1    3    3  502    0  0.50325673414E+02  0.50862075038E+02  0.13994485617E+01  0.71687202052E+02  0.41800000000E+01 0.  1.
         -5    1    3    3    0  502 -0.35397806412E+02  0.46568188393E+01 -0.77938259301E+02  0.85828522785E+02  0.41800000000E+01 0.  1.
        -11    1    1    2    0    0  0.35219339474E+02 -0.42885581147E+02  0.21845853365E+02  0.59639049729E+02  0.00000000000E+00 0.  1.
         11    1    1    2    0    0 -0.50147206476E+02 -0.12633312730E+02  0.19651604306E+02  0.55322043163E+02  0.00000000000E+00 0. -1.
</event>
<event>
 7    1  0.2612213E-009  0.2250227E+03  0.7561462E-02  0.1130193E+00
         -2   -1    0    0    0  501 -0.00000000000E+00  0.00000000000E+00  0.26286365627E+02  0.26286365627E+02  0.00000000000E+00 0.  1.
          2   -1    0    0  501    0  0.00000000000E+00 -0.00000000000E+00 -0.25114737160E+04  0.25114737160E+04  0.00000000000E+00 0. -1.
         25    2    1    2    0    0  0.21725288986E+03 -0.56629776621E+02 -0.16416110723E+04  0.16616076482E+04  0.12508922492E+03 0.  0.
          5    1    3    3  502    0  0.25869863509E+02 -0.10852831911E+02 -0.65179035251E+03  0.65240721166E+03  0.41800000000E+01 0. -1.
         -5    1    3    3    0  502  0.19138302635E+03 -0.45776944709E+02 -0.98982071981E+03  0.10092004366E+04  0.41800000000E+01 0. -1.
        -11    1    1    2    0    0 -0.12248738228E+03  0.38281504497E+02 -0.61117924366E+03  0.62450676561E+03  0.00000000000E+00 0. -1.
         11    1    1    2    0    0 -0.94765507581E+02  0.18348272124E+02 -0.23239703439E+03  0.25164566777E+03  0.00000000000E+00 0.  1.
</event>
<event>
 7    1  0.2612213E-009  0.1087997E+03  0.7561462E-02  0.1262809E+00
          1   -1    0    0  501    0  0.00000000000E+00  0.00000000000E+00  0.29465516711E+03  0.29465516711E+03  0.00000000000E+00 0. -1.
         -1   -1    0    0    0  501 -0.00000000000E+00 -0.00000000000E+00 -0.70236263450E+02  0.70236263450E+02  0.00000000000E+00 0.  1.
         25    2    1    2    0    0 -0.43170681852E+02 -0.43336124392E+02  0.32764701182E+02  0.14306689468E+03  0.12511148333E+03 0.  0.
          5    1    3    3  502    0 -0.18205426212E+02  0.30424792950E+02  0.51689314504E+02  0.62820085988E+02  0.41800000000E+01 0. -1.
         -5    1    3    3    0  502 -0.24965255640E+02 -0.73760917343E+02 -0.18924613322E+02  0.80246808695E+02  0.41800000000E+01 0. -1.
        -11    1    1    2    0    0  0.58963027824E+02  0.57750314533E+02  0.17866501310E+03  0.19680681997E+03  0.00000000000E+00 0. -1.
         11    1    1    2    0    0 -0.15792345971E+02 -0.14414190141E+02  0.12989189377E+02  0.25017715910E+02  0.00000000000E+00 0.  1.
</event>
<event>
 7    1  0.2612213E-009  0.1700586E+03  0.7561462E-02  0.1177787E+00
         -2   -1    0    0    0  501 -0.00000000000E+00  0.00000000000E+00  0.95789308317E+02  0.95789308317E+02  0.00000000000E+00 0.  1.
          2   -1    0    0  501    0  0.00000000000E+00 -0.00000000000E+00 -0.54406490419E+03  0.54406490419E+03  0.00000000000E+00 0. -1.
         25    2    1    2    0    0 -0.14654011395E+03 -0.71281446477E+01 -0.42431916903E+03  0.46606633598E+03  0.12508499864E+03 0.  0.
          5    1    3    3  502    0 -0.85767251453E+02 -0.52860473339E+02 -0.32868021378E+03  0.34379995113E+03  0.41800000000E+01 0. -1.
         -5    1    3    3    0  502 -0.60772862501E+02  0.45732328692E+02 -0.95638955248E+02  0.12226638485E+03  0.41800000000E+01 0. -1.
        -11    1    1    2    0    0  0.13993265210E+03  0.26695743456E+02 -0.39624132404E+02  0.14786440313E+03  0.00000000000E+00 0. -1.
         11    1    1    2    0    0  0.66074618526E+01 -0.19567598808E+02  0.15667705565E+02  0.25923473396E+02  0.00000000000E+00 0.  1.
</event>
<event>
 7    1  0.2612213E-009  0.1131557E+03  0.7561462E-02  0.1254835E+00
         -2   -1    0    0    0  501 -0.00000000000E+00  0.00000000000E+00  0.27340267858E+03  0.27340267858E+03  0.00000000000E+00 0.  1.
          2   -1    0    0  501    0  0.00000000000E+00 -0.00000000000E+00 -0.78628410071E+02  0.78628410071E+02  0.00000000000E+00 0. -1.
         25    2    1    2    0    0 -0.45150003269E+01 -0.64090929296E+02  0.15812887387E+02  0.14151344815E+03  0.12509187086E+03 0.  0.
          5    1    3    3  502    0 -0.14474166597E+01 -0.10059760553E+03 -0.16633726551E+01  0.10070855208E+03  0.41800000000E+01 0. -1.
         -5    1    3    3    0  502 -0.30675836672E+01  0.36506676230E+02  0.17476260042E+02  0.40804896079E+02  0.41800000000E+01 0. -1.
        -11    1    1    2    0    0 -0.20553649858E+02  0.68851818947E+00  0.11569063282E+03  0.11750425142E+03  0.00000000000E+00 0.  1.
         11    1    1    2    0    0  0.25068650185E+02  0.63402411107E+02  0.63270748297E+02  0.93013389070E+02  0.00000000000E+00 0. -1.
</event>
<event>
 7    1  0.2612213E-009  0.1001697E+03  0.7561462E-02  0.1279939E+00
         -1   -1    0    0    0  501 -0.00000000000E+00  0.00000000000E+00  0.61281508754E+02  0.61281508754E+02  0.00000000000E+00 0. -1.
          1   -1    0    0  501    0  0.00000000000E+00 -0.00000000000E+00 -0.22094355161E+03  0.22094355161E+03  0.00000000000E+00 0.  1.
         25    2    1    2    0    0 -0.21925257431E+02 -0.28992351938E+02 -0.12235117885E+03  0.17868859414E+03  0.12505410560E+03 0.  0.
          5    1    3    3  502    0 -0.65274010902E+02 -0.49206684395E+02 -0.70553764503E+02  0.10806155826E+03  0.41800000000E+01 0. -1.
         -5    1    3    3    0  502  0.43348753471E+02  0.20214332458E+02 -0.51797414344E+02  0.70627035878E+02  0.41800000000E+01 0. -1.
        -11    1    1    2    0    0  0.13996016840E+02 -0.18010644083E+02  0.19052063041E+02  0.29719570889E+02  0.00000000000E+00 0. -1.
         11    1    1    2    0    0  0.79292405908E+01  0.47002996021E+02 -0.56362927046E+02  0.73816895332E+02  0.00000000000E+00 0.  1.
</event>
<event>
 7    1  0.2612213E-009  0.1166826E+03  0.7561462E-02  0.1248672E+00
         -2   -1    0    0    0  501 -0.00000000000E+00  0.00000000000E+00  0.35295619487E+02  0.35295619487E+02  0.00000000000E+00 0.  1.
          2   -1    0    0  501    0  0.00000000000E+00 -0.00000000000E+00 -0.46548336140E+03  0.46548336140E+03  0.00000000000E+00 0. -1.
         25    2    1    2    0    0 -0.11742419754E+02 -0.54807736854E+02 -0.31557107726E+03  0.34405405007E+03  0.12508521944E+03 0.  0.
          5    1    3    3  502    0  0.41086368243E+02 -0.63083962746E+02 -0.23866144640E+03  0.25028870212E+03  0.41800000000E+01 0.  1.
         -5    1    3    3    0  502 -0.52828787996E+02  0.82762258925E+01 -0.76909630862E+02  0.93765347947E+02  0.41800000000E+01 0.  1.
        -11    1    1    2    0    0 -0.38507905523E+02  0.22837104963E+02 -0.66460589367E+02  0.80133651420E+02  0.00000000000E+00 0. -1.
         11    1    1    2    0    0  0.50250325276E+02  0.31970631890E+02 -0.48156075288E+02  0.76591279405E+02  0.00000000000E+00 0.  1.
</event>
<event>
 7    1  0.2612213E-009  0.7069413E+02  0.7561462E-02  0.1357748E+00
          2   -1    0    0  501    0  0.00000000000E+00  0.00000000000E+00  0.66104851496E+02  0.66104851496E+02  0.00000000000E+00 0. -1.
         -2   -1    0    0    0  501 -0.00000000000E+00 -0.00000000000E+00 -0.24953670022E+03  0.24953670022E+03  0.00000000000E+00 0.  1.
         25    2    1    2    0    0 -0.14139844959E+02  0.52478862068E+02 -0.44649583039E+02  0.14350927468E+03  0.12508940992E+03 0.  0.
          5    1    3    3  502    0 -0.13919753428E+02  0.20930651203E+02  0.43154191553E+02  0.50115948997E+02  0.41800000000E+01 0. -1.
         -5    1    3    3    0  502 -0.22009153137E+00  0.31548210865E+02 -0.87803774592E+02  0.93393325681E+02  0.41800000000E+01 0. -1.
        -11    1    1    2    0    0  0.37738189858E+02 -0.46215983802E+02 -0.43680370760E+02  0.73946351650E+02  0.00000000000E+00 0. -1.
         11    1    1    2    0    0 -0.23598344899E+02 -0.62628782656E+01 -0.95101894925E+02  0.98185925389E+02  0.00000000000E+00 0.  1.
</event>
<event>
 7    1  0.2612213E-009  0.8038634E+02  0.7561462E-02  0.1327959E+00
          1   -1    0    0  501    0  0.00000000000E+00  0.00000000000E+00  0.89935777854E+02  0.89935777854E+02  0.00000000000E+00 0. -1.
         -1   -1    0    0    0  501 -0.00000000000E+00 -0.00000000000E+00 -0.19945477268E+03  0.19945477268E+03  0.00000000000E+00 0.  1.
         25    2    1    2    0    0 -0.38340357362E+02  0.46413254453E+02 -0.11203008712E+03  0.17837778729E+03  0.12507486313E+03 0.  0.
          5    1    3    3  502    0 -0.39873547328E+02  0.14216285648E+02  0.16631832808E+02  0.45673765081E+02  0.41800000000E+01 0.  1.
         -5    1    3    3    0  502  0.15331899655E+01  0.32196968804E+02 -0.12866191993E+03  0.13270402221E+03  0.41800000000E+01 0.  1.
        -11    1    1    2    0    0 -0.84401110285E+01  0.95802641602E+01 -0.28885012220E+02  0.31581020669E+02  0.00000000000E+00 0.  1.
         11    1    1    2    0    0  0.46780468391E+02 -0.55993518613E+02  0.31396104512E+02  0.79431742572E+02  0.00000000000E+00 0. -1.
</event>
<event>
 7    1  0.2612213E-009  0.1115627E+03  0.7561462E-02  0.1257703E+00
          2   -1    0    0  501    0  0.00000000000E+00  0.00000000000E+00  0.15701306831E+03  0.15701306831E+03  0.00000000000E+00 0. -1.
         -2   -1    0    0    0  501 -0.00000000000E+00 -0.00000000000E+00 -0.10188798116E+03  0.10188798116E+03  0.00000000000E+00 0.  1.
         25    2    1    2    0    0  0.76431797809E+01 -0.44838903855E+02 -0.23137252592E+02  0.13509931146E+03  0.12509015151E+03 0.  0.
          5    1    3    3  502    0  0.41104326589E+02 -0.73893218446E+02  0.58380824796E+00  0.84661600675E+02  0.41800000000E+01 0.  1.
         -5    1    3    3    0  502 -0.33461146808E+02  0.29054314591E+02 -0.23721060840E+02  0.50437710787E+02  0.41800000000E+01 0.  1.
        -11    1    1    2    0    0  0.37436946193E+02  0.21929029787E+02  0.48714272803E+02  0.65234098924E+02  0.00000000000E+00 0. -1.
         11    1    1    2    0    0 -0.45080125974E+02  0.22909874068E+02  0.29548066938E+02  0.58567639080E+02  0.00000000000E+00 0.  1.
</event>
<event>
 7    1  0.2612213E-009  0.1469823E+03  0.7561462E-02  0.1204231E+00
         -3   -1    0    0    0  501 -0.00000000000E+00  0.00000000000E+00  0.47873740495E+03  0.47873740495E+03  0.00000000000E+00 0.  1.
          3   -1    0    0  501    0  0.00000000000E+00 -0.00000000000E+00 -0.77750621739E+02  0.77750621739E+02  0.00000000000E+00 0. -1.
         25    2    1    2    0    0  0.67809993442E+02 -0.10178626058E+03  0.35560973180E+03  0.39629913841E+03  0.12504434293E+03 0.  0.
          5    1    3    3  502    0 -0.11072622308E+01 -0.10246847950E+03  0.17359161891E+03  0.20162474520E+03  0.41800000000E+01 0. -1.
         -5    1    3    3    0  502  0.68917255673E+02  0.68221891968E+00  0.18201811289E+03  0.19467439321E+03  0.41800000000E+01 0. -1.
        -11    1    1    2    0    0 -0.55788060200E+02  0.81187270279E+02  0.73799289082E+02  0.12308539956E+03  0.00000000000E+00 0.  1.
         11    1    1    2    0    0 -0.12021933242E+02  0.20598990298E+02 -0.28422237677E+02  0.37103488714E+02  0.00000000000E+00 0. -1.
</event>
<event>
 7    1  0.2612213E-009  0.1112318E+03  0.7561462E-02  0.1258306E+00
         -2   -1    0    0    0  501 -0.00000000000E+00  0.00000000000E+00  0.54172167441E+02  0.54172167441E+02  0.00000000000E+00 0. -1.
          2   -1    0    0  501    0  0.00000000000E+00 -0.00000000000E+00 -0.27097976117E+03  0.27097976117E+03  0.00000000000E+00 0.  1.
         25    2    1    2    0    0  0.53416704424E+02  0.13118453223E+02 -0.13155935761E+03  0.18968380054E+03  0.12508653599E+03 0.  0.
          5    1    3    3  502    0  0.65986766335E+02 -0.40843853486E+02 -0.96820164119E+02  0.12415349483E+03  0.41800000000E+01 0. -1.
         -5    1    3    3    0  502 -0.12570061911E+02  0.53962306709E+02 -0.34739193494E+02  0.65530305709E+02  0.41800000000E+01 0. -1.
        -11    1    1    2    0    0 -0.70505965724E+02 -0.63145804574E+01 -0.91816798147E+02  0.11593657555E+03  0.00000000000E+00 0.  1.
         11    1    1    2    0    0  0.17089261299E+02 -0.68038727655E+01  0.65685620341E+01  0.19531552513E+02  0.00000000000E+00 0. -1.
</event>
<event>
 7    1  0.2612213E-009  0.1245708E+03  0.7561462E-02  0.1235742E+00
          1   -1    0    0  501    0  0.00000000000E+00  0.00000000000E+00  0.12732968670E+04  0.12732968670E+04  0.00000000000E+00 0. -1.
         -1   -1    0    0    0  501 -0.00000000000E+00 -0.00000000000E+00 -0.21870764816E+02  0.21870764816E+02  0.00000000000E+00 0.  1.
         25    2    1    2    0    0  0.53107431152E+02 -0.40833079612E+02  0.10848696137E+04  0.10941104244E+04  0.12509117618E+03 0.  0.
          5    1    3    3  502    0 -0.30010706710E+02  0.21028871900E+02  0.35509097627E+03  0.35700130224E+03  0.41800000000E+01 0. -1.
         -5    1    3    3    0  502  0.83118137862E+02 -0.61861951512E+02  0.72977863744E+03  0.73710912215E+03  0.41800000000E+01 0. -1.
        -11    1    1    2    0    0  0.27279134035E+01 -0.23340106478E+02  0.61780955396E+02  0.66099081170E+02  0.00000000000E+00 0. -1.
         11    1    1    2    0    0 -0.55835344555E+02  0.64173186091E+02  0.10477553311E+03  0.13495812630E+03  0.00000000000E+00 0.  1.
</event>
<event>
 7    1  0.2612213E-009  0.7993320E+02  0.7561462E-02  0.1329241E+00
         -1   -1    0    0    0  501 -0.00000000000E+00  0.00000000000E+00  0.82254481265E+02  0.82254481265E+02  0.00000000000E+00 0.  1.
          1   -1    0    0  501    0  0.00000000000E+00 -0.00000000000E+00 -0.22261980879E+03  0.22261980879E+03  0.00000000000E+00 0. -1.
         25    2    1    2    0    0  0.49249128583E+02  0.60602009673E+02 -0.89803193269E+02  0.17265813569E+03  0.12509251798E+03 0.  0.
          5    1    3    3  502    0  0.96720806307E+01  0.28855850344E+02  0.29721256025E+02  0.42743826485E+02  0.41800000000E+01 0. -1.
         -5    1    3    3    0  502  0.39577047952E+02  0.31746159329E+02 -0.11952444929E+03  0.12991430920E+03  0.41800000000E+01 0. -1.
        -11    1    1    2    0    0 -0.19657164478E+02 -0.27980501873E+02  0.26631003589E+02  0.43341930651E+02  0.00000000000E+00 0.  1.
         11    1    1    2    0    0 -0.29591964105E+02 -0.32621507800E+02 -0.77193137850E+02  0.88874223720E+02  0.00000000000E+00 0. -1.
</event>
<event>
 7    1  0.2612213E-009  0.1143219E+03  0.7561462E-02  0.1252769E+00
         -2   -1    0    0    0  501 -0.00000000000E+00  0.00000000000E+00  0.18267270507E+02  0.18267270507E+02  0.00000000000E+00 0.  1.
          2   -1    0    0  501    0  0.00000000000E+00 -0.00000000000E+00 -0.85931990064E+03  0.85931990064E+03  0.00000000000E+00 0. -1.
         25    2    1    2    0    0 -0.55028754689E+02  0.34322675492E+02 -0.51503206040E+03  0.53395876120E+03  0.12509086912E+03 0.  0.
          5    1    3    3  502    0 -0.79330113172E+02 -0.45728068454E+01 -0.19468860913E+03  0.21032190647E+03  0.41800000000E+01 0.  1.
         -5    1    3    3    0  502  0.24301358483E+02  0.38895482338E+02 -0.32034345127E+03  0.32363685473E+03  0.41800000000E+01 0.  1.
        -11    1    1    2    0    0  0.28629772839E+02  0.25050227548E+02 -0.17726077137E+03  0.18129688045E+03  0.00000000000E+00 0. -1.
         11    1    1    2    0    0  0.26398981850E+02 -0.59372903040E+02 -0.14875979837E+03  0.16233152949E+03  0.00000000000E+00 0.  1.
</event>
<event>
 7    1  0.2612213E-009  0.1431844E+03  0.7561462E-02  0.1209107E+00
          2   -1    0    0  501    0  0.00000000000E+00  0.00000000000E+00  0.58963373031E+03  0.58963373031E+03  0.00000000000E+00 0. -1.
         -2   -1    0    0    0  501 -0.00000000000E+00 -0.00000000000E+00 -0.45029724476E+02  0.45029724476E+02  0.00000000000E+00 0.  1.
         25    2    1    2    0    0  0.11206882113E+03 -0.47371815461E+02  0.28968363415E+03  0.33818295894E+03  0.12509035236E+03 0.  0.
          5    1    3    3  502    0  0.22630567074E+01 -0.49593794663E+02  0.35263824905E+02  0.61038312900E+02  0.41800000000E+01 0.  1.
         -5    1    3    3    0  502  0.10980576442E+03  0.22219792026E+01  0.25441980925E+03  0.27714464604E+03  0.41800000000E+01 0.  1.
        -11    1    1    2    0    0 -0.11612705586E+02 -0.57989421011E+01 -0.41063106280E+01  0.13614126762E+02  0.00000000000E+00 0.  1.
         11    1    1    2    0    0 -0.10045611554E+03  0.53170757562E+02  0.25902668232E+03  0.28286636909E+03  0.00000000000E+00 0. -1.
</event>
<event>
 7    1  0.2612213E-009  0.9655818E+02  0.7561462E-02  0.1287705E+00
          2   -1    0    0  501    0  0.00000000000E+00  0.00000000000E+00  0.99397423234E+02  0.99397423234E+02  0.00000000000E+00 0.  1.
         -2   -1    0    0    0  501 -0.00000000000E+00 -0.00000000000E+00 -0.14936932235E+03  0.14936932235E+03  0.00000000000E+00 0. -1.
         25    2    1    2    0    0  0.30501253904E+02  0.28079334314E+02 -0.66605450023E+02  0.14766294103E+03  0.12509709300E+03 0.  0.
          5    1    3    3  502    0 -0.29776721464E+02 -0.92269106542E+01 -0.69821192463E+02  0.76578458709E+02  0.41800000000E+01 0. -1.
         -5    1    3    3    0  502  0.60277975368E+02  0.37306244968E+02  0.32157424402E+01  0.71084482325E+02  0.41800000000E+01 0. -1.
        -11    1    1    2    0    0  0.23905730390E+02 -0.27235124718E+02 -0.13776842479E+02  0.38769025685E+02  0.00000000000E+00 0. -1.
         11    1    1    2    0    0 -0.54406984294E+02 -0.84420959580E+00  0.30410393388E+02  0.62334778862E+02  0.00000000000E+00 0.  1.
</event>
<event>
 7    1  0.2612213E-009  0.1007770E+03  0.7561462E-02  0.1278670E+00
          2   -1    0    0  501    0  0.00000000000E+00  0.00000000000E+00  0.41920658152E+03  0.41920658152E+03  0.00000000000E+00 0. -1.
         -2   -1    0    0    0  501 -0.00000000000E+00 -0.00000000000E+00 -0.33263416616E+02  0.33263416616E+02  0.00000000000E+00 0.  1.
         25    2    1    2    0    0 -0.38981932355E+02  0.13815792263E+01  0.22608956231E+03  0.26131533223E+03  0.12509081845E+03 0.  0.
          5    1    3    3  502    0 -0.61062060648E+02  0.46152433278E+02  0.16765037070E+03  0.18434408465E+03  0.41800000000E+01 0. -1.
         -5    1    3    3    0  502  0.22080128294E+02 -0.44770854052E+02  0.58439191609E+02  0.76971247579E+02  0.41800000000E+01 0. -1.
        -11    1    1    2    0    0 -0.16486638586E+02  0.83624775907E+01 -0.30993076105E+01  0.18744225537E+02  0.00000000000E+00 0.  1.
         11    1    1    2    0    0  0.55468570941E+02 -0.97440568170E+01  0.16295291020E+03  0.17241044037E+03  0.00000000000E+00 0. -1.
</event>
<event>
 7    1  0.2612213E-009  0.2502801E+03  0.7561462E-02  0.1113128E+00
         -3   -1    0    0    0  501 -0.00000000000E+00  0.00000000000E+00  0.74096486545E+02  0.74096486545E+02  0.00000000000E+00 0.  1.
          3   -1    0    0  501    0  0.00000000000E+00 -0.00000000000E+00 -0.93458943551E+03  0.93458943551E+03  0.00000000000E+00 0. -1.
         25    2    1    2    0    0  0.10145537833E+03  0.21633712079E+03 -0.46575181211E+03  0.53820752554E+03  0.12509055295E+03 0.  0.
          5    1    3    3  502    0  0.48927193124E+01  0.78834208934E+02 -0.60808124221E+02  0.99769091265E+02  0.41800000000E+01 0. -1.
         -5    1    3    3    0  502  0.96562659017E+02  0.13750291186E+03 -0.40494368789E+03  0.43843843427E+03  0.41800000000E+01 0. -1.
        -11    1    1    2    0    0 -0.52717182272E+02 -0.29729168126E+02 -0.67754005628E+02  0.90848940681E+02  0.00000000000E+00 0. -1.
         11    1    1    2    0    0 -0.48738196057E+02 -0.18660795266E+03 -0.32698713123E+03  0.37962945584E+03  0.00000000000E+00 0.  1.
</event>
<event>
 7    1  0.2612213E-009  0.1054386E+03  0.7561462E-02  0.1269258E+00
          2   -1    0    0  501    0  0.00000000000E+00  0.00000000000E+00  0.37584690928E+03  0.37584690928E+03  0.00000000000E+00 0.  1.
         -2   -1    0    0    0  501 -0.00000000000E+00 -0.00000000000E+00 -0.41012827394E+02  0.41012827394E+02  0.00000000000E+00 0. -1.
         25    2    1    2    0    0  0.47306286111E+02  0.78200071307E+01  0.24967230280E+03  0.28334229425E+03  0.12509020628E+03 0.  0.
          5    1    3    3  502    0  0.59388661700E+02 -0.47815561190E+02  0.13039264217E+03  0.15110610366E+03  0.41800000000E+01 0.  1.
         -5    1    3    3    0  502 -0.12082375589E+02  0.55635568321E+02  0.11927966063E+03  0.13223619059E+03  0.41800000000E+01 0.  1.
        -11    1    1    2    0    0  0.11263237970E+02  0.11167743586E+02  0.67679288780E+02  0.69513057451E+02  0.00000000000E+00 0.  1.
         11    1    1    2    0    0 -0.58569524081E+02 -0.18987750717E+02  0.17482490304E+02  0.64004384971E+02  0.00000000000E+00 0. -1.
</event>
<event>
 7    1  0.2612213E-009  0.1656930E+03  0.7561462E-02  0.1182415E+00
         -2   -1    0    0    0  501 -0.00000000000E+00  0.00000000000E+00  0.56084608630E+02  0.56084608630E+02  0.00000000000E+00 0.  1.
          2   -1    0    0  501    0  0.00000000000E+00 -0.00000000000E+00 -0.68538779380E+03  0.68538779380E+03  0.00000000000E+00 0. -1.
         25    2    1    2    0    0 -0.70342264007E+02 -0.12271527573E+03 -0.48763385980E+03  0.52291609233E+03  0.12508950954E+03 0.  0.
          5    1    3    3  502    0 -0.86680389622E+02 -0.76210440573E+02 -0.43748966269E+03  0.45247784317E+03  0.41800000000E+01 0. -1.
         -5    1    3    3    0  502  0.16338125615E+02 -0.46504835158E+02 -0.50144197102E+02  0.70438249160E+02  0.41800000000E+01 0. -1.
        -11    1    1    2    0    0  0.87728392052E+02  0.74243747756E+02 -0.97791500808E+02  0.15090255956E+03  0.00000000000E+00 0.  1.
         11    1    1    2    0    0 -0.17386128045E+02  0.48471527976E+02 -0.43877824570E+02  0.67653750537E+02  0.00000000000E+00 0. -1.
</event>
<event>
 7    1  0.2612213E-009  0.1302307E+03  0.7561462E-02  0.1227114E+00
          1   -1    0    0  501    0  0.00000000000E+00  0.00000000000E+00  0.43833480260E+03  0.43833480260E+03  0.00000000000E+00 0. -1.
         -1   -1    0    0    0  501 -0.00000000000E+00 -0.00000000000E+00 -0.52942968286E+02  0.52942968286E+02  0.00000000000E+00 0.  1.
         25    2    1    2    0    0 -0.86582742428E+02 -0.50108913535E+02  0.17473976724E+03  0.23703799232E+03  0.12508216917E+03 0.  0.
          5    1    3    3  502    0  0.18614198679E+02 -0.49962660979E+02  0.44542155766E+02  0.69600516699E+02  0.41800000000E+01 0. -1.
         -5    1    3    3    0  502 -0.10519694111E+03 -0.14625255560E+00  0.13019761147E+03  0.16743747562E+03  0.41800000000E+01 0. -1.
        -11    1    1    2    0    0  0.36350004368E+02  0.10815755094E+02  0.17912802846E+03  0.18309875465E+03  0.00000000000E+00 0. -1.
         11    1    1    2    0    0  0.50232738060E+02  0.39293158441E+02  0.31524038616E+02  0.71141023917E+02  0.00000000000E+00 0.  1.
</event>
<event>
 7    1  0.2612213E-009  0.9651040E+02  0.7561462E-02  0.1287810E+00
         -2   -1    0    0    0  501 -0.00000000000E+00  0.00000000000E+00  0.11170782496E+03  0.11170782496E+03  0.00000000000E+00 0.  1.
          2   -1    0    0  501    0  0.00000000000E+00 -0.00000000000E+00 -0.14708005671E+03  0.14708005671E+03  0.00000000000E+00 0. -1.
         25    2    1    2    0    0  0.27766780336E+02  0.32874806363E+02 -0.73964712491E+02  0.15155919631E+03  0.12509062439E+03 0.  0.
          5    1    3    3  502    0 -0.32652429418E+02 -0.18481465961E+02 -0.60067028891E+02  0.70945514945E+02  0.41800000000E+01 0. -1.
         -5    1    3    3    0  502  0.60419209754E+02  0.51356272324E+02 -0.13897683599E+02  0.80613681368E+02  0.41800000000E+01 0. -1.
        -11    1    1    2    0    0 -0.46819398220E+02 -0.13587569768E+02 -0.11663028126E+02  0.50126882279E+02  0.00000000000E+00 0. -1.
         11    1    1    2    0    0  0.19052617884E+02 -0.19287236595E+02  0.50255508868E+02  0.57101803083E+02  0.00000000000E+00 0.  1.
</event>
<event>
 7    1  0.2612213E-009  0.1341066E+03  0.7561462E-02  0.1221486E+00
          1   -1    0    0  501    0  0.00000000000E+00  0.00000000000E+00  0.14482586636E+04  0.14482586636E+04  0.00000000000E+00 0. -1.
         -1   -1    0    0    0  501 -0.00000000000E+00 -0.00000000000E+00 -0.15532425908E+02  0.15532425908E+02  0.00000000000E+00 0.  1.
         25    2    1    2    0    0 -0.40899557293E+02 -0.74836874554E+02  0.11121022582E+04  0.11223605071E+04  0.12509333972E+03 0.  0.
          5    1    3    3  502    0 -0.85891388206E+02 -0.52053184861E+02  0.77090985150E+03  0.77743574408E+03  0.41800000000E+01 0. -1.
         -5    1    3    3    0  502  0.44991830913E+02 -0.22783689693E+02  0.34119240669E+03  0.34492476302E+03  0.41800000000E+01 0. -1.
        -11    1    1    2    0    0  0.65145821715E+02  0.47993613399E+02  0.21040166210E+03  0.22542454264E+03  0.00000000000E+00 0.  1.
         11    1    1    2    0    0 -0.24246264422E+02  0.26843261155E+02  0.11022231743E+03  0.11600603979E+03  0.00000000000E+00 0. -1.
</event>
<event>
 7    1  0.2612213E-009  0.1777417E+03  0.7561462E-02  0.1170007E+00
          2   -1    0    0  501    0  0.00000000000E+00  0.00000000000E+00  0.58125651137E+03  0.58125651137E+03  0.00000000000E+00 0. -1.
         -2   -1    0    0    0  501 -0.00000000000E+00 -0.00000000000E+00 -0.58753056561E+02  0.58753056561E+02  0.00000000000E+00 0.  1.
         25    2    1    2    0    0  0.12385188335E+03  0.77415402995E+02  0.23228993241E+03  0.30156047261E+03  0.12509065637E+03 0.  0.
          5    1    3    3  502    0  0.59488118444E+02 -0.22358807882E+02  0.39011238829E+02  0.74686690119E+02  0.41800000000E+01 0. -1.
         -5    1    3    3    0  502  0.64363764903E+02  0.99774210877E+02  0.19327869358E+03  0.22687378249E+03  0.41800000000E+01 0. -1.
        -11    1    1    2    0    0  0.10301838440E+02  0.87751245818E+01  0.13720005213E+02  0.19270942626E+02  0.00000000000E+00 0.  1.
         11    1    1    2    0    0 -0.13415372179E+03 -0.86190527577E+02  0.27649351718E+03  0.31917815269E+03  0.00000000000E+00 0. -1.
</event>
<event>
 7    1  0.2612213E-009  0.1314949E+03  0.7561462E-02  0.1225254E+00
          2   -1    0    0  501    0  0.00000000000E+00  0.00000000000E+00  0.13015133582E+04  0.13015133582E+04  0.00000000000E+00 0. -1.
         -2   -1    0    0    0  501 -0.00000000000E+00 -0.00000000000E+00 -0.13642688416E+02  0.13642688416E+02  0.00000000000E+00 0.  1.
         25    2    1    2    0    0 -0.17824022985E+02  0.73720576001E+02  0.65847013249E+03  0.67452415935E+03  0.12508999581E+03 0.  0.
          5    1    3    3  502    0 -0.67535753431E+02  0.63334567569E+02  0.48267832516E+03  0.49149586307E+03  0.41800000000E+01 0. -1.
         -5    1    3    3    0  502  0.49711730446E+02  0.10386008431E+02  0.17579180733E+03  0.18302829628E+03  0.41800000000E+01 0. -1.
        -11    1    1    2    0    0 -0.33441553916E+02 -0.55782029435E+02  0.35469147403E+03  0.36060506664E+03  0.00000000000E+00 0.  1.
         11    1    1    2    0    0  0.51265576901E+02 -0.17938546566E+02  0.27470906327E+03  0.28002682063E+03  0.00000000000E+00 0. -1.
</event>
<event>
 7    1  0.2612213E-009  0.1465755E+03  0.7561462E-02  0.1204745E+00
          1   -1    0    0  501    0  0.00000000000E+00  0.00000000000E+00  0.32647300337E+03  0.32647300337E+03  0.00000000000E+00 0. -1.
         -1   -1    0    0    0  501 -0.00000000000E+00 -0.00000000000E+00 -0.85663240099E+02  0.85663240099E+02  0.00000000000E+00 0.  1.
         25    2    1    2    0    0  0.90355160063E+02 -0.56906353915E+02  0.19457761582E+03  0.25477502779E+03  0.12508988025E+03 0.  0.
          5    1    3    3  502    0 -0.30980897252E+02 -0.20279634011E+02  0.51822003924E+02  0.63828457924E+02  0.41800000000E+01 0. -1.
         -5    1    3    3    0  502  0.12133605732E+03 -0.36626719904E+02  0.14275561190E+03  0.19094656987E+03  0.41800000000E+01 0. -1.
        -11    1    1    2    0    0 -0.56781279388E+02 -0.66766617305E+01 -0.19031011958E+02  0.60256708480E+02  0.00000000000E+00 0.  1.
         11    1    1    2    0    0 -0.33573880676E+02  0.63583015646E+02  0.65263159404E+02  0.97104507195E+02  0.00000000000E+00 0. -1.
</event>
<event>
 7    1  0.2612213E-009  0.1416063E+03  0.7561462E-02  0.1211184E+00
         -2   -1    0    0    0  501 -0.00000000000E+00  0.00000000000E+00  0.56621266426E+02  0.56621266426E+02  0.00000000000E+00 0.  1.
          2   -1    0    0  501    0  0.00000000000E+00 -0.00000000000E+00 -0.47260230447E+03  0.47260230447E+03  0.00000000000E+00 0. -1.
         25    2    1    2    0    0  0.84775254276E+02 -0.60287563380E+02 -0.11804320695E+03  0.20100632162E+03  0.12509160079E+03 0.  0.
          5    1    3    3  502    0  0.36971429868E+02 -0.95415257872E+02 -0.64853441325E+02  0.12122045749E+03  0.41800000000E+01 0.  1.
         -5    1    3    3    0  502  0.47803824408E+02  0.35127694492E+02 -0.53189765628E+02  0.79785864136E+02  0.41800000000E+01 0.  1.
        -11    1    1    2    0    0 -0.84949482420E+02  0.28589322418E+02 -0.27458899233E+03  0.28884750065E+03  0.00000000000E+00 0. -1.
         11    1    1    2    0    0  0.17422814413E+00  0.31698240963E+02 -0.23348838756E+02  0.39369748626E+02  0.00000000000E+00 0.  1.
</event>
<event>
 7    1  0.2612213E-009  0.1462564E+03  0.7561462E-02  0.1205150E+00
         -1   -1    0    0    0  501 -0.00000000000E+00  0.00000000000E+00  0.57723713536E+02  0.57723713536E+02  0.00000000000E+00 0.  1.
          1   -1    0    0  501    0  0.00000000000E+00 -0.00000000000E+00 -0.43970138968E+03  0.43970138968E+03  0.00000000000E+00 0. -1.
         25    2    1    2    0    0 -0.10662187898E+03 -0.43843792578E+02 -0.18195878215E+03  0.24909282442E+03  0.12509090116E+03 0.  0.
          5    1    3    3  502    0 -0.15312917150E+00  0.27996962332E+02 -0.25694342513E+01  0.28424069743E+02  0.41800000000E+01 0. -1.
         -5    1    3    3    0  502 -0.10646874981E+03 -0.71840754911E+02 -0.17938934790E+03  0.22066875468E+03  0.41800000000E+01 0. -1.
        -11    1    1    2    0    0  0.11751200280E+03  0.39499265603E+02 -0.20142953081E+03  0.23652297704E+03  0.00000000000E+00 0. -1.
         11    1    1    2    0    0 -0.10890123823E+02  0.43445269751E+01  0.14106368229E+01  0.11809301748E+02  0.00000000000E+00 0.  1.
</event>
<event>
 7    1  0.2612213E-009  0.1346121E+03  0.7561462E-02  0.1220768E+00
         -1   -1    0    0    0  501 -0.00000000000E+00  0.00000000000E+00  0.72780928612E+03  0.72780928612E+03  0.00000000000E+00 0.  1.
          1   -1    0    0  501    0  0.00000000000E+00 -0.00000000000E+00 -0.36953259568E+02  0.36953259568E+02  0.00000000000E+00 0. -1.
         25    2    1    2    0    0 -0.15871936835E+02  0.80940234905E+02  0.58722184275E+03  0.60603526683E+03  0.12508401991E+03 0.  0.
          5    1    3    3  502    0  0.35923241937E+02  0.89949866107E+02  0.39284329200E+03  0.40462919098E+03  0.41800000000E+01 0.  1.
         -5    1    3    3    0  502 -0.51795178772E+02 -0.90096312023E+01  0.19437855075E+03  0.20140607585E+03  0.41800000000E+01 0.  1.
        -11    1    1    2    0    0 -0.32553706201E+02 -0.56706523979E+02  0.65078249774E+02  0.92252654395E+02  0.00000000000E+00 0. -1.
         11    1    1    2    0    0  0.48425643036E+02 -0.24233710925E+02  0.38555934031E+02  0.66474624464E+02  0.00000000000E+00 0.  1.
</event>
<event>
 7    1  0.2612213E-009  0.1859824E+03  0.7561462E-02  0.1162136E+00
          1   -1    0    0  501    0  0.00000000000E+00  0.00000000000E+00  0.98623405096E+03  0.98623405096E+03  0.00000000000E+00 0. -1.
         -1   -1    0    0    0  501 -0.00000000000E+00 -0.00000000000E+00 -0.53969768323E+02  0.53969768323E+02  0.00000000000E+00 0.  1.
         25    2    1    2    0    0  0.12108503995E+03  0.12375993428E+03  0.72052278739E+03  0.75151335316E+03  0.12506448174E+03 0.  0.
          5    1    3    3  502    0 -0.45422506486E+00  0.31765470477E+02  0.28480045788E+02  0.42869999337E+02  0.41800000000E+01 0. -1.
         -5    1    3    3    0  502  0.12153926502E+03  0.91994463807E+02  0.69204274160E+03  0.70864335382E+03  0.41800000000E+01 0. -1.
        -11    1    1    2    0    0 -0.93690821493E+02 -0.44785421068E+02  0.15881741011E+03  0.18975424561E+03  0.00000000000E+00 0. -1.
         11    1    1    2    0    0 -0.27394218458E+02 -0.78974513216E+02  0.52924085139E+02  0.98936220518E+02  0.00000000000E+00 0.  1.
</event>
<event>
 7    1  0.2612213E-009  0.2246398E+03  0.7561462E-02  0.1130470E+00
         -1   -1    0    0    0  501 -0.00000000000E+00  0.00000000000E+00  0.10823561994E+03  0.10823561994E+03  0.00000000000E+00 0.  1.
          1   -1    0    0  501    0  0.00000000000E+00 -0.00000000000E+00 -0.57742198691E+03  0.57742198691E+03  0.00000000000E+00 0. -1.
         25    2    1    2    0    0 -0.19732903179E+03 -0.87513365752E+02 -0.32738387533E+03  0.41161246232E+03  0.12508909361E+03 0.  0.
          5    1    3    3  502    0 -0.31491835925E+02 -0.34369849915E+02 -0.75353669376E+01  0.47405447662E+02  0.41800000000E+01 0.  1.
         -5    1    3    3    0  502 -0.16583719586E+03 -0.53143515836E+02 -0.31984850839E+03  0.36420701466E+03  0.41800000000E+01 0.  1.
        -11    1    1    2    0    0  0.70736830717E+02 -0.58607465835E+01 -0.74649127696E+02  0.10300747466E+03  0.00000000000E+00 0. -1.
         11    1    1    2    0    0  0.12659220107E+03  0.93374112335E+02 -0.67153363944E+02  0.17103766987E+03  0.00000000000E+00 0.  1.
</event>
<event>
 7    1  0.2612213E-009  0.1112172E+03  0.7561462E-02  0.1258332E+00
          2   -1    0    0  501    0  0.00000000000E+00  0.00000000000E+00  0.40232470394E+03  0.40232470394E+03  0.00000000000E+00 0. -1.
         -2   -1    0    0    0  501 -0.00000000000E+00 -0.00000000000E+00 -0.34661845480E+02  0.34661845480E+02  0.00000000000E+00 0.  1.
         25    2    1    2    0    0 -0.64942181838E+02  0.27416645817E+02  0.19574494487E+03  0.24276228401E+03  0.12509309990E+03 0.  0.
          5    1    3    3  502    0 -0.37507581159E+02 -0.49039081052E+02  0.93289729034E+02  0.11194684479E+03  0.41800000000E+01 0.  1.
         -5    1    3    3    0  502 -0.27434600679E+02  0.76455726869E+02  0.10245521584E+03  0.13081543922E+03  0.41800000000E+01 0.  1.
        -11    1    1    2    0    0  0.57144654054E+02 -0.72577856289E+01  0.15883732749E+03  0.16896000575E+03  0.00000000000E+00 0. -1.
         11    1    1    2    0    0  0.77975277842E+01 -0.20158860188E+02  0.13080586098E+02  0.25264259663E+02  0.00000000000E+00 0.  1.
</event>
<event>
 7    1  0.2612213E-009  0.1706149E+03  0.7561462E-02  0.1177208E+00
         -1   -1    0    0    0  501 -0.00000000000E+00  0.00000000000E+00  0.10309577994E+03  0.10309577994E+03  0.00000000000E+00 0.  1.
          1   -1    0    0  501    0  0.00000000000E+00 -0.00000000000E+00 -0.34591829683E+03  0.34591829683E+03  0.00000000000E+00 0. -1.
         25    2    1    2    0    0  0.70554205877E+02  0.12444159505E+03 -0.19292144827E+03  0.27079420562E+03  0.12508880863E+03 0.  0.
          5    1    3    3  502    0  0.56428227650E+01  0.11066486303E+03 -0.70263215373E+02  0.13127431277E+03  0.41800000000E+01 0. -1.
         -5    1    3    3    0  502  0.64911383112E+02  0.13776732026E+02 -0.12265823290E+03  0.13951989285E+03  0.41800000000E+01 0. -1.
        -11    1    1    2    0    0 -0.57068193551E+02 -0.13510355088E+03 -0.59796720163E+02  0.15838369840E+03  0.00000000000E+00 0.  1.
         11    1    1    2    0    0 -0.13486012326E+02  0.10661955825E+02  0.98956515410E+01  0.19836172763E+02  0.00000000000E+00 0. -1.
</event>
<event>
 7    1  0.2612213E-009  0.9643888E+02  0.7561462E-02  0.1287968E+00
         -1   -1    0    0    0  501 -0.00000000000E+00  0.00000000000E+00  0.57990108413E+03  0.57990108413E+03  0.00000000000E+00 0.  1.
          1   -1    0    0  501    0  0.00000000000E+00 -0.00000000000E+00 -0.25312153680E+02  0.25312153680E+02  0.00000000000E+00 0. -1.
         25    2    1    2    0    0 -0.55332939479E+00 -0.54727150289E+02  0.30228551830E+03  0.33168915370E+03  0.12508314419E+03 0.  0.
          5    1    3    3  502    0 -0.35299513184E+02 -0.37099722739E+02  0.36486761922E+02  0.63017467847E+02  0.41800000000E+01 0. -1.
         -5    1    3    3    0  502  0.34746183790E+02 -0.17627427550E+02  0.26579875638E+03  0.26867168586E+03  0.41800000000E+01 0. -1.
        -11    1    1    2    0    0  0.42720539134E+02  0.37201470281E+02  0.17269602072E+03  0.18174957889E+03  0.00000000000E+00 0. -1.
         11    1    1    2    0    0 -0.42167209739E+02  0.17525680008E+02  0.79607391434E+02  0.91774505217E+02  0.00000000000E+00 0.  1.
</event>
<event>
 7    1  0.2612213E-009  0.1846849E+03  0.7561462E-02  0.1163344E+00
         -1   -1    0    0    0  501 -0.00000000000E+00  0.00000000000E+00  0.19529525661E+03  0.19529525661E+03  0.00000000000E+00 0.  1.
          1   -1    0    0  501    0  0.00000000000E+00 -0.00000000000E+00 -0.26106077599E+03  0.26106077599E+03  0.00000000000E+00 0. -1.
         25    2    1    2    0    0 -0.13946775434E+03 -0.67690522360E+02 -0.15846722814E+03  0.25454727451E+03  0.12509672757E+03 0.  0.
          5    1    3    3  502    0 -0.11844973074E+02 -0.68462893083E+02 -0.39552202942E+02  0.80058230520E+02  0.41800000000E+01 0. -1.
         -5    1    3    3    0  502 -0.12762278126E+03  0.77237072231E+00 -0.11891502520E+03  0.17448904399E+03  0.41800000000E+01 0. -1.
        -11    1    1    2    0    0  0.43544962770E+02  0.62282917314E+02  0.69473698014E+02  0.10296562673E+03  0.00000000000E+00 0.  1.
         11    1    1    2    0    0  0.95922791569E+02  0.54076050466E+01  0.23228010739E+02  0.98843131363E+02  0.00000000000E+00 0. -1.
</event>
<event>
 7    1  0.2612213E-009  0.1116336E+03  0.7561462E-02  0.1257574E+00
          2   -1    0    0  501    0  0.00000000000E+00  0.00000000000E+00  0.21168257348E+04  0.21168257348E+04  0.00000000000E+00 0. -1.
         -2   -1    0    0    0  501 -0.00000000000E+00 -0.00000000000E+00 -0.10824692150E+02  0.10824692150E+02  0.00000000000E+00 0.  1.
         25    2    1    2    0    0  0.59996536921E+02  0.48129853317E+02  0.16451560286E+04  0.16516966745E+04  0.12508988301E+03 0.  0.
          5    1    3    3  502    0  0.38660593000E+02 -0.19553921819E+02  0.12091480939E+04  0.12099312305E+04  0.41800000000E+01 0. -1.
         -5    1    3    3    0  502  0.21335943921E+02  0.67683775136E+02  0.43600793477E+03  0.44176544399E+03  0.41800000000E+01 0. -1.
        -11    1    1    2    0    0 -0.14494720927E+01 -0.50052161178E+02  0.11868513559E+03  0.12881568700E+03  0.00000000000E+00 0.  1.
         11    1    1    2    0    0 -0.58547064828E+02  0.19223078609E+01  0.34215987841E+03  0.34713806542E+03  0.00000000000E+00 0. -1.
</event>
<event>
 7    1  0.2612213E-009  0.1105192E+03  0.7561462E-02  0.1259611E+00
         -1   -1    0    0    0  501 -0.00000000000E+00  0.00000000000E+00  0.29048905093E+03  0.29048905093E+03  0.00000000000E+00 0.  1.
          1   -1    0    0  501    0  0.00000000000E+00 -0.00000000000E+00 -0.74324752421E+02  0.74324752421E+02  0.00000000000E+00 0. -1.
         25    2    1    2    0    0  0.92062847027E+02  0.43969963474E+02  0.11798077159E+03  0.19994036860E+03  0.12509101902E+03 0.  0.
          5    1    3    3  502    0  0.49822988569E+02  0.40609938096E+02  0.13844739246E+03  0.15269790483E+03  0.41800000000E+01 0.  1.
         -5    1    3    3    0  502  0.42239858458E+02  0.33600253783E+01 -0.20466620868E+02  0.47242463768E+02  0.41800000000E+01 0.  1.
        -11    1    1    2    0    0 -0.66226320875E+02 -0.54871498025E+02  0.29896472477E+02  0.91052764586E+02  0.00000000000E+00 0. -1.
         11    1    1    2    0    0 -0.25836526152E+02  0.10901534551E+02  0.68287054442E+02  0.73820670164E+02  0.00000000000E+00 0.  1.
</event>
<event>
 7    1  0.2612213E-009  0.1024010E+03  0.7561462E-02  0.1275327E+00
          3   -1    0    0  501    0  0.00000000000E+00  0.00000000000E+00  0.67035621964E+02  0.67035621964E+02  0.00000000000E+00 0. -1.
         -3   -1    0    0    0  501 -0.00000000000E+00 -0.00000000000E+00 -0.18229193548E+03  0.18229193548E+03  0.00000000000E+00 0.  1.
         25    2    1    2    0    0 -0.84958158553E+01 -0.11329834038E-01 -0.89415138230E+02  0.15403702743E+03  0.12514056041E+03 0.  0.
          5    1    3    3  502    0  0.38304265248E+02  0.39428430199E+02 -0.14107996979E+02  0.56906289836E+02  0.41800000000E+01 0.  1.
         -5    1    3    3    0  502 -0.46800081103E+02 -0.39439760033E+02 -0.75307141251E+02  0.97130737597E+02  0.41800000000E+01 0.  1.
        -11    1    1    2    0    0 -0.64421268804E+01 -0.42646031480E+02  0.19527150046E+00  0.43130304087E+02  0.00000000000E+00 0. -1.
         11    1    1    2    0    0  0.14937942736E+02  0.42657361314E+02 -0.26036446789E+02  0.52160225927E+02  0.00000000000E+00 0.  1.
</event>
<event>
 7    1  0.2612213E-009  0.1373711E+03  0.7561462E-02  0.1216911E+00
          2   -1    0    0  501    0  0.00000000000E+00  0.00000000000E+00  0.12370198608E+04  0.12370198608E+04  0.00000000000E+00 0.  1.
         -2   -1    0    0    0  501 -0.00000000000E+00 -0.00000000000E+00 -0.21163132277E+02  0.21163132277E+02  0.00000000000E+00 0. -1.
         25    2    1    2    0    0 -0.10072328921E+03  0.63278261746E+02  0.67678491988E+03  0.69845222531E+03  0.12509342055E+03 0.  0.
          5    1    3    3  502    0 -0.90722930202E+02  0.40706492242E+02  0.66186278967E+03  0.66930373772E+03  0.41800000000E+01 0. -1.
         -5    1    3    3    0  502 -0.10000359004E+02  0.22571769504E+02  0.14922130205E+02  0.29148487587E+02  0.41800000000E+01 0. -1.
        -11    1    1    2    0    0  0.72119771482E+02  0.87785108447E+01  0.28331913551E+03  0.29248599323E+03  0.00000000000E+00 0. -1.
         11    1    1    2    0    0  0.28603517724E+02 -0.72056772591E+02  0.25575267317E+03  0.26724477457E+03  0.00000000000E+00 0.  1.
</event>
<event>
 7    1  0.2612213E-009  0.1189701E+03  0.7561462E-02  0.1244806E+00
         -1   -1    0    0    0  501 -0.00000000000E+00  0.00000000000E+00  0.13521085824E+03  0.13521085824E+03  0.00000000000E+00 0.  1.
          1   -1    0    0  501    0  0.00000000000E+00 -0.00000000000E+00 -0.11113290128E+03  0.11113290128E+03  0.00000000000E+00 0. -1.
         25    2    1    2    0    0  0.30563491511E+02  0.43406584375E+02 -0.49736900587E+01  0.13597633347E+03  0.12508623862E+03 0.  0.
          5    1    3    3  502    0 -0.45353827432E+02  0.37968951488E+02 -0.71003822547E+01  0.59720170529E+02  0.41800000000E+01 0.  1.
         -5    1    3    3    0  502  0.75917318943E+02  0.54376328863E+01  0.21266921960E+01  0.76256162942E+02  0.41800000000E+01 0.  1.
        -11    1    1    2    0    0 -0.31772469598E+02  0.20944433415E+02  0.25695693845E+02  0.45917619686E+02  0.00000000000E+00 0.  1.
         11    1    1    2    0    0  0.12089780865E+01 -0.64351017790E+02  0.33559531743E+01  0.64449806364E+02  0.00000000000E+00 0. -1.
</event>
<event>
 7    1  0.2612213E-009  0.1690483E+03  0.7561462E-02  0.1178844E+00
         -1   -1    0    0    0  501 -0.00000000000E+00  0.00000000000E+00  0.21258198505E+02  0.21258198505E+02  0.00000000000E+00 0.  1.
          1   -1    0    0  501    0  0.00000000000E+00 -0.00000000000E+00 -0.15841790565E+04  0.15841790565E+04  0.00000000000E+00 0. -1.
         25    2    1    2    0    0 -0.10459778735E+03  0.93338930099E+02 -0.10239866652E+04  0.10410822024E+04  0.12510239239E+03 0.  0.
          5    1    3    3  502    0 -0.53293442287E+01 -0.19348038885E+02 -0.34797020621E+03  0.34857350061E+03  0.41800000000E+01 0.  1.
         -5    1    3    3    0  502 -0.99268443120E+02  0.11268696898E+03 -0.67601645902E+03  0.69250870178E+03  0.41800000000E+01 0.  1.
        -11    1    1    2    0    0  0.55637993629E+02  0.66478839138E+01 -0.17102659400E+03  0.17997187711E+03  0.00000000000E+00 0.  1.
         11    1    1    2    0    0  0.48959793719E+02 -0.99986814013E+02 -0.36790759874E+03  0.38438317548E+03  0.00000000000E+00 0. -1.
</event>
<event>
 7    1  0.2612213E-009  0.2478284E+03  0.7561462E-02  0.1114685E+00
          1   -1    0    0  501    0  0.00000000000E+00  0.00000000000E+00  0.21211943218E+04  0.21211943218E+04  0.00000000000E+00 0. -1.
         -1   -1    0    0    0  501 -0.00000000000E+00 -0.00000000000E+00 -0.36375317021E+02  0.36375317021E+02  0.00000000000E+00 0.  1.
         25    2    1    2    0    0 -0.60270414855E+02 -0.22674623216E+03  0.14572075918E+04  0.14812657034E+04  0.12509093401E+03 0.  0.
          5    1    3    3  502    0 -0.19826316637E+02 -0.19416079745E+03  0.86425095155E+03  0.88602408418E+03  0.41800000000E+01 0. -1.
         -5    1    3    3    0  502 -0.40444098219E+02 -0.32585434715E+02  0.59295664022E+03  0.59524161919E+03  0.41800000000E+01 0. -1.
        -11    1    1    2    0    0  0.29395099949E+02  0.21216311877E+03  0.57484905041E+03  0.61345634858E+03  0.00000000000E+00 0. -1.
         11    1    1    2    0    0  0.30875314906E+02  0.14583113394E+02  0.52762362585E+02  0.62847586846E+02  0.00000000000E+00 0.  1.
</event>
<event>
 7    1  0.2612213E-009  0.1425757E+03  0.7561462E-02  0.1209905E+00
          4   -1    0    0  501    0  0.00000000000E+00  0.00000000000E+00  0.75861754279E+02  0.75861754279E+02  0.00000000000E+00 0. -1.
         -4   -1    0    0    0  501 -0.00000000000E+00 -0.00000000000E+00 -0.34043294961E+03  0.34043294961E+03  0.00000000000E+00 0.  1.
         25    2    1    2    0    0  0.61824543948E+02  0.66183395421E+02 -0.10065963617E+03  0.18434614684E+03  0.12509445807E+03 0.  0.
          5    1    3    3  502    0 -0.35142420302E+02  0.37178793833E+02 -0.20921668582E+02  0.55429604291E+02  0.41800000000E+01 0.  1.
         -5    1    3    3    0  502  0.96966964250E+02  0.29004601588E+02 -0.79737967586E+02  0.12891654255E+03  0.41800000000E+01 0.  1.
        -11    1    1    2    0    0 -0.59249739844E+01 -0.75603933087E+02 -0.15761753636E+03  0.17491240031E+03  0.00000000000E+00 0.  1.
         11    1    1    2    0    0 -0.55899569964E+02  0.94205376658E+01 -0.62940228065E+01  0.57036156735E+02  0.00000000000E+00 0. -1.
</event>
<event>
 7    1  0.2612213E-009  0.2399604E+03  0.7561462E-02  0.1119819E+00
          1   -1    0    0  501    0  0.00000000000E+00  0.00000000000E+00  0.92883459655E+03  0.92883459655E+03  0.00000000000E+00 0. -1.
         -1   -1    0    0    0  501 -0.00000000000E+00 -0.00000000000E+00 -0.74671936287E+02  0.74671936287E+02  0.00000000000E+00 0.  1.
         25    2    1    2    0    0 -0.28763545724E+02 -0.23496276123E+03  0.36580110865E+03  0.45331402870E+03  0.12509323241E+03 0.  0.
          5    1    3    3  502    0 -0.31284498146E+02 -0.83962355152E+02  0.48710698747E+02  0.10207155078E+03  0.41800000000E+01 0. -1.
         -5    1    3    3    0  502  0.25209524219E+01 -0.15100040607E+03  0.31709040991E+03  0.35124247791E+03  0.41800000000E+01 0. -1.
        -11    1    1    2    0    0 -0.57543695085E+01  0.87703188482E+02  0.98462135423E+02  0.13198391626E+03  0.00000000000E+00 0.  1.
         11    1    1    2    0    0  0.34517915233E+02  0.14725957274E+03  0.38989941618E+03  0.41820858788E+03  0.00000000000E+00 0. -1.
</event>
<event>
 7    1  0.2612213E-009  0.7869510E+02  0.7561462E-02  0.1332796E+00
         -1   -1    0    0    0  501 -0.00000000000E+00  0.00000000000E+00  0.29101016740E+02  0.29101016740E+02  0.00000000000E+00 0.  1.
          1   -1    0    0  501    0  0.00000000000E+00 -0.00000000000E+00 -0.83571655545E+03  0.83571655545E+03  0.00000000000E+00 0. -1.
         25    2    1    2    0    0  0.53331149006E+00 -0.27019388052E+02 -0.73546309133E+03  0.74651420906E+03  0.12508866405E+03 0.  0.
          5    1    3    3  502    0  0.43897323019E+02 -0.50116394795E+02 -0.56897786584E+03  0.57288036466E+03  0.41800000000E+01 0.  1.
         -5    1    3    3    0  502 -0.43364011529E+02  0.23097006742E+02 -0.16648522549E+03  0.17363384440E+03  0.41800000000E+01 0.  1.
        -11    1    1    2    0    0 -0.14386548303E+02  0.48438443984E+01  0.19066747577E+02  0.24371632358E+02  0.00000000000E+00 0.  1.
         11    1    1    2    0    0  0.13853236812E+02  0.22175543654E+02 -0.90219194961E+02  0.93931730773E+02  0.00000000000E+00 0. -1.
</event>
<event>
 7    1  0.2612213E-009  0.1126708E+03  0.7561462E-02  0.1255702E+00
          1   -1    0    0  501    0  0.00000000000E+00  0.00000000000E+00  0.17160246833E+03  0.17160246833E+03  0.00000000000E+00 0. -1.
         -1   -1    0    0    0  501 -0.00000000000E+00 -0.00000000000E+00 -0.10063697414E+03  0.10063697414E+03  0.00000000000E+00 0.  1.
         25    2    1    2    0    0  0.41215277562E+02  0.40711452756E+02 -0.75504219790E+01  0.13802864726E+03  0.12505509627E+03 0.  0.
          5    1    3    3  502    0 -0.34559366698E+02  0.18690594127E+02 -0.36580145510E+02  0.53844847301E+02  0.41800000000E+01 0.  1.
         -5    1    3    3    0  502  0.75774644259E+02  0.22020858629E+02  0.29029723531E+02  0.84183799960E+02  0.41800000000E+01 0.  1.
        -11    1    1    2    0    0 -0.50458849513E+02  0.13163555864E+02  0.25447661456E+02  0.58025495868E+02  0.00000000000E+00 0.  1.
         11    1    1    2    0    0  0.92435719511E+01 -0.53875008620E+02  0.53068254715E+02  0.76185299335E+02  0.00000000000E+00 0. -1.
</event>
<event>
 7    1  0.2612213E-009  0.1623391E+03  0.7561462E-02  0.1186081E+00
         -2   -1    0    0    0  501 -0.00000000000E+00  0.00000000000E+00  0.64597583069E+02  0.64597583069E+02  0.00000000000E+00 0.  1.
          2   -1    0    0  501    0  0.00000000000E+00 -0.00000000000E+00 -0.49850586370E+03  0.49850586370E+03  0.00000000000E+00 0. -1.
         25    2    1    2    0    0  0.24930785737E+02 -0.12151726732E+03 -0.34279150231E+03  0.38541403533E+03  0.12509985708E+03 0.  0.
          5    1    3    3  502    0 -0.49424506091E+02 -0.64885057494E+02 -0.17977343723E+03  0.19745585233E+03  0.41800000000E+01 0. -1.
         -5    1    3    3    0  502  0.74355291828E+02 -0.56632209828E+02 -0.16301806508E+03  0.18795818300E+03  0.41800000000E+01 0. -1.
        -11    1    1    2    0    0 -0.55959948435E+02  0.78887877790E+02 -0.41360212874E+02  0.10519258672E+03  0.00000000000E+00 0.  1.
         11    1    1    2    0    0  0.31029162698E+02  0.42629389531E+02 -0.49756565446E+02  0.72496824720E+02  0.00000000000E+00 0. -1.
</event>
<event>
 7    1  0.2612213E-009  0.9425415E+02  0.7561462E-02  0.1292865E+00
          1   -1    0    0  501    0  0.00000000000E+00  0.00000000000E+00  0.82877906063E+03  0.82877906063E+03  0.00000000000E+00 0. -1.
         -1   -1    0    0    0  501 -0.00000000000E+00 -0.00000000000E+00 -0.45794206367E+02  0.45794206367E+02  0.00000000000E+00 0.  1.
         25    2    1    2    0    0 -0.30377031083E+02 -0.15458601577E+02  0.76421718301E+03  0.77513575126E+03  0.12508316311E+03 0.  0.
          5    1    3    3  502    0 -0.18018573509E+02 -0.55828732219E+02  0.65998011144E+03  0.66259545443E+03  0.41800000000E+01 0.  1.
         -5    1    3    3    0  502 -0.12358457574E+02  0.40370130641E+02  0.10423707157E+03  0.11254029683E+03  0.41800000000E+01 0.  1.
        -11    1    1    2    0    0 -0.11140711772E+02 -0.26190420513E+02 -0.14425698072E+02  0.31908530996E+02  0.00000000000E+00 0.  1.
         11    1    1    2    0    0  0.41517742855E+02  0.41649022091E+02  0.33193369324E+02  0.67528984740E+02  0.00000000000E+00 0. -1.
</event>
<event>
 7    1  0.2612213E-009  0.1024099E+03  0.7561462E-02  0.1275308E+00
          1   -1    0    0  501    0  0.00000000000E+00  0.00000000000E+00  0.43681212546E+03  0.43681212546E+03  0.00000000000E+00 0. -1.
         -1   -1    0    0    0  501 -0.00000000000E+00 -0.00000000000E+00 -0.49022303728E+02  0.49022303728E+02  0.00000000000E+00 0.  1.
         25    2    1    2    0    0  0.49448148525E+02  0.22399646215E+02  0.34837155161E+03  0.37410618289E+03  0.12508331048E+03 0.  0.
          5    1    3    3  502    0  0.81733364147E+02 -0.11529924089E+02  0.16162438385E+03  0.18153015127E+03  0.41800000000E+01 0. -1.
         -5    1    3    3    0  502 -0.32285215622E+02  0.33929570304E+02  0.18674716776E+03  0.19257603162E+03  0.41800000000E+01 0. -1.
        -11    1    1    2    0    0 -0.23662364173E+01 -0.27672644255E+02  0.55199362264E+02  0.61792749649E+02  0.00000000000E+00 0. -1.
         11    1    1    2    0    0 -0.47081912108E+02  0.52729980392E+01 -0.15781092145E+02  0.49935496647E+02  0.00000000000E+00 0.  1.
</event>
<event>
 7    1  0.2612213E-009  0.7614921E+02  0.7561462E-02  0.1340349E+00
         -1   -1    0    0    0  501 -0.00000000000E+00  0.00000000000E+00  0.28715157892E+03  0.28715157892E+03  0.00000000000E+00 0.  1.
          1   -1    0    0  501    0  0.00000000000E+00 -0.00000000000E+00 -0.64853788915E+02  0.64853788915E+02  0.00000000000E+00 0. -1.
         25    2    1    2    0    0  0.58928084245E+02  0.23831551144E+02  0.54423635767E+02  0.15049857006E+03  0.12508966990E+03 0.  0.
          5    1    3    3  502    0  0.44814068654E+02  0.19076609525E+02  0.95128318296E+02  0.10695366811E+03  0.41800000000E+01 0.  1.
         -5    1    3    3    0  502  0.14114015591E+02  0.47549416187E+01 -0.40704682529E+02  0.43544901948E+02  0.41800000000E+01 0.  1.
        -11    1    1    2    0    0  0.12684978990E+02 -0.76194534626E+00 -0.44578204151E+01  0.13467049251E+02  0.00000000000E+00 0. -1.
         11    1    1    2    0    0 -0.71613063235E+02 -0.23069605798E+02  0.17233197466E+03  0.18803974853E+03  0.00000000000E+00 0.  1.
</event>
<event>
 7    1  0.2612213E-009  0.9605410E+02  0.7561462E-02  0.1288819E+00
         -2   -1    0    0    0  501 -0.00000000000E+00  0.00000000000E+00  0.10118359755E+03  0.10118359755E+03  0.00000000000E+00 0.  1.
          2   -1    0    0  501    0  0.00000000000E+00 -0.00000000000E+00 -0.15512527350E+03  0.15512527350E+03  0.00000000000E+00 0. -1.
         25    2    1    2    0    0  0.49084946645E+02  0.21462778944E+02  0.33615513331E+01  0.13611462658E+03  0.12508360674E+03 0.  0.
          5    1    3    3  502    0  0.11559923948E+02  0.43333226307E+02 -0.49925846374E+02  0.67241823889E+02  0.41800000000E+01 0.  1.
         -5    1    3    3    0  502  0.37525022698E+02 -0.21870447363E+02  0.53287397707E+02  0.68872802692E+02  0.41800000000E+01 0.  1.
        -11    1    1    2    0    0 -0.66050595472E+02  0.10849622626E+02 -0.48477736757E+02  0.82646756950E+02  0.00000000000E+00 0. -1.
         11    1    1    2    0    0  0.16965648826E+02 -0.32312401569E+02 -0.88254905254E+01  0.37547487510E+02  0.00000000000E+00 0.  1.
</event>
<event>
 7    1  0.2612213E-009  0.1149073E+03  0.7561462E-02  0.1251743E+00
         -1   -1    0    0    0  501 -0.00000000000E+00  0.00000000000E+00  0.42308848228E+02  0.42308848228E+02  0.00000000000E+00 0.  1.
          1   -1    0    0  501    0  0.00000000000E+00 -0.00000000000E+00 -0.35782258085E+03  0.35782258085E+03  0.00000000000E+00 0. -1.
         25    2    1    2    0    0  0.37767837044E+02 -0.65122907731E+01 -0.11029673624E+03  0.17111846005E+03  0.12508931969E+03 0.  0.
          5    1    3    3  502    0  0.55499911608E+02  0.47444600488E+02 -0.70976347532E+02  0.10191341724E+03  0.41800000000E+01 0.  1.
         -5    1    3    3    0  502 -0.17732074564E+02 -0.53956891261E+02 -0.39320388704E+02  0.69205042813E+02  0.41800000000E+01 0.  1.
        -11    1    1    2    0    0 -0.48125005415E+02  0.41310310670E+02 -0.15081515977E+03  0.16360858880E+03  0.00000000000E+00 0.  1.
         11    1    1    2    0    0  0.10357168370E+02 -0.34798019897E+02 -0.54401836620E+02  0.65404380228E+02  0.00000000000E+00 0. -1.
</event>
<event>
 7    1  0.2612213E-009  0.1239892E+03  0.7561462E-02  0.1236657E+00
         -1   -1    0    0    0  501 -0.00000000000E+00  0.00000000000E+00  0.15421954840E+03  0.15421954840E+03  0.00000000000E+00 0.  1.
          1   -1    0    0  501    0  0.00000000000E+00 -0.00000000000E+00 -0.11910970639E+03  0.11910970639E+03  0.00000000000E+00 0. -1.
         25    2    1    2    0    0 -0.64435093714E+02  0.50001206659E+01  0.69629280291E+02  0.15707576993E+03  0.12509068038E+03 0.  0.
          5    1    3    3  502    0 -0.29951647583E+02  0.62709296099E+02  0.53532617216E+02  0.87822380497E+02  0.41800000000E+01 0. -1.
         -5    1    3    3    0  502 -0.34483446131E+02 -0.57709175433E+02  0.16096663074E+02  0.69253389436E+02  0.41800000000E+01 0. -1.
        -11    1    1    2    0    0  0.56349450332E+02  0.37533692407E+02 -0.21785307763E+02  0.71124104583E+02  0.00000000000E+00 0.  1.
         11    1    1    2    0    0  0.80856433820E+01 -0.42533813073E+02 -0.12734130518E+02  0.45129380269E+02  0.00000000000E+00 0. -1.
</event>
<event>
 7    1  0.2612213E-009  0.1937088E+03  0.7561462E-02  0.1155158E+00
          2   -1    0    0  501    0  0.00000000000E+00  0.00000000000E+00  0.83921889505E+03  0.83921889505E+03  0.00000000000E+00 0. -1.
         -2   -1    0    0    0  501 -0.00000000000E+00 -0.00000000000E+00 -0.56558419320E+02  0.56558419320E+02  0.00000000000E+00 0.  1.
         25    2    1    2    0    0  0.66071701527E+02 -0.15693174235E+03  0.23757848888E+03  0.31793151520E+03  0.12507545114E+03 0.  0.
          5    1    3    3  502    0  0.95797311106E+02 -0.13394643000E+03  0.22336729220E+03  0.27754133124E+03  0.41800000000E+01 0. -1.
         -5    1    3    3    0  502 -0.29725609579E+02 -0.22985312354E+02  0.14211196682E+02  0.40390183956E+02  0.41800000000E+01 0. -1.
        -11    1    1    2    0    0 -0.70377191614E+02  0.75054787918E+02  0.37767427883E+03  0.39143841301E+03  0.00000000000E+00 0. -1.
         11    1    1    2    0    0  0.43054900870E+01  0.81876954433E+02  0.16740770802E+03  0.18640738616E+03  0.00000000000E+00 0.  1.
</event>
<event>
 7    1  0.2612213E-009  0.1217952E+03  0.7561462E-02  0.1240165E+00
         -2   -1    0    0    0  501 -0.00000000000E+00  0.00000000000E+00  0.41968515743E+02  0.41968515743E+02  0.00000000000E+00 0.  1.
          2   -1    0    0  501    0  0.00000000000E+00 -0.00000000000E+00 -0.62397489124E+03  0.62397489124E+03  0.00000000000E+00 0. -1.
         25    2    1    2    0    0 -0.78336849463E+02 -0.76258161161E+02 -0.40434795747E+03  0.43714561873E+03  0.12508817744E+03 0.  0.
          5    1    3    3  502    0 -0.30744104029E+02 -0.31666038646E+02 -0.22444350017E+02  0.49690634769E+02  0.41800000000E+01 0.  1.
         -5    1    3    3    0  502 -0.47592745434E+02 -0.44592122515E+02 -0.38190360746E+03  0.38745498396E+03  0.41800000000E+01 0.  1.
        -11    1    1    2    0    0  0.34803980528E+02 -0.10907151310E+02 -0.15521472304E+02  0.39638354062E+02  0.00000000000E+00 0.  1.
         11    1    1    2    0    0  0.43532868935E+02  0.87165312471E+02 -0.16213694572E+03  0.18915943419E+03  0.00000000000E+00 0. -1.
</event>
<event>
 7    1  0.2612213E-009  0.9970214E+02  0.7561462E-02  0.1280924E+00
          1   -1    0    0  501    0  0.00000000000E+00  0.00000000000E+00  0.36348439900E+02  0.36348439900E+02  0.00000000000E+00 0. -1.
         -1   -1    0    0    0  501 -0.00000000000E+00 -0.00000000000E+00 -0.42359327268E+03  0.42359327268E+03  0.00000000000E+00 0.  1.
         25    2    1    2    0    0 -0.34389469983E+02  0.24857825340E+02 -0.11853052765E+03  0.17747494127E+03  0.12508925481E+03 0.  0.
          5    1    3    3  502    0 -0.19820156819E+02 -0.47532117904E+02 -0.22730262560E+02  0.56447126454E+02  0.41800000000E+01 0. -1.
         -5    1    3    3    0  502 -0.14569313164E+02  0.72389943245E+02 -0.95800265087E+02  0.12102781482E+03  0.41800000000E+01 0. -1.
        -11    1    1    2    0    0  0.84793768291E+01  0.20139826213E+02 -0.24655135155E+02  0.32945229106E+02  0.00000000000E+00 0. -1.
         11    1    1    2    0    0  0.25910093154E+02 -0.44997651553E+02 -0.24405916998E+03  0.24952154220E+03  0.00000000000E+00 0.  1.
</event>
<event>
 7    1  0.2612213E-009  0.1513168E+03  0.7561462E-02  0.1198864E+00
         -1   -1    0    0    0  501 -0.00000000000E+00  0.00000000000E+00  0.57287572315E+02  0.57287572315E+02  0.00000000000E+00 0.  1.
          1   -1    0    0  501    0  0.00000000000E+00 -0.00000000000E+00 -0.45864596788E+03  0.45864596788E+03  0.00000000000E+00 0. -1.
         25    2    1    2    0    0  0.10397456071E+03 -0.58506418711E+02 -0.24771772948E+03  0.30206681680E+03  0.12508628224E+03 0.  0.
          5    1    3    3  502    0  0.93654289869E+02 -0.86330280605E+02 -0.13591889278E+03  0.18632085545E+03  0.41800000000E+01 0.  1.
         -5    1    3    3    0  502  0.10320270843E+02  0.27823861894E+02 -0.11179883670E+03  0.11574596135E+03  0.41800000000E+01 0.  1.
        -11    1    1    2    0    0 -0.30915048801E+02  0.64896506067E+02 -0.52864339273E+02  0.89229676167E+02  0.00000000000E+00 0.  1.
         11    1    1    2    0    0 -0.73059511911E+02 -0.63900873561E+01 -0.10077632681E+03  0.12463704723E+03  0.00000000000E+00 0. -1.
</event>
<event>
 7    1  0.2612213E-009  0.2078225E+03  0.7561462E-02  0.1143302E+00
          2   -1    0    0  501    0  0.00000000000E+00  0.00000000000E+00  0.77327887726E+03  0.77327887726E+03  0.00000000000E+00 0. -1.
         -2   -1    0    0    0  501 -0.00000000000E+00 -0.00000000000E+00 -0.67735504462E+02  0.67735504462E+02  0.00000000000E+00 0.  1.
         25    2    1    2    0    0 -0.19202027914E+03 -0.50519046228E+02  0.42525825760E+03  0.48571215439E+03  0.12509096542E+03 0.  0.
          5    1    3    3  502    0 -0.55693469195E+02 -0.54939712652E+02  0.69678551242E+02  0.10484611314E+03  0.41800000000E+01 0. -1.
         -5    1    3    3    0  502 -0.13632680995E+03  0.44206664242E+01  0.35557970636E+03  0.38086604125E+03  0.41800000000E+01 0. -1.
        -11    1    1    2    0    0  0.38960608630E+02  0.23247339514E+02  0.13535544203E+03  0.14275665836E+03  0.00000000000E+00 0. -1.
         11    1    1    2    0    0  0.15305967051E+03  0.27271706714E+02  0.14492967316E+03  0.21254556897E+03  0.00000000000E+00 0.  1.
</event>
<event>
 7    1  0.2612213E-009  0.8808852E+02  0.7561462E-02  0.1307548E+00
          2   -1    0    0  501    0  0.00000000000E+00  0.00000000000E+00  0.15413937463E+03  0.15413937463E+03  0.00000000000E+00 0. -1.
         -2   -1    0    0    0  501 -0.00000000000E+00 -0.00000000000E+00 -0.91410310583E+02  0.91410310583E+02  0.00000000000E+00 0.  1.
         25    2    1    2    0    0  0.26223719788E+02 -0.25990961957E+02  0.11435926120E+02  0.13092319791E+03  0.12508752840E+03 0.  0.
          5    1    3    3  502    0  0.61958691500E+02 -0.39646406516E+02 -0.25124322558E+02  0.77842282765E+02  0.41800000000E+01 0. -1.
         -5    1    3    3    0  502 -0.35734971712E+02  0.13655444559E+02  0.36560248678E+02  0.53080915147E+02  0.41800000000E+01 0. -1.
        -11    1    1    2    0    0 -0.18519999591E+02 -0.14047634374E+02 -0.21195647059E+02  0.31457620232E+02  0.00000000000E+00 0.  1.
         11    1    1    2    0    0 -0.77037201973E+01  0.40038596331E+02  0.72488784990E+02  0.83168867074E+02  0.00000000000E+00 0. -1.
</event>
<event>
 7    1  0.2612213E-009  0.1550058E+03  0.7561462E-02  0.1194453E+00
         -1   -1    0    0    0  501 -0.00000000000E+00  0.00000000000E+00  0.11938891841E+04  0.11938891841E+04  0.00000000000E+00 0.  1.
          1   -1    0    0  501    0  0.00000000000E+00 -0.00000000000E+00 -0.33519020339E+02  0.33519020339E+02  0.00000000000E+00 0. -1.
         25    2    1    2    0    0 -0.14504722748E+03  0.50574889839E+02  0.81326837331E+03  0.83704809946E+03  0.12509019190E+03 0.  0.
          5    1    3    3  502    0 -0.94370196112E+02  0.21116114935E+02  0.21361160372E+03  0.23451868554E+03  0.41800000000E+01 0. -1.
         -5    1    3    3    0  502 -0.50677031364E+02  0.29458774904E+02  0.59965676959E+03  0.60252941392E+03  0.41800000000E+01 0. -1.
        -11    1    1    2    0    0  0.93822581859E+02 -0.40764344601E+02  0.12160051746E+03  0.15890592973E+03  0.00000000000E+00 0. -1.
         11    1    1    2    0    0  0.51224645617E+02 -0.98105452375E+01  0.22550127295E+03  0.23145417520E+03  0.00000000000E+00 0.  1.
</event>
<event>
 7    1  0.2612213E-009  0.1140017E+03  0.7561462E-02  0.1253334E+00
          2   -1    0    0  501    0  0.00000000000E+00  0.00000000000E+00  0.82199438077E+03  0.82199438077E+03  0.00000000000E+00 0. -1.
         -2   -1    0    0    0  501 -0.00000000000E+00 -0.00000000000E+00 -0.27191584018E+02  0.27191584018E+02  0.00000000000E+00 0.  1.
         25    2    1    2    0    0  0.68995513158E+02  0.37643270783E+02  0.24295575168E+03  0.28434776007E+03  0.12509498276E+03 0.  0.
          5    1    3    3  502    0  0.27312514825E+01  0.51471376733E+02  0.27708054284E+02  0.58668313677E+02  0.41800000000E+01 0.  1.
         -5    1    3    3    0  502  0.66264261675E+02 -0.13828105950E+02  0.21524769740E+03  0.22567944639E+03  0.41800000000E+01 0.  1.
        -11    1    1    2    0    0 -0.39296508984E+01  0.20704363847E+02  0.36615293183E+02  0.42246805008E+02  0.00000000000E+00 0.  1.
         11    1    1    2    0    0 -0.65065862259E+02 -0.58347634630E+02  0.51523175189E+03  0.52259139971E+03  0.00000000000E+00 0. -1.
</event>
<event>
 7    1  0.2612213E-009  0.1355469E+03  0.7561462E-02  0.1219450E+00
         -1   -1    0    0    0  501 -0.00000000000E+00  0.00000000000E+00  0.35044869097E+02  0.35044869097E+02  0.00000000000E+00 0.  1.
          1   -1    0    0  501    0  0.00000000000E+00 -0.00000000000E+00 -0.69417604930E+03  0.69417604930E+03  0.00000000000E+00 0. -1.
         25    2    1    2    0    0 -0.76367436601E+02 -0.58759484375E+02 -0.48499769267E+03  0.51005854890E+03  0.12510914847E+03 0.  0.
          5    1    3    3  502    0  0.20520951454E+02  0.16100157174E+02 -0.17063373259E+03  0.17266634764E+03  0.41800000000E+01 0.  1.
         -5    1    3    3    0  502 -0.96888388055E+02 -0.74859641549E+02 -0.31436396008E+03  0.33739220126E+03  0.41800000000E+01 0.  1.
        -11    1    1    2    0    0  0.72041237350E+02  0.94380463627E+01 -0.58177648839E+02  0.93078759245E+02  0.00000000000E+00 0.  1.
         11    1    1    2    0    0  0.43261992516E+01  0.49321438012E+02 -0.11595583869E+03  0.12608361025E+03  0.00000000000E+00 0. -1.
</event>
<event>
 7    1  0.2612213E-009  0.1311683E+03  0.7561462E-02  0.1225732E+00
          2   -1    0    0  501    0  0.00000000000E+00  0.00000000000E+00  0.98056449392E+03  0.98056449392E+03  0.00000000000E+00 0. -1.
         -2   -1    0    0    0  501 -0.00000000000E+00 -0.00000000000E+00 -0.19589681719E+02  0.19589681719E+02  0.00000000000E+00 0.  1.
         25    2    1    2    0    0 -0.14967400969E+02 -0.86252350120E+02  0.52281452272E+03  0.54465192595E+03  0.12508878562E+03 0.  0.
          5    1    3    3  502    0  0.54803127415E+02 -0.43161029970E+02  0.21490991422E+03  0.22598672729E+03  0.41800000000E+01 0. -1.
         -5    1    3    3    0  502 -0.69770528384E+02 -0.43091320150E+02  0.30790460850E+03  0.31866519867E+03  0.41800000000E+01 0. -1.
        -11    1    1    2    0    0  0.40591241770E+02  0.37483570373E+02  0.11387614470E+03  0.12657188980E+03  0.00000000000E+00 0.  1.
         11    1    1    2    0    0 -0.25623840801E+02  0.48768779747E+02  0.32428414478E+03  0.32893035988E+03  0.00000000000E+00 0. -1.
</event>
<event>
 7    1  0.2612213E-009  0.1692665E+03  0.7561462E-02  0.1178615E+00
          1   -1    0    0  501    0  0.00000000000E+00  0.00000000000E+00  0.39894555497E+03  0.39894555497E+03  0.00000000000E+00 0. -1.
         -1   -1    0    0    0  501 -0.00000000000E+00 -0.00000000000E+00 -0.81130463923E+02  0.81130463923E+02  0.00000000000E+00 0.  1.
         25    2    1    2    0    0 -0.87148553829E+01 -0.13868830912E+03  0.21393253551E+03  0.28411573444E+03  0.12507687644E+03 0.  0.
          5    1    3    3  502    0 -0.64702793008E+02 -0.96595757649E+02  0.12374546281E+03  0.16984582357E+03  0.41800000000E+01 0.  1.
         -5    1    3    3    0  502  0.55987937625E+02 -0.42092551467E+02  0.90187072692E+02  0.11426991087E+03  0.41800000000E+01 0.  1.
        -11    1    1    2    0    0  0.35474434030E+02  0.76701919995E+02  0.17462485490E+02  0.86293443553E+02  0.00000000000E+00 0.  1.
         11    1    1    2    0    0 -0.26759578647E+02  0.61986389121E+02  0.86420070054E+02  0.10966684090E+03  0.00000000000E+00 0. -1.
</event>
<event>
 7    1  0.2612213E-009  0.1230348E+03  0.7561462E-02  0.1238173E+00
          1   -1    0    0  501    0  0.00000000000E+00  0.00000000000E+00  0.34887043634E+03  0.34887043634E+03  0.00000000000E+00 0. -1.
         -1   -1    0    0    0  501 -0.00000000000E+00 -0.00000000000E+00 -0.68395582742E+02  0.68395582742E+02  0.00000000000E+00 0.  1.
         25    2    1    2    0    0 -0.57818931247E+01  0.11014613293E+03  0.15311377160E+03  0.22640214303E+03  0.12509397437E+03 0.  0.
          5    1    3    3  502    0  0.68995293208E+00  0.11004668854E+03  0.46553351643E+02  0.11956352556E+03  0.41800000000E+01 0. -1.
         -5    1    3    3    0  502 -0.64718460567E+01  0.99444390013E-01  0.10656041996E+03  0.10683861747E+03  0.41800000000E+01 0. -1.
        -11    1    1    2    0    0 -0.10325146015E+02 -0.11158832508E+03  0.72028605235E+02  0.13321667654E+03  0.00000000000E+00 0.  1.
         11    1    1    2    0    0  0.16107039139E+02  0.14421921515E+01  0.55332476758E+02  0.57647199517E+02  0.00000000000E+00 0. -1.
</event>
<event>
 7    1  0.2612213E-009  0.1008966E+03  0.7561462E-02  0.1278422E+00
         -4   -1    0    0    0  501 -0.00000000000E+00  0.00000000000E+00  0.81104325757E+03  0.81104325757E+03  0.00000000000E+00 0.  1.
          4   -1    0    0  501    0  0.00000000000E+00 -0.00000000000E+00 -0.23209691410E+02  0.23209691410E+02  0.00000000000E+00 0. -1.
         25    2    1    2    0    0  0.59765133915E+02 -0.27405940776E+02  0.59542633718E+03  0.61196697509E+03  0.12509236094E+03 0.  0.
          5    1    3    3  502    0 -0.99354028794E+01  0.25557549287E+02  0.35471188405E+03  0.35579473527E+03  0.41800000000E+01 0. -1.
         -5    1    3    3    0  502  0.69700536794E+02 -0.52963490062E+02  0.24071445313E+03  0.25617223982E+03  0.41800000000E+01 0. -1.
        -11    1    1    2    0    0 -0.34394213034E+02  0.44188410848E+02  0.45182862251E+02  0.71951849071E+02  0.00000000000E+00 0. -1.
         11    1    1    2    0    0 -0.25370920881E+02 -0.16782470072E+02  0.14722436673E+03  0.15033412482E+03  0.00000000000E+00 0.  1.
</event>
<event>
 7    1  0.2612213E-009  0.1023580E+03  0.7561462E-02  0.1275414E+00
         -2   -1    0    0    0  501 -0.00000000000E+00  0.00000000000E+00  0.53302624151E+02  0.53302624151E+02  0.00000000000E+00 0.  1.
          2   -1    0    0  501    0  0.00000000000E+00 -0.00000000000E+00 -0.31341071726E+03  0.31341071726E+03  0.00000000000E+00 0. -1.
         25    2    1    2    0    0  0.50812686355E+02 -0.13077020532E+02 -0.20543848265E+03  0.24618055123E+03  0.12508779352E+03 0.  0.
          5    1    3    3  502    0  0.73102395425E+02 -0.19185086273E+02 -0.20912892908E+03  0.22240595570E+03  0.41800000000E+01 0. -1.
         -5    1    3    3    0  502 -0.22289709070E+02  0.61080657413E+01  0.36904464300E+01  0.23774595525E+02  0.41800000000E+01 0. -1.
        -11    1    1    2    0    0 -0.21092183751E+02  0.52260441006E+02 -0.17912125998E+02  0.59134407643E+02  0.00000000000E+00 0.  1.
         11    1    1    2    0    0 -0.29720502604E+02 -0.39183420474E+02 -0.36757484462E+02  0.61398382544E+02  0.00000000000E+00 0. -1.
</event>
<event>
 7    1  0.2612213E-009  0.1103564E+03  0.7561462E-02  0.1259911E+00
         -3   -1    0    0    0  501 -0.00000000000E+00  0.00000000000E+00  0.90553101047E+02  0.90553101047E+02  0.00000000000E+00 0. -1.
          3   -1    0    0  501    0  0.00000000000E+00 -0.00000000000E+00 -0.26240740808E+03  0.26240740808E+03  0.00000000000E+00 0.  1.
         25    2    1    2    0    0 -0.20080798444E+01 -0.39363438456E+01  0.28039674928E+02  0.12824848967E+03  0.12506767986E+03 0.  0.
          5    1    3    3  502    0  0.56478775990E+02  0.22342562049E+02  0.12868877957E+02  0.62226382155E+02  0.41800000000E+01 0. -1.
         -5    1    3    3    0  502 -0.58486855834E+02 -0.26278905895E+02  0.15170796971E+02  0.66022107518E+02  0.41800000000E+01 0. -1.
        -11    1    1    2    0    0  0.41438598232E+02  0.27413460090E+02 -0.62417115292E+02  0.79778139230E+02  0.00000000000E+00 0. -1.
         11    1    1    2    0    0 -0.39430518388E+02 -0.23477116244E+02 -0.13747686667E+03  0.14493388023E+03  0.00000000000E+00 0.  1.
</event>
<event>
 7    1  0.2612213E-009  0.1436262E+03  0.7561462E-02  0.1208531E+00
          1   -1    0    0  501    0  0.00000000000E+00  0.00000000000E+00  0.31675059552E+03  0.31675059552E+03  0.00000000000E+00 0. -1.
         -1   -1    0    0    0  501 -0.00000000000E+00 -0.00000000000E+00 -0.78132703282E+02  0.78132703282E+02  0.00000000000E+00 0.  1.
         25    2    1    2    0    0 -0.67119515537E+02 -0.79165160510E+02  0.18468687943E+03  0.24602707630E+03  0.12509167372E+03 0.  0.
          5    1    3    3  502    0 -0.33828424211E+02  0.31458903747E+02  0.62369371483E+02  0.77726673728E+02  0.41800000000E+01 0.  1.
         -5    1    3    3    0  502 -0.33291091326E+02 -0.11062406426E+03  0.12231750795E+03  0.16830040257E+03  0.41800000000E+01 0.  1.
        -11    1    1    2    0    0  0.12834806398E+02 -0.13022628558E+02 -0.13203340898E+02  0.22553255213E+02  0.00000000000E+00 0.  1.
         11    1    1    2    0    0  0.54284709139E+02  0.92187789068E+02  0.67134353705E+02  0.12630296729E+03  0.00000000000E+00 0. -1.
</event>
<event>
 7    1  0.2612213E-009  0.1045475E+03  0.7561462E-02  0.1271014E+00
          2   -1    0    0  501    0  0.00000000000E+00  0.00000000000E+00  0.14643357325E+03  0.14643357325E+03  0.00000000000E+00 0. -1.
         -2   -1    0    0    0  501 -0.00000000000E+00 -0.00000000000E+00 -0.86516193929E+02  0.86516193929E+02  0.00000000000E+00 0.  1.
         25    2    1    2    0    0  0.21373877921E+02 -0.90940960617E+00  0.12048691027E+02  0.12747624315E+03  0.12508937576E+03 0.  0.
          5    1    3    3  502    0 -0.47369071858E+02 -0.12567857779E+02  0.26905665400E+02  0.56063956768E+02  0.41800000000E+01 0. -1.
         -5    1    3    3    0  502  0.68742949779E+02  0.11658448173E+02 -0.14856974373E+02  0.71412286378E+02  0.41800000000E+01 0. -1.
        -11    1    1    2    0    0  0.31202822910E+02 -0.15688808863E+02  0.42726585293E+01  0.35185373268E+02  0.00000000000E+00 0.  1.
         11    1    1    2    0    0 -0.52576700831E+02  0.16598218470E+02  0.43596029765E+02  0.70288150765E+02  0.00000000000E+00 0. -1.
</event>
<event>
 7    1  0.2612213E-009  0.1101955E+03  0.7561462E-02  0.1260208E+00
         -1   -1    0    0    0  501 -0.00000000000E+00  0.00000000000E+00  0.69492985208E+03  0.69492985208E+03  0.00000000000E+00 0.  1.
          1   -1    0    0  501    0  0.00000000000E+00 -0.00000000000E+00 -0.49407671703E+02  0.49407671703E+02  0.00000000000E+00 0. -1.
         25    2    1    2    0    0  0.46476401098E+02 -0.51075404543E+01  0.59725751114E+03  0.61200554845E+03  0.12509242144E+03 0.  0.
          5    1    3    3  502    0 -0.55458413499E+01 -0.58194644877E+02  0.28941852506E+03  0.29529295301E+03  0.41800000000E+01 0. -1.
         -5    1    3    3    0  502  0.52022242448E+02  0.53087104423E+02  0.30783898608E+03  0.31671259545E+03  0.41800000000E+01 0. -1.
        -11    1    1    2    0    0 -0.56646032060E+01 -0.31807805787E+02  0.66850019156E+02  0.74247890877E+02  0.00000000000E+00 0.  1.
         11    1    1    2    0    0 -0.40811797892E+02  0.36915346242E+02 -0.18585349915E+02  0.58084084453E+02  0.00000000000E+00 0. -1.
</event>
<event>
 7    1  0.2612213E-009  0.1062228E+03  0.7561462E-02  0.1267729E+00
          2   -1    0    0  501    0  0.00000000000E+00  0.00000000000E+00  0.91927210704E+03  0.91927210704E+03  0.00000000000E+00 0. -1.
         -2   -1    0    0    0  501 -0.00000000000E+00 -0.00000000000E+00 -0.17131017744E+02  0.17131017744E+02  0.00000000000E+00 0.  1.
         25    2    1    2    0    0 -0.56717536817E+02 -0.23685112051E+02  0.58556034395E+03  0.60191889600E+03  0.12509027715E+03 0.  0.
          5    1    3    3  502    0 -0.64953875224E+02 -0.60865394029E+02  0.27679872258E+03  0.29078962725E+03  0.41800000000E+01 0. -1.
         -5    1    3    3    0  502  0.82363384071E+01  0.37180281978E+02  0.30876162137E+03  0.31112926875E+03  0.41800000000E+01 0. -1.
        -11    1    1    2    0    0 -0.49265800093E+01 -0.12574432313E+02  0.43812527214E+01  0.14197989787E+02  0.00000000000E+00 0.  1.
         11    1    1    2    0    0  0.61644116826E+02  0.36259544364E+02  0.31219949262E+03  0.32028623900E+03  0.00000000000E+00 0. -1.
</event>
<event>
 7    1  0.2612213E-009  0.1195054E+03  0.7561462E-02  0.1243915E+00
          2   -1    0    0  501    0  0.00000000000E+00  0.00000000000E+00  0.10035797346E+04  0.10035797346E+04  0.00000000000E+00 0. -1.
         -2   -1    0    0    0  501 -0.00000000000E+00 -0.00000000000E+00 -0.18462533122E+02  0.18462533122E+02  0.00000000000E+00 0.  1.
         25    2    1    2    0    0 -0.33441192406E+02 -0.74559115125E+02  0.56871379356E+03  0.58801430470E+03  0.12509224018E+03 0.  0.
          5    1    3    3  502    0 -0.71403032293E+02 -0.44732105450E+02  0.47582211472E+03  0.48324270458E+03  0.41800000000E+01 0.  1.
         -5    1    3    3    0  502  0.37961839887E+02 -0.29827009675E+02  0.92891678839E+02  0.10477160012E+03  0.41800000000E+01 0.  1.
        -11    1    1    2    0    0  0.54056279884E+02  0.61056675746E+02  0.38776165065E+03  0.39624373404E+03  0.00000000000E+00 0.  1.
         11    1    1    2    0    0 -0.20615087478E+02  0.13502439379E+02  0.28641757303E+02  0.37784229016E+02  0.00000000000E+00 0. -1.
</event>
<event>
 7    1  0.2612213E-009  0.3084551E+03  0.7561462E-02  0.1081089E+00
         -1   -1    0    0    0  501 -0.00000000000E+00  0.00000000000E+00  0.31606425188E+03  0.31606425188E+03  0.00000000000E+00 0.  1.
          1   -1    0    0  501    0  0.00000000000E+00 -0.00000000000E+00 -0.32422547205E+03  0.32422547205E+03  0.00000000000E+00 0. -1.
         25    2    1    2    0    0 -0.29435829310E+03 -0.57403158422E+02 -0.29750187003E+02  0.32630486463E+03  0.12509142152E+03 0.  0.
          5    1    3    3  502    0 -0.22565717774E+03 -0.84949040029E+02 -0.56158667629E+02  0.24760607751E+03  0.41800000000E+01 0.  1.
         -5    1    3    3    0  502 -0.68701115363E+02  0.27545881607E+02  0.26408480627E+02  0.78698787123E+02  0.41800000000E+01 0.  1.
        -11    1    1    2    0    0  0.25628210055E+03  0.60794643975E+02  0.47717335725E+02  0.26768161671E+03  0.00000000000E+00 0.  1.
         11    1    1    2    0    0  0.38076192557E+02 -0.33914855529E+01 -0.26128368894E+02  0.46303242596E+02  0.00000000000E+00 0. -1.
</event>
<event>
 7    1  0.2612213E-009  0.1042970E+03  0.7561462E-02  0.1271511E+00
         -2   -1    0    0    0  501 -0.00000000000E+00  0.00000000000E+00  0.57610847258E+03  0.57610847258E+03  0.00000000000E+00 0. -1.
          2   -1    0    0  501    0  0.00000000000E+00 -0.00000000000E+00 -0.36319516591E+02  0.36319516591E+02  0.00000000000E+00 0.  1.
         25    2    1    2    0    0 -0.49904819380E+02 -0.53633109859E+02  0.42717164899E+03  0.45109915344E+03  0.12509127493E+03 0.  0.
          5    1    3    3  502    0 -0.26030028916E+02  0.33440611108E+02  0.23380686376E+03  0.23765302190E+03  0.41800000000E+01 0. -1.
         -5    1    3    3    0  502 -0.23874790464E+02 -0.87073720968E+02  0.19336478524E+03  0.21344613155E+03  0.41800000000E+01 0. -1.
        -11    1    1    2    0    0  0.34116243085E+02  0.22942234701E+02  0.11928990182E+03  0.12617584892E+03  0.00000000000E+00 0. -1.
         11    1    1    2    0    0  0.15788576294E+02  0.30690875158E+02 -0.66725948260E+01  0.35152986802E+02  0.00000000000E+00 0.  1.
</event>
<event>
 7    1  0.2612213E-009  0.1254748E+03  0.7561462E-02  0.1234329E+00
          2   -1    0    0  501    0  0.00000000000E+00  0.00000000000E+00  0.24174547680E+03  0.24174547680E+03  0.00000000000E+00 0. -1.
         -2   -1    0    0    0  501 -0.00000000000E+00 -0.00000000000E+00 -0.10272528045E+03  0.10272528045E+03  0.00000000000E+00 0.  1.
         25    2    1    2    0    0  0.44172418377E+02  0.63378970731E+02  0.16800880864E+03  0.22326490250E+03  0.12510859456E+03 0.  0.
          5    1    3    3  502    0  0.59429716013E+02  0.87562155736E+02  0.16231596240E+03  0.19381167744E+03  0.41800000000E+01 0.  1.
         -5    1    3    3    0  502 -0.15257297636E+02 -0.24183185005E+02  0.56928462401E+01  0.29453225061E+02  0.41800000000E+01 0.  1.
        -11    1    1    2    0    0  0.88496725530E+01 -0.62490879255E+02 -0.59706121231E+01  0.63396174202E+02  0.00000000000E+00 0. -1.
         11    1    1    2    0    0 -0.53022090930E+02 -0.88809147639E+00 -0.23018000162E+02  0.57809680543E+02  0.00000000000E+00 0.  1.
</event>
<event>
 7    1  0.2612213E-009  0.1556303E+03  0.7561462E-02  0.1193720E+00
         -4   -1    0    0    0  501 -0.00000000000E+00  0.00000000000E+00  0.23855922593E+03  0.23855922593E+03  0.00000000000E+00 0.  1.
          4   -1    0    0  501    0  0.00000000000E+00 -0.00000000000E+00 -0.56339974109E+03  0.56339974109E+03  0.00000000000E+00 0. -1.
         25    2    1    2    0    0  0.11889146677E+03  0.30842485535E+02  0.19375649410E+03  0.26129671509E+03  0.12509178441E+03 0.  0.
          5    1    3    3  502    0  0.14526501483E+03  0.23461465966E+02  0.16922983861E+03  0.22429573245E+03  0.41800000000E+01 0.  1.
         -5    1    3    3    0  502 -0.26373548056E+02  0.73810195688E+01  0.24526655484E+02  0.37000982638E+02  0.41800000000E+01 0.  1.
        -11    1    1    2    0    0 -0.41830406652E+02 -0.41059260296E+02 -0.35168616971E+03  0.35653724594E+03  0.00000000000E+00 0. -1.
         11    1    1    2    0    0 -0.77061060121E+02  0.10216774761E+02 -0.16691083955E+03  0.18412500600E+03  0.00000000000E+00 0.  1.
</event>
<event>
 7    1  0.2612213E-009  0.8782486E+02  0.7561462E-02  0.1308206E+00
         -2   -1    0    0    0  501 -0.00000000000E+00  0.00000000000E+00  0.54254922594E+02  0.54254922594E+02  0.00000000000E+00 0.  1.
          2   -1    0    0  501    0  0.00000000000E+00 -0.00000000000E+00 -0.23113771800E+03  0.23113771800E+03  0.00000000000E+00 0. -1.
         25    2    1    2    0    0 -0.16882212970E+02  0.12808707818E+02 -0.12157247361E+03  0.17571551620E+03  0.12508798577E+03 0.  0.
          5    1    3    3  502    0  0.36988928945E+02 -0.11666777223E+02  0.15588045894E+01  0.39040963448E+02  0.41800000000E+01 0.  1.
         -5    1    3    3    0  502 -0.53871141915E+02  0.24475485041E+02 -0.12313127820E+03  0.13667455276E+03  0.41800000000E+01 0.  1.
        -11    1    1    2    0    0 -0.54281529729E+00 -0.42710206778E+02  0.19638752205E+01  0.42758779418E+02  0.00000000000E+00 0.  1.
         11    1    1    2    0    0  0.17425028268E+02  0.29901498959E+02 -0.57274197012E+02  0.66918344970E+02  0.00000000000E+00 0. -1.
</event>
<event>
 7    1  0.2612213E-009  0.6876931E+02  0.7561462E-02  0.1364329E+00
         -1   -1    0    0    0  501 -0.00000000000E+00  0.00000000000E+00  0.85852549326E+02  0.85852549326E+02  0.00000000000E+00 0.  1.
          1   -1    0    0  501    0  0.00000000000E+00 -0.00000000000E+00 -0.21611437971E+03  0.21611437971E+03  0.00000000000E+00 0. -1.
         25    2    1    2    0    0 -0.16243041820E+02 -0.13677391037E+02 -0.15754775612E+03  0.20227197053E+03  0.12506697075E+03 0.  0.
          5    1    3    3  502    0  0.20554106467E+02 -0.42483052015E+02 -0.11334825863E+02  0.48715825750E+02  0.41800000000E+01 0. -1.
         -5    1    3    3    0  502 -0.36797148287E+02  0.28805660977E+02 -0.14621293025E+03  0.15355614478E+03  0.41800000000E+01 0. -1.
        -11    1    1    2    0    0  0.64832930447E+01  0.26412925482E+02  0.58547573697E+02  0.64556131445E+02  0.00000000000E+00 0.  1.
         11    1    1    2    0    0  0.97597487757E+01 -0.12735534445E+02 -0.31261647959E+02  0.35138827056E+02  0.00000000000E+00 0. -1.
</event>
<event>
 7    1  0.2612213E-009  0.1519656E+03  0.7561462E-02  0.1198078E+00
         -1   -1    0    0    0  501 -0.00000000000E+00  0.00000000000E+00  0.23394845468E+03  0.23394845468E+03  0.00000000000E+00 0.  1.
          1   -1    0    0  501    0  0.00000000000E+00 -0.00000000000E+00 -0.11603300840E+03  0.11603300840E+03  0.00000000000E+00 0. -1.
         25    2    1    2    0    0 -0.78792456446E+02 -0.94285862122E+02  0.81262990401E+02  0.19325922892E+03  0.12508949183E+03 0.  0.
          5    1    3    3  502    0 -0.14599854824E+02  0.19902665259E+02  0.53816377498E+02  0.59354416283E+02  0.41800000000E+01 0.  1.
         -5    1    3    3    0  502 -0.64192601622E+02 -0.11418852738E+03  0.27446612903E+02  0.13390481264E+03  0.41800000000E+01 0.  1.
        -11    1    1    2    0    0 -0.15090683625E+02  0.31394133940E+02 -0.70945932389E+01  0.35547906146E+02  0.00000000000E+00 0. -1.
         11    1    1    2    0    0  0.93883140071E+02  0.62891728182E+02  0.43747049110E+02  0.12117432801E+03  0.00000000000E+00 0.  1.
</event>
<event>
 7    1  0.2612213E-009  0.1756135E+03  0.7561462E-02  0.1172117E+00
          1   -1    0    0  501    0  0.00000000000E+00  0.00000000000E+00  0.43815319776E+03  0.43815319776E+03  0.00000000000E+00 0. -1.
         -1   -1    0    0    0  501 -0.00000000000E+00 -0.00000000000E+00 -0.10343646551E+03  0.10343646551E+03  0.00000000000E+00 0.  1.
         25    2    1    2    0    0 -0.14333331710E+03  0.18747556239E+02  0.31622784739E+03  0.36952174175E+03  0.12510138090E+03 0.  0.
          5    1    3    3  502    0 -0.69533973761E+02  0.68791828582E+02  0.12753000889E+03  0.16077519944E+03  0.41800000000E+01 0. -1.
         -5    1    3    3    0  502 -0.73799343338E+02 -0.50044272344E+02  0.18869783850E+03  0.20874654231E+03  0.41800000000E+01 0. -1.
        -11    1    1    2    0    0  0.13983192204E+03  0.51312091005E+01  0.33190457996E+02  0.14380856105E+03  0.00000000000E+00 0. -1.
         11    1    1    2    0    0  0.35013950560E+01 -0.23878765339E+02 -0.14701573133E+02  0.28259360468E+02  0.00000000000E+00 0.  1.
</event>
<event>
 7    1  0.2612213E-009  0.1425337E+03  0.7561462E-02  0.1209960E+00
         -1   -1    0    0    0  501 -0.00000000000E+00  0.00000000000E+00  0.11367908688E+03  0.11367908688E+03  0.00000000000E+00 0.  1.
          1   -1    0    0  501    0  0.00000000000E+00 -0.00000000000E+00 -0.18205167903E+03  0.18205167903E+03  0.00000000000E+00 0. -1.
         25    2    1    2    0    0 -0.15652383922E+02 -0.91046835239E+02 -0.39686404645E+02  0.16049158264E+03  0.12509202235E+03 0.  0.
          5    1    3    3  502    0 -0.68956920922E+02 -0.45899292545E+02 -0.35993380198E+02  0.90414588520E+02  0.41800000000E+01 0. -1.
         -5    1    3    3    0  502  0.53304536999E+02 -0.45147542694E+02 -0.36930244464E+01  0.70076994125E+02  0.41800000000E+01 0. -1.
        -11    1    1    2    0    0 -0.37184749216E+02  0.60785004064E+02 -0.14436467575E+02  0.72704428265E+02  0.00000000000E+00 0.  1.
         11    1    1    2    0    0  0.52837133139E+02  0.30261831175E+02 -0.14249719933E+02  0.62534754997E+02  0.00000000000E+00 0. -1.
</event>
<event>
 7    1  0.2612213E-009  0.1858350E+03  0.7561462E-02  0.1162272E+00
         -1   -1    0    0    0  501 -0.00000000000E+00  0.00000000000E+00  0.32055308178E+03  0.32055308178E+03  0.00000000000E+00 0. -1.
          1   -1    0    0  501    0  0.00000000000E+00 -0.00000000000E+00 -0.16250368373E+03  0.16250368373E+03  0.00000000000E+00 0.  1.
         25    2    1    2    0    0 -0.80262657808E+01 -0.15495014131E+03  0.21622220589E+03  0.29406296126E+03  0.12508803153E+03 0.  0.
          5    1    3    3  502    0 -0.16311838735E+01  0.21001790175E+02  0.12828138838E+02  0.25015385214E+02  0.41800000000E+01 0.  1.
         -5    1    3    3    0  502 -0.63950819073E+01 -0.17595193148E+03  0.20339406705E+03  0.26904757605E+03  0.41800000000E+01 0.  1.
        -11    1    1    2    0    0 -0.30813646313E+02  0.11203525048E+03 -0.15809512669E+02  0.11726601741E+03  0.00000000000E+00 0. -1.
         11    1    1    2    0    0  0.38839912094E+02  0.42914890828E+02 -0.42363295171E+02  0.71727786833E+02  0.00000000000E+00 0.  1.
</event>
<event>
 7    1  0.2612213E-009  0.9559338E+02  0.7561462E-02  0.1289845E+00
          1   -1    0    0  501    0  0.00000000000E+00  0.00000000000E+00  0.17167948969E+03  0.17167948969E+03  0.00000000000E+00 0. -1.
         -1   -1    0    0    0  501 -0.00000000000E+00 -0.00000000000E+00 -0.10785298244E+03  0.10785298244E+03  0.00000000000E+00 0.  1.
         25    2    1    2    0    0 -0.61850640753E+01 -0.32390091100E+02 -0.45256980115E+02  0.13705182323E+03  0.12509050717E+03 0.  0.
          5    1    3    3  502    0  0.18284073442E+02  0.44085147828E+02 -0.85506433261E+01  0.48666143282E+02  0.41800000000E+01 0.  1.
         -5    1    3    3    0  502 -0.24469137518E+02 -0.76475238929E+02 -0.36706336789E+02  0.88385679952E+02  0.41800000000E+01 0.  1.
        -11    1    1    2    0    0  0.25329360753E+02  0.92729454566E-01 -0.18195022380E+01  0.25394796776E+02  0.00000000000E+00 0.  1.
         11    1    1    2    0    0 -0.19144296677E+02  0.32297361646E+02  0.11090298960E+03  0.11708585212E+03  0.00000000000E+00 0. -1.
</event>
<event>
 7    1  0.2612213E-009  0.1371113E+03  0.7561462E-02  0.1217270E+00
          1   -1    0    0  501    0  0.00000000000E+00  0.00000000000E+00  0.45639069741E+03  0.45639069741E+03  0.00000000000E+00 0. -1.
         -1   -1    0    0    0  501 -0.00000000000E+00 -0.00000000000E+00 -0.48160363109E+02  0.48160363109E+02  0.00000000000E+00 0.  1.
         25    2    1    2    0    0 -0.18500680062E+02 -0.85261584576E+02  0.30542386958E+03  0.34138282617E+03  0.12508669364E+03 0.  0.
          5    1    3    3  502    0 -0.58903416307E+02 -0.93689656330E+02  0.23110460454E+03  0.25626973055E+03  0.41800000000E+01 0.  1.
         -5    1    3    3    0  502  0.40402736245E+02  0.84280717535E+01  0.74319265041E+02  0.85113095619E+02  0.41800000000E+01 0.  1.
        -11    1    1    2    0    0 -0.28020758312E+02  0.65886533278E+02  0.37947261335E+02  0.81032048022E+02  0.00000000000E+00 0. -1.
         11    1    1    2    0    0  0.46521438374E+02  0.19375051298E+02  0.64859203384E+02  0.82136186330E+02  0.00000000000E+00 0.  1.
</event>
<event>
 7    1  0.2612213E-009  0.1101066E+03  0.7561462E-02  0.1260373E+00
          3   -1    0    0  501    0  0.00000000000E+00  0.00000000000E+00  0.10507408833E+03  0.10507408833E+03  0.00000000000E+00 0. -1.
         -3   -1    0    0    0  501 -0.00000000000E+00 -0.00000000000E+00 -0.15048556623E+03  0.15048556623E+03  0.00000000000E+00 0.  1.
         25    2    1    2    0    0 -0.54423321670E+02  0.50531580845E+01  0.11568739792E+02  0.13699411635E+03  0.12508445078E+03 0.  0.
          5    1    3    3  502    0 -0.53412637985E+01 -0.56527191451E+02  0.11764304576E+02  0.58135391411E+02  0.41800000000E+01 0. -1.
         -5    1    3    3    0  502 -0.49082057871E+02  0.61580349536E+02 -0.19556478419E+00  0.78858724942E+02  0.41800000000E+01 0. -1.
        -11    1    1    2    0    0  0.68680763555E+02 -0.98408599656E+01 -0.11076491777E+02  0.70260789046E+02  0.00000000000E+00 0. -1.
         11    1    1    2    0    0 -0.14257441885E+02  0.47877018810E+01 -0.45903725917E+02  0.48304749160E+02  0.00000000000E+00 0.  1.
</event>
<event>
 7    1  0.2612213E-009  0.1666362E+03  0.7561462E-02  0.1181402E+00
          1   -1    0    0  501    0  0.00000000000E+00  0.00000000000E+00  0.78596121313E+02  0.78596121313E+02  0.00000000000E+00 0. -1.
         -1   -1    0    0    0  501 -0.00000000000E+00 -0.00000000000E+00 -0.44600352537E+03  0.44600352537E+03  0.00000000000E+00 0.  1.
         25    2    1    2    0    0  0.90829271735E+02 -0.11923634883E+03 -0.15403285692E+03  0.24867688034E+03  0.12508719486E+03 0.  0.
          5    1    3    3  502    0  0.67700830478E+02 -0.27950767930E+02 -0.13330981034E+03  0.15216315523E+03  0.41800000000E+01 0. -1.
         -5    1    3    3    0  502  0.23128441258E+02 -0.91285580899E+02 -0.20723046576E+02  0.96513725109E+02  0.41800000000E+01 0. -1.
        -11    1    1    2    0    0 -0.35314450772E+02  0.10134289391E+03 -0.92381373727E+02  0.14160441657E+03  0.00000000000E+00 0. -1.
         11    1    1    2    0    0 -0.55514820964E+02  0.17893454920E+02 -0.12099317341E+03  0.13431834978E+03  0.00000000000E+00 0.  1.
</event>
<event>
 7    1  0.2612213E-009  0.1883942E+03  0.7561462E-02  0.1159918E+00
          2   -1    0    0  501    0  0.00000000000E+00  0.00000000000E+00  0.88002133514E+03  0.88002133514E+03  0.00000000000E+00 0. -1.
         -2   -1    0    0    0  501 -0.00000000000E+00 -0.00000000000E+00 -0.40762834744E+02  0.40762834744E+02  0.00000000000E+00 0.  1.
         25    2    1    2    0    0 -0.15468664991E+03 -0.50195857374E+01  0.41004338563E+03  0.45578081730E+03  0.12508964555E+03 0.  0.
          5    1    3    3  502    0 -0.79131379117E+02 -0.64947550411E+02  0.21393784006E+03  0.23720630530E+03  0.41800000000E+01 0.  1.
         -5    1    3    3    0  502 -0.75555270792E+02  0.59927964674E+02  0.19610554557E+03  0.21857451201E+03  0.41800000000E+01 0.  1.
        -11    1    1    2    0    0  0.13197077086E+03 -0.30680604105E+02  0.34756003924E+03  0.37303560783E+03  0.00000000000E+00 0. -1.
         11    1    1    2    0    0  0.22715879047E+02  0.35700189842E+02  0.81655075524E+02  0.91967744750E+02  0.00000000000E+00 0.  1.
</event>
<event>
 6    1  0.2612213E-009  0.1154076E+03  0.7561462E-02  0.1250871E+00
         -1   -1    0    0    0  501 -0.00000000000E+00  0.00000000000E+00  0.30156450868E+03  0.30156450868E+03  0.00000000000E+00 0.  1.
          1   -1    0    0  501    0  0.00000000000E+00 -0.00000000000E+00 -0.60173751542E+02  0.60173751542E+02  0.00000000000E+00 0. -1.
          5    1    1    2  502    0 -0.71645458993E+02  0.16033912911E+02  0.58061468223E+02  0.93695062035E+02  0.41800000000E+01 0. -1.
         -5    1    1    2    0  502  0.19984230476E+02 -0.58137951706E+02  0.12725883721E+03  0.14139191966E+03  0.41800000000E+01 0. -1.
        -11    1    1    2    0    0  0.68696578889E+02  0.31331617731E+02  0.97443489623E+01  0.76130431217E+02  0.00000000000E+00 0. -1.
         11    1    1    2    0    0 -0.17035350372E+02  0.10772421063E+02  0.46326102740E+02  0.50520847310E+02  0.00000000000E+00 0.  1.
</event>
<event>
 7    1  0.2612213E-009  0.1576109E+03  0.7561462E-02  0.1191421E+00
         -2   -1    0    0    0  501 -0.00000000000E+00  0.00000000000E+00  0.99118982912E+02  0.99118982912E+02  0.00000000000E+00 0. -1.
          2   -1    0    0  501    0  0.00000000000E+00 -0.00000000000E+00 -0.31495559147E+03  0.31495559147E+03  0.00000000000E+00 0.  1.
         25    2    1    2    0    0 -0.35495436334E+01 -0.13800282783E+03 -0.98462799943E+02  0.21070195448E+03  0.12507202285E+03 0.  0.
          5    1    3    3  502    0  0.30530980670E+02 -0.68686884736E+02  0.11603954253E+02  0.76171865342E+02  0.41800000000E+01 0.  1.
         -5    1    3    3    0  502 -0.34080524304E+02 -0.69315943097E+02 -0.11006675420E+03  0.13453008914E+03  0.41800000000E+01 0.  1.
        -11    1    1    2    0    0 -0.25285238644E+02  0.13031157584E+03 -0.77983848486E+02  0.15395431373E+03  0.00000000000E+00 0. -1.
         11    1    1    2    0    0  0.28834782278E+02  0.76912519976E+01 -0.39389960127E+02  0.49418306174E+02  0.00000000000E+00 0.  1.
</event>
<event>
 7    1  0.2612213E-009  0.1182702E+03  0.7561462E-02  0.1245978E+00
          1   -1    0    0  501    0  0.00000000000E+00  0.00000000000E+00  0.65383550187E+03  0.65383550187E+03  0.00000000000E+00 0. -1.
         -1   -1    0    0    0  501 -0.00000000000E+00 -0.00000000000E+00 -0.74788807284E+02  0.74788807284E+02  0.00000000000E+00 0.  1.
         25    2    1    2    0    0  0.98156598560E+02  0.61729917648E+02  0.55289757527E+03  0.57860867542E+03  0.12508784893E+03 0.  0.
          5    1    3    3  502    0  0.83072225737E+02  0.58374364147E+02  0.19093223357E+03  0.21628950805E+03  0.41800000000E+01 0. -1.
         -5    1    3    3    0  502  0.15084372824E+02  0.33555535008E+01  0.36196534170E+03  0.36231916736E+03  0.41800000000E+01 0. -1.
        -11    1    1    2    0    0 -0.58283584949E+02 -0.51436317947E+02  0.58794595448E+02  0.97465252949E+02  0.00000000000E+00 0. -1.
         11    1    1    2    0    0 -0.39873013612E+02 -0.10293599701E+02 -0.32645476134E+02  0.52550380791E+02  0.00000000000E+00 0.  1.
</event>
<event>
 7    1  0.2612213E-009  0.1284221E+03  0.7561462E-02  0.1229816E+00
          2   -1    0    0  501    0  0.00000000000E+00  0.00000000000E+00  0.40801372703E+03  0.40801372703E+03  0.00000000000E+00 0. -1.
         -2   -1    0    0    0  501 -0.00000000000E+00 -0.00000000000E+00 -0.46101060070E+02  0.46101060070E+02  0.00000000000E+00 0.  1.
         25    2    1    2    0    0 -0.54010481211E+01 -0.75540973154E+02  0.25358021665E+03  0.29272160409E+03  0.12508957303E+03 0.  0.
          5    1    3    3  502    0  0.56632627744E+01  0.34452975854E+02  0.71234737451E+02  0.79441426914E+02  0.41800000000E+01 0.  1.
         -5    1    3    3    0  502 -0.11064310895E+02 -0.10999394901E+03  0.18234547920E+03  0.21328017718E+03  0.41800000000E+01 0.  1.
        -11    1    1    2    0    0 -0.35256300093E+02  0.15437032879E+02  0.68611439885E+02  0.78669170350E+02  0.00000000000E+00 0.  1.
         11    1    1    2    0    0  0.40657348214E+02  0.60103940275E+02  0.39721010423E+02  0.82724012653E+02  0.00000000000E+00 0. -1.
</event>
<event>
 7    1  0.3438706E-009  0.1726805E+03  0.7561462E-02  0.1175081E+00
         -2   -1    0    0    0  501 -0.00000000000E+00  0.00000000000E+00  0.71721836838E+02  0.71721836838E+02  0.00000000000E+00 0.  1.
          2   -1    0    0  501    0  0.00000000000E+00 -0.00000000000E+00 -0.51895512025E+03  0.51895512025E+03  0.00000000000E+00 0. -1.
         25    2    1    2    0    0  0.15271412059E+03 -0.44565908109E+02 -0.22423247611E+03  0.30205148154E+03  0.12508865404E+03 0.  0.
          5    1    3    3  502    0  0.15284658067E+03 -0.19818815454E+02 -0.22942666547E+03  0.27642165237E+03  0.41800000000E+01 0.  1.
         -5    1    3    3    0  502 -0.13246007820E+00 -0.24747092655E+02  0.51941893631E+01  0.25629829178E+02  0.41800000000E+01 0.  1.
        -11    1    1    2    0    0 -0.10168101589E+03  0.55334401747E+01 -0.72556547218E+02  0.12503639669E+03  0.00000000000E+00 0.  1.
         11    1    1    2    0    0 -0.51033104694E+02  0.39032467934E+02 -0.15044426009E+03  0.16358907886E+03  0.00000000000E+00 0. -1.
</event>
<event>
 7    1  0.2612213E-009  0.1222409E+03  0.7561462E-02  0.1239445E+00
         -1   -1    0    0    0  501 -0.00000000000E+00  0.00000000000E+00  0.91249091277E+02  0.91249091277E+02  0.00000000000E+00 0.  1.
          1   -1    0    0  501    0  0.00000000000E+00 -0.00000000000E+00 -0.17599188435E+03  0.17599188435E+03  0.00000000000E+00 0. -1.
         25    2    1    2    0    0 -0.10305015722E+02 -0.54868510931E+02 -0.34062509064E+02  0.14115538185E+03  0.12509132848E+03 0.  0.
          5    1    3    3  502    0 -0.25155503330E+02  0.35586737516E+02 -0.20696735233E+02  0.48425638707E+02  0.41800000000E+01 0. -1.
         -5    1    3    3    0  502  0.14850487609E+02 -0.90455248448E+02 -0.13365773831E+02  0.92729743147E+02  0.41800000000E+01 0. -1.
        -11    1    1    2    0    0  0.39722398500E+02 -0.70926236540E+01 -0.39729815958E+02  0.56627135977E+02  0.00000000000E+00 0.  1.
         11    1    1    2    0    0 -0.29417382778E+02  0.61961134585E+02 -0.10950468047E+02  0.69458457793E+02  0.00000000000E+00 0. -1.
</event>
<event>
 7    1  0.2612213E-009  0.8069885E+02  0.7561462E-02  0.1327080E+00
          3   -1    0    0  501    0  0.00000000000E+00  0.00000000000E+00  0.72547950717E+02  0.72547950717E+02  0.00000000000E+00 0. -1.
         -3   -1    0    0    0  501 -0.00000000000E+00 -0.00000000000E+00 -0.22246927247E+03  0.22246927247E+03  0.00000000000E+00 0.  1.
         25    2    1    2    0    0  0.33519432091E+02 -0.48436535639E+02 -0.11768337200E+03  0.18156765313E+03  0.12509111202E+03 0.  0.
          5    1    3    3  502    0 -0.15632982897E+02 -0.39677767848E+02  0.10347938279E+02  0.44082509483E+02  0.41800000000E+01 0.  1.
         -5    1    3    3    0  502  0.49152414988E+02 -0.87587677911E+01 -0.12803131028E+03  0.13748514365E+03  0.41800000000E+01 0.  1.
        -11    1    1    2    0    0 -0.14020943539E+02  0.46826695915E+02  0.23602536166E+02  0.54280807120E+02  0.00000000000E+00 0. -1.
         11    1    1    2    0    0 -0.19498488552E+02  0.16098397240E+01 -0.55840485922E+02  0.59168762940E+02  0.00000000000E+00 0.  1.
</event>
<event>
 7    1  0.2612213E-009  0.1080159E+03  0.7561462E-02  0.1264289E+00
          2   -1    0    0  501    0  0.00000000000E+00  0.00000000000E+00  0.35274785319E+03  0.35274785319E+03  0.00000000000E+00 0.  1.
         -2   -1    0    0    0  501 -0.00000000000E+00 -0.00000000000E+00 -0.48599583005E+02  0.48599583005E+02  0.00000000000E+00 0. -1.
         25    2    1    2    0    0 -0.48555499263E+02  0.54594397218E+02  0.15907285899E+03  0.21514440356E+03  0.12507899584E+03 0.  0.
          5    1    3    3  502    0 -0.38811018954E+02  0.75982112404E+02  0.41128054244E+02  0.94808047357E+02  0.41800000000E+01 0.  1.
         -5    1    3    3    0  502 -0.97444803088E+01 -0.21387715186E+02  0.11794480475E+03  0.12033635620E+03  0.41800000000E+01 0.  1.
        -11    1    1    2    0    0  0.29790539662E+02  0.15913815794E+02  0.85762892400E+02  0.92173746258E+02  0.00000000000E+00 0.  1.
         11    1    1    2    0    0  0.18764959601E+02 -0.70508213012E+02  0.59312518797E+02  0.94029286380E+02  0.00000000000E+00 0. -1.
</event>
<event>
 7    1  0.2612213E-009  0.1137688E+03  0.7561462E-02  0.1253746E+00
          1   -1    0    0  501    0  0.00000000000E+00  0.00000000000E+00  0.77768087555E+03  0.77768087555E+03  0.00000000000E+00 0. -1.
         -1   -1    0    0    0  501 -0.00000000000E+00 -0.00000000000E+00 -0.22664766126E+02  0.22664766126E+02  0.00000000000E+00 0.  1.
         25    2    1    2    0    0  0.15817031805E+02  0.55369719435E+02  0.26399783363E+03  0.29775447565E+03  0.12508751851E+03 0.  0.
          5    1    3    3  502    0  0.46821831681E+02  0.75121790365E+02  0.23368594006E+03  0.24992430512E+03  0.41800000000E+01 0.  1.
         -5    1    3    3    0  502 -0.31004799876E+02 -0.19752070930E+02  0.30311893568E+02  0.47830170532E+02  0.41800000000E+01 0.  1.
        -11    1    1    2    0    0  0.18727116319E+02 -0.63692724707E+02  0.38746059831E+03  0.39310708885E+03  0.00000000000E+00 0.  1.
         11    1    1    2    0    0 -0.34544148124E+02  0.83230052722E+01  0.10355767749E+03  0.10948407717E+03  0.00000000000E+00 0. -1.
</event>
<event>
 6    1  0.2612213E-009  0.1780038E+03  0.7561462E-02  0.1169749E+00
         -2   -1    0    0    0  501 -0.00000000000E+00  0.00000000000E+00  0.19359726605E+03  0.19359726605E+03  0.00000000000E+00 0.  1.
          2   -1    0    0  501    0  0.00000000000E+00 -0.00000000000E+00 -0.17006442858E+03  0.17006442858E+03  0.00000000000E+00 0. -1.
          5    1    1    2  502    0  0.38215769301E+02 -0.42781801084E+02  0.21591917444E+02  0.61436233822E+02  0.41800000000E+01 0.  1.
         -5    1    1    2    0  502 -0.97986726576E+02 -0.86437595710E+02  0.16461236108E+02  0.13176229063E+03  0.41800000000E+01 0.  1.
        -11    1    1    2    0    0  0.83019758741E+02  0.92420888212E+02 -0.22376753352E+02  0.12623240475E+03  0.00000000000E+00 0.  1.
         11    1    1    2    0    0 -0.23248801466E+02  0.36798508583E+02  0.78564372685E+01  0.44230765425E+02  0.00000000000E+00 0. -1.
</event>
<event>
 7    1  0.2612213E-009  0.1401183E+03  0.7561462E-02  0.1213170E+00
          1   -1    0    0  501    0  0.00000000000E+00  0.00000000000E+00  0.57405220919E+03  0.57405220919E+03  0.00000000000E+00 0. -1.
         -1   -1    0    0    0  501 -0.00000000000E+00 -0.00000000000E+00 -0.43189317064E+02  0.43189317064E+02  0.00000000000E+00 0.  1.
         25    2    1    2    0    0 -0.11007977550E+03 -0.27995437292E+01  0.24742320050E+03  0.29831357198E+03  0.12508937868E+03 0.  0.
          5    1    3    3  502    0 -0.68226236946E+02 -0.62808738788E+02  0.12625722170E+03  0.15671029164E+03  0.41800000000E+01 0. -1.
         -5    1    3    3    0  502 -0.41853538556E+02  0.60009195059E+02  0.12116597880E+03  0.14160328033E+03  0.41800000000E+01 0. -1.
        -11    1    1    2    0    0  0.96492398871E+02 -0.79222708625E+01  0.28552641367E+03  0.30149440844E+03  0.00000000000E+00 0. -1.
         11    1    1    2    0    0  0.13587376631E+02  0.10721814592E+02 -0.20867220431E+01  0.17433545845E+02  0.00000000000E+00 0.  1.
</event>
<event>
 7    1  0.2612213E-009  0.1024640E+03  0.7561462E-02  0.1275198E+00
         -2   -1    0    0    0  501 -0.00000000000E+00  0.00000000000E+00  0.59013596352E+03  0.59013596352E+03  0.00000000000E+00 0.  1.
          2   -1    0    0  501    0  0.00000000000E+00 -0.00000000000E+00 -0.31294724251E+02  0.31294724251E+02  0.00000000000E+00 0. -1.
         25    2    1    2    0    0 -0.74206111875E+02  0.30147627855E+02  0.34349515693E+03  0.37424623198E+03  0.12512351021E+03 0.  0.
          5    1    3    3  502    0 -0.12224817431E+02 -0.40903476786E+01 -0.79519195982E+01  0.15712496003E+02  0.41800000000E+01 0.  1.
         -5    1    3    3    0  502 -0.61981294444E+02  0.34237975534E+02  0.35144707653E+03  0.35853373597E+03  0.41800000000E+01 0.  1.
        -11    1    1    2    0    0 -0.19955937638E+02  0.38661257858E+01  0.26038781211E+02  0.33033384667E+02  0.00000000000E+00 0.  1.
         11    1    1    2    0    0  0.94162049512E+02 -0.34013753641E+02  0.18930730113E+03  0.21415107113E+03  0.00000000000E+00 0. -1.
</event>
<event>
 7    1  0.2612213E-009  0.1337543E+03  0.7561462E-02  0.1221989E+00
         -4   -1    0    0    0  501 -0.00000000000E+00  0.00000000000E+00  0.52585232849E+02  0.52585232849E+02  0.00000000000E+00 0.  1.
          4   -1    0    0  501    0  0.00000000000E+00 -0.00000000000E+00 -0.43430108170E+03  0.43430108170E+03  0.00000000000E+00 0. -1.
         25    2    1    2    0    0 -0.48093145012E+02  0.77783135473E+02 -0.28566167407E+03  0.32498706807E+03  0.12510329980E+03 0.  0.
          5    1    3    3  502    0  0.33284671997E+02 -0.42299244422E+01 -0.33555247125E+02  0.47636001725E+02  0.41800000000E+01 0.  1.
         -5    1    3    3    0  502 -0.81377817009E+02  0.82013059915E+02 -0.25210642694E+03  0.27735106635E+03  0.41800000000E+01 0.  1.
        -11    1    1    2    0    0  0.47150533341E+02 -0.92242953280E+02 -0.52784191992E+02  0.11626739074E+03  0.00000000000E+00 0.  1.
         11    1    1    2    0    0  0.94261167102E+00  0.14459817807E+02 -0.43269982792E+02  0.45631855743E+02  0.00000000000E+00 0. -1.
</event>
<event>
 7    1  0.2612213E-009  0.1260486E+03  0.7561462E-02  0.1233439E+00
         -1   -1    0    0    0  501 -0.00000000000E+00  0.00000000000E+00  0.30422549002E+03  0.30422549002E+03  0.00000000000E+00 0.  1.
          1   -1    0    0  501    0  0.00000000000E+00 -0.00000000000E+00 -0.95547175494E+02  0.95547175494E+02  0.00000000000E+00 0. -1.
         25    2    1    2    0    0 -0.91106075833E+01  0.19285120024E+02  0.67852143584E+02  0.14389554993E+03  0.12508835627E+03 0.  0.
          5    1    3    3  502    0  0.43741156317E+02  0.17900185753E+01  0.75671045846E+02  0.87521840142E+02  0.41800000000E+01 0. -1.
         -5    1    3    3    0  502 -0.52851763900E+02  0.17495101449E+02 -0.78189022627E+01  0.56373709783E+02  0.41800000000E+01 0. -1.
        -11    1    1    2    0    0 -0.25768852012E+02  0.60203771600E+02 -0.23873185344E+02  0.69702631423E+02  0.00000000000E+00 0. -1.
         11    1    1    2    0    0  0.34879459595E+02 -0.79488891624E+02  0.16469935629E+03  0.18617448417E+03  0.00000000000E+00 0.  1.
</event>
<event>
 7    1  0.2612213E-009  0.7482683E+02  0.7561462E-02  0.1344408E+00
          3   -1    0    0  501    0  0.00000000000E+00  0.00000000000E+00  0.19826209549E+03  0.19826209549E+03  0.00000000000E+00 0. -1.
         -3   -1    0    0    0  501 -0.00000000000E+00 -0.00000000000E+00 -0.76677690592E+02  0.76677690592E+02  0.00000000000E+00 0.  1.
         25    2    1    2    0    0 -0.28681769018E+02  0.14821730090E+02  0.12380362932E+03  0.17893210289E+03  0.12508809398E+03 0.  0.
          5    1    3    3  502    0  0.27260813285E+02  0.11992672764E+02  0.11879133259E+03  0.12253909270E+03  0.41800000000E+01 0.  1.
         -5    1    3    3    0  502 -0.55942582303E+02  0.28290573261E+01  0.50122967308E+01  0.56393010193E+02  0.41800000000E+01 0.  1.
        -11    1    1    2    0    0  0.35524961205E+02 -0.30168491967E+02 -0.35592508570E+02  0.58642880578E+02  0.00000000000E+00 0.  1.
         11    1    1    2    0    0 -0.68431921867E+01  0.15346761877E+02  0.33373284147E+02  0.37364802611E+02  0.00000000000E+00 0. -1.
</event>
<event>
 7    1  0.2612213E-009  0.1168621E+03  0.7561462E-02  0.1248365E+00
          1   -1    0    0  501    0  0.00000000000E+00  0.00000000000E+00  0.34453056450E+03  0.34453056450E+03  0.00000000000E+00 0. -1.
         -1   -1    0    0    0  501 -0.00000000000E+00 -0.00000000000E+00 -0.76375805103E+02  0.76375805103E+02  0.00000000000E+00 0.  1.
         25    2    1    2    0    0 -0.17287042094E+01 -0.79406977703E+02  0.21342120591E+03  0.25981703561E+03  0.12509126402E+03 0.  0.
          5    1    3    3  502    0  0.41876752908E+02  0.91301453570E+01  0.10311126846E+03  0.11174268689E+03  0.41800000000E+01 0.  1.
         -5    1    3    3    0  502 -0.43605457118E+02 -0.88537123060E+02  0.11030993744E+03  0.14807434872E+03  0.41800000000E+01 0.  1.
        -11    1    1    2    0    0  0.23535495373E+02  0.32255916772E+02 -0.37791524919E+02  0.54977841582E+02  0.00000000000E+00 0.  1.
         11    1    1    2    0    0 -0.21806791163E+02  0.47151060931E+02  0.92525078411E+02  0.10611149242E+03  0.00000000000E+00 0. -1.
</event>
<event>
 7    1  0.2612213E-009  0.1539869E+03  0.7561462E-02  0.1195658E+00
          1   -1    0    0  501    0  0.00000000000E+00  0.00000000000E+00  0.39505412673E+03  0.39505412673E+03  0.00000000000E+00 0. -1.
         -1   -1    0    0    0  501 -0.00000000000E+00 -0.00000000000E+00 -0.85709120927E+02  0.85709120927E+02  0.00000000000E+00 0.  1.
         25    2    1    2    0    0  0.12378279641E+02  0.14380004879E+03  0.20617380008E+03  0.28105053213E+03  0.12510031947E+03 0.  0.
          5    1    3    3  502    0  0.35327981878E+02  0.62387295105E+02  0.17024431358E+02  0.73807483070E+02  0.41800000000E+01 0.  1.
         -5    1    3    3    0  502 -0.22949702237E+02  0.81412753686E+02  0.18914936873E+03  0.20724304906E+03  0.41800000000E+01 0.  1.
        -11    1    1    2    0    0  0.15521342913E+02 -0.84735458419E+02  0.11150360506E+02  0.86863919660E+02  0.00000000000E+00 0.  1.
         11    1    1    2    0    0 -0.27899622554E+02 -0.59064590372E+02  0.92020845216E+02  0.11284879587E+03  0.00000000000E+00 0. -1.
</event>
<event>
 7    1  0.2612213E-009  0.1145774E+03  0.7561462E-02  0.1252321E+00
          1   -1    0    0  501    0  0.00000000000E+00  0.00000000000E+00  0.91276774707E+03  0.91276774707E+03  0.00000000000E+00 0. -1.
         -1   -1    0    0    0  501 -0.00000000000E+00 -0.00000000000E+00 -0.19149916243E+02  0.19149916243E+02  0.00000000000E+00 0.  1.
         25    2    1    2    0    0 -0.69037981402E+01 -0.65637968225E+02  0.63614493068E+03  0.65167761393E+03  0.12508930556E+03 0.  0.
          5    1    3    3  502    0  0.34497669214E+02 -0.70387846542E+02  0.55337161101E+03  0.55891157655E+03  0.41800000000E+01 0. -1.
         -5    1    3    3    0  502 -0.41401467355E+02  0.47498783161E+01  0.82773319665E+02  0.92766037381E+02  0.41800000000E+01 0. -1.
        -11    1    1    2    0    0  0.76166692994E+01 -0.20894168584E+02  0.34313829598E+02  0.40890326896E+02  0.00000000000E+00 0.  1.
         11    1    1    2    0    0 -0.71287115921E+00  0.86532136809E+02  0.22315907055E+03  0.23934972249E+03  0.00000000000E+00 0. -1.
</event>
<event>
 7    1  0.2612213E-009  0.5465034E+02  0.7561462E-02  0.1421760E+00
          1   -1    0    0  501    0  0.00000000000E+00  0.00000000000E+00  0.14383935102E+03  0.14383935102E+03  0.00000000000E+00 0. -1.
         -1   -1    0    0    0  501 -0.00000000000E+00 -0.00000000000E+00 -0.10273672715E+03  0.10273672715E+03  0.00000000000E+00 0.  1.
         25    2    1    2    0    0  0.29651872076E+02 -0.45516345574E+00 -0.22894654139E+02  0.13059501241E+03  0.12510576081E+03 0.  0.
          5    1    3    3  502    0 -0.23592364912E+02 -0.81484079852E+01  0.40244165788E+02  0.47540104278E+02  0.41800000000E+01 0.  1.
         -5    1    3    3    0  502  0.53244236988E+02  0.76932445295E+01 -0.63138819927E+02  0.83054908136E+02  0.41800000000E+01 0.  1.
        -11    1    1    2    0    0 -0.18550418654E+02 -0.20192807384E+01  0.87714632813E+02  0.89677490690E+02  0.00000000000E+00 0. -1.
         11    1    1    2    0    0 -0.11101453422E+02  0.24744441942E+01 -0.23717354808E+02  0.26303575066E+02  0.00000000000E+00 0.  1.
</event>
<event>
 7    1  0.2612213E-009  0.5343911E+02  0.7561462E-02  0.1427628E+00
          1   -1    0    0  501    0  0.00000000000E+00  0.00000000000E+00  0.15553763201E+03  0.15553763201E+03  0.00000000000E+00 0. -1.
         -1   -1    0    0    0  501 -0.00000000000E+00 -0.00000000000E+00 -0.87157899417E+02  0.87157899417E+02  0.00000000000E+00 0.  1.
         25    2    1    2    0    0 -0.41047241007E+01  0.38812704013E+01 -0.56867760338E+01  0.12534047416E+03  0.12508389993E+03 0.  0.
          5    1    3    3  502    0  0.10940164473E+02 -0.18364503890E+02  0.54831519178E+02  0.58999238107E+02  0.41800000000E+01 0. -1.
         -5    1    3    3    0  502 -0.15044888573E+02  0.22245774291E+02 -0.60518295212E+02  0.66341236055E+02  0.41800000000E+01 0. -1.
        -11    1    1    2    0    0  0.30356247759E+02 -0.78838188679E+01  0.83483030016E+02  0.89180001562E+02  0.00000000000E+00 0. -1.
         11    1    1    2    0    0 -0.26251523659E+02  0.40025484666E+01 -0.94165213919E+01  0.28175055701E+02  0.00000000000E+00 0.  1.
</event>
<event>
 7    1  0.2612213E-009  0.9333963E+02  0.7561462E-02  0.1294960E+00
         -2   -1    0    0    0  501 -0.00000000000E+00  0.00000000000E+00  0.18240695358E+03  0.18240695358E+03  0.00000000000E+00 0.  1.
          2   -1    0    0  501    0  0.00000000000E+00 -0.00000000000E+00 -0.22861264633E+03  0.22861264633E+03  0.00000000000E+00 0. -1.
         25    2    1    2    0    0 -0.38824582001E+02 -0.27691908416E+02  0.14284295941E+03  0.19576963256E+03  0.12508975986E+03 0.  0.
          5    1    3    3  502    0  0.38484046248E+02 -0.20537755959E+02  0.94628169964E+02  0.10428223332E+03  0.41800000000E+01 0. -1.
         -5    1    3    3    0  502 -0.77308628249E+02 -0.71541524568E+01  0.48214789441E+02  0.91487399241E+02  0.41800000000E+01 0. -1.
        -11    1    1    2    0    0  0.48685525289E+02  0.20142741934E+02 -0.19462935959E+03  0.20163481356E+03  0.00000000000E+00 0. -1.
         11    1    1    2    0    0 -0.98609432885E+01  0.75491664813E+01  0.55807074423E+01  0.13615153788E+02  0.00000000000E+00 0.  1.
</event>
<event>
 7    1  0.2612213E-009  0.2363116E+03  0.7561462E-02  0.1122275E+00
          2   -1    0    0  501    0  0.00000000000E+00  0.00000000000E+00  0.12448820296E+04  0.12448820296E+04  0.00000000000E+00 0.  1.
         -2   -1    0    0    0  501 -0.00000000000E+00 -0.00000000000E+00 -0.52951520105E+02  0.52951520105E+02  0.00000000000E+00 0. -1.
         25    2    1    2    0    0 -0.83360141587E+02  0.19873368499E+03  0.39431620836E+03  0.46645293060E+03  0.12509625709E+03 0.  0.
          5    1    3    3  502    0  0.33271839931E+02  0.40937324825E+02  0.84239248082E+02  0.99481672752E+02  0.41800000000E+01 0. -1.
         -5    1    3    3    0  502 -0.11663198152E+03  0.15779636016E+03  0.31007696027E+03  0.36697125785E+03  0.41800000000E+01 0. -1.
        -11    1    1    2    0    0 -0.21571190638E+01 -0.62838701021E+02  0.12570264595E+03  0.14055074069E+03  0.00000000000E+00 0. -1.
         11    1    1    2    0    0  0.85517260651E+02 -0.13589498397E+03  0.67191165521E+03  0.69082987844E+03  0.00000000000E+00 0.  1.
</event>
<event>
 7    1  0.2612213E-009  0.1303693E+03  0.7561462E-02  0.1226909E+00
         -1   -1    0    0    0  501 -0.00000000000E+00  0.00000000000E+00  0.32644054061E+02  0.32644054061E+02  0.00000000000E+00 0.  1.
          1   -1    0    0  501    0  0.00000000000E+00 -0.00000000000E+00 -0.52267369810E+03  0.52267369810E+03  0.00000000000E+00 0. -1.
         25    2    1    2    0    0 -0.32782452886E+02 -0.63402794014E+02 -0.28616663036E+03  0.32036453927E+03  0.12508994438E+03 0.  0.
          5    1    3    3  502    0  0.37792213941E+02 -0.62689223506E+02 -0.14601808739E+03  0.16339199620E+03  0.41800000000E+01 0. -1.
         -5    1    3    3    0  502 -0.70574666827E+02 -0.71357050890E+00 -0.14014854297E+03  0.15697254307E+03  0.41800000000E+01 0. -1.
        -11    1    1    2    0    0  0.12102132008E+02  0.85558446155E+02 -0.14692369966E+03  0.17045023564E+03  0.00000000000E+00 0. -1.
         11    1    1    2    0    0  0.20680320878E+02 -0.22155652141E+02 -0.56939314028E+02  0.64502977259E+02  0.00000000000E+00 0.  1.
</event>
<event>
 7    1  0.2612213E-009  0.1377828E+03  0.7561462E-02  0.1216344E+00
          1   -1    0    0  501    0  0.00000000000E+00  0.00000000000E+00  0.25233253844E+03  0.25233253844E+03  0.00000000000E+00 0. -1.
         -1   -1    0    0    0  501 -0.00000000000E+00 -0.00000000000E+00 -0.92623246374E+02  0.92623246374E+02  0.00000000000E+00 0.  1.
         25    2    1    2    0    0  0.66875696076E+02  0.84357509953E+02  0.10470922227E+03  0.19544954791E+03  0.12509179164E+03 0.  0.
          5    1    3    3  502    0 -0.34324350207E+02  0.36011266096E+01  0.14903919986E+02  0.37824970072E+02  0.41800000000E+01 0.  1.
         -5    1    3    3    0  502  0.10120004628E+03  0.80756383343E+02  0.89805302287E+02  0.15762457783E+03  0.41800000000E+01 0.  1.
        -11    1    1    2    0    0 -0.37130699390E+02 -0.67585130942E+02 -0.83245921074E+01  0.77561186139E+02  0.00000000000E+00 0.  1.
         11    1    1    2    0    0 -0.29744996686E+02 -0.16772379011E+02  0.63324661904E+02  0.71945050774E+02  0.00000000000E+00 0. -1.
</event>
<event>
 7    1  0.2612213E-009  0.6453174E+02  0.7561462E-02  0.1379742E+00
         -2   -1    0    0    0  501 -0.00000000000E+00  0.00000000000E+00  0.13918343590E+02  0.13918343590E+02  0.00000000000E+00 0.  1.
          2   -1    0    0  501    0  0.00000000000E+00 -0.00000000000E+00 -0.14794144677E+04  0.14794144677E+04  0.00000000000E+00 0. -1.
         25    2    1    2    0    0 -0.44277218008E+02  0.15784834409E+02 -0.12236316449E+04  0.12309066495E+04  0.12508854636E+03 0.  0.
          5    1    3    3  502    0 -0.16154097410E+02  0.57552266252E+01 -0.19134613820E+02  0.26032351846E+02  0.41800000000E+01 0. -1.
         -5    1    3    3    0  502 -0.28123120599E+02  0.10029607783E+02 -0.12044970311E+04  0.12048742977E+04  0.41800000000E+01 0. -1.
        -11    1    1    2    0    0  0.13002244837E+02  0.26000422519E+02 -0.22013521614E+02  0.36464715490E+02  0.00000000000E+00 0.  1.
         11    1    1    2    0    0  0.31274973171E+02 -0.41785256927E+02 -0.21985095764E+03  0.22596144631E+03  0.00000000000E+00 0. -1.
</event>
<event>
 7    1  0.2612213E-009  0.8745523E+02  0.7561462E-02  0.1309134E+00
         -2   -1    0    0    0  501 -0.00000000000E+00  0.00000000000E+00  0.82605508312E+02  0.82605508312E+02  0.00000000000E+00 0.  1.
          2   -1    0    0  501    0  0.00000000000E+00 -0.00000000000E+00 -0.17310285688E+03  0.17310285688E+03  0.00000000000E+00 0. -1.
         25    2    1    2    0    0 -0.39328407460E+02  0.11742756294E+02 -0.80521087506E+02  0.15432611802E+03  0.12509312216E+03 0.  0.
          5    1    3    3  502    0 -0.73595694432E+02  0.41702707774E+02 -0.62210345765E+02  0.10508587724E+03  0.41800000000E+01 0. -1.
         -5    1    3    3    0  502  0.34267286972E+02 -0.29959951480E+02 -0.18310741741E+02  0.49240240781E+02  0.41800000000E+01 0. -1.
        -11    1    1    2    0    0  0.81048780403E+01 -0.10494528256E+02  0.40167034363E+02  0.42299111349E+02  0.00000000000E+00 0.  1.
         11    1    1    2    0    0  0.31223529420E+02 -0.12482280377E+01 -0.50143295422E+02  0.59083135821E+02  0.00000000000E+00 0. -1.
</event>
<event>
 7    1  0.2612213E-009  0.1946097E+03  0.7561462E-02  0.1154368E+00
          1   -1    0    0  501    0  0.00000000000E+00  0.00000000000E+00  0.99989300292E+02  0.99989300292E+02  0.00000000000E+00 0. -1.
         -1   -1    0    0    0  501 -0.00000000000E+00 -0.00000000000E+00 -0.66257921318E+03  0.66257921318E+03  0.00000000000E+00 0.  1.
         25    2    1    2    0    0 -0.95822170621E+02 -0.13905083038E+03 -0.52732564760E+03  0.56765271896E+03  0.12506098080E+03 0.  0.
          5    1    3    3  502    0  0.17899549106E+02 -0.65722536941E+02 -0.24848681829E+03  0.25768782856E+03  0.41800000000E+01 0.  1.
         -5    1    3    3    0  502 -0.11372171973E+03 -0.73328293435E+02 -0.27883882931E+03  0.30996489041E+03  0.41800000000E+01 0.  1.
        -11    1    1    2    0    0  0.54150777577E+02  0.17198661392E+02  0.11386100464E+02  0.57946043434E+02  0.00000000000E+00 0.  1.
         11    1    1    2    0    0  0.41671393044E+02  0.12185216898E+03 -0.46650365748E+02  0.13696975107E+03  0.00000000000E+00 0. -1.
</event>
<event>
 7    1  0.2612213E-009  0.8790686E+02  0.7561462E-02  0.1308001E+00
         -2   -1    0    0    0  501 -0.00000000000E+00  0.00000000000E+00  0.10054259570E+03  0.10054259570E+03  0.00000000000E+00 0.  1.
          2   -1    0    0  501    0  0.00000000000E+00 -0.00000000000E+00 -0.13795338122E+03  0.13795338122E+03  0.00000000000E+00 0. -1.
         25    2    1    2    0    0 -0.10187472745E+01 -0.36857626024E+02  0.27324510719E+01  0.13038966762E+03  0.12503790102E+03 0.  0.
          5    1    3    3  502    0 -0.16175296265E+02  0.33139527093E+02 -0.33519814562E+02  0.50009187491E+02  0.41800000000E+01 0.  1.
         -5    1    3    3    0  502  0.15156548991E+02 -0.69997153117E+02  0.36252265634E+02  0.80380480127E+02  0.41800000000E+01 0.  1.
        -11    1    1    2    0    0 -0.26451375090E+02  0.26938464725E+02  0.18910422119E+02  0.42225113269E+02  0.00000000000E+00 0.  1.
         11    1    1    2    0    0  0.27470122364E+02  0.99191612997E+01 -0.59053658709E+02  0.65881196031E+02  0.00000000000E+00 0. -1.
</event>
<event>
 7    1  0.2612213E-009  0.1068611E+03  0.7561462E-02  0.1266496E+00
         -1   -1    0    0    0  501 -0.00000000000E+00  0.00000000000E+00  0.13897690601E+02  0.13897690601E+02  0.00000000000E+00 0.  1.
          1   -1    0    0  501    0  0.00000000000E+00 -0.00000000000E+00 -0.12248882259E+04  0.12248882259E+04  0.00000000000E+00 0. -1.
         25    2    1    2    0    0  0.15686745666E+02 -0.63615932929E+02 -0.89913723821E+03  0.91015690758E+03  0.12507902454E+03 0.  0.
          5    1    3    3  502    0  0.10018174297E+02  0.23761214856E+02 -0.49147535420E+02  0.55658887749E+02  0.41800000000E+01 0. -1.
         -5    1    3    3    0  502  0.56685713691E+01 -0.87377147785E+02 -0.84998970279E+03  0.85449801984E+03  0.41800000000E+01 0. -1.
        -11    1    1    2    0    0  0.14959014319E+02  0.67417836539E+02 -0.17074915214E+03  0.18418525931E+03  0.00000000000E+00 0.  1.
         11    1    1    2    0    0 -0.30645759984E+02 -0.38019036096E+01 -0.14110414498E+03  0.14444374962E+03  0.00000000000E+00 0. -1.
</event>
<event>
 7    1  0.2612213E-009  0.1226642E+03  0.7561462E-02  0.1238766E+00
          1   -1    0    0  501    0  0.00000000000E+00  0.00000000000E+00  0.33431508098E+03  0.33431508098E+03  0.00000000000E+00 0. -1.
         -1   -1    0    0    0  501 -0.00000000000E+00 -0.00000000000E+00 -0.52439951528E+02  0.52439951528E+02  0.00000000000E+00 0.  1.
         25    2    1    2    0    0 -0.75630433985E+02 -0.58546920338E+01  0.14638008213E+03  0.20695493726E+03  0.12509587383E+03 0.  0.
          5    1    3    3  502    0 -0.16464412654E+02  0.53786559495E+02  0.88150944635E+02  0.10465243574E+03  0.41800000000E+01 0. -1.
         -5    1    3    3    0  502 -0.59166021331E+02 -0.59641251529E+02  0.58229137492E+02  0.10230250152E+03  0.41800000000E+01 0. -1.
        -11    1    1    2    0    0 -0.52257455785E+01  0.21781274716E+02  0.14468717143E+01  0.22446063861E+02  0.00000000000E+00 0.  1.
         11    1    1    2    0    0  0.80856179563E+02 -0.15926582682E+02  0.13404817561E+03  0.15735403139E+03  0.00000000000E+00 0. -1.
</event>
<event>
 7    1  0.2612213E-009  0.1184568E+03  0.7561462E-02  0.1245665E+00
          2   -1    0    0  501    0  0.00000000000E+00  0.00000000000E+00  0.13482197293E+03  0.13482197293E+03  0.00000000000E+00 0. -1.
         -2   -1    0    0    0  501 -0.00000000000E+00 -0.00000000000E+00 -0.17195733880E+03  0.17195733880E+03  0.00000000000E+00 0.  1.
         25    2    1    2    0    0 -0.82222982705E+02  0.38068244137E+02  0.33995632130E+02  0.15814973220E+03  0.12508327104E+03 0.  0.
          5    1    3    3  502    0  0.18343615722E+02 -0.21730142338E+02 -0.13562723556E+02  0.31782183594E+02  0.41800000000E+01 0. -1.
         -5    1    3    3    0  502 -0.10056659843E+03  0.59798386475E+02  0.47558355686E+02  0.12636754860E+03  0.41800000000E+01 0. -1.
        -11    1    1    2    0    0  0.51129957417E+02 -0.18595068213E+02 -0.91658552093E+02  0.10658958335E+03  0.00000000000E+00 0.  1.
         11    1    1    2    0    0  0.31093025288E+02 -0.19473175924E+02  0.20527554084E+02  0.42039996180E+02  0.00000000000E+00 0. -1.
</event>
<event>
 7    1  0.2612213E-009  0.1201520E+03  0.7561462E-02  0.1242846E+00
          1   -1    0    0  501    0  0.00000000000E+00  0.00000000000E+00  0.61351275831E+03  0.61351275831E+03  0.00000000000E+00 0. -1.
         -1   -1    0    0    0  501 -0.00000000000E+00 -0.00000000000E+00 -0.27881970080E+02  0.27881970080E+02  0.00000000000E+00 0.  1.
         25    2    1    2    0    0  0.90063313063E+01 -0.64384483051E+02  0.42042179896E+03  0.44342765484E+03  0.12508845022E+03 0.  0.
          5    1    3    3  502    0  0.57690891656E+02 -0.58597514190E+02  0.33381020950E+03  0.34381482809E+03  0.41800000000E+01 0. -1.
         -5    1    3    3    0  502 -0.48684560349E+02 -0.57869688612E+01  0.86611589463E+02  0.99612826756E+02  0.41800000000E+01 0. -1.
        -11    1    1    2    0    0  0.33201928992E+02  0.56924191979E+02  0.92697358680E+02  0.11373448038E+03  0.00000000000E+00 0.  1.
         11    1    1    2    0    0 -0.42208260299E+02  0.74602910721E+01  0.72511630591E+02  0.84232593165E+02  0.00000000000E+00 0. -1.
</event>
<event>
 7    1  0.2612213E-009  0.2053620E+03  0.7561462E-02  0.1145292E+00
         -2   -1    0    0    0  501 -0.00000000000E+00  0.00000000000E+00  0.13076791974E+03  0.13076791974E+03  0.00000000000E+00 0.  1.
          2   -1    0    0  501    0  0.00000000000E+00 -0.00000000000E+00 -0.43568375962E+03  0.43568375962E+03  0.00000000000E+00 0. -1.
         25    2    1    2    0    0  0.14305616431E+03  0.13629490041E+03 -0.67176028759E+02  0.24331569888E+03  0.12509414237E+03 0.  0.
          5    1    3    3  502    0  0.72412295051E+02  0.71556170874E+02 -0.99194817424E+02  0.14220024708E+03  0.41800000000E+01 0.  1.
         -5    1    3    3    0  502  0.70643869260E+02  0.64738729533E+02  0.32018788665E+02  0.10111545180E+03  0.41800000000E+01 0.  1.
        -11    1    1    2    0    0 -0.64073984452E+02 -0.11413659455E+03 -0.10827687658E+03  0.16987206863E+03  0.00000000000E+00 0.  1.
         11    1    1    2    0    0 -0.78982179859E+02 -0.22158305856E+02 -0.12946293455E+03  0.15326391185E+03  0.00000000000E+00 0. -1.
</event>
<event>
 7    1  0.2612213E-009  0.4111525E+03  0.7561462E-02  0.1039985E+00
         -2   -1    0    0    0  501 -0.00000000000E+00  0.00000000000E+00  0.17973066623E+03  0.17973066623E+03  0.00000000000E+00 0.  1.
          2   -1    0    0  501    0  0.00000000000E+00 -0.00000000000E+00 -0.10079604333E+04  0.10079604333E+04  0.00000000000E+00 0. -1.
         25    2    1    2    0    0  0.35563916510E+03  0.20608597307E+03 -0.44915724787E+03  0.62156098100E+03  0.12508067690E+03 0.  0.
          5    1    3    3  502    0  0.46290147356E+02  0.25791929015E+02 -0.13543180030E+03  0.14548967756E+03  0.41800000000E+01 0. -1.
         -5    1    3    3    0  502  0.30934901775E+03  0.18029404405E+03 -0.31372544757E+03  0.47607130343E+03  0.41800000000E+01 0. -1.
        -11    1    1    2    0    0 -0.20370994145E+03 -0.12111996590E+03 -0.15837531468E+03  0.28504478014E+03  0.00000000000E+00 0. -1.
         11    1    1    2    0    0 -0.15192922365E+03 -0.84966007167E+02 -0.22069720449E+03  0.28108533837E+03  0.00000000000E+00 0.  1.
</event>
<event>
 7    1  0.2612213E-009  0.1433454E+03  0.7561462E-02  0.1208897E+00
         -1   -1    0    0    0  501 -0.00000000000E+00  0.00000000000E+00  0.43503220754E+02  0.43503220754E+02  0.00000000000E+00 0.  1.
          1   -1    0    0  501    0  0.00000000000E+00 -0.00000000000E+00 -0.56640275823E+03  0.56640275823E+03  0.00000000000E+00 0. -1.
         25    2    1    2    0    0 -0.11078365895E+03  0.13842121651E+02 -0.24815988222E+03  0.29949287518E+03  0.12509209294E+03 0.  0.
          5    1    3    3  502    0  0.11008100212E+02  0.24139787326E+02 -0.11748558919E+03  0.12051657010E+03  0.41800000000E+01 0.  1.
         -5    1    3    3    0  502 -0.12179175917E+03 -0.10297665675E+02 -0.13067429303E+03  0.17897630508E+03  0.41800000000E+01 0.  1.
        -11    1    1    2    0    0  0.21031268429E+02  0.30797869297E+02 -0.37604302495E+02  0.52961368667E+02  0.00000000000E+00 0. -1.
         11    1    1    2    0    0  0.89752390526E+02 -0.44639990948E+02 -0.23713535276E+03  0.25745173513E+03  0.00000000000E+00 0.  1.
</event>
<event>
 7    1  0.2612213E-009  0.1354216E+03  0.7561462E-02  0.1219626E+00
          2   -1    0    0  501    0  0.00000000000E+00  0.00000000000E+00  0.29363399125E+03  0.29363399125E+03  0.00000000000E+00 0. -1.
         -2   -1    0    0    0  501 -0.00000000000E+00 -0.00000000000E+00 -0.13167455530E+03  0.13167455530E+03  0.00000000000E+00 0.  1.
         25    2    1    2    0    0  0.10266158392E+03 -0.29522206885E+02  0.21866285657E+03  0.27362665238E+03  0.12508852281E+03 0.  0.
          5    1    3    3  502    0  0.45011819670E+02 -0.73721480228E+02  0.83978968926E+02  0.12054401760E+03  0.41800000000E+01 0. -1.
         -5    1    3    3    0  502  0.57649764246E+02  0.44199273342E+02  0.13468388764E+03  0.15308263478E+03  0.41800000000E+01 0. -1.
        -11    1    1    2    0    0 -0.71029139007E+01  0.12732111096E+02  0.22245059734E+02  0.26597005873E+02  0.00000000000E+00 0. -1.
         11    1    1    2    0    0 -0.95558670016E+02  0.16790095790E+02 -0.78948480346E+02  0.12508488830E+03  0.00000000000E+00 0.  1.
</event>
<event>
 7    1  0.2612213E-009  0.1062660E+03  0.7561462E-02  0.1267645E+00
          3   -1    0    0  501    0  0.00000000000E+00  0.00000000000E+00  0.16705051994E+03  0.16705051994E+03  0.00000000000E+00 0. -1.
         -3   -1    0    0    0  501 -0.00000000000E+00 -0.00000000000E+00 -0.10631562491E+03  0.10631562491E+03  0.00000000000E+00 0.  1.
         25    2    1    2    0    0  0.29758952391E+02  0.62759283611E+02  0.32217429438E+02  0.14665485405E+03  0.12508141561E+03 0.  0.
          5    1    3    3  502    0  0.64076982018E+01 -0.37943668583E+02  0.15186753210E+01  0.38737054050E+02  0.41800000000E+01 0.  1.
         -5    1    3    3    0  502  0.23351254189E+02  0.10070295219E+03  0.30698754117E+02  0.10791780000E+03  0.41800000000E+01 0.  1.
        -11    1    1    2    0    0 -0.11992479947E+02 -0.38305663975E+02 -0.36979086800E+02  0.54576518104E+02  0.00000000000E+00 0.  1.
         11    1    1    2    0    0 -0.17766472445E+02 -0.24453619636E+02  0.65496552396E+02  0.72134772698E+02  0.00000000000E+00 0. -1.
</event>
<event>
 7    1  0.2612213E-009  0.1515434E+03  0.7561462E-02  0.1198589E+00
         -1   -1    0    0    0  501 -0.00000000000E+00  0.00000000000E+00  0.63585630620E+03  0.63585630620E+03  0.00000000000E+00 0.  1.
          1   -1    0    0  501    0  0.00000000000E+00 -0.00000000000E+00 -0.46192986072E+02  0.46192986072E+02  0.00000000000E+00 0. -1.
         25    2    1    2    0    0 -0.48468873604E+02  0.97048319421E+02  0.46840053317E+03  0.49680415854E+03  0.12509078488E+03 0.  0.
          5    1    3    3  502    0 -0.17489354940E+02  0.12243353202E+03  0.38053723970E+03  0.40015235910E+03  0.41800000000E+01 0. -1.
         -5    1    3    3    0  502 -0.30979518665E+02 -0.25385212597E+02  0.87863293469E+02  0.96651799437E+02  0.41800000000E+01 0. -1.
        -11    1    1    2    0    0 -0.11457258730E+01 -0.88761237146E+02  0.66711546866E+02  0.11104188576E+03  0.00000000000E+00 0. -1.
         11    1    1    2    0    0  0.49614599477E+02 -0.82870822752E+01  0.54551240093E+02  0.74203247972E+02  0.00000000000E+00 0.  1.
</event>
<event>
 7    1  0.2612213E-009  0.1221887E+03  0.7561462E-02  0.1239529E+00
          1   -1    0    0  501    0  0.00000000000E+00  0.00000000000E+00  0.53564606919E+02  0.53564606919E+02  0.00000000000E+00 0. -1.
         -1   -1    0    0    0  501 -0.00000000000E+00 -0.00000000000E+00 -0.35901096222E+03  0.35901096222E+03  0.00000000000E+00 0.  1.
         25    2    1    2    0    0  0.63475616713E+02  0.17218276694E+02 -0.25071935860E+03  0.28780744422E+03  0.12508918899E+03 0.  0.
          5    1    3    3  502    0  0.80251854056E+02  0.56611965280E+02 -0.17557838947E+03  0.20122255823E+03  0.41800000000E+01 0. -1.
         -5    1    3    3    0  502 -0.16776237343E+02 -0.39393688586E+02 -0.75140969137E+02  0.86584885994E+02  0.41800000000E+01 0. -1.
        -11    1    1    2    0    0 -0.65750737165E+02 -0.42098600510E+02 -0.17624757758E+02  0.80038014022E+02  0.00000000000E+00 0. -1.
         11    1    1    2    0    0  0.22751204524E+01  0.24880323815E+02 -0.37102238941E+02  0.44730110895E+02  0.00000000000E+00 0.  1.
</event>
<event>
 7    1  0.2612213E-009  0.1213011E+03  0.7561462E-02  0.1240966E+00
          1   -1    0    0  501    0  0.00000000000E+00  0.00000000000E+00  0.13092323456E+03  0.13092323456E+03  0.00000000000E+00 0. -1.
         -1   -1    0    0    0  501 -0.00000000000E+00 -0.00000000000E+00 -0.13746669837E+03  0.13746669837E+03  0.00000000000E+00 0.  1.
         25    2    1    2    0    0  0.70113164833E+02 -0.19831591038E+02  0.26043288008E+02  0.14709154181E+03  0.12509404836E+03 0.  0.
          5    1    3    3  502    0  0.35064724937E+02 -0.64768891744E+02  0.45564141289E+02  0.86707021884E+02  0.41800000000E+01 0. -1.
         -5    1    3    3    0  502  0.35048439896E+02  0.44937300706E+02 -0.19520853281E+02  0.60384519926E+02  0.41800000000E+01 0. -1.
        -11    1    1    2    0    0 -0.70104268549E+02 -0.19178228688E+02 -0.37832849748E+02  0.81937399546E+02  0.00000000000E+00 0.  1.
         11    1    1    2    0    0 -0.88962843957E-02  0.39009819726E+02  0.52460979239E+01  0.39360991573E+02  0.00000000000E+00 0. -1.
</event>
<event>
 7    1  0.2612213E-009  0.9079411E+02  0.7561462E-02  0.1300940E+00
          2   -1    0    0  501    0  0.00000000000E+00  0.00000000000E+00  0.52341925960E+03  0.52341925960E+03  0.00000000000E+00 0. -1.
         -2   -1    0    0    0  501 -0.00000000000E+00 -0.00000000000E+00 -0.22615417632E+02  0.22615417632E+02  0.00000000000E+00 0.  1.
         25    2    1    2    0    0  0.37864933819E+01  0.13557867446E+02  0.30247159540E+03  0.32761890945E+03  0.12508769124E+03 0.  0.
          5    1    3    3  502    0  0.26084809381E+02  0.45977282351E+02  0.27346039005E+03  0.27855409726E+03  0.41800000000E+01 0. -1.
         -5    1    3    3    0  502 -0.22298315999E+02 -0.32419414905E+02  0.29011205353E+02  0.49064812190E+02  0.41800000000E+01 0. -1.
        -11    1    1    2    0    0  0.41883881741E+02 -0.10721912387E+02  0.12181898742E+03  0.12926362463E+03  0.00000000000E+00 0. -1.
         11    1    1    2    0    0 -0.45670375123E+02 -0.28359550589E+01  0.76513259141E+02  0.89152143157E+02  0.00000000000E+00 0.  1.
</event>
<event>
 7    1  0.2612213E-009  0.1004253E+03  0.7561462E-02  0.1279404E+00
          2   -1    0    0  501    0  0.00000000000E+00  0.00000000000E+00  0.98480703079E+02  0.98480703079E+02  0.00000000000E+00 0. -1.
         -2   -1    0    0    0  501 -0.00000000000E+00 -0.00000000000E+00 -0.14471050231E+03  0.14471050231E+03  0.00000000000E+00 0.  1.
         25    2    1    2    0    0  0.33173955767E+02  0.54836942917E+01  0.13443295385E+02  0.13022511498E+03  0.12508907280E+03 0.  0.
          5    1    3    3  502    0 -0.42544134117E+02 -0.21049204847E+02 -0.46349830736E+01  0.47875127577E+02  0.41800000000E+01 0. -1.
         -5    1    3    3    0  502  0.75718089884E+02  0.26532899139E+02  0.18078278459E+02  0.82349987398E+02  0.41800000000E+01 0. -1.
        -11    1    1    2    0    0 -0.50675579580E+02  0.72827882822E+01 -0.18626908005E+01  0.51230098457E+02  0.00000000000E+00 0. -1.
         11    1    1    2    0    0  0.17501623813E+02 -0.12766482574E+02 -0.57810403813E+02  0.61735991953E+02  0.00000000000E+00 0.  1.
</event>
<event>
 7    1  0.2612213E-009  0.1188405E+03  0.7561462E-02  0.1245022E+00
          2   -1    0    0  501    0  0.00000000000E+00  0.00000000000E+00  0.88525671562E+03  0.88525671562E+03  0.00000000000E+00 0.  1.
         -2   -1    0    0    0  501 -0.00000000000E+00 -0.00000000000E+00 -0.19746090778E+02  0.19746090778E+02  0.00000000000E+00 0. -1.
         25    2    1    2    0    0  0.61716295356E+02  0.38439329218E+02  0.55102327096E+03  0.56970216070E+03  0.12508966233E+03 0.  0.
          5    1    3    3  502    0  0.75804750001E+02 -0.12203810966E+02  0.44149122085E+03  0.44813754988E+03  0.41800000000E+01 0.  1.
         -5    1    3    3    0  502 -0.14088454645E+02  0.50643140185E+02  0.10953205011E+03  0.12156461082E+03  0.41800000000E+01 0.  1.
        -11    1    1    2    0    0 -0.29305496607E+02 -0.61602102580E+02  0.25300568207E+03  0.26204103941E+03  0.00000000000E+00 0.  1.
         11    1    1    2    0    0 -0.32410798749E+02  0.23162773361E+02  0.61481671803E+02  0.73259606285E+02  0.00000000000E+00 0. -1.
</event>
<event>
 7    1  0.2612213E-009  0.1187593E+03  0.7561462E-02  0.1245158E+00
         -1   -1    0    0    0  501 -0.00000000000E+00  0.00000000000E+00  0.46347320029E+03  0.46347320029E+03  0.00000000000E+00 0.  1.
          1   -1    0    0  501    0  0.00000000000E+00 -0.00000000000E+00 -0.31311204026E+02  0.31311204026E+02  0.00000000000E+00 0. -1.
         25    2    1    2    0    0 -0.99959535257E+01  0.46679858207E+02  0.26756399788E+03  0.29919331357E+03  0.12508883914E+03 0.  0.
          5    1    3    3  502    0  0.38437301713E+02  0.69818148589E+02  0.15089012307E+03  0.17069651922E+03  0.41800000000E+01 0. -1.
         -5    1    3    3    0  502 -0.48433255239E+02 -0.23138290382E+02  0.11667387481E+03  0.12849679435E+03  0.41800000000E+01 0. -1.
        -11    1    1    2    0    0 -0.39470156164E+02 -0.62032408856E+01  0.46510387786E+02  0.61315492310E+02  0.00000000000E+00 0. -1.
         11    1    1    2    0    0  0.49466109690E+02 -0.40476617321E+02  0.11808761060E+03  0.13427559844E+03  0.00000000000E+00 0.  1.
</event>
<event>
 7    1  0.2612213E-009  0.1027726E+03  0.7561462E-02  0.1274571E+00
         -2   -1    0    0    0  501 -0.00000000000E+00  0.00000000000E+00  0.61487747911E+02  0.61487747911E+02  0.00000000000E+00 0.  1.
          2   -1    0    0  501    0  0.00000000000E+00 -0.00000000000E+00 -0.29961218460E+03  0.29961218460E+03  0.00000000000E+00 0. -1.
         25    2    1    2    0    0  0.30375669353E+02 -0.49039914108E+02 -0.20800209227E+03  0.24947983744E+03  0.12509086472E+03 0.  0.
          5    1    3    3  502    0 -0.13030249412E+02  0.26230413801E+02 -0.12773379977E+03  0.13111528519E+03  0.41800000000E+01 0. -1.
         -5    1    3    3    0  502  0.43405918765E+02 -0.75270327909E+02 -0.80268292495E+02  0.11836455224E+03  0.41800000000E+01 0. -1.
        -11    1    1    2    0    0  0.37207338443E+01  0.54337531568E+02  0.13390166150E+02  0.56086609335E+02  0.00000000000E+00 0.  1.
         11    1    1    2    0    0 -0.34096403197E+02 -0.52976174598E+01 -0.43512510569E+02  0.55533485734E+02  0.00000000000E+00 0. -1.
</event>
<event>
 7    1  0.2612213E-009  0.1095698E+03  0.7561462E-02  0.1261369E+00
          1   -1    0    0  501    0  0.00000000000E+00  0.00000000000E+00  0.75831717788E+03  0.75831717788E+03  0.00000000000E+00 0. -1.
         -1   -1    0    0    0  501 -0.00000000000E+00 -0.00000000000E+00 -0.25673131515E+02  0.25673131515E+02  0.00000000000E+00 0.  1.
         25    2    1    2    0    0 -0.18595075500E+02 -0.44775252677E+02  0.54297694676E+03  0.55930277547E+03  0.12508009378E+03 0.  0.
          5    1    3    3  502    0 -0.47154862602E+02 -0.62524108601E+02  0.49121784154E+03  0.49743872534E+03  0.41800000000E+01 0.  1.
         -5    1    3    3    0  502  0.28559787102E+02  0.17748855924E+02  0.51759105217E+02  0.61864050132E+02  0.41800000000E+01 0.  1.
        -11    1    1    2    0    0  0.30408838727E+02 -0.22941208181E+02  0.23235532996E+02  0.44619351173E+02  0.00000000000E+00 0.  1.
         11    1    1    2    0    0 -0.11813763227E+02  0.67716460858E+02  0.16643156662E+03  0.18006818275E+03  0.00000000000E+00 0. -1.
</event>
<event>
 7    1  0.2612213E-009  0.9421431E+02  0.7561462E-02  0.1292956E+00
         -4   -1    0    0    0  501 -0.00000000000E+00  0.00000000000E+00  0.29794874523E+03  0.29794874523E+03  0.00000000000E+00 0.  1.
          4   -1    0    0  501    0  0.00000000000E+00 -0.00000000000E+00 -0.35356724040E+02  0.35356724040E+02  0.00000000000E+00 0. -1.
         25    2    1    2    0    0  0.35786057311E+01 -0.79670217338E+01  0.13902379482E+03  0.18721915956E+03  0.12508844202E+03 0.  0.
          5    1    3    3  502    0 -0.25787306556E+02  0.46559885927E+02  0.10150433617E+03  0.11468832032E+03  0.41800000000E+01 0. -1.
         -5    1    3    3    0  502  0.29365912287E+02 -0.54526907661E+02  0.37519458642E+02  0.72530839236E+02  0.41800000000E+01 0. -1.
        -11    1    1    2    0    0 -0.13190326232E+02 -0.30546741730E+02  0.82561649277E+02  0.89014122855E+02  0.00000000000E+00 0.  1.
         11    1    1    2    0    0  0.96117205005E+01  0.38513763464E+02  0.41006577103E+02  0.57072186858E+02  0.00000000000E+00 0. -1.
</event>
<event>
 7    1  0.2612213E-009  0.7053717E+02  0.7561462E-02  0.1358276E+00
         -1   -1    0    0    0  501 -0.00000000000E+00  0.00000000000E+00  0.12832644976E+03  0.12832644976E+03  0.00000000000E+00 0.  1.
          1   -1    0    0  501    0  0.00000000000E+00 -0.00000000000E+00 -0.10223179252E+03  0.10223179252E+03  0.00000000000E+00 0. -1.
         25    2    1    2    0    0  0.86662308297E+01  0.49130836981E+02  0.29672601755E+02  0.13790280176E+03  0.12509107377E+03 0.  0.
          5    1    3    3  502    0  0.23799560774E+02  0.14634198526E+02 -0.45591467273E+02  0.53634253492E+02  0.41800000000E+01 0. -1.
         -5    1    3    3    0  502 -0.15133329944E+02  0.34496638456E+02  0.75264069028E+02  0.84268548265E+02  0.41800000000E+01 0. -1.
        -11    1    1    2    0    0  0.21486463764E+02 -0.36239477622E+02  0.25143698321E+02  0.49062953729E+02  0.00000000000E+00 0.  1.
         11    1    1    2    0    0 -0.30152694594E+02 -0.12891359360E+02 -0.28721642841E+02  0.43592486794E+02  0.00000000000E+00 0. -1.
</event>
<event>
 7    1  0.2612213E-009  0.1203787E+03  0.7561462E-02  0.1242474E+00
          2   -1    0    0  501    0  0.00000000000E+00  0.00000000000E+00  0.54079141048E+03  0.54079141048E+03  0.00000000000E+00 0. -1.
         -2   -1    0    0    0  501 -0.00000000000E+00 -0.00000000000E+00 -0.28872472439E+02  0.28872472439E+02  0.00000000000E+00 0.  1.
         25    2    1    2    0    0  0.38677968417E+02  0.44156771233E+02  0.26103119956E+03  0.29535165675E+03  0.12509799484E+03 0.  0.
          5    1    3    3  502    0 -0.17207298260E+02 -0.32513256285E+02  0.38548302654E+02  0.53447609724E+02  0.41800000000E+01 0.  1.
         -5    1    3    3    0  502  0.55885266677E+02  0.76670027518E+02  0.22248289691E+03  0.24190404703E+03  0.41800000000E+01 0.  1.
        -11    1    1    2    0    0 -0.67844556040E+02 -0.41380323278E+02  0.20505295854E+03  0.21991346195E+03  0.00000000000E+00 0.  1.
         11    1    1    2    0    0  0.29166587623E+02 -0.27764479546E+01  0.45834779928E+02  0.54398764213E+02  0.00000000000E+00 0. -1.
</event>
<event>
 7    1  0.2612213E-009  0.2378557E+03  0.7561462E-02  0.1121230E+00
         -1   -1    0    0    0  501 -0.00000000000E+00  0.00000000000E+00  0.98639088214E+02  0.98639088214E+02  0.00000000000E+00 0.  1.
          1   -1    0    0  501    0  0.00000000000E+00 -0.00000000000E+00 -0.67362333712E+03  0.67362333712E+03  0.00000000000E+00 0. -1.
         25    2    1    2    0    0 -0.15604293249E+03 -0.16926462442E+03 -0.23625609024E+03  0.35279674028E+03  0.12509472377E+03 0.  0.
          5    1    3    3  502    0 -0.97630049768E+02 -0.11616178996E+03 -0.22717472459E+03  0.27322338106E+03  0.41800000000E+01 0. -1.
         -5    1    3    3    0  502 -0.58412882727E+02 -0.53102834454E+02 -0.90813656487E+01  0.79573359220E+02  0.41800000000E+01 0. -1.
        -11    1    1    2    0    0  0.11350263839E+03  0.16743484488E+03 -0.25458731819E+03  0.32516454110E+03  0.00000000000E+00 0. -1.
         11    1    1    2    0    0  0.42540294103E+02  0.18297795346E+01 -0.84140840476E+02  0.94301143957E+02  0.00000000000E+00 0.  1.
</event>
<event>
 7    1  0.2612213E-009  0.9730149E+02  0.7561462E-02  0.1286075E+00
         -1   -1    0    0    0  501 -0.00000000000E+00  0.00000000000E+00  0.32797691682E+03  0.32797691682E+03  0.00000000000E+00 0.  1.
          1   -1    0    0  501    0  0.00000000000E+00 -0.00000000000E+00 -0.42715317338E+02  0.42715317338E+02  0.00000000000E+00 0. -1.
         25    2    1    2    0    0 -0.94730126557E+01  0.34667524624E+02  0.11039656533E+03  0.17066424899E+03  0.12508920424E+03 0.  0.
          5    1    3    3  502    0 -0.47172475589E+02 -0.18061343722E+02  0.88740596232E+02  0.10219501167E+03  0.41800000000E+01 0. -1.
         -5    1    3    3    0  502  0.37699462934E+02  0.52728868346E+02  0.21655969093E+02  0.68469237325E+02  0.41800000000E+01 0. -1.
        -11    1    1    2    0    0  0.31091476489E+02 -0.45243985501E+02  0.16521780484E+03  0.17409945770E+03  0.00000000000E+00 0.  1.
         11    1    1    2    0    0 -0.21618463834E+02  0.10576460877E+02  0.96472293207E+01  0.25928527470E+02  0.00000000000E+00 0. -1.
</event>
<event>
 7    1  0.2612213E-009  0.1161402E+03  0.7561462E-02  0.1249604E+00
          2   -1    0    0  501    0  0.00000000000E+00  0.00000000000E+00  0.44499294523E+03  0.44499294523E+03  0.00000000000E+00 0. -1.
         -2   -1    0    0    0  501 -0.00000000000E+00 -0.00000000000E+00 -0.51573087629E+02  0.51573087629E+02  0.00000000000E+00 0.  1.
         25    2    1    2    0    0  0.10113912851E+03  0.33720236235E+02  0.19216348324E+03  0.25286335213E+03  0.12508754099E+03 0.  0.
          5    1    3    3  502    0  0.54920465096E+02 -0.36878481889E+01  0.18472142963E+03  0.19279350786E+03  0.41800000000E+01 0.  1.
         -5    1    3    3    0  502  0.46218663412E+02  0.37408084424E+02  0.74420536115E+01  0.60069844264E+02  0.41800000000E+01 0.  1.
        -11    1    1    2    0    0 -0.48088471048E+02 -0.41914094568E+02  0.43886471151E+02  0.77429417673E+02  0.00000000000E+00 0.  1.
         11    1    1    2    0    0 -0.53050657461E+02  0.81938583325E+01  0.15736990321E+03  0.16627326306E+03  0.00000000000E+00 0. -1.
</event>
<event>
 7    1  0.2612213E-009  0.8262916E+02  0.7561462E-02  0.1321752E+00
          1   -1    0    0  501    0  0.00000000000E+00  0.00000000000E+00  0.14975974532E+03  0.14975974532E+03  0.00000000000E+00 0. -1.
         -1   -1    0    0    0  501 -0.00000000000E+00 -0.00000000000E+00 -0.71885322243E+02  0.71885322243E+02  0.00000000000E+00 0.  1.
         25    2    1    2    0    0 -0.35549726920E+02 -0.20347624960E+02  0.48715261518E+02  0.14034579663E+03  0.12508379992E+03 0.  0.
          5    1    3    3  502    0  0.40360195043E+02 -0.23188113104E+02 -0.53122971787E+01  0.47035378542E+02  0.41800000000E+01 0.  1.
         -5    1    3    3    0  502 -0.75909921963E+02  0.28404881449E+01  0.54027558697E+02  0.93310418090E+02  0.41800000000E+01 0.  1.
        -11    1    1    2    0    0  0.28513158042E+02  0.10591007674E+02 -0.16137599538E+02  0.34432422859E+02  0.00000000000E+00 0.  1.
         11    1    1    2    0    0  0.70365688779E+01  0.97566172852E+01  0.45296761102E+02  0.46866848078E+02  0.00000000000E+00 0. -1.
</event>
<event>
 7    1  0.2612213E-009  0.2529680E+03  0.7561462E-02  0.1111443E+00
         -1   -1    0    0    0  501 -0.00000000000E+00  0.00000000000E+00  0.25576744532E+03  0.25576744532E+03  0.00000000000E+00 0.  1.
          1   -1    0    0  501    0  0.00000000000E+00 -0.00000000000E+00 -0.29993940940E+03  0.29993940940E+03  0.00000000000E+00 0. -1.
         25    2    1    2    0    0 -0.17026524711E+03  0.15388268545E+03  0.88442913726E+02  0.27593448782E+03  0.12509019676E+03 0.  0.
          5    1    3    3  502    0 -0.15522809219E+03  0.62523969469E+02  0.43654971316E+02  0.17299779271E+03  0.41800000000E+01 0. -1.
         -5    1    3    3    0  502 -0.15037154920E+02  0.91358715984E+02  0.44787942410E+02  0.10293669511E+03  0.41800000000E+01 0. -1.
        -11    1    1    2    0    0  0.11952462567E+02 -0.61306676706E+02 -0.41507073452E+02  0.74994713925E+02  0.00000000000E+00 0.  1.
         11    1    1    2    0    0  0.15831278454E+03 -0.92576008747E+02 -0.91107804354E+02  0.20477765297E+03  0.00000000000E+00 0. -1.
</event>
<event>
 7    1  0.2612213E-009  0.8178761E+02  0.7561462E-02  0.1324054E+00
         -1   -1    0    0    0  501 -0.00000000000E+00  0.00000000000E+00  0.40376777135E+02  0.40376777135E+02  0.00000000000E+00 0.  1.
          1   -1    0    0  501    0  0.00000000000E+00 -0.00000000000E+00 -0.29685668516E+03  0.29685668516E+03  0.00000000000E+00 0. -1.
         25    2    1    2    0    0 -0.11836478146E+02  0.10373342400E+02 -0.10985785053E+03  0.16722042314E+03  0.12508482780E+03 0.  0.
          5    1    3    3  502    0 -0.51722235308E+01  0.46552999709E+02  0.42872396305E+01  0.47220615221E+02  0.41800000000E+01 0.  1.
         -5    1    3    3    0  502 -0.66642546151E+01 -0.36179657309E+02 -0.11414509016E+03  0.11999980792E+03  0.41800000000E+01 0.  1.
        -11    1    1    2    0    0  0.21938224537E+02 -0.41422587735E+02 -0.11655396494E+03  0.12562620433E+03  0.00000000000E+00 0. -1.
         11    1    1    2    0    0 -0.10101746391E+02  0.31049245336E+02 -0.30068092546E+02  0.44386834821E+02  0.00000000000E+00 0.  1.
</event>
<event>
 7    1  0.3386055E-009  0.9429090E+02  0.7561462E-02  0.1292781E+00
         -1   -1    0    0    0  501 -0.00000000000E+00  0.00000000000E+00  0.68113994115E+02  0.68113994115E+02  0.00000000000E+00 0.  1.
          1   -1    0    0  501    0  0.00000000000E+00 -0.00000000000E+00 -0.27950373439E+03  0.27950373439E+03  0.00000000000E+00 0. -1.
         25    2    1    2    0    0 -0.32369585511E+02 -0.53596068036E+02 -0.43480021054E+02  0.14648924968E+03  0.12509300326E+03 0.  0.
          5    1    3    3  502    0 -0.48209044350E+02  0.13939227168E+02 -0.56609386819E+02  0.75766147369E+02  0.41800000000E+01 0. -1.
         -5    1    3    3    0  502  0.15839458839E+02 -0.67535295204E+02  0.13129365765E+02  0.70723102307E+02  0.41800000000E+01 0. -1.
        -11    1    1    2    0    0  0.25958962817E+02  0.15788519371E+02 -0.15884469132E+03  0.16172439845E+03  0.00000000000E+00 0. -1.
         11    1    1    2    0    0  0.64106226941E+01  0.37807548665E+02 -0.90650279020E+01  0.39404080376E+02  0.00000000000E+00 0.  1.
</event>
<event>
 7    1  0.2612213E-009  0.1273954E+03  0.7561462E-02  0.1231372E+00
         -2   -1    0    0    0  501 -0.00000000000E+00  0.00000000000E+00  0.18004264889E+02  0.18004264889E+02  0.00000000000E+00 0.  1.
          2   -1    0    0  501    0  0.00000000000E+00 -0.00000000000E+00 -0.96814236100E+03  0.96814236100E+03  0.00000000000E+00 0. -1.
         25    2    1    2    0    0 -0.14089630543E+02 -0.67609003890E+02 -0.42346261254E+03  0.44692074891E+03  0.12509227192E+03 0.  0.
          5    1    3    3  502    0 -0.20184314408E+02 -0.10371702423E+03 -0.30117877758E+03  0.31920331472E+03  0.41800000000E+01 0. -1.
         -5    1    3    3    0  502  0.60946838650E+01  0.36108020341E+02 -0.12228383496E+03  0.12771743419E+03  0.41800000000E+01 0. -1.
        -11    1    1    2    0    0 -0.24516900571E+02 -0.92297255763E+01 -0.75157902790E+02  0.79592566233E+02  0.00000000000E+00 0.  1.
         11    1    1    2    0    0  0.38606531114E+02  0.76838729466E+02 -0.45151758079E+03  0.45963331075E+03  0.00000000000E+00 0. -1.
</event>
<event>
 7    1  0.2612213E-009  0.2396912E+03  0.7561462E-02  0.1119999E+00
          1   -1    0    0  501    0  0.00000000000E+00  0.00000000000E+00  0.63756017007E+03  0.63756017007E+03  0.00000000000E+00 0. -1.
         -1   -1    0    0    0  501 -0.00000000000E+00 -0.00000000000E+00 -0.12870058912E+03  0.12870058912E+03  0.00000000000E+00 0.  1.
         25    2    1    2    0    0 -0.22531868941E+03 -0.59401863730E+01  0.75430314881E+02  0.26859100006E+03  0.12509034853E+03 0.  0.
          5    1    3    3  502    0  0.27703328823E+01 -0.75453231482E+01  0.35941283610E+02  0.37065548873E+02  0.41800000000E+01 0. -1.
         -5    1    3    3    0  502 -0.22808902229E+03  0.16051367752E+01  0.39489031270E+02  0.23152545118E+03  0.41800000000E+01 0. -1.
        -11    1    1    2    0    0  0.83872061094E+02 -0.40734997313E+02  0.20155128907E+03  0.22207382728E+03  0.00000000000E+00 0. -1.
         11    1    1    2    0    0  0.14144662832E+03  0.46675183686E+02  0.23187797701E+03  0.27559593185E+03  0.00000000000E+00 0.  1.
</event>
<event>
 7    1  0.2612213E-009  0.1382503E+03  0.7561462E-02  0.1215703E+00
         -1   -1    0    0    0  501 -0.00000000000E+00  0.00000000000E+00  0.12000607188E+03  0.12000607188E+03  0.00000000000E+00 0.  1.
          1   -1    0    0  501    0  0.00000000000E+00 -0.00000000000E+00 -0.20599713955E+03  0.20599713955E+03  0.00000000000E+00 0. -1.
         25    2    1    2    0    0  0.74317764759E+02 -0.45384619812E+02  0.29740880131E+02  0.15529286839E+03  0.12509380939E+03 0.  0.
          5    1    3    3  502    0 -0.32949794312E+02 -0.27713957714E+02  0.13354230266E+02  0.45272069352E+02  0.41800000000E+01 0.  1.
         -5    1    3    3    0  502  0.10726755907E+03 -0.17670662098E+02  0.16386649866E+02  0.11002079904E+03  0.41800000000E+01 0.  1.
        -11    1    1    2    0    0 -0.29102599571E+02  0.67947170830E+02 -0.57774236449E+02  0.93817065200E+02  0.00000000000E+00 0. -1.
         11    1    1    2    0    0 -0.45215165188E+02 -0.22562551018E+02 -0.57957711350E+02  0.76893277836E+02  0.00000000000E+00 0.  1.
</event>
<event>
 7    1  0.2612213E-009  0.1119344E+03  0.7561462E-02  0.1257029E+00
         -2   -1    0    0    0  501 -0.00000000000E+00  0.00000000000E+00  0.40847299211E+02  0.40847299211E+02  0.00000000000E+00 0.  1.
          2   -1    0    0  501    0  0.00000000000E+00 -0.00000000000E+00 -0.31557653256E+03  0.31557653256E+03  0.00000000000E+00 0. -1.
         25    2    1    2    0    0  0.13143765097E+02 -0.29027161956E+02 -0.16418923209E+03  0.20885597010E+03  0.12508947844E+03 0.  0.
          5    1    3    3  502    0  0.43676644294E+02  0.34304925968E+02 -0.50858853296E+02  0.75422626320E+02  0.41800000000E+01 0.  1.
         -5    1    3    3    0  502 -0.30532879197E+02 -0.63332087924E+02 -0.11333037880E+03  0.13343334378E+03  0.41800000000E+01 0.  1.
        -11    1    1    2    0    0  0.31755803450E+02  0.40436125425E+02 -0.56680463612E+02  0.76525722783E+02  0.00000000000E+00 0.  1.
         11    1    1    2    0    0 -0.44899568547E+02 -0.11408963469E+02 -0.53859537646E+02  0.71042138893E+02  0.00000000000E+00 0. -1.
</event>
<event>
 7    1  0.2612213E-009  0.8989602E+02  0.7561462E-02  0.1303104E+00
         -2   -1    0    0    0  501 -0.00000000000E+00  0.00000000000E+00  0.16764983601E+03  0.16764983601E+03  0.00000000000E+00 0. -1.
          2   -1    0    0  501    0  0.00000000000E+00 -0.00000000000E+00 -0.12255346542E+03  0.12255346542E+03  0.00000000000E+00 0.  1.
         25    2    1    2    0    0 -0.43621048993E+02  0.44401150799E+02 -0.44350715996E+02  0.14660128275E+03  0.12510272574E+03 0.  0.
          5    1    3    3  502    0  0.21206085392E+02  0.44618851923E+02  0.21554986012E+02  0.54061352429E+02  0.41800000000E+01 0.  1.
         -5    1    3    3    0  502 -0.64827134384E+02 -0.21770112316E+00 -0.65905702008E+02  0.92539930319E+02  0.41800000000E+01 0.  1.
        -11    1    1    2    0    0  0.22126419198E+02 -0.35829353609E+02 -0.84985885442E+01  0.42959830235E+02  0.00000000000E+00 0.  1.
         11    1    1    2    0    0  0.21494629795E+02 -0.85717971902E+01  0.97945675138E+02  0.10064218845E+03  0.00000000000E+00 0. -1.
</event>
<event>
 7    1  0.2612213E-009  0.7070024E+02  0.7561462E-02  0.1357728E+00
         -1   -1    0    0    0  501 -0.00000000000E+00  0.00000000000E+00  0.42419730199E+02  0.42419730199E+02  0.00000000000E+00 0.  1.
          1   -1    0    0  501    0  0.00000000000E+00 -0.00000000000E+00 -0.30203557285E+03  0.30203557285E+03  0.00000000000E+00 0. -1.
         25    2    1    2    0    0 -0.96212625992E+01 -0.12133754938E+02 -0.95641122227E+02  0.15822157243E+03  0.12508814900E+03 0.  0.
          5    1    3    3  502    0 -0.24078027553E+02 -0.23766732333E+02 -0.12145976840E+03  0.12615291006E+03  0.41800000000E+01 0.  1.
         -5    1    3    3    0  502  0.14456764954E+02  0.11632977395E+02  0.25818646175E+02  0.32068662372E+02  0.41800000000E+01 0.  1.
        -11    1    1    2    0    0  0.82274671141E+01  0.49862007078E+02 -0.93480658714E+02  0.10626638471E+03  0.00000000000E+00 0.  1.
         11    1    1    2    0    0  0.13937954852E+01 -0.37728252140E+02 -0.70494061707E+02  0.79967345906E+02  0.00000000000E+00 0. -1.
</event>
<event>
 7    1  0.2612213E-009  0.1058933E+03  0.7561462E-02  0.1268370E+00
          1   -1    0    0  501    0  0.00000000000E+00  0.00000000000E+00  0.12091788338E+03  0.12091788338E+03  0.00000000000E+00 0. -1.
         -1   -1    0    0    0  501 -0.00000000000E+00 -0.00000000000E+00 -0.13984793763E+03  0.13984793763E+03  0.00000000000E+00 0.  1.
         25    2    1    2    0    0  0.43568559571E+02  0.59346199447E+02 -0.18783627565E+02  0.14634842224E+03  0.12507935584E+03 0.  0.
          5    1    3    3  502    0  0.80290769984E+02  0.24121296932E+02  0.14802691791E+02  0.85235185192E+02  0.41800000000E+01 0. -1.
         -5    1    3    3    0  502 -0.36722210413E+02  0.35224902514E+02 -0.33586319356E+02  0.61113237050E+02  0.41800000000E+01 0. -1.
        -11    1    1    2    0    0 -0.41583128495E+02 -0.41205861007E+02  0.39603341921E+02  0.70678881203E+02  0.00000000000E+00 0. -1.
         11    1    1    2    0    0 -0.19854310760E+01 -0.18140338440E+02 -0.39749768606E+02  0.43738517573E+02  0.00000000000E+00 0.  1.
</event>
<event>
 7    1  0.2612213E-009  0.1730903E+03  0.7561462E-02  0.1174663E+00
          1   -1    0    0  501    0  0.00000000000E+00  0.00000000000E+00  0.39532923400E+02  0.39532923400E+02  0.00000000000E+00 0. -1.
         -1   -1    0    0    0  501 -0.00000000000E+00 -0.00000000000E+00 -0.87709214383E+03  0.87709214383E+03  0.00000000000E+00 0.  1.
         25    2    1    2    0    0 -0.15038282493E+03 -0.76755265661E+01 -0.43383265851E+03  0.47595441327E+03  0.12509164714E+03 0.  0.
          5    1    3    3  502    0 -0.28451016019E+02 -0.44742104930E+02 -0.22558704270E+03  0.23177209172E+03  0.41800000000E+01 0. -1.
         -5    1    3    3    0  502 -0.12193180891E+03  0.37066578364E+02 -0.20824561581E+03  0.24418232155E+03  0.41800000000E+01 0. -1.
        -11    1    1    2    0    0  0.21325890130E+02  0.27620568882E+02 -0.16411511465E+03  0.16778396905E+03  0.00000000000E+00 0.  1.
         11    1    1    2    0    0  0.12905693480E+03 -0.19945042316E+02 -0.23961144727E+03  0.27288668490E+03  0.00000000000E+00 0. -1.
</event>
<event>
 7    1  0.2612213E-009  0.2016839E+03  0.7561462E-02  0.1148326E+00
          1   -1    0    0  501    0  0.00000000000E+00  0.00000000000E+00  0.31859411592E+03  0.31859411592E+03  0.00000000000E+00 0. -1.
         -1   -1    0    0    0  501 -0.00000000000E+00 -0.00000000000E+00 -0.15968120105E+03  0.15968120105E+03  0.00000000000E+00 0.  1.
         25    2    1    2    0    0 -0.19317834749E+03 -0.32969464931E+02  0.55649177632E+02  0.23905627006E+03  0.12508481013E+03 0.  0.
          5    1    3    3  502    0 -0.16218125737E+02  0.12430354507E+02  0.52279293567E+02  0.56286217242E+02  0.41800000000E+01 0.  1.
         -5    1    3    3    0  502 -0.17696022175E+03 -0.45399819437E+02  0.33698840656E+01  0.18277005282E+03  0.41800000000E+01 0.  1.
        -11    1    1    2    0    0  0.26847807066E+02  0.18928840503E+02  0.57359484060E+02  0.66100046586E+02  0.00000000000E+00 0. -1.
         11    1    1    2    0    0  0.16633054043E+03  0.14040624428E+02  0.45904253174E+02  0.17311900032E+03  0.00000000000E+00 0.  1.
</event>
<event>
 7    1  0.2612213E-009  0.8700908E+02  0.7561462E-02  0.1310261E+00
          1   -1    0    0  501    0  0.00000000000E+00  0.00000000000E+00  0.18630897858E+03  0.18630897858E+03  0.00000000000E+00 0. -1.
         -1   -1    0    0    0  501 -0.00000000000E+00 -0.00000000000E+00 -0.79304745727E+02  0.79304745727E+02  0.00000000000E+00 0.  1.
         25    2    1    2    0    0 -0.43937554893E+02 -0.35857412299E+01  0.97244658676E+02  0.16446005618E+03  0.12508884909E+03 0.  0.
          5    1    3    3  502    0 -0.59292422572E+02 -0.44891455761E+02  0.22886460836E+02  0.77923659208E+02  0.41800000000E+01 0.  1.
         -5    1    3    3    0  502  0.15354867679E+02  0.41305714531E+02  0.74358197840E+02  0.86536396969E+02  0.41800000000E+01 0.  1.
        -11    1    1    2    0    0  0.14266161316E+00  0.10868751508E+02 -0.35875381057E+02  0.37485905053E+02  0.00000000000E+00 0.  1.
         11    1    1    2    0    0  0.43794893280E+02 -0.72830102783E+01  0.45634955235E+02  0.63667763078E+02  0.00000000000E+00 0. -1.
</event>
<event>
 7    1  0.2612213E-009  0.1024199E+03  0.7561462E-02  0.1275288E+00
          2   -1    0    0  501    0  0.00000000000E+00  0.00000000000E+00  0.22197952399E+03  0.22197952399E+03  0.00000000000E+00 0.  1.
         -2   -1    0    0    0  501 -0.00000000000E+00 -0.00000000000E+00 -0.64956786932E+02  0.64956786932E+02  0.00000000000E+00 0. -1.
         25    2    1    2    0    0 -0.29074115192E+02 -0.22542650849E+02  0.44403909004E+02  0.13776085854E+03  0.12511143725E+03 0.  0.
          5    1    3    3  502    0 -0.65959250328E+02 -0.59346908886E+01 -0.12793989913E+02  0.67579596312E+02  0.41800000000E+01 0.  1.
         -5    1    3    3    0  502  0.36885135135E+02 -0.16607959960E+02  0.57197898918E+02  0.70181262233E+02  0.41800000000E+01 0.  1.
        -11    1    1    2    0    0  0.46672936298E+02 -0.20753522282E+02  0.57609854137E+02  0.76993291679E+02  0.00000000000E+00 0.  1.
         11    1    1    2    0    0 -0.17598821106E+02  0.43296173130E+02  0.55008973919E+02  0.72182160702E+02  0.00000000000E+00 0. -1.
</event>
<event>
 7    1  0.2612213E-009  0.9682398E+02  0.7561462E-02  0.1287120E+00
          2   -1    0    0  501    0  0.00000000000E+00  0.00000000000E+00  0.44606420932E+03  0.44606420932E+03  0.00000000000E+00 0. -1.
         -2   -1    0    0    0  501 -0.00000000000E+00 -0.00000000000E+00 -0.28804829848E+02  0.28804829848E+02  0.00000000000E+00 0.  1.
         25    2    1    2    0    0  0.17464450219E+02 -0.72391049912E+00  0.28837632313E+03  0.31482197761E+03  0.12508574170E+03 0.  0.
          5    1    3    3  502    0  0.42608989351E+02 -0.36100952626E+02  0.59033524456E+02  0.81370966343E+02  0.41800000000E+01 0. -1.
         -5    1    3    3    0  502 -0.25144539131E+02  0.35377042126E+02  0.22934279868E+03  0.23345101127E+03  0.41800000000E+01 0. -1.
        -11    1    1    2    0    0  0.12904348486E+02 -0.40689708774E+02  0.47974638601E+02  0.64216357409E+02  0.00000000000E+00 0. -1.
         11    1    1    2    0    0 -0.30368798706E+02  0.41413619273E+02  0.80908417734E+02  0.95830704142E+02  0.00000000000E+00 0.  1.
</event>
<event>
 7    1  0.2612213E-009  0.1064706E+03  0.7561462E-02  0.1267249E+00
          2   -1    0    0  501    0  0.00000000000E+00  0.00000000000E+00  0.10176630406E+04  0.10176630406E+04  0.00000000000E+00 0. -1.
         -2   -1    0    0    0  501 -0.00000000000E+00 -0.00000000000E+00 -0.18905395499E+02  0.18905395499E+02  0.00000000000E+00 0.  1.
         25    2    1    2    0    0 -0.47290430879E+01  0.79629677200E+02  0.68064687270E+03  0.69662865415E+03  0.12509223448E+03 0.  0.
          5    1    3    3  502    0 -0.26540251570E+02  0.29755430090E+02  0.58595933055E+03  0.58732919221E+03  0.41800000000E+01 0.  1.
         -5    1    3    3    0  502  0.21811208482E+02  0.49874247110E+02  0.94687542152E+02  0.10929946193E+03  0.41800000000E+01 0.  1.
        -11    1    1    2    0    0  0.13196268075E+02  0.16851406997E+02  0.38775649864E+02  0.44290658510E+02  0.00000000000E+00 0.  1.
         11    1    1    2    0    0 -0.84672249872E+01 -0.96481084197E+02  0.27933512250E+03  0.29564912341E+03  0.00000000000E+00 0. -1.
</event>
<event>
 7    1  0.2612213E-009  0.1663433E+03  0.7561462E-02  0.1181716E+00
          1   -1    0    0  501    0  0.00000000000E+00  0.00000000000E+00  0.31013918546E+03  0.31013918546E+03  0.00000000000E+00 0. -1.
         -1   -1    0    0    0  501 -0.00000000000E+00 -0.00000000000E+00 -0.12550833707E+03  0.12550833707E+03  0.00000000000E+00 0.  1.
         25    2    1    2    0    0 -0.14024463609E+03 -0.11262156767E+01 -0.20952594927E+01  0.18794098521E+03  0.12509035732E+03 0.  0.
          5    1    3    3  502    0 -0.47872313257E+01 -0.40504558327E+02 -0.20114264533E+02  0.45668291700E+02  0.41800000000E+01 0. -1.
         -5    1    3    3    0  502 -0.13545740477E+03  0.39378342651E+02  0.18019005040E+02  0.14227269351E+03  0.41800000000E+01 0. -1.
        -11    1    1    2    0    0  0.10010893370E+03 -0.24341261189E+02  0.78572729103E+02  0.12956839646E+03  0.00000000000E+00 0.  1.
         11    1    1    2    0    0  0.40135702389E+02  0.25467476865E+02  0.10815337878E+03  0.11813814086E+03  0.00000000000E+00 0. -1.
</event>
<event>
 7    1  0.2612213E-009  0.9141994E+02  0.7561462E-02  0.1299449E+00
          3   -1    0    0  501    0  0.00000000000E+00  0.00000000000E+00  0.57662952146E+02  0.57662952146E+02  0.00000000000E+00 0. -1.
         -3   -1    0    0    0  501 -0.00000000000E+00 -0.00000000000E+00 -0.20786632755E+03  0.20786632755E+03  0.00000000000E+00 0.  1.
         25    2    1    2    0    0  0.26738895763E+02 -0.26737601789E+02 -0.62047291697E+02  0.14466410541E+03  0.12509184263E+03 0.  0.
          5    1    3    3  502    0  0.66926343437E+02  0.69738718095E+01 -0.58427246155E+01  0.67671117656E+02  0.41800000000E+01 0.  1.
         -5    1    3    3    0  502 -0.40187447674E+02 -0.33711473599E+02 -0.56204567082E+02  0.76992987756E+02  0.41800000000E+01 0.  1.
        -11    1    1    2    0    0 -0.41423897763E+02  0.15197696221E+02 -0.16977911904E+02  0.47277465763E+02  0.00000000000E+00 0. -1.
         11    1    1    2    0    0  0.14685002000E+02  0.11539905569E+02 -0.71178171806E+02  0.73587708525E+02  0.00000000000E+00 0.  1.
</event>
<event>
 7    1  0.2612213E-009  0.1151897E+03  0.7561462E-02  0.1251250E+00
         -1   -1    0    0    0  501 -0.00000000000E+00  0.00000000000E+00  0.77694180265E+02  0.77694180265E+02  0.00000000000E+00 0. -1.
          1   -1    0    0  501    0  0.00000000000E+00 -0.00000000000E+00 -0.27517863584E+03  0.27517863584E+03  0.00000000000E+00 0.  1.
         25    2    1    2    0    0  0.37450614594E+02 -0.87813819968E+02 -0.11824643511E+03  0.19683350641E+03  0.12508954521E+03 0.  0.
          5    1    3    3  502    0  0.33214234780E+02 -0.68779306820E+01  0.17714671192E+02  0.38493808566E+02  0.41800000000E+01 0. -1.
         -5    1    3    3    0  502  0.42363798140E+01 -0.80935889286E+02 -0.13596110630E+03  0.15833969785E+03  0.41800000000E+01 0. -1.
        -11    1    1    2    0    0  0.17298203754E+02  0.34688445989E+02 -0.68899458692E+02  0.79054737659E+02  0.00000000000E+00 0.  1.
         11    1    1    2    0    0 -0.54748818348E+02  0.53125373979E+02 -0.10338561771E+02  0.76984572028E+02  0.00000000000E+00 0. -1.
</event>
<event>
 7    1  0.2612213E-009  0.9776747E+02  0.7561462E-02  0.1285062E+00
          1   -1    0    0  501    0  0.00000000000E+00  0.00000000000E+00  0.17503057410E+03  0.17503057410E+03  0.00000000000E+00 0. -1.
         -1   -1    0    0    0  501 -0.00000000000E+00 -0.00000000000E+00 -0.84006430488E+02  0.84006430488E+02  0.00000000000E+00 0.  1.
         25    2    1    2    0    0  0.49722785824E+02  0.17230702752E+02  0.31510065933E+02  0.13931938025E+03  0.12509097854E+03 0.  0.
          5    1    3    3  502    0  0.14271172184E+02 -0.51293870906E+02 -0.54234336014E+01  0.53680662999E+02  0.41800000000E+01 0. -1.
         -5    1    3    3    0  502  0.35451613640E+02  0.68524573658E+02  0.36933499534E+02  0.85638717252E+02  0.41800000000E+01 0. -1.
        -11    1    1    2    0    0 -0.63946244356E+01  0.11301304013E+02 -0.20553733620E+02  0.24311862532E+02  0.00000000000E+00 0.  1.
         11    1    1    2    0    0 -0.43328161388E+02 -0.28532006765E+02  0.80067811297E+02  0.95405761803E+02  0.00000000000E+00 0. -1.
</event>
<event>
 7    1  0.2720589E-009  0.6393213E+02  0.7561462E-02  0.1382034E+00
          2   -1    0    0  501    0  0.00000000000E+00  0.00000000000E+00  0.48604266071E+03  0.48604266071E+03  0.00000000000E+00 0. -1.
         -2   -1    0    0    0  501 -0.00000000000E+00 -0.00000000000E+00 -0.28275223952E+02  0.28275223952E+02  0.00000000000E+00 0.  1.
         25    2    1    2    0    0 -0.43659931593E+02 -0.35111389246E+01  0.25520713080E+03  0.28757044434E+03  0.12509021993E+03 0.  0.
          5    1    3    3  502    0 -0.18017888473E+02  0.91972529648E+01 -0.84597516089E+01  0.22322042120E+02  0.41800000000E+01 0. -1.
         -5    1    3    3    0  502 -0.25642043120E+02 -0.12708391889E+02  0.26366688241E+03  0.26524840222E+03  0.41800000000E+01 0. -1.
        -11    1    1    2    0    0  0.14389728491E+01  0.28954670263E+02  0.14655580526E+02  0.32484297952E+02  0.00000000000E+00 0.  1.
         11    1    1    2    0    0  0.42220958744E+02 -0.25443531339E+02  0.18790472543E+03  0.19426314237E+03  0.00000000000E+00 0. -1.
</event>
<event>
 7    1  0.2612213E-009  0.8106860E+02  0.7561462E-02  0.1326046E+00
          1   -1    0    0  501    0  0.00000000000E+00  0.00000000000E+00  0.37452637580E+03  0.37452637580E+03  0.00000000000E+00 0. -1.
         -1   -1    0    0    0  501 -0.00000000000E+00 -0.00000000000E+00 -0.35118464520E+02  0.35118464520E+02  0.00000000000E+00 0.  1.
         25    2    1    2    0    0 -0.42880982244E+01 -0.34590239573E+02  0.21449510680E+03  0.25074057834E+03  0.12509122402E+03 0.  0.
          5    1    3    3  502    0 -0.26146793345E+02 -0.38300929558E+02  0.22210228560E+03  0.22693063626E+03  0.41800000000E+01 0. -1.
         -5    1    3    3    0  502  0.21858695121E+02  0.37106899852E+01 -0.76071787997E+01  0.23809942080E+02  0.41800000000E+01 0. -1.
        -11    1    1    2    0    0 -0.30999757942E+02 -0.13127033659E+02  0.71632116308E+02  0.79148367588E+02  0.00000000000E+00 0.  1.
         11    1    1    2    0    0  0.35287856166E+02  0.47717273232E+02  0.53280688177E+02  0.79755894391E+02  0.00000000000E+00 0. -1.
</event>
<event>
 7    1  0.2612213E-009  0.1260356E+03  0.7561462E-02  0.1233460E+00
          1   -1    0    0  501    0  0.00000000000E+00  0.00000000000E+00  0.64040666020E+02  0.64040666020E+02  0.00000000000E+00 0. -1.
         -1   -1    0    0    0  501 -0.00000000000E+00 -0.00000000000E+00 -0.44229299252E+03  0.44229299252E+03  0.00000000000E+00 0.  1.
         25    2    1    2    0    0  0.61640081418E+02 -0.51728286796E+02 -0.52574681539E+02  0.15775437924E+03  0.12508809591E+03 0.  0.
          5    1    3    3  502    0  0.88429660235E+02 -0.54240511306E+02 -0.62399572241E+01  0.10401080397E+03  0.41800000000E+01 0.  1.
         -5    1    3    3    0  502 -0.26789578818E+02  0.25122245093E+01 -0.46334724315E+02  0.53743575268E+02  0.41800000000E+01 0.  1.
        -11    1    1    2    0    0 -0.83574185726E+02  0.26693816913E+02 -0.26790352221E+03  0.28190335506E+03  0.00000000000E+00 0.  1.
         11    1    1    2    0    0  0.21934104309E+02  0.25034469883E+02 -0.57774122753E+02  0.66675924246E+02  0.00000000000E+00 0. -1.
</event>
<event>
 7    1  0.2612213E-009  0.1279233E+03  0.7561462E-02  0.1230570E+00
         -2   -1    0    0    0  501 -0.00000000000E+00  0.00000000000E+00  0.15858704995E+03  0.15858704995E+03  0.00000000000E+00 0.  1.
          2   -1    0    0  501    0  0.00000000000E+00 -0.00000000000E+00 -0.30628861691E+03  0.30628861691E+03  0.00000000000E+00 0. -1.
         25    2    1    2    0    0  0.69577228827E+01 -0.98783698379E+02  0.95329628486E+02  0.18585493498E+03  0.12509072634E+03 0.  0.
          5    1    3    3  502    0 -0.38134129788E+02 -0.91879331456E+02  0.26253014878E+02  0.10296949351E+03  0.41800000000E+01 0. -1.
         -5    1    3    3    0  502  0.45091852671E+02 -0.69043669224E+01  0.69076613608E+02  0.82885441468E+02  0.41800000000E+01 0. -1.
        -11    1    1    2    0    0 -0.25748914533E+02  0.31883650500E+02 -0.18193109827E+03  0.18648994151E+03  0.00000000000E+00 0. -1.
         11    1    1    2    0    0  0.18791191650E+02  0.66900047878E+02 -0.61100097179E+02  0.92530790362E+02  0.00000000000E+00 0.  1.
</event>
<event>
 6    1  0.2612213E-009  0.1855157E+03  0.7561462E-02  0.1162569E+00
         -2   -1    0    0    0  501 -0.00000000000E+00  0.00000000000E+00  0.66878733230E+02  0.66878733230E+02  0.00000000000E+00 0.  1.
          2   -1    0    0  501    0  0.00000000000E+00 -0.00000000000E+00 -0.64795263711E+03  0.64795263711E+03  0.00000000000E+00 0. -1.
          5    1    1    2  502    0  0.25750895789E+02 -0.30596520701E+02 -0.18520443871E+03  0.18951889676E+03  0.41800000000E+01 0. -1.
         -5    1    1    2    0  502  0.13232916128E+03  0.68812054549E+02 -0.24044385706E+03  0.28297849137E+03  0.41800000000E+01 0. -1.
        -11    1    1    2    0    0 -0.86588115274E+02 -0.61745335676E+02 -0.64820612449E+02  0.12454597538E+03  0.00000000000E+00 0. -1.
         11    1    1    2    0    0 -0.71491941794E+02  0.23529801828E+02 -0.90604995657E+02  0.11778800683E+03  0.00000000000E+00 0.  1.
</event>
<event>
 7    1  0.2612213E-009  0.1594544E+03  0.7561462E-02  0.1189314E+00
          1   -1    0    0  501    0  0.00000000000E+00  0.00000000000E+00  0.38693414700E+02  0.38693414700E+02  0.00000000000E+00 0. -1.
         -1   -1    0    0    0  501 -0.00000000000E+00 -0.00000000000E+00 -0.66601294013E+03  0.66601294013E+03  0.00000000000E+00 0.  1.
         25    2    1    2    0    0  0.22684310320E+02  0.11544367924E+03 -0.35866682801E+03  0.39765761389E+03  0.12509142001E+03 0.  0.
          5    1    3    3  502    0  0.63210950706E+02  0.11384353318E+03 -0.28742172664E+03  0.31557042903E+03  0.41800000000E+01 0. -1.
         -5    1    3    3    0  502 -0.40526640386E+02  0.16001460585E+01 -0.71245101367E+02  0.82087184854E+02  0.41800000000E+01 0. -1.
        -11    1    1    2    0    0  0.20482846847E+02 -0.99892218300E+02 -0.16978298958E+03  0.19805116976E+03  0.00000000000E+00 0. -1.
         11    1    1    2    0    0 -0.43167157167E+02 -0.15551460936E+02 -0.98869707843E+02  0.10899757118E+03  0.00000000000E+00 0.  1.
</event>
<event>
 7    1  0.2612213E-009  0.1221406E+03  0.7561462E-02  0.1239607E+00
         -2   -1    0    0    0  501 -0.00000000000E+00  0.00000000000E+00  0.14069800735E+02  0.14069800735E+02  0.00000000000E+00 0. -1.
          2   -1    0    0  501    0  0.00000000000E+00 -0.00000000000E+00 -0.11642252632E+04  0.11642252632E+04  0.00000000000E+00 0.  1.
         25    2    1    2    0    0  0.53418027243E+02  0.35716782651E+02 -0.73632636105E+03  0.74963532100E+03  0.12508968910E+03 0.  0.
          5    1    3    3  502    0  0.61480372437E+02  0.76774669740E+02 -0.53058720438E+03  0.53964288188E+03  0.41800000000E+01 0.  1.
         -5    1    3    3    0  502 -0.80623451941E+01 -0.41057887090E+02 -0.20573915667E+03  0.20999243912E+03  0.41800000000E+01 0.  1.
        -11    1    1    2    0    0 -0.57598368098E+02  0.94987898268E+01 -0.15014058029E+03  0.16109001479E+03  0.00000000000E+00 0. -1.
         11    1    1    2    0    0  0.41803408552E+01 -0.45215572477E+02 -0.26368852113E+03  0.26756972815E+03  0.00000000000E+00 0.  1.
</event>
<event>
 7    1  0.2612213E-009  0.1648106E+03  0.7561462E-02  0.1183370E+00
          2   -1    0    0  501    0  0.00000000000E+00  0.00000000000E+00  0.41287542229E+03  0.41287542229E+03  0.00000000000E+00 0. -1.
         -2   -1    0    0    0  501 -0.00000000000E+00 -0.00000000000E+00 -0.79077204379E+02  0.79077204379E+02  0.00000000000E+00 0.  1.
         25    2    1    2    0    0  0.14429310792E+03  0.91063278025E+01  0.18968561148E+03  0.26931846408E+03  0.12509347582E+03 0.  0.
          5    1    3    3  502    0  0.13805336315E+03  0.26816806414E+02  0.88267106003E+02  0.16609162106E+03  0.41800000000E+01 0. -1.
         -5    1    3    3    0  502  0.62397447718E+01 -0.17710478612E+02  0.10141850548E+03  0.10322684302E+03  0.41800000000E+01 0. -1.
        -11    1    1    2    0    0 -0.11537416845E+03  0.31721919159E+02  0.10050580585E+03  0.15626546615E+03  0.00000000000E+00 0.  1.
         11    1    1    2    0    0 -0.28918939468E+02 -0.40828246961E+02  0.43606800576E+02  0.66368696434E+02  0.00000000000E+00 0. -1.
</event>
<event>
 7    1  0.2612213E-009  0.1256833E+03  0.7561462E-02  0.1234005E+00
          1   -1    0    0  501    0  0.00000000000E+00  0.00000000000E+00  0.25943654810E+03  0.25943654810E+03  0.00000000000E+00 0. -1.
         -1   -1    0    0    0  501 -0.00000000000E+00 -0.00000000000E+00 -0.24291200804E+03  0.24291200804E+03  0.00000000000E+00 0.  1.
         25    2    1    2    0    0  0.70977938364E+02  0.69618511302E+02  0.21112532328E+03  0.26477465212E+03  0.12508840645E+03 0.  0.
          5    1    3    3  502    0  0.35533003578E+02 -0.29780007912E+01  0.17052335752E+03  0.17426173043E+03  0.41800000000E+01 0. -1.
         -5    1    3    3    0  502  0.35444934786E+02  0.72596512093E+02  0.40601965754E+02  0.90512921691E+02  0.41800000000E+01 0. -1.
        -11    1    1    2    0    0 -0.90975744765E+02 -0.69642487585E+02 -0.17748073212E+03  0.21124884020E+03  0.00000000000E+00 0.  1.
         11    1    1    2    0    0  0.19997806401E+02  0.23976283814E-01 -0.17120051093E+02  0.26325063820E+02  0.00000000000E+00 0. -1.
</event>
<event>
 7    1  0.2612213E-009  0.1142163E+03  0.7561462E-02  0.1252955E+00
          2   -1    0    0  501    0  0.00000000000E+00  0.00000000000E+00  0.40702989121E+03  0.40702989121E+03  0.00000000000E+00 0. -1.
         -2   -1    0    0    0  501 -0.00000000000E+00 -0.00000000000E+00 -0.34560335298E+02  0.34560335298E+02  0.00000000000E+00 0.  1.
         25    2    1    2    0    0  0.83276106013E+01  0.43309097128E+02  0.23841106759E+03  0.27281013298E+03  0.12506200267E+03 0.  0.
          5    1    3    3  502    0  0.40285525419E+02 -0.30712414799E+02  0.75870589915E+02  0.91323571957E+02  0.41800000000E+01 0. -1.
         -5    1    3    3    0  502 -0.31957914818E+02  0.74021511927E+02  0.16254047768E+03  0.18148656102E+03  0.41800000000E+01 0. -1.
        -11    1    1    2    0    0 -0.37131559836E+02  0.80409018495E+01  0.81234629894E+02  0.89679841282E+02  0.00000000000E+00 0.  1.
         11    1    1    2    0    0  0.28803949235E+02 -0.51349998978E+02  0.52823858427E+02  0.79100252248E+02  0.00000000000E+00 0. -1.
</event>
<event>
 7    1  0.2612213E-009  0.1081937E+03  0.7561462E-02  0.1263952E+00
          1   -1    0    0  501    0  0.00000000000E+00  0.00000000000E+00  0.82137369193E+03  0.82137369193E+03  0.00000000000E+00 0. -1.
         -1   -1    0    0    0  501 -0.00000000000E+00 -0.00000000000E+00 -0.20919566582E+02  0.20919566582E+02  0.00000000000E+00 0.  1.
         25    2    1    2    0    0  0.53149359535E+02  0.28899381695E+02  0.57919570240E+03  0.59563059035E+03  0.12509240505E+03 0.  0.
          5    1    3    3  502    0  0.14823188269E+02 -0.32784163024E+02  0.40822833304E+03  0.40983212728E+03  0.41800000000E+01 0.  1.
         -5    1    3    3    0  502  0.38326171266E+02  0.61683544719E+02  0.17096736936E+03  0.18579846307E+03  0.41800000000E+01 0.  1.
        -11    1    1    2    0    0 -0.17157760903E+02 -0.58412513070E+02  0.10407174827E+03  0.12057088882E+03  0.00000000000E+00 0.  1.
         11    1    1    2    0    0 -0.35991598632E+02  0.29513131375E+02  0.11718667468E+03  0.12609177934E+03  0.00000000000E+00 0. -1.
</event>
<event>
 7    1  0.2612213E-009  0.8863607E+02  0.7561462E-02  0.1306189E+00
         -1   -1    0    0    0  501 -0.00000000000E+00  0.00000000000E+00  0.12853073640E+03  0.12853073640E+03  0.00000000000E+00 0.  1.
          1   -1    0    0  501    0  0.00000000000E+00 -0.00000000000E+00 -0.14426387798E+03  0.14426387798E+03  0.00000000000E+00 0. -1.
         25    2    1    2    0    0  0.27013264028E+01 -0.39921158195E+02  0.63094711648E+02  0.14570299272E+03  0.12508966150E+03 0.  0.
          5    1    3    3  502    0 -0.32387845237E+02 -0.78217729304E+01 -0.27431328746E+02  0.43360152763E+02  0.41800000000E+01 0.  1.
         -5    1    3    3    0  502  0.35089171640E+02 -0.32099385265E+02  0.90526040394E+02  0.10234283996E+03  0.41800000000E+01 0.  1.
        -11    1    1    2    0    0 -0.20419627924E+02  0.63360432720E+02 -0.69561603111E+02  0.96282512776E+02  0.00000000000E+00 0. -1.
         11    1    1    2    0    0  0.17718301521E+02 -0.23439274525E+02 -0.92662501256E+01  0.30809108887E+02  0.00000000000E+00 0.  1.
</event>
<event>
 7    1  0.2612213E-009  0.1717790E+03  0.7561462E-02  0.1176005E+00
          2   -1    0    0  501    0  0.00000000000E+00  0.00000000000E+00  0.38217032680E+03  0.38217032680E+03  0.00000000000E+00 0.  1.
         -2   -1    0    0    0  501 -0.00000000000E+00 -0.00000000000E+00 -0.93746709913E+02  0.93746709913E+02  0.00000000000E+00 0. -1.
         25    2    1    2    0    0 -0.13205899853E+03 -0.49549734644E+02  0.73442496422E+02  0.20232573007E+03  0.12508855052E+03 0.  0.
          5    1    3    3  502    0 -0.11616678981E+03  0.72671087660E+01  0.82173295180E+02  0.14253931656E+03  0.41800000000E+01 0. -1.
         -5    1    3    3    0  502 -0.15892208714E+02 -0.56816843410E+02 -0.87307987582E+01  0.59786413505E+02  0.41800000000E+01 0. -1.
        -11    1    1    2    0    0  0.36797023836E+02  0.61771340925E+02  0.10886826884E+03  0.13046846164E+03  0.00000000000E+00 0.  1.
         11    1    1    2    0    0  0.95261974692E+02 -0.12221606281E+02  0.10611285163E+03  0.14312284501E+03  0.00000000000E+00 0. -1.
</event>
<event>
 7    1  0.2612213E-009  0.1285209E+03  0.7561462E-02  0.1229667E+00
         -2   -1    0    0    0  501 -0.00000000000E+00  0.00000000000E+00  0.98865655866E+02  0.98865655866E+02  0.00000000000E+00 0. -1.
          2   -1    0    0  501    0  0.00000000000E+00 -0.00000000000E+00 -0.21136827274E+03  0.21136827274E+03  0.00000000000E+00 0.  1.
         25    2    1    2    0    0  0.35598970838E+02 -0.87845115515E+02 -0.33499605198E+02  0.16048236416E+03  0.12509322369E+03 0.  0.
          5    1    3    3  502    0 -0.14498118004E+02 -0.10032919873E+03 -0.38336855829E+02  0.10845888833E+03  0.41800000000E+01 0. -1.
         -5    1    3    3    0  502  0.50097088842E+02  0.12484083211E+02  0.48372506310E+01  0.52023475833E+02  0.41800000000E+01 0. -1.
        -11    1    1    2    0    0 -0.12588033174E+02  0.77571296880E+02 -0.92328626120E+02  0.12124495816E+03  0.00000000000E+00 0.  1.
         11    1    1    2    0    0 -0.23010937664E+02  0.10273818635E+02  0.13325614442E+02  0.28506606283E+02  0.00000000000E+00 0. -1.
</event>
<event>
 7    1  0.2612213E-009  0.1317036E+03  0.7561462E-02  0.1224950E+00
          2   -1    0    0  501    0  0.00000000000E+00  0.00000000000E+00  0.46328884672E+03  0.46328884672E+03  0.00000000000E+00 0. -1.
         -2   -1    0    0    0  501 -0.00000000000E+00 -0.00000000000E+00 -0.56544184479E+02  0.56544184479E+02  0.00000000000E+00 0.  1.
         25    2    1    2    0    0  0.12307052076E+02  0.98260566327E+02  0.10564489978E+03  0.19134959302E+03  0.12508884632E+03 0.  0.
          5    1    3    3  502    0  0.50995118936E+02  0.10044423525E+03  0.49767704789E+02  0.12322273893E+03  0.41800000000E+01 0. -1.
         -5    1    3    3    0  502 -0.38688066860E+02 -0.21836689250E+01  0.55877194992E+02  0.68126854085E+02  0.41800000000E+01 0. -1.
        -11    1    1    2    0    0 -0.30350081549E+02 -0.37055484431E+02  0.49348412979E+02  0.68771376604E+02  0.00000000000E+00 0.  1.
         11    1    1    2    0    0  0.18043029473E+02 -0.61205081896E+02  0.25175134948E+03  0.25971206158E+03  0.00000000000E+00 0. -1.
</event>
<event>
 7    1  0.2612213E-009  0.1256425E+03  0.7561462E-02  0.1234069E+00
          1   -1    0    0  501    0  0.00000000000E+00  0.00000000000E+00  0.45219056960E+03  0.45219056960E+03  0.00000000000E+00 0. -1.
         -1   -1    0    0    0  501 -0.00000000000E+00 -0.00000000000E+00 -0.51147041040E+02  0.51147041040E+02  0.00000000000E+00 0.  1.
         25    2    1    2    0    0 -0.26454857288E+02 -0.84710553110E+02  0.31083145655E+03  0.34661165161E+03  0.12509078848E+03 0.  0.
          5    1    3    3  502    0 -0.76765793713E+02 -0.44481963857E+02  0.17953354246E+03  0.20030326373E+03  0.41800000000E+01 0.  1.
         -5    1    3    3    0  502  0.50310936425E+02 -0.40228589253E+02  0.13129791409E+03  0.14630838788E+03  0.41800000000E+01 0.  1.
        -11    1    1    2    0    0 -0.95929896019E+01  0.59352888413E+01  0.65745073807E+02  0.66705830577E+02  0.00000000000E+00 0. -1.
         11    1    1    2    0    0  0.36047846890E+02  0.78775264268E+02  0.24466998194E+02  0.90020128452E+02  0.00000000000E+00 0.  1.
</event>
<event>
 7    1  0.2612213E-009  0.1282006E+03  0.7561462E-02  0.1230150E+00
          1   -1    0    0  501    0  0.00000000000E+00  0.00000000000E+00  0.40304614896E+02  0.40304614896E+02  0.00000000000E+00 0. -1.
         -1   -1    0    0    0  501 -0.00000000000E+00 -0.00000000000E+00 -0.46091082552E+03  0.46091082552E+03  0.00000000000E+00 0.  1.
         25    2    1    2    0    0  0.75181677376E+02 -0.10330571808E+02 -0.17186481223E+03  0.22570783121E+03  0.12508999185E+03 0.  0.
          5    1    3    3  502    0 -0.30289860251E+02  0.18148525453E+02 -0.56588095083E+02  0.66832099438E+02  0.41800000000E+01 0. -1.
         -5    1    3    3    0  502  0.10547153763E+03 -0.28479097261E+02 -0.11527671714E+03  0.15887573177E+03  0.41800000000E+01 0. -1.
        -11    1    1    2    0    0 -0.78916697975E+02 -0.19631026546E+02 -0.13299100044E+03  0.15588402298E+03  0.00000000000E+00 0. -1.
         11    1    1    2    0    0  0.37350205997E+01  0.29961598354E+02 -0.11575039795E+03  0.11962358623E+03  0.00000000000E+00 0.  1.
</event>
<event>
 7    1  0.2612213E-009  0.8603222E+02  0.7561462E-02  0.1312755E+00
         -1   -1    0    0    0  501 -0.00000000000E+00  0.00000000000E+00  0.38435097085E+03  0.38435097085E+03  0.00000000000E+00 0.  1.
          1   -1    0    0  501    0  0.00000000000E+00 -0.00000000000E+00 -0.38137121319E+02  0.38137121319E+02  0.00000000000E+00 0. -1.
         25    2    1    2    0    0 -0.10937987799E+02 -0.36473912598E+02  0.26845367884E+03  0.29860484902E+03  0.12508993684E+03 0.  0.
          5    1    3    3  502    0  0.33896937989E+01 -0.54792113394E+02  0.26938932592E+03  0.27495771863E+03  0.41800000000E+01 0. -1.
         -5    1    3    3    0  502 -0.14327681598E+02  0.18318200796E+02 -0.93564707936E+00  0.23647130393E+02  0.41800000000E+01 0. -1.
        -11    1    1    2    0    0 -0.81999548668E+01  0.61405208200E+02  0.65475096111E+02  0.90137822609E+02  0.00000000000E+00 0. -1.
         11    1    1    2    0    0  0.19137942665E+02 -0.24931295602E+02  0.12285074580E+02  0.33745420538E+02  0.00000000000E+00 0.  1.
</event>
<event>
 7    1  0.2612213E-009  0.2391801E+03  0.7561462E-02  0.1120340E+00
          2   -1    0    0  501    0  0.00000000000E+00  0.00000000000E+00  0.70455429193E+03  0.70455429193E+03  0.00000000000E+00 0. -1.
         -2   -1    0    0    0  501 -0.00000000000E+00 -0.00000000000E+00 -0.87755017102E+02  0.87755017102E+02  0.00000000000E+00 0.  1.
         25    2    1    2    0    0 -0.20493202352E+03 -0.88329385217E+02  0.29588685505E+03  0.39114451551E+03  0.12508311823E+03 0.  0.
          5    1    3    3  502    0 -0.16499840546E+03 -0.22964335241E+02  0.25387835634E+03  0.30368326710E+03  0.41800000000E+01 0. -1.
         -5    1    3    3    0  502 -0.39933618058E+02 -0.65365049976E+02  0.42008498704E+02  0.87461248407E+02  0.41800000000E+01 0. -1.
        -11    1    1    2    0    0  0.18452181439E+03  0.49350056749E+02  0.29053086865E+03  0.34769514481E+03  0.00000000000E+00 0. -1.
         11    1    1    2    0    0  0.20410209133E+02  0.38979328469E+02  0.30381551138E+02  0.53469648720E+02  0.00000000000E+00 0.  1.
</event>
<event>
 7    1  0.2612213E-009  0.9949914E+02  0.7561462E-02  0.1281353E+00
         -1   -1    0    0    0  501 -0.00000000000E+00  0.00000000000E+00  0.37761365871E+02  0.37761365871E+02  0.00000000000E+00 0.  1.
          1   -1    0    0  501    0  0.00000000000E+00 -0.00000000000E+00 -0.38925197806E+03  0.38925197806E+03  0.00000000000E+00 0. -1.
         25    2    1    2    0    0  0.14680908568E+02  0.71089866468E+01 -0.10633952706E+03  0.16499550995E+03  0.12509738815E+03 0.  0.
          5    1    3    3  502    0  0.45482057812E+02 -0.32591520334E+02 -0.11048795721E+02  0.57187175725E+02  0.41800000000E+01 0. -1.
         -5    1    3    3    0  502 -0.30801149243E+02  0.39700506981E+02 -0.95290731340E+02  0.10780833423E+03  0.41800000000E+01 0. -1.
        -11    1    1    2    0    0  0.13855662356E+01 -0.48265770614E+02 -0.13087878705E+03  0.13950183263E+03  0.00000000000E+00 0. -1.
         11    1    1    2    0    0 -0.16066474804E+02  0.41156783967E+02 -0.11427229807E+03  0.12251600135E+03  0.00000000000E+00 0.  1.
</event>
<event>
 7    1  0.2612213E-009  0.1073269E+03  0.7561462E-02  0.1265602E+00
          2   -1    0    0  501    0  0.00000000000E+00  0.00000000000E+00  0.10444233694E+04  0.10444233694E+04  0.00000000000E+00 0. -1.
         -2   -1    0    0    0  501 -0.00000000000E+00 -0.00000000000E+00 -0.20560786338E+02  0.20560786338E+02  0.00000000000E+00 0.  1.
         25    2    1    2    0    0  0.39081760518E+02 -0.48402578037E+01  0.88065398790E+03  0.89036582384E+03  0.12509613012E+03 0.  0.
          5    1    3    3  502    0  0.83810162273E+01  0.51338342577E+02  0.60929857787E+03  0.61152930939E+03  0.41800000000E+01 0. -1.
         -5    1    3    3    0  502  0.30700744290E+02 -0.56178600381E+02  0.27135541003E+03  0.27883651445E+03  0.41800000000E+01 0. -1.
        -11    1    1    2    0    0 -0.61157569696E+02  0.27161452375E+02  0.82097406453E+02  0.10591495160E+03  0.00000000000E+00 0.  1.
         11    1    1    2    0    0  0.22075809178E+02 -0.22321194571E+02  0.61111188717E+02  0.68703380298E+02  0.00000000000E+00 0. -1.
</event>
<event>
 7    1  0.2612213E-009  0.8831362E+02  0.7561462E-02  0.1306988E+00
         -1   -1    0    0    0  501 -0.00000000000E+00  0.00000000000E+00  0.13576427303E+03  0.13576427303E+03  0.00000000000E+00 0.  1.
          1   -1    0    0  501    0  0.00000000000E+00 -0.00000000000E+00 -0.13685560802E+03  0.13685560802E+03  0.00000000000E+00 0. -1.
         25    2    1    2    0    0  0.71380826933E+02  0.25465798791E+02 -0.31545199737E+02  0.14961110451E+03  0.12507858972E+03 0.  0.
          5    1    3    3  502    0  0.20270082629E+02  0.37052479415E+02  0.41668139111E+02  0.59476623118E+02  0.41800000000E+01 0.  1.
         -5    1    3    3    0  502  0.51110744304E+02 -0.11586680624E+02 -0.73213338848E+02  0.90134481396E+02  0.41800000000E+01 0.  1.
        -11    1    1    2    0    0 -0.36045052035E+02 -0.28774641108E+02  0.60799443729E+02  0.76313813329E+02  0.00000000000E+00 0.  1.
         11    1    1    2    0    0 -0.35335774898E+02  0.33088423175E+01 -0.30345578980E+02  0.46694963206E+02  0.00000000000E+00 0. -1.
</event>
<event>
 7    1  0.2612213E-009  0.1127984E+03  0.7561462E-02  0.1255474E+00
         -2   -1    0    0    0  501 -0.00000000000E+00  0.00000000000E+00  0.61828248767E+02  0.61828248767E+02  0.00000000000E+00 0.  1.
          2   -1    0    0  501    0  0.00000000000E+00 -0.00000000000E+00 -0.28363558404E+03  0.28363558404E+03  0.00000000000E+00 0. -1.
         25    2    1    2    0    0 -0.70197587101E+02 -0.18797267502E+02 -0.14516065051E+03  0.20494243095E+03  0.12509495213E+03 0.  0.
          5    1    3    3  502    0 -0.84630318525E+02  0.32014145979E+02 -0.79089142011E+02  0.12024874694E+03  0.41800000000E+01 0.  1.
         -5    1    3    3    0  502  0.14432731424E+02 -0.50811413480E+02 -0.66071508501E+02  0.84693684014E+02  0.41800000000E+01 0.  1.
        -11    1    1    2    0    0  0.28179344720E+01  0.14218987012E+02  0.18712108011E+02  0.23669882395E+02  0.00000000000E+00 0.  1.
         11    1    1    2    0    0  0.67379652629E+02  0.45782804894E+01 -0.95358792768E+02  0.11685151945E+03  0.00000000000E+00 0. -1.
</event>
<event>
 7    1  0.2612213E-009  0.5897203E+02  0.7561462E-02  0.1402197E+00
          2   -1    0    0  501    0  0.00000000000E+00  0.00000000000E+00  0.20810735970E+03  0.20810735970E+03  0.00000000000E+00 0. -1.
         -2   -1    0    0    0  501 -0.00000000000E+00 -0.00000000000E+00 -0.72035881187E+02  0.72035881187E+02  0.00000000000E+00 0.  1.
         25    2    1    2    0    0 -0.40336606616E+02  0.38367180324E+02  0.56595343922E+02  0.14815425625E+03  0.12509024076E+03 0.  0.
          5    1    3    3  502    0  0.27266480169E+01  0.78827007506E+01  0.86743245749E+02  0.87243536515E+02  0.41800000000E+01 0. -1.
         -5    1    3    3    0  502 -0.43063254633E+02  0.30484479574E+02 -0.30147901827E+02  0.60910719739E+02  0.41800000000E+01 0. -1.
        -11    1    1    2    0    0  0.17695531634E+02 -0.15855497532E+02 -0.17747902151E+02  0.29656646347E+02  0.00000000000E+00 0.  1.
         11    1    1    2    0    0  0.22641074982E+02 -0.22511682793E+02  0.97224036743E+02  0.10233233829E+03  0.00000000000E+00 0. -1.
</event>
<event>
 7    1  0.2612213E-009  0.1929655E+03  0.7561462E-02  0.1155814E+00
         -1   -1    0    0    0  501 -0.00000000000E+00  0.00000000000E+00  0.12373384356E+03  0.12373384356E+03  0.00000000000E+00 0.  1.
          1   -1    0    0  501    0  0.00000000000E+00 -0.00000000000E+00 -0.34786170414E+03  0.34786170414E+03  0.00000000000E+00 0. -1.
         25    2    1    2    0    0 -0.98619313848E+02  0.14480226236E+03 -0.13987080209E+03  0.25671796904E+03  0.12508720999E+03 0.  0.
          5    1    3    3  502    0 -0.72985808274E+00  0.10249385586E+03 -0.98624433133E+02  0.14230170200E+03  0.41800000000E+01 0.  1.
         -5    1    3    3    0  502 -0.97889455765E+02  0.42308406499E+02 -0.41246368955E+02  0.11441626704E+03  0.41800000000E+01 0.  1.
        -11    1    1    2    0    0  0.82657521706E+02 -0.13368352763E+03 -0.10295829435E+03  0.18789348533E+03  0.00000000000E+00 0. -1.
         11    1    1    2    0    0  0.15961792142E+02 -0.11118734722E+02  0.18701235855E+02  0.26984093328E+02  0.00000000000E+00 0.  1.
</event>
<event>
 7    1  0.2612213E-009  0.1420167E+03  0.7561462E-02  0.1210641E+00
          2   -1    0    0  501    0  0.00000000000E+00  0.00000000000E+00  0.34145850307E+03  0.34145850307E+03  0.00000000000E+00 0. -1.
         -2   -1    0    0    0  501 -0.00000000000E+00 -0.00000000000E+00 -0.63118139981E+02  0.63118139981E+02  0.00000000000E+00 0.  1.
         25    2    1    2    0    0  0.60964386494E+02 -0.69975924110E+02  0.19373879553E+03  0.24859352911E+03  0.12510289943E+03 0.  0.
          5    1    3    3  502    0 -0.88175982793E+01 -0.81838356384E+02  0.12579073763E+03  0.15038633146E+03  0.41800000000E+01 0. -1.
         -5    1    3    3    0  502  0.69781984774E+02  0.11862432274E+02  0.67948057894E+02  0.98207197648E+02  0.41800000000E+01 0. -1.
        -11    1    1    2    0    0 -0.85331005027E+02  0.60323336234E+02  0.63018709660E+02  0.12203132008E+03  0.00000000000E+00 0.  1.
         11    1    1    2    0    0  0.24366618532E+02  0.96525878752E+01  0.21582857903E+02  0.33951793865E+02  0.00000000000E+00 0. -1.
</event>
<event>
 7    1  0.2612213E-009  0.1195801E+03  0.7561462E-02  0.1243791E+00
          1   -1    0    0  501    0  0.00000000000E+00  0.00000000000E+00  0.33890338391E+03  0.33890338391E+03  0.00000000000E+00 0. -1.
         -1   -1    0    0    0  501 -0.00000000000E+00 -0.00000000000E+00 -0.50396540370E+02  0.50396540370E+02  0.00000000000E+00 0.  1.
         25    2    1    2    0    0  0.46678557204E+02  0.42702283429E+02  0.21368149585E+03  0.25555743016E+03  0.12508975070E+03 0.  0.
          5    1    3    3  502    0  0.82745383221E+02  0.11853481712E+02  0.17574004986E+03  0.19465184561E+03  0.41800000000E+01 0.  1.
         -5    1    3    3    0  502 -0.36066826017E+02  0.30848801717E+02  0.37941445992E+02  0.60905584557E+02  0.41800000000E+01 0.  1.
        -11    1    1    2    0    0  0.24376504187E+02  0.10102943902E+01  0.48910352900E+01  0.24882863126E+02  0.00000000000E+00 0.  1.
         11    1    1    2    0    0 -0.71055061391E+02 -0.43712577819E+02  0.69934312400E+02  0.10885963099E+03  0.00000000000E+00 0. -1.
</event>
<event>
 7    1  0.3031922E-009  0.8157801E+02  0.7561462E-02  0.1324632E+00
          2   -1    0    0  501    0  0.00000000000E+00  0.00000000000E+00  0.48296207600E+03  0.48296207600E+03  0.00000000000E+00 0. -1.
         -2   -1    0    0    0  501 -0.00000000000E+00 -0.00000000000E+00 -0.27918459084E+02  0.27918459084E+02  0.00000000000E+00 0.  1.
         25    2    1    2    0    0  0.24643323381E+02  0.32064312428E+02  0.28697598556E+03  0.31565691497E+03  0.12509459686E+03 0.  0.
          5    1    3    3  502    0  0.33839640513E+02  0.62248056208E+02  0.27081270540E+03  0.27995881050E+03  0.41800000000E+01 0.  1.
         -5    1    3    3    0  502 -0.91963171321E+01 -0.30183743781E+02  0.16163280164E+02  0.35698104474E+02  0.41800000000E+01 0.  1.
        -11    1    1    2    0    0 -0.11391385789E+02  0.10671243790E+02 -0.50593143044E+01  0.16408405634E+02  0.00000000000E+00 0.  1.
         11    1    1    2    0    0 -0.13251937592E+02 -0.42735556218E+02  0.17312694566E+03  0.17881521448E+03  0.00000000000E+00 0. -1.
</event>
<event>
 7    1  0.2612213E-009  0.1016124E+03  0.7561462E-02  0.1276941E+00
          2   -1    0    0  501    0  0.00000000000E+00  0.00000000000E+00  0.18536761710E+03  0.18536761710E+03  0.00000000000E+00 0. -1.
         -2   -1    0    0    0  501 -0.00000000000E+00 -0.00000000000E+00 -0.85247888418E+02  0.85247888418E+02  0.00000000000E+00 0.  1.
         25    2    1    2    0    0 -0.39982032438E+02 -0.12986207282E+02  0.12147017127E+03  0.17935849991E+03  0.12508902623E+03 0.  0.
          5    1    3    3  502    0  0.10148580911E+02  0.40166774683E+02  0.51847011217E+01  0.41960898569E+02  0.41800000000E+01 0. -1.
         -5    1    3    3    0  502 -0.50130613348E+02 -0.53152981965E+02  0.11628547015E+03  0.13739760134E+03  0.41800000000E+01 0. -1.
        -11    1    1    2    0    0  0.82872352879E+01  0.43573851932E+02 -0.68278035956E+01  0.44877363368E+02  0.00000000000E+00 0.  1.
         11    1    1    2    0    0  0.31694797150E+02 -0.30587644651E+02 -0.14522638987E+02  0.46379642245E+02  0.00000000000E+00 0. -1.
</event>
<event>
 7    1  0.2612213E-009  0.1135830E+03  0.7561462E-02  0.1254075E+00
          2   -1    0    0  501    0  0.00000000000E+00  0.00000000000E+00  0.57983990546E+02  0.57983990546E+02  0.00000000000E+00 0. -1.
         -2   -1    0    0    0  501 -0.00000000000E+00 -0.00000000000E+00 -0.38992329421E+03  0.38992329421E+03  0.00000000000E+00 0.  1.
         25    2    1    2    0    0  0.74003242860E+01  0.61483113534E+02 -0.58187216603E+02  0.15122249591E+03  0.12509017964E+03 0.  0.
          5    1    3    3  502    0 -0.42201869572E+02  0.14623272939E+02 -0.68705781785E+02  0.82053609046E+02  0.41800000000E+01 0. -1.
         -5    1    3    3    0  502  0.49602193858E+02  0.46859840595E+02  0.10518565182E+02  0.69168886861E+02  0.41800000000E+01 0. -1.
        -11    1    1    2    0    0  0.75111360157E+01  0.25040993687E+02 -0.74220816971E+02  0.78690521672E+02  0.00000000000E+00 0.  1.
         11    1    1    2    0    0 -0.14911460302E+02 -0.86524107221E+02 -0.19953127009E+03  0.21799426718E+03  0.00000000000E+00 0. -1.
</event>
<event>
 7    1  0.2612213E-009  0.1052297E+03  0.7561462E-02  0.1269668E+00
         -4   -1    0    0    0  501 -0.00000000000E+00  0.00000000000E+00  0.60426497118E+02  0.60426497118E+02  0.00000000000E+00 0.  1.
          4   -1    0    0  501    0  0.00000000000E+00 -0.00000000000E+00 -0.22492837673E+03  0.22492837673E+03  0.00000000000E+00 0. -1.
         25    2    1    2    0    0 -0.29209526189E+02 -0.28360119184E+02 -0.10987784563E+03  0.17139948876E+03  0.12508857265E+03 0.  0.
          5    1    3    3  502    0 -0.32724208925E+02  0.34521453731E+02 -0.37200352382E+01  0.47894839802E+02  0.41800000000E+01 0. -1.
         -5    1    3    3    0  502  0.35146827363E+01 -0.62881572915E+02 -0.10615781039E+03  0.12350464896E+03  0.41800000000E+01 0. -1.
        -11    1    1    2    0    0 -0.33052663886E+02  0.12529539435E+02 -0.24443224015E+02  0.42976029931E+02  0.00000000000E+00 0.  1.
         11    1    1    2    0    0  0.62262190075E+02  0.15830579749E+02 -0.30180809969E+02  0.70979355157E+02  0.00000000000E+00 0. -1.
</event>
<event>
 7    1  0.2612213E-009  0.1048404E+03  0.7561462E-02  0.1270434E+00
         -1   -1    0    0    0  501 -0.00000000000E+00  0.00000000000E+00  0.18675522853E+02  0.18675522853E+02  0.00000000000E+00 0.  1.
          1   -1    0    0  501    0  0.00000000000E+00 -0.00000000000E+00 -0.71598460714E+03  0.71598460714E+03  0.00000000000E+00 0. -1.
         25    2    1    2    0    0  0.22378680060E+02 -0.30528357999E+02 -0.30950532403E+03  0.33596787516E+03  0.12509229221E+03 0.  0.
          5    1    3    3  502    0 -0.92399081317E+01 -0.67648286172E+02 -0.24858339101E+03  0.25782327515E+03  0.41800000000E+01 0.  1.
         -5    1    3    3    0  502  0.31618588192E+02  0.37119928173E+02 -0.60921933022E+02  0.78144600005E+02  0.41800000000E+01 0.  1.
        -11    1    1    2    0    0 -0.47390468262E+02 -0.63111877947E+01 -0.21397300686E+03  0.21924902562E+03  0.00000000000E+00 0.  1.
         11    1    1    2    0    0  0.25011788202E+02  0.36839545794E+02 -0.17383075340E+03  0.17944322922E+03  0.00000000000E+00 0. -1.
</event>
<event>
 7    1  0.2612213E-009  0.2424452E+03  0.7561462E-02  0.1118175E+00
         -2   -1    0    0    0  501 -0.00000000000E+00  0.00000000000E+00  0.67847056103E+02  0.67847056103E+02  0.00000000000E+00 0. -1.
          2   -1    0    0  501    0  0.00000000000E+00 -0.00000000000E+00 -0.93025763714E+03  0.93025763714E+03  0.00000000000E+00 0.  1.
         25    2    1    2    0    0  0.16648457257E+03  0.15573233646E+03 -0.39048190848E+03  0.46914137879E+03  0.12509132233E+03 0.  0.
          5    1    3    3  502    0  0.13865322154E+03  0.69295482965E+02 -0.16704794795E+03  0.22792338431E+03  0.41800000000E+01 0.  1.
         -5    1    3    3    0  502  0.27831351029E+02  0.86436853499E+02 -0.22343396053E+03  0.24121799448E+03  0.41800000000E+01 0.  1.
        -11    1    1    2    0    0 -0.45073956323E+02 -0.90492957212E+02 -0.19958063640E+03  0.22372542831E+03  0.00000000000E+00 0.  1.
         11    1    1    2    0    0 -0.12141061624E+03 -0.65239379252E+02 -0.27234803616E+03  0.30523788615E+03  0.00000000000E+00 0. -1.
</event>
<event>
 7    1  0.2612213E-009  0.1126688E+03  0.7561462E-02  0.1255706E+00
         -2   -1    0    0    0  501 -0.00000000000E+00  0.00000000000E+00  0.21367476914E+03  0.21367476914E+03  0.00000000000E+00 0.  1.
          2   -1    0    0  501    0  0.00000000000E+00 -0.00000000000E+00 -0.76369891457E+02  0.76369891457E+02  0.00000000000E+00 0. -1.
         25    2    1    2    0    0 -0.36309190905E+02  0.54938528994E+01  0.14122101402E+03  0.19219309019E+03  0.12508504847E+03 0.  0.
          5    1    3    3  502    0  0.17667497905E+01 -0.56281119381E+02  0.74884135772E+02  0.93785883767E+02  0.41800000000E+01 0.  1.
         -5    1    3    3    0  502 -0.38075940695E+02  0.61774972281E+02  0.66336878246E+02  0.98407206421E+02  0.41800000000E+01 0.  1.
        -11    1    1    2    0    0 -0.18519229096E+02 -0.30691112520E+02 -0.99732425836E+01  0.37207147185E+02  0.00000000000E+00 0.  1.
         11    1    1    2    0    0  0.54828420001E+02  0.25197259620E+02  0.60571062486E+01  0.60644423225E+02  0.00000000000E+00 0. -1.
</event>
<event>
 7    1  0.2612213E-009  0.9968993E+02  0.7561462E-02  0.1280949E+00
         -1   -1    0    0    0  501 -0.00000000000E+00  0.00000000000E+00  0.14624287088E+02  0.14624287088E+02  0.00000000000E+00 0.  1.
          1   -1    0    0  501    0  0.00000000000E+00 -0.00000000000E+00 -0.85105858119E+03  0.85105858119E+03  0.00000000000E+00 0. -1.
         25    2    1    2    0    0 -0.96169902693E+01 -0.99610567641E+01 -0.56287246091E+03  0.57677126923E+03  0.12509188864E+03 0.  0.
          5    1    3    3  502    0  0.36253152469E+02  0.29379160977E+02 -0.40459960997E+03  0.40730301122E+03  0.41800000000E+01 0. -1.
         -5    1    3    3    0  502 -0.45870142738E+02 -0.39340217741E+02 -0.15827285094E+03  0.16946825800E+03  0.41800000000E+01 0. -1.
        -11    1    1    2    0    0 -0.13446346196E+02 -0.37146834864E+02 -0.13845515499E+03  0.14398097621E+03  0.00000000000E+00 0. -1.
         11    1    1    2    0    0  0.23063336466E+02  0.47107891629E+02 -0.13510667820E+03  0.14493062284E+03  0.00000000000E+00 0.  1.
</event>
<event>
 7    1  0.2612213E-009  0.2362008E+03  0.7561462E-02  0.1122350E+00
          2   -1    0    0  501    0  0.00000000000E+00  0.00000000000E+00  0.32921992772E+04  0.32921992772E+04  0.00000000000E+00 0. -1.
         -2   -1    0    0    0  501 -0.00000000000E+00 -0.00000000000E+00 -0.42650692222E+02  0.42650692222E+02  0.00000000000E+00 0.  1.
         25    2    1    2    0    0  0.17018760247E+03  0.13750053308E+03  0.29081753528E+04  0.29190753869E+04  0.12508802806E+03 0.  0.
          5    1    3    3  502    0  0.18095055532E+03  0.94324201205E+02  0.21815870600E+04  0.21911138106E+04  0.41800000000E+01 0. -1.
         -5    1    3    3    0  502 -0.10762952848E+02  0.43176331874E+02  0.72658829287E+03  0.72796157627E+03  0.41800000000E+01 0. -1.
        -11    1    1    2    0    0 -0.97114862898E+02 -0.48811666979E+02  0.96790791576E+02  0.14554151560E+03  0.00000000000E+00 0.  1.
         11    1    1    2    0    0 -0.73072739570E+02 -0.88688866100E+02  0.24458244052E+03  0.27023306690E+03  0.00000000000E+00 0. -1.
</event>
<event>
 7    1  0.2612213E-009  0.1162412E+03  0.7561462E-02  0.1249430E+00
         -2   -1    0    0    0  501 -0.00000000000E+00  0.00000000000E+00  0.57508124906E+03  0.57508124906E+03  0.00000000000E+00 0. -1.
          2   -1    0    0  501    0  0.00000000000E+00 -0.00000000000E+00 -0.36530792280E+02  0.36530792280E+02  0.00000000000E+00 0.  1.
         25    2    1    2    0    0 -0.22989916177E+02 -0.67823981739E+02  0.42835064386E+03  0.45195093497E+03  0.12508694889E+03 0.  0.
          5    1    3    3  502    0 -0.52841877266E+02 -0.90726918408E+02  0.28745301664E+03  0.30605611723E+03  0.41800000000E+01 0.  1.
         -5    1    3    3    0  502  0.29851961090E+02  0.22902936668E+02  0.14089762721E+03  0.14589481774E+03  0.41800000000E+01 0.  1.
        -11    1    1    2    0    0  0.28188758163E+01  0.69268675331E+02  0.11890923459E+03  0.13764265878E+03  0.00000000000E+00 0. -1.
         11    1    1    2    0    0  0.20171040360E+02 -0.14446935922E+01 -0.87094216680E+01  0.22018447597E+02  0.00000000000E+00 0.  1.
</event>
<event>
 7    1  0.2612213E-009  0.9924169E+02  0.7561462E-02  0.1281899E+00
          2   -1    0    0  501    0  0.00000000000E+00  0.00000000000E+00  0.13595091765E+03  0.13595091765E+03  0.00000000000E+00 0. -1.
         -2   -1    0    0    0  501 -0.00000000000E+00 -0.00000000000E+00 -0.12213530847E+03  0.12213530847E+03  0.00000000000E+00 0.  1.
         25    2    1    2    0    0 -0.14782875930E+02  0.63227797820E+02  0.36451543881E+02  0.14557734790E+03  0.12509101219E+03 0.  0.
          5    1    3    3  502    0 -0.58070528698E+02  0.60727003725E+02  0.52487873397E+02  0.99158481929E+02  0.41800000000E+01 0. -1.
         -5    1    3    3    0  502  0.43287652768E+02  0.25007940953E+01 -0.16036329517E+02  0.46418865967E+02  0.41800000000E+01 0. -1.
        -11    1    1    2    0    0 -0.73301744091E+01 -0.29994388316E+02 -0.53689073703E+02  0.61934735185E+02  0.00000000000E+00 0.  1.
         11    1    1    2    0    0  0.22113050339E+02 -0.33233409505E+02  0.31053139000E+02  0.50574143041E+02  0.00000000000E+00 0. -1.
</event>
<event>
 7    1  0.2612213E-009  0.1109473E+03  0.7561462E-02  0.1258826E+00
          2   -1    0    0  501    0  0.00000000000E+00  0.00000000000E+00  0.20617734016E+03  0.20617734016E+03  0.00000000000E+00 0.  1.
         -2   -1    0    0    0  501 -0.00000000000E+00 -0.00000000000E+00 -0.66420720484E+02  0.66420720484E+02  0.00000000000E+00 0. -1.
         25    2    1    2    0    0 -0.19531222110E+02 -0.33653349365E+02  0.10475304721E+03  0.16773432094E+03  0.12509030722E+03 0.  0.
          5    1    3    3  502    0  0.47526997686E+02 -0.41527854530E+02  0.47316966311E+02  0.78992062334E+02  0.41800000000E+01 0. -1.
         -5    1    3    3    0  502 -0.67058219796E+02  0.78745051651E+01  0.57436080902E+02  0.88742258609E+02  0.41800000000E+01 0. -1.
        -11    1    1    2    0    0  0.46119850855E+02 -0.24169388802E+01  0.38206519156E+02  0.59938471306E+02  0.00000000000E+00 0. -1.
         11    1    1    2    0    0 -0.26588628745E+02  0.36070288245E+02 -0.32029466948E+01  0.44925268393E+02  0.00000000000E+00 0.  1.
</event>
<event>
 7    1  0.2612213E-009  0.8198342E+02  0.7561462E-02  0.1323515E+00
         -1   -1    0    0    0  501 -0.00000000000E+00  0.00000000000E+00  0.24705529095E+02  0.24705529095E+02  0.00000000000E+00 0.  1.
          1   -1    0    0  501    0  0.00000000000E+00 -0.00000000000E+00 -0.51464369408E+03  0.51464369408E+03  0.00000000000E+00 0. -1.
         25    2    1    2    0    0  0.19491672619E+02  0.93784579651E+01 -0.34724455051E+03  0.36972206931E+03  0.12509096651E+03 0.  0.
          5    1    3    3  502    0  0.15279971877E+02  0.40391199010E+02 -0.34617970934E+02  0.55504980043E+02  0.41800000000E+01 0.  1.
         -5    1    3    3    0  502  0.42117007420E+01 -0.31012741045E+02 -0.31262657958E+03  0.31421708927E+03  0.41800000000E+01 0.  1.
        -11    1    1    2    0    0  0.21600821241E+02  0.26684754495E+02 -0.36030172913E+02  0.49767910955E+02  0.00000000000E+00 0.  1.
         11    1    1    2    0    0 -0.41092493860E+02 -0.36063212460E+02 -0.10666344156E+03  0.11985924291E+03  0.00000000000E+00 0. -1.
</event>
<event>
 7    1  0.2612213E-009  0.1797352E+03  0.7561462E-02  0.1168060E+00
          1   -1    0    0  501    0  0.00000000000E+00  0.00000000000E+00  0.15671412382E+03  0.15671412382E+03  0.00000000000E+00 0. -1.
         -1   -1    0    0    0  501 -0.00000000000E+00 -0.00000000000E+00 -0.24856882438E+03  0.24856882438E+03  0.00000000000E+00 0.  1.
         25    2    1    2    0    0  0.63120274219E+02  0.14913796209E+03 -0.24596058369E+02  0.20609579706E+03  0.12507681928E+03 0.  0.
          5    1    3    3  502    0 -0.33678981097E+01  0.11764158645E+03  0.20740694839E+02  0.11957647939E+03  0.41800000000E+01 0. -1.
         -5    1    3    3    0  502  0.66488172328E+02  0.31496375641E+02 -0.45336753208E+02  0.86519317667E+02  0.41800000000E+01 0. -1.
        -11    1    1    2    0    0 -0.70142585568E+02 -0.13884085426E+03 -0.85187386842E+02  0.17735178600E+03  0.00000000000E+00 0.  1.
         11    1    1    2    0    0  0.70223113495E+01 -0.10297107836E+02  0.17928744645E+02  0.21835365145E+02  0.00000000000E+00 0. -1.
</event>
<event>
 7    1  0.2612213E-009  0.1530425E+03  0.7561462E-02  0.1196783E+00
         -1   -1    0    0    0  501 -0.00000000000E+00  0.00000000000E+00  0.60471919037E+03  0.60471919037E+03  0.00000000000E+00 0.  1.
          1   -1    0    0  501    0  0.00000000000E+00 -0.00000000000E+00 -0.61892030082E+02  0.61892030082E+02  0.00000000000E+00 0. -1.
         25    2    1    2    0    0  0.11729620674E+03  0.69253819647E+02  0.42414099289E+03  0.46270527189E+03  0.12508435209E+03 0.  0.
          5    1    3    3  502    0  0.11135196762E+03  0.72278966854E+02  0.43177395845E+03  0.45174078113E+03  0.41800000000E+01 0. -1.
         -5    1    3    3    0  502  0.59442391200E+01 -0.30251472073E+01 -0.76329655631E+01  0.10964490760E+02  0.41800000000E+01 0. -1.
        -11    1    1    2    0    0  0.16169160361E+02 -0.32197623177E+01  0.16380245599E+02  0.23240504772E+02  0.00000000000E+00 0.  1.
         11    1    1    2    0    0 -0.13346536710E+03 -0.66034057329E+02  0.10230592180E+03  0.18066544379E+03  0.00000000000E+00 0. -1.
</event>
<event>
 7    1  0.2612213E-009  0.1210165E+03  0.7561462E-02  0.1241429E+00
         -2   -1    0    0    0  501 -0.00000000000E+00  0.00000000000E+00  0.11722458753E+03  0.11722458753E+03  0.00000000000E+00 0.  1.
          2   -1    0    0  501    0  0.00000000000E+00 -0.00000000000E+00 -0.15165913945E+03  0.15165913945E+03  0.00000000000E+00 0. -1.
         25    2    1    2    0    0 -0.56595771947E+02  0.36702301344E+02  0.25955737933E+02  0.14446903396E+03  0.12508981220E+03 0.  0.
          5    1    3    3  502    0 -0.69414989755E+02  0.71877376741E+02  0.34585069606E+02  0.10582248121E+03  0.41800000000E+01 0. -1.
         -5    1    3    3    0  502  0.12819217808E+02 -0.35175075397E+02 -0.86293316724E+01  0.38646552751E+02  0.41800000000E+01 0. -1.
        -11    1    1    2    0    0  0.35213637509E+02 -0.61954157970E+02 -0.23916755323E+02  0.75168671277E+02  0.00000000000E+00 0. -1.
         11    1    1    2    0    0  0.21382134438E+02  0.25251856627E+02 -0.36473534528E+02  0.49246021740E+02  0.00000000000E+00 0.  1.
</event>
<event>
 7    1  0.2612213E-009  0.1027426E+03  0.7561462E-02  0.1274632E+00
         -3   -1    0    0    0  501 -0.00000000000E+00  0.00000000000E+00  0.10556255352E+03  0.10556255352E+03  0.00000000000E+00 0.  1.
          3   -1    0    0  501    0  0.00000000000E+00 -0.00000000000E+00 -0.14813549706E+03  0.14813549706E+03  0.00000000000E+00 0. -1.
         25    2    1    2    0    0 -0.49625558086E+02  0.29824279599E+02 -0.34862868459E+02  0.14217858228E+03  0.12508855260E+03 0.  0.
          5    1    3    3  502    0 -0.48407148122E+02  0.52354289146E+02 -0.70132464078E+02  0.10010124125E+03  0.41800000000E+01 0.  1.
         -5    1    3    3    0  502 -0.12184099640E+01 -0.22530009547E+02  0.35269595620E+02  0.42077341031E+02  0.41800000000E+01 0.  1.
        -11    1    1    2    0    0  0.13063463322E+02  0.34628868984E+02  0.68753568325E-01  0.37011043867E+02  0.00000000000E+00 0.  1.
         11    1    1    2    0    0  0.36562094764E+02 -0.64453148583E+02 -0.77788286481E+01  0.74508424429E+02  0.00000000000E+00 0. -1.
</event>
<event>
 7    1  0.3226927E-009  0.1473179E+03  0.7561462E-02  0.1203808E+00
          1   -1    0    0  501    0  0.00000000000E+00  0.00000000000E+00  0.30047017736E+03  0.30047017736E+03  0.00000000000E+00 0. -1.
         -1   -1    0    0    0  501 -0.00000000000E+00 -0.00000000000E+00 -0.10415136640E+03  0.10415136640E+03  0.00000000000E+00 0.  1.
         25    2    1    2    0    0  0.13796854944E+03  0.16771996663E+02  0.11713096081E+03  0.22064528645E+03  0.12509220578E+03 0.  0.
          5    1    3    3  502    0  0.93247249945E+02 -0.25261799842E+01  0.13870794843E+03  0.16720884715E+03  0.41800000000E+01 0. -1.
         -5    1    3    3    0  502  0.44721299493E+02  0.19298176647E+02 -0.21576987620E+02  0.53436439300E+02  0.41800000000E+01 0. -1.
        -11    1    1    2    0    0 -0.76232100525E+02  0.22159746314E+02  0.44505573254E+01  0.79512231560E+02  0.00000000000E+00 0.  1.
         11    1    1    2    0    0 -0.61736448914E+02 -0.38931742977E+02  0.74737292821E+02  0.10446402574E+03  0.00000000000E+00 0. -1.
</event>
<event>
 7    1  0.2612213E-009  0.1330639E+03  0.7561462E-02  0.1222979E+00
         -1   -1    0    0    0  501 -0.00000000000E+00  0.00000000000E+00  0.23133174358E+02  0.23133174358E+02  0.00000000000E+00 0.  1.
          1   -1    0    0  501    0  0.00000000000E+00 -0.00000000000E+00 -0.95977551359E+03  0.95977551359E+03  0.00000000000E+00 0. -1.
         25    2    1    2    0    0 -0.68432179457E+02  0.36466147339E+02 -0.54259235399E+03  0.56219837701E+03  0.12509120441E+03 0.  0.
          5    1    3    3  502    0 -0.62778346012E+02 -0.16718687229E+02 -0.45388810745E+03  0.45853301050E+03  0.41800000000E+01 0. -1.
         -5    1    3    3    0  502 -0.56538334457E+01  0.53184834568E+02 -0.88704246535E+02  0.10366536651E+03  0.41800000000E+01 0. -1.
        -11    1    1    2    0    0 -0.17407011942E+02  0.32764432808E+02 -0.97909432578E+02  0.10470324307E+03  0.00000000000E+00 0.  1.
         11    1    1    2    0    0  0.85839191399E+02 -0.69230580147E+02 -0.29614055266E+03  0.31600706786E+03  0.00000000000E+00 0. -1.
</event>
<event>
 7    1  0.2612213E-009  0.7754594E+02  0.7561462E-02  0.1336164E+00
         -2   -1    0    0    0  501 -0.00000000000E+00  0.00000000000E+00  0.33739060517E+02  0.33739060517E+02  0.00000000000E+00 0. -1.
          2   -1    0    0  501    0  0.00000000000E+00 -0.00000000000E+00 -0.50337384071E+03  0.50337384071E+03  0.00000000000E+00 0.  1.
         25    2    1    2    0    0 -0.49895675635E+02 -0.32201130019E+01 -0.36936251547E+03  0.39316044688E+03  0.12508605671E+03 0.  0.
          5    1    3    3  502    0 -0.54822132268E+02  0.23226449539E+02 -0.35916252478E+03  0.36408807417E+03  0.41800000000E+01 0.  1.
         -5    1    3    3    0  502  0.49264566330E+01 -0.26446562541E+02 -0.10199990692E+02  0.29072372716E+02  0.41800000000E+01 0.  1.
        -11    1    1    2    0    0  0.67667210696E+01  0.20599743050E+02 -0.94665173459E+02  0.97116594842E+02  0.00000000000E+00 0.  1.
         11    1    1    2    0    0  0.43128954566E+02 -0.17379630048E+02 -0.56070912591E+01  0.46835859498E+02  0.00000000000E+00 0. -1.
</event>
<event>
 7    1  0.2989706E-009  0.1955406E+03  0.7561462E-02  0.1153557E+00
          1   -1    0    0  501    0  0.00000000000E+00  0.00000000000E+00  0.37389511764E+03  0.37389511764E+03  0.00000000000E+00 0. -1.
         -1   -1    0    0    0  501 -0.00000000000E+00 -0.00000000000E+00 -0.13352460032E+03  0.13352460032E+03  0.00000000000E+00 0.  1.
         25    2    1    2    0    0  0.17004832037E+03 -0.43869086140E+02  0.22074374170E+03  0.30857269600E+03  0.12509348997E+03 0.  0.
          5    1    3    3  502    0  0.48314183211E+02 -0.70380425014E+02  0.56815916957E+02  0.10263130782E+03  0.41800000000E+01 0.  1.
         -5    1    3    3    0  502  0.12173413716E+03  0.26511338874E+02  0.16392782475E+03  0.20594138818E+03  0.41800000000E+01 0.  1.
        -11    1    1    2    0    0 -0.84582893226E+02 -0.65582687247E+00  0.49437665416E+02  0.97973357078E+02  0.00000000000E+00 0. -1.
         11    1    1    2    0    0 -0.85465427147E+02  0.44524913012E+02 -0.29810889800E+02  0.10087366488E+03  0.00000000000E+00 0.  1.
</event>
<event>
 7    1  0.2612213E-009  0.1062737E+03  0.7561462E-02  0.1267630E+00
         -2   -1    0    0    0  501 -0.00000000000E+00  0.00000000000E+00  0.36034532045E+03  0.36034532045E+03  0.00000000000E+00 0.  1.
          2   -1    0    0  501    0  0.00000000000E+00 -0.00000000000E+00 -0.68179288931E+02  0.68179288931E+02  0.00000000000E+00 0. -1.
         25    2    1    2    0    0  0.10414059930E+03 -0.54376800972E+01  0.98501888396E+02  0.19032972082E+03  0.12509175762E+03 0.  0.
          5    1    3    3  502    0  0.41599984366E+02  0.76643181385E+01 -0.26352262294E+02  0.50012144524E+02  0.41800000000E+01 0. -1.
         -5    1    3    3    0  502  0.62540614931E+02 -0.13101998236E+02  0.12485415069E+03  0.14031757630E+03  0.41800000000E+01 0. -1.
        -11    1    1    2    0    0 -0.58301351112E+02  0.12500110688E+02  0.27469006787E+02  0.65649422256E+02  0.00000000000E+00 0. -1.
         11    1    1    2    0    0 -0.45839248186E+02 -0.70624305905E+01  0.16619513634E+03  0.17254546630E+03  0.00000000000E+00 0.  1.
</event>
<event>
 7    1  0.2612213E-009  0.2264934E+03  0.7561462E-02  0.1129132E+00
          1   -1    0    0  501    0  0.00000000000E+00  0.00000000000E+00  0.41948827140E+02  0.41948827140E+02  0.00000000000E+00 0. -1.
         -1   -1    0    0    0  501 -0.00000000000E+00 -0.00000000000E+00 -0.13298085850E+04  0.13298085850E+04  0.00000000000E+00 0.  1.
         25    2    1    2    0    0 -0.36930330976E+02  0.20440139505E+03 -0.57894214642E+03  0.62766482345E+03  0.12508134172E+03 0.  0.
          5    1    3    3  502    0 -0.60910200794E+02  0.77859495324E+02 -0.36256167835E+03  0.37581989913E+03  0.41800000000E+01 0. -1.
         -5    1    3    3    0  502  0.23979869818E+02  0.12654189972E+03 -0.21638046807E+03  0.25184492432E+03  0.41800000000E+01 0. -1.
        -11    1    1    2    0    0  0.61209060243E+02 -0.94209338000E+02 -0.38671149724E+03  0.40270054696E+03  0.00000000000E+00 0. -1.
         11    1    1    2    0    0 -0.24278729267E+02 -0.11019205705E+03 -0.32220611416E+03  0.34139204169E+03  0.00000000000E+00 0.  1.
</event>
<event>
 7    1  0.2612213E-009  0.1284462E+03  0.7561462E-02  0.1229780E+00
         -2   -1    0    0    0  501 -0.00000000000E+00  0.00000000000E+00  0.24520616378E+02  0.24520616378E+02  0.00000000000E+00 0.  1.
          2   -1    0    0  501    0  0.00000000000E+00 -0.00000000000E+00 -0.96663240069E+03  0.96663240069E+03  0.00000000000E+00 0. -1.
         25    2    1    2    0    0 -0.66342460895E+01  0.10860014040E+03 -0.47882597307E+03  0.50671549434E+03  0.12509306939E+03 0.  0.
          5    1    3    3  502    0  0.21979417443E+02  0.17391997666E+02 -0.32030410400E+03  0.32155523291E+03  0.41800000000E+01 0. -1.
         -5    1    3    3    0  502 -0.28613663533E+02  0.91208142729E+02 -0.15852186907E+03  0.18516026143E+03  0.41800000000E+01 0. -1.
        -11    1    1    2    0    0 -0.13862158046E+02 -0.11133420023E+03 -0.43598759731E+03  0.45019179088E+03  0.00000000000E+00 0. -1.
         11    1    1    2    0    0  0.20496404135E+02  0.27340598306E+01 -0.27298213936E+02  0.34245731847E+02  0.00000000000E+00 0.  1.
</event>
<event>
 7    1  0.2612213E-009  0.1082069E+03  0.7561462E-02  0.1263927E+00
          2   -1    0    0  501    0  0.00000000000E+00  0.00000000000E+00  0.54895733312E+03  0.54895733312E+03  0.00000000000E+00 0. -1.
         -2   -1    0    0    0  501 -0.00000000000E+00 -0.00000000000E+00 -0.31513515320E+02  0.31513515320E+02  0.00000000000E+00 0.  1.
         25    2    1    2    0    0 -0.37150066613E+02  0.22599249050E+02  0.15311123693E+03  0.20242940157E+03  0.12507501046E+03 0.  0.
          5    1    3    3  502    0  0.32601451494E+02 -0.15060526892E+02  0.80044902907E+01  0.37029965901E+02  0.41800000000E+01 0. -1.
         -5    1    3    3    0  502 -0.69751518107E+02  0.37659775942E+02  0.14510674664E+03  0.16539943567E+03  0.41800000000E+01 0. -1.
        -11    1    1    2    0    0  0.42215088611E+02 -0.54298962738E+02  0.24751172652E+03  0.25689014350E+03  0.00000000000E+00 0.  1.
         11    1    1    2    0    0 -0.50650219973E+01  0.31699713688E+02  0.11682085436E+03  0.12115130337E+03  0.00000000000E+00 0. -1.
</event>
<event>
 7    1  0.2612213E-009  0.1262781E+03  0.7561462E-02  0.1233085E+00
          2   -1    0    0  501    0  0.00000000000E+00  0.00000000000E+00  0.46878512361E+03  0.46878512361E+03  0.00000000000E+00 0. -1.
         -2   -1    0    0    0  501 -0.00000000000E+00 -0.00000000000E+00 -0.40157155018E+02  0.40157155018E+02  0.00000000000E+00 0.  1.
         25    2    1    2    0    0 -0.56154610969E+02  0.54673373447E+02  0.18291013117E+03  0.23504367381E+03  0.12508754701E+03 0.  0.
          5    1    3    3  502    0 -0.68479210518E+01 -0.39827121731E+02  0.43782193497E+02  0.59728104905E+02  0.41800000000E+01 0.  1.
         -5    1    3    3    0  502 -0.49306689917E+02  0.94500495178E+02  0.13912793767E+03  0.17531556891E+03  0.41800000000E+01 0.  1.
        -11    1    1    2    0    0  0.35131018724E+02 -0.70615986172E+02  0.10833329426E+03  0.13400339035E+03  0.00000000000E+00 0.  1.
         11    1    1    2    0    0  0.21023592245E+02  0.15942612725E+02  0.13738454316E+03  0.13989521447E+03  0.00000000000E+00 0. -1.
</event>
<event>
 7    1  0.2612213E-009  0.1184471E+03  0.7561462E-02  0.1245681E+00
         -3   -1    0    0    0  501 -0.00000000000E+00  0.00000000000E+00  0.42398000473E+03  0.42398000473E+03  0.00000000000E+00 0.  1.
          3   -1    0    0  501    0  0.00000000000E+00 -0.00000000000E+00 -0.40890285683E+02  0.40890285683E+02  0.00000000000E+00 0. -1.
         25    2    1    2    0    0  0.17399312503E+02  0.73500618950E+02  0.22121442446E+03  0.26512284620E+03  0.12509686219E+03 0.  0.
          5    1    3    3  502    0  0.32740735535E+01  0.94839354391E+02  0.21945935040E+03  0.23913406611E+03  0.41800000000E+01 0. -1.
         -5    1    3    3    0  502  0.14125238949E+02 -0.21338735441E+02  0.17550740581E+01  0.25988780089E+02  0.41800000000E+01 0. -1.
        -11    1    1    2    0    0  0.32989571094E+02 -0.51121659671E+02  0.98186420065E+02  0.11550891296E+03  0.00000000000E+00 0.  1.
         11    1    1    2    0    0 -0.50388883597E+02 -0.22378959279E+02  0.63688874526E+02  0.84238531249E+02  0.00000000000E+00 0. -1.
</event>
<event>
 7    1  0.2612213E-009  0.1058218E+03  0.7561462E-02  0.1268509E+00
         -4   -1    0    0    0  501 -0.00000000000E+00  0.00000000000E+00  0.10446834100E+03  0.10446834100E+03  0.00000000000E+00 0.  1.
          4   -1    0    0  501    0  0.00000000000E+00 -0.00000000000E+00 -0.14094855024E+03  0.14094855024E+03  0.00000000000E+00 0. -1.
         25    2    1    2    0    0  0.12515232317E+02 -0.50025712130E+02 -0.27365427885E+02  0.13803696891E+03  0.12508451235E+03 0.  0.
          5    1    3    3  502    0 -0.44058615399E+02  0.30837329082E+01  0.18202683629E+02  0.47952904925E+02  0.41800000000E+01 0. -1.
         -5    1    3    3    0  502  0.56573847715E+02 -0.53109445038E+02 -0.45568111514E+02  0.90084063988E+02  0.41800000000E+01 0. -1.
        -11    1    1    2    0    0  0.27526709114E+02  0.28214512629E+01 -0.31158800151E+02  0.41671946543E+02  0.00000000000E+00 0. -1.
         11    1    1    2    0    0 -0.40041941431E+02  0.47204260867E+02  0.22044018792E+02  0.65707975787E+02  0.00000000000E+00 0.  1.
</event>
<event>
 7    1  0.2612213E-009  0.1439688E+03  0.7561462E-02  0.1208086E+00
         -1   -1    0    0    0  501 -0.00000000000E+00  0.00000000000E+00  0.32846524373E+02  0.32846524373E+02  0.00000000000E+00 0.  1.
          1   -1    0    0  501    0  0.00000000000E+00 -0.00000000000E+00 -0.86302857565E+03  0.86302857565E+03  0.00000000000E+00 0. -1.
         25    2    1    2    0    0  0.51641358328E+02  0.11566257102E+03 -0.38422433220E+03  0.42346218608E+03  0.12508886984E+03 0.  0.
          5    1    3    3  502    0  0.29693684288E+02  0.11213494882E+03 -0.15770845278E+03  0.19581978989E+03  0.41800000000E+01 0.  1.
         -5    1    3    3    0  502  0.21947674041E+02  0.35276221998E+01 -0.22651587942E+03  0.22764239619E+03  0.41800000000E+01 0.  1.
        -11    1    1    2    0    0 -0.12335033135E+01 -0.94606588305E+02 -0.21188471632E+03  0.23204969530E+03  0.00000000000E+00 0. -1.
         11    1    1    2    0    0 -0.50407855015E+02 -0.21055982713E+02 -0.23407300276E+03  0.24036321864E+03  0.00000000000E+00 0.  1.
</event>
<event>
 7    1  0.2612213E-009  0.1741982E+03  0.7561462E-02  0.1173539E+00
         -4   -1    0    0    0  501 -0.00000000000E+00  0.00000000000E+00  0.32458311558E+03  0.32458311558E+03  0.00000000000E+00 0.  1.
          4   -1    0    0  501    0  0.00000000000E+00 -0.00000000000E+00 -0.95439039518E+02  0.95439039518E+02  0.00000000000E+00 0. -1.
         25    2    1    2    0    0  0.13307829701E+03 -0.33666518278E+02  0.99886388925E+02  0.21087423824E+03  0.12508951223E+03 0.  0.
          5    1    3    3  502    0  0.58178009016E+02 -0.78250266986E+02  0.42625688391E+02  0.10649979684E+03  0.41800000000E+01 0. -1.
         -5    1    3    3    0  502  0.74900287995E+02  0.44583748709E+02  0.57260700534E+02  0.10437444139E+03  0.41800000000E+01 0. -1.
        -11    1    1    2    0    0 -0.14428821083E+03  0.19702992951E+02  0.12140376152E+03  0.18959474947E+03  0.00000000000E+00 0.  1.
         11    1    1    2    0    0  0.11209913821E+02  0.13963525327E+02  0.78539256191E+01  0.19553167392E+02  0.00000000000E+00 0. -1.
</event>
<event>
 7    1  0.2612213E-009  0.1195709E+03  0.7561462E-02  0.1243807E+00
         -1   -1    0    0    0  501 -0.00000000000E+00  0.00000000000E+00  0.34962201610E+02  0.34962201610E+02  0.00000000000E+00 0.  1.
          1   -1    0    0  501    0  0.00000000000E+00 -0.00000000000E+00 -0.57200045099E+03  0.57200045099E+03  0.00000000000E+00 0. -1.
         25    2    1    2    0    0  0.55520186813E+02  0.69653675623E+02 -0.31874111846E+03  0.35380556253E+03  0.12509336437E+03 0.  0.
          5    1    3    3  502    0  0.18028518816E+02  0.84054675423E+02 -0.10257499659E+03  0.13390040432E+03  0.41800000000E+01 0. -1.
         -5    1    3    3    0  502  0.37491667998E+02 -0.14400999800E+02 -0.21616612187E+03  0.21990515822E+03  0.41800000000E+01 0. -1.
        -11    1    1    2    0    0 -0.24734455198E+02 -0.77142625813E+02 -0.20176231846E+03  0.21741851610E+03  0.00000000000E+00 0. -1.
         11    1    1    2    0    0 -0.30785731615E+02  0.74889501896E+01 -0.16534812447E+02  0.35738573960E+02  0.00000000000E+00 0.  1.
</event>
<event>
 7    1  0.2612213E-009  0.1316816E+03  0.7561462E-02  0.1224982E+00
          2   -1    0    0  501    0  0.00000000000E+00  0.00000000000E+00  0.10787035342E+04  0.10787035342E+04  0.00000000000E+00 0. -1.
         -2   -1    0    0    0  501 -0.00000000000E+00 -0.00000000000E+00 -0.19110093296E+02  0.19110093296E+02  0.00000000000E+00 0.  1.
         25    2    1    2    0    0  0.73823600812E+02 -0.35415639268E+02  0.75451938686E+03  0.76918866795E+03  0.12509000841E+03 0.  0.
          5    1    3    3  502    0  0.19422567552E+02  0.42525695504E+02  0.37497871792E+03  0.37790499098E+03  0.41800000000E+01 0.  1.
         -5    1    3    3    0  502  0.54401033260E+02 -0.77941334773E+02  0.37954066894E+03  0.39128367697E+03  0.41800000000E+01 0.  1.
        -11    1    1    2    0    0 -0.93785067461E+02  0.37931357409E+02  0.26773317001E+03  0.28620879979E+03  0.00000000000E+00 0. -1.
         11    1    1    2    0    0  0.19961466649E+02 -0.25157181405E+01  0.37340884038E+02  0.42416159766E+02  0.00000000000E+00 0.  1.
</event>
<event>
 7    1  0.2612213E-009  0.2468090E+03  0.7561462E-02  0.1115338E+00
          1   -1    0    0  501    0  0.00000000000E+00  0.00000000000E+00  0.11345294571E+04  0.11345294571E+04  0.00000000000E+00 0. -1.
         -1   -1    0    0    0  501 -0.00000000000E+00 -0.00000000000E+00 -0.59883005072E+02  0.59883005072E+02  0.00000000000E+00 0.  1.
         25    2    1    2    0    0  0.11330025873E+03  0.19150844006E+03  0.73924641121E+03  0.78207686447E+03  0.12508610720E+03 0.  0.
          5    1    3    3  502    0  0.63623180703E+02  0.19512160306E+03  0.59271164767E+03  0.62725187826E+03  0.41800000000E+01 0. -1.
         -5    1    3    3    0  502  0.49677078027E+02 -0.36131630025E+01  0.14653476354E+03  0.15482498621E+03  0.41800000000E+01 0. -1.
        -11    1    1    2    0    0 -0.18307154408E+02 -0.11483147665E+03  0.18660397267E+03  0.21986919417E+03  0.00000000000E+00 0.  1.
         11    1    1    2    0    0 -0.94993104323E+02 -0.76676963416E+02  0.14879606813E+03  0.19246640351E+03  0.00000000000E+00 0. -1.
</event>
<event>
 7    1  0.2612213E-009  0.8090811E+02  0.7561462E-02  0.1326494E+00
         -2   -1    0    0    0  501 -0.00000000000E+00  0.00000000000E+00  0.17657238383E+03  0.17657238383E+03  0.00000000000E+00 0.  1.
          2   -1    0    0  501    0  0.00000000000E+00 -0.00000000000E+00 -0.76045260832E+02  0.76045260832E+02  0.00000000000E+00 0. -1.
         25    2    1    2    0    0 -0.64786895982E+01  0.23941545978E+02  0.20475076887E+02  0.12915852765E+03  0.12509006934E+03 0.  0.
          5    1    3    3  502    0 -0.77460406585E+01 -0.22992729352E+02  0.61767287722E+02  0.66493134845E+02  0.41800000000E+01 0.  1.
         -5    1    3    3    0  502  0.12673510603E+01  0.46934275330E+02 -0.41292210836E+02  0.62665392803E+02  0.41800000000E+01 0.  1.
        -11    1    1    2    0    0 -0.39598927872E+02 -0.18348701090E+02  0.56548848679E+02  0.71431941085E+02  0.00000000000E+00 0.  1.
         11    1    1    2    0    0  0.46077617470E+02 -0.55928448879E+01  0.23503197433E+02  0.52027175930E+02  0.00000000000E+00 0. -1.
</event>
<event>
 7    1  0.2612213E-009  0.9725550E+02  0.7561462E-02  0.1286175E+00
         -2   -1    0    0    0  501 -0.00000000000E+00  0.00000000000E+00  0.14177399693E+03  0.14177399693E+03  0.00000000000E+00 0.  1.
          2   -1    0    0  501    0  0.00000000000E+00 -0.00000000000E+00 -0.10968525723E+03  0.10968525723E+03  0.00000000000E+00 0. -1.
         25    2    1    2    0    0 -0.47180511928E+02 -0.40263053848E+02  0.17345029685E+02  0.14069807697E+03  0.12509190460E+03 0.  0.
          5    1    3    3  502    0  0.33784194975E+02  0.54836544998E+01 -0.20608031943E+02  0.40169710944E+02  0.41800000000E+01 0.  1.
         -5    1    3    3    0  502 -0.80964706904E+02 -0.45746708348E+02  0.37953061627E+02  0.10052836602E+03  0.41800000000E+01 0.  1.
        -11    1    1    2    0    0  0.12742058339E+02  0.27330618510E+02  0.50912110609E+02  0.59172339531E+02  0.00000000000E+00 0.  1.
         11    1    1    2    0    0  0.34438453589E+02  0.12932435338E+02 -0.36168400592E+02  0.51588837657E+02  0.00000000000E+00 0. -1.
</event>
<event>
 6    1  0.2612213E-009  0.3179569E+03  0.7561462E-02  0.1076593E+00
          3   -1    0    0  501    0  0.00000000000E+00  0.00000000000E+00  0.28577577787E+03  0.28577577787E+03  0.00000000000E+00 0. -1.
         -3   -1    0    0    0  501 -0.00000000000E+00 -0.00000000000E+00 -0.36437689671E+03  0.36437689671E+03  0.00000000000E+00 0.  1.
          5    1    1    2  502    0  0.13990802935E+03 -0.10997633366E+03  0.17608490310E+02  0.17887588427E+03  0.41800000000E+01 0.  1.
         -5    1    1    2    0  502  0.14343108749E+03  0.14166529282E+01 -0.45188469809E+02  0.15044585061E+03  0.41800000000E+01 0.  1.
        -11    1    1    2    0    0 -0.81975265976E+02  0.73325516843E+02  0.61865774076E+00  0.10998617363E+03  0.00000000000E+00 0. -1.
         11    1    1    2    0    0 -0.20136385086E+03  0.35234163890E+02 -0.51639797083E+02  0.21084476608E+03  0.00000000000E+00 0.  1.
</event>
<event>
 7    1  0.2612213E-009  0.9934687E+02  0.7561462E-02  0.1281675E+00
          3   -1    0    0  501    0  0.00000000000E+00  0.00000000000E+00  0.22487739125E+03  0.22487739125E+03  0.00000000000E+00 0. -1.
         -3   -1    0    0    0  501 -0.00000000000E+00 -0.00000000000E+00 -0.63558328729E+02  0.63558328729E+02  0.00000000000E+00 0.  1.
         25    2    1    2    0    0  0.24026129423E+02 -0.28630994551E+02  0.74688441269E+02  0.15040865209E+03  0.12508961036E+03 0.  0.
          5    1    3    3  502    0  0.61161216400E+02 -0.17876376362E+02 -0.25774698926E+01  0.63909114956E+02  0.41800000000E+01 0. -1.
         -5    1    3    3    0  502 -0.37135086977E+02 -0.10754618189E+02  0.77265911162E+02  0.86499537137E+02  0.41800000000E+01 0. -1.
        -11    1    1    2    0    0  0.33753784898E+02  0.12018086284E+02  0.64836715815E+02  0.74078013678E+02  0.00000000000E+00 0.  1.
         11    1    1    2    0    0 -0.57779914321E+02  0.16612908267E+02  0.21793905438E+02  0.63949054210E+02  0.00000000000E+00 0. -1.
</event>
<event>
 7    1  0.2612213E-009  0.1062187E+03  0.7561462E-02  0.1267737E+00
          1   -1    0    0  501    0  0.00000000000E+00  0.00000000000E+00  0.69221316822E+02  0.69221316822E+02  0.00000000000E+00 0. -1.
         -1   -1    0    0    0  501 -0.00000000000E+00 -0.00000000000E+00 -0.19693787686E+03  0.19693787686E+03  0.00000000000E+00 0.  1.
         25    2    1    2    0    0  0.39832456871E+02 -0.53514892562E+01 -0.93482323862E+02  0.16125498350E+03  0.12509581036E+03 0.  0.
          5    1    3    3  502    0  0.78070847242E+02  0.22525952534E+02 -0.43355873089E+02  0.92193708343E+02  0.41800000000E+01 0. -1.
         -5    1    3    3    0  502 -0.38238390372E+02 -0.27877441790E+02 -0.50126450774E+02  0.69061275156E+02  0.41800000000E+01 0. -1.
        -11    1    1    2    0    0 -0.32976938816E+02 -0.31786914412E+02  0.98555875451E+01  0.46851030163E+02  0.00000000000E+00 0. -1.
         11    1    1    2    0    0 -0.68555180544E+01  0.37138403668E+02 -0.44089823721E+02  0.58053180021E+02  0.00000000000E+00 0.  1.
</event>
<event>
 7    1  0.2612213E-009  0.9001120E+02  0.7561462E-02  0.1302825E+00
          1   -1    0    0  501    0  0.00000000000E+00  0.00000000000E+00  0.43717721037E+02  0.43717721037E+02  0.00000000000E+00 0. -1.
         -1   -1    0    0    0  501 -0.00000000000E+00 -0.00000000000E+00 -0.27914454736E+03  0.27914454736E+03  0.00000000000E+00 0.  1.
         25    2    1    2    0    0 -0.24874912178E+01  0.24490613612E+02 -0.13960253666E+03  0.18906408614E+03  0.12510148943E+03 0.  0.
          5    1    3    3  502    0  0.50188190497E+02 -0.21179539818E+02 -0.81992299865E+02  0.98527341431E+02  0.41800000000E+01 0.  1.
         -5    1    3    3    0  502 -0.52675681715E+02  0.45670153430E+02 -0.57610236793E+02  0.90536744705E+02  0.41800000000E+01 0.  1.
        -11    1    1    2    0    0 -0.22966738758E+02 -0.18257345129E+02 -0.10261449555E+03  0.10672645613E+03  0.00000000000E+00 0.  1.
         11    1    1    2    0    0  0.25454229976E+02 -0.62332684825E+01  0.67902058900E+01  0.27071726130E+02  0.00000000000E+00 0. -1.
</event>
<event>
 7    1  0.2612213E-009  0.1306677E+03  0.7561462E-02  0.1226468E+00
         -2   -1    0    0    0  501 -0.00000000000E+00  0.00000000000E+00  0.75329844129E+02  0.75329844129E+02  0.00000000000E+00 0.  1.
          2   -1    0    0  501    0  0.00000000000E+00 -0.00000000000E+00 -0.29707371093E+03  0.29707371093E+03  0.00000000000E+00 0. -1.
         25    2    1    2    0    0 -0.98241270197E+02 -0.18265709270E+02 -0.92663957285E+02  0.18498430645E+03  0.12509037273E+03 0.  0.
          5    1    3    3  502    0 -0.85684780267E+02 -0.53615384441E+02 -0.20028233439E+02  0.10312658994E+03  0.41800000000E+01 0.  1.
         -5    1    3    3    0  502 -0.12556489930E+02  0.35349675171E+02 -0.72635723846E+02  0.81857716513E+02  0.41800000000E+01 0.  1.
        -11    1    1    2    0    0  0.62916590485E+02  0.45648094818E+02 -0.11811675599E+03  0.14139948361E+03  0.00000000000E+00 0. -1.
         11    1    1    2    0    0  0.35324679712E+02 -0.27382385549E+02 -0.10963153524E+02  0.46019764996E+02  0.00000000000E+00 0.  1.
</event>
<event>
 7    1  0.2612213E-009  0.1064315E+03  0.7561462E-02  0.1267324E+00
         -2   -1    0    0    0  501 -0.00000000000E+00  0.00000000000E+00  0.47199900737E+02  0.47199900737E+02  0.00000000000E+00 0.  1.
          2   -1    0    0  501    0  0.00000000000E+00 -0.00000000000E+00 -0.39277220860E+03  0.39277220860E+03  0.00000000000E+00 0. -1.
         25    2    1    2    0    0  0.70013238815E+02  0.12726805947E+02 -0.12093232996E+03  0.18798777536E+03  0.12510375717E+03 0.  0.
          5    1    3    3  502    0  0.57482379052E+02  0.46247558407E+02 -0.13115182839E+03  0.15053682291E+03  0.41800000000E+01 0.  1.
         -5    1    3    3    0  502  0.12530859763E+02 -0.33520752459E+02  0.10219498433E+02  0.37450952459E+02  0.41800000000E+01 0.  1.
        -11    1    1    2    0    0 -0.56471748327E+02 -0.42203542380E+02 -0.94723569989E+02  0.11807943115E+03  0.00000000000E+00 0.  1.
         11    1    1    2    0    0 -0.13541490488E+02  0.29476736433E+02 -0.12991640791E+03  0.13390490282E+03  0.00000000000E+00 0. -1.
</event>
<event>
 7    1  0.2612213E-009  0.1185237E+03  0.7561462E-02  0.1245552E+00
          2   -1    0    0  501    0  0.00000000000E+00  0.00000000000E+00  0.12403355432E+04  0.12403355432E+04  0.00000000000E+00 0.  1.
         -2   -1    0    0    0  501 -0.00000000000E+00 -0.00000000000E+00 -0.15036396411E+02  0.15036396411E+02  0.00000000000E+00 0. -1.
         25    2    1    2    0    0  0.42102670780E+02 -0.73558154559E+02  0.63345750434E+03  0.65122726143E+03  0.12508037110E+03 0.  0.
          5    1    3    3  502    0  0.45174736501E+02 -0.90193141605E+02  0.62252035270E+03  0.63065412196E+03  0.41800000000E+01 0.  1.
         -5    1    3    3    0  502 -0.30720657208E+01  0.16634987046E+02  0.10937151635E+02  0.20573139471E+02  0.41800000000E+01 0.  1.
        -11    1    1    2    0    0  0.10688759209E+02 -0.13273175306E+02  0.49147724600E+02  0.52018511989E+02  0.00000000000E+00 0. -1.
         11    1    1    2    0    0 -0.52791429989E+02  0.86831329865E+02  0.54269391790E+03  0.55212616624E+03  0.00000000000E+00 0.  1.
</event>
<event>
 7    1  0.2612213E-009  0.9058313E+02  0.7561462E-02  0.1301446E+00
          2   -1    0    0  501    0  0.00000000000E+00  0.00000000000E+00  0.32667075096E+03  0.32667075096E+03  0.00000000000E+00 0. -1.
         -2   -1    0    0    0  501 -0.00000000000E+00 -0.00000000000E+00 -0.39384014024E+02  0.39384014024E+02  0.00000000000E+00 0.  1.
         25    2    1    2    0    0  0.63737306013E+01 -0.97220694950E+00  0.23387172361E+03  0.26530241033E+03  0.12509123149E+03 0.  0.
          5    1    3    3  502    0 -0.25999492623E+02 -0.54840402854E+02  0.94926377796E+02  0.11274720841E+03  0.41800000000E+01 0.  1.
         -5    1    3    3    0  502  0.32373223225E+02  0.53868195905E+02  0.13894534581E+03  0.15255520193E+03  0.41800000000E+01 0.  1.
        -11    1    1    2    0    0  0.10424680015E+02  0.25538507835E+02  0.63578253707E+02  0.69304283276E+02  0.00000000000E+00 0.  1.
         11    1    1    2    0    0 -0.16798410616E+02 -0.24566300886E+02 -0.10163240377E+02  0.31448071378E+02  0.00000000000E+00 0. -1.
</event>
<event>
 7    1  0.2612213E-009  0.1443019E+03  0.7561462E-02  0.1207655E+00
         -2   -1    0    0    0  501 -0.00000000000E+00  0.00000000000E+00  0.91915684717E+02  0.91915684717E+02  0.00000000000E+00 0.  1.
          2   -1    0    0  501    0  0.00000000000E+00 -0.00000000000E+00 -0.25008318504E+03  0.25008318504E+03  0.00000000000E+00 0. -1.
         25    2    1    2    0    0  0.81644538475E+01 -0.10083453319E+03 -0.12577392528E+03  0.20420242582E+03  0.12508112984E+03 0.  0.
          5    1    3    3  502    0  0.64446146179E+02 -0.51508758303E+02 -0.86398613516E+02  0.11953514444E+03  0.41800000000E+01 0.  1.
         -5    1    3    3    0  502 -0.56281692331E+02 -0.49325774886E+02 -0.39375311767E+02  0.84667281381E+02  0.41800000000E+01 0.  1.
        -11    1    1    2    0    0 -0.45868176487E+02  0.51821398977E+02 -0.28491231076E+01  0.69263731553E+02  0.00000000000E+00 0. -1.
         11    1    1    2    0    0  0.37703722640E+02  0.49013134211E+02 -0.29544451929E+02  0.68532712378E+02  0.00000000000E+00 0.  1.
</event>
<event>
 7    1  0.2612213E-009  0.1229919E+03  0.7561462E-02  0.1238241E+00
          1   -1    0    0  501    0  0.00000000000E+00  0.00000000000E+00  0.17788680444E+03  0.17788680444E+03  0.00000000000E+00 0. -1.
         -1   -1    0    0    0  501 -0.00000000000E+00 -0.00000000000E+00 -0.99866170290E+02  0.99866170290E+02  0.00000000000E+00 0.  1.
         25    2    1    2    0    0  0.88143790057E+01 -0.76446010867E+02  0.36109471249E+02  0.15124394811E+03  0.12509657099E+03 0.  0.
          5    1    3    3  502    0  0.51977301508E+02 -0.16205631061E+02 -0.20047045500E+02  0.58168881573E+02  0.41800000000E+01 0.  1.
         -5    1    3    3    0  502 -0.43162922503E+02 -0.60240379806E+02  0.56156516749E+02  0.93075066540E+02  0.41800000000E+01 0.  1.
        -11    1    1    2    0    0 -0.48791109622E+02  0.41325885976E+02  0.34875820482E+02  0.72833536809E+02  0.00000000000E+00 0. -1.
         11    1    1    2    0    0  0.39976730616E+02  0.35120124891E+02  0.70353424190E+01  0.53675489807E+02  0.00000000000E+00 0.  1.
</event>
<event>
 7    1  0.2612213E-009  0.1024118E+03  0.7561462E-02  0.1275304E+00
          1   -1    0    0  501    0  0.00000000000E+00  0.00000000000E+00  0.41624955955E+03  0.41624955955E+03  0.00000000000E+00 0. -1.
         -1   -1    0    0    0  501 -0.00000000000E+00 -0.00000000000E+00 -0.42682503148E+02  0.42682503148E+02  0.00000000000E+00 0.  1.
         25    2    1    2    0    0  0.13840451998E+02 -0.72497731199E+02  0.21954954901E+03  0.26324514737E+03  0.12509406064E+03 0.  0.
          5    1    3    3  502    0 -0.12798105427E+02  0.62195687717E+01 -0.10788021918E+02  0.18339257213E+02  0.41800000000E+01 0.  1.
         -5    1    3    3    0  502  0.26638557425E+02 -0.78717299970E+02  0.23033757093E+03  0.24490589016E+03  0.41800000000E+01 0.  1.
        -11    1    1    2    0    0 -0.11087175628E+01  0.87273840288E+02  0.15301355732E+03  0.17615646789E+03  0.00000000000E+00 0. -1.
         11    1    1    2    0    0 -0.12731734435E+02 -0.14776109089E+02  0.10039500751E+01  0.19530447442E+02  0.00000000000E+00 0.  1.
</event>
<event>
 7    1  0.2612213E-009  0.1261806E+03  0.7561462E-02  0.1233236E+00
          1   -1    0    0  501    0  0.00000000000E+00  0.00000000000E+00  0.55894602068E+03  0.55894602068E+03  0.00000000000E+00 0. -1.
         -1   -1    0    0    0  501 -0.00000000000E+00 -0.00000000000E+00 -0.39355165362E+02  0.39355165362E+02  0.00000000000E+00 0.  1.
         25    2    1    2    0    0  0.61973792163E+02 -0.65240252148E+02  0.39440932790E+03  0.42345837946E+03  0.12514487518E+03 0.  0.
          5    1    3    3  502    0 -0.13553898179E+02 -0.51558867487E+02  0.28359292765E+03  0.28859044680E+03  0.41800000000E+01 0.  1.
         -5    1    3    3    0  502  0.75527690342E+02 -0.13681384660E+02  0.11081640025E+03  0.13486793266E+03  0.41800000000E+01 0.  1.
        -11    1    1    2    0    0  0.14139452215E+02  0.39037112929E+02  0.40298733334E+02  0.57860247174E+02  0.00000000000E+00 0. -1.
         11    1    1    2    0    0 -0.76113244378E+02  0.26203139219E+02  0.84882794084E+02  0.11698255941E+03  0.00000000000E+00 0.  1.
</event>
<event>
 7    1  0.2612213E-009  0.5881161E+02  0.7561462E-02  0.1402888E+00
         -1   -1    0    0    0  501 -0.00000000000E+00  0.00000000000E+00  0.16564272040E+03  0.16564272040E+03  0.00000000000E+00 0.  1.
          1   -1    0    0  501    0  0.00000000000E+00 -0.00000000000E+00 -0.79751007011E+02  0.79751007011E+02  0.00000000000E+00 0. -1.
         25    2    1    2    0    0 -0.30731270836E+02  0.20784400957E+02  0.51384799225E+02  0.14023443623E+03  0.12509555221E+03 0.  0.
          5    1    3    3  502    0 -0.13651895281E+02 -0.23578374495E+02  0.79983994262E+02  0.84600388455E+02  0.41800000000E+01 0.  1.
         -5    1    3    3    0  502 -0.17079375555E+02  0.44362775452E+02 -0.28599195037E+02  0.55634047776E+02  0.41800000000E+01 0.  1.
        -11    1    1    2    0    0  0.13723012283E+02 -0.21282340738E+02 -0.29529646955E+02  0.38900631649E+02  0.00000000000E+00 0. -1.
         11    1    1    2    0    0  0.17008258553E+02  0.49793978066E+00  0.64036561123E+02  0.66258659536E+02  0.00000000000E+00 0.  1.
</event>
<event>
 7    1  0.2612213E-009  0.1133509E+03  0.7561462E-02  0.1254487E+00
          2   -1    0    0  501    0  0.00000000000E+00  0.00000000000E+00  0.32927157835E+02  0.32927157835E+02  0.00000000000E+00 0. -1.
         -2   -1    0    0    0  501 -0.00000000000E+00 -0.00000000000E+00 -0.52694467677E+03  0.52694467677E+03  0.00000000000E+00 0.  1.
         25    2    1    2    0    0 -0.24377554400E+02 -0.45052189591E+02 -0.33481922915E+03  0.36107637751E+03  0.12509304234E+03 0.  0.
          5    1    3    3  502    0  0.31066919462E+02 -0.61366336021E+02 -0.11799628523E+03  0.13664397685E+03  0.41800000000E+01 0. -1.
         -5    1    3    3    0  502 -0.55444473862E+02  0.16314146429E+02 -0.21682294392E+03  0.22443240066E+03  0.41800000000E+01 0. -1.
        -11    1    1    2    0    0  0.52919528869E+02  0.87017813113E+01 -0.13779406901E+03  0.14786278432E+03  0.00000000000E+00 0.  1.
         11    1    1    2    0    0 -0.28541974469E+02  0.36350408280E+02 -0.21404220777E+02  0.50932672773E+02  0.00000000000E+00 0. -1.
</event>
<event>
 7    1  0.2612213E-009  0.1157016E+03  0.7561462E-02  0.1250361E+00
         -1   -1    0    0    0  501 -0.00000000000E+00  0.00000000000E+00  0.11969133546E+03  0.11969133546E+03  0.00000000000E+00 0.  1.
          1   -1    0    0  501    0  0.00000000000E+00 -0.00000000000E+00 -0.25141007567E+03  0.25141007567E+03  0.00000000000E+00 0. -1.
         25    2    1    2    0    0 -0.15364517351E+02 -0.74562229972E+02  0.24669894041E+02  0.14849647641E+03  0.12508799024E+03 0.  0.
          5    1    3    3  502    0 -0.55279593411E+02 -0.88048636650E+02  0.19232642142E+02  0.10581003160E+03  0.41800000000E+01 0. -1.
         -5    1    3    3    0  502  0.39915076060E+02  0.13486406678E+02  0.54372518995E+01  0.42686444806E+02  0.41800000000E+01 0. -1.
        -11    1    1    2    0    0 -0.12491356079E+02  0.29563238963E+02  0.20424144524E+02  0.38041618712E+02  0.00000000000E+00 0.  1.
         11    1    1    2    0    0  0.27855873430E+02  0.44998991008E+02 -0.17681277877E+03  0.18456331600E+03  0.00000000000E+00 0. -1.
</event>
<event>
 7    1  0.2612213E-009  0.1502231E+03  0.7561462E-02  0.1200199E+00
          2   -1    0    0  501    0  0.00000000000E+00  0.00000000000E+00  0.34330637729E+03  0.34330637729E+03  0.00000000000E+00 0. -1.
         -2   -1    0    0    0  501 -0.00000000000E+00 -0.00000000000E+00 -0.80194123414E+02  0.80194123414E+02  0.00000000000E+00 0.  1.
         25    2    1    2    0    0 -0.10947843413E+03 -0.43823123525E+02  0.19418705193E+03  0.25934974187E+03  0.12509070221E+03 0.  0.
          5    1    3    3  502    0 -0.53393120928E+02  0.35543632852E+02  0.36068642424E+02  0.73706136550E+02  0.41800000000E+01 0.  1.
         -5    1    3    3    0  502 -0.56085313202E+02 -0.79366756377E+02  0.15811840950E+03  0.18564360532E+03  0.41800000000E+01 0.  1.
        -11    1    1    2    0    0  0.32360913373E+02  0.52102286251E+02  0.14563532054E+01  0.61351429581E+02  0.00000000000E+00 0.  1.
         11    1    1    2    0    0  0.77117520757E+02 -0.82791627267E+01  0.67468848750E+02  0.10279932925E+03  0.00000000000E+00 0. -1.
</event>
<event>
 7    1  0.2612213E-009  0.2082064E+03  0.7561462E-02  0.1142994E+00
          2   -1    0    0  501    0  0.00000000000E+00  0.00000000000E+00  0.38729921080E+02  0.38729921080E+02  0.00000000000E+00 0. -1.
         -2   -1    0    0    0  501 -0.00000000000E+00 -0.00000000000E+00 -0.12320345061E+04  0.12320345061E+04  0.00000000000E+00 0.  1.
         25    2    1    2    0    0 -0.18877638495E+03 -0.13681183270E+02 -0.63298524647E+03  0.67241498215E+03  0.12509151724E+03 0.  0.
          5    1    3    3  502    0 -0.12627817534E+03  0.30913714708E+02 -0.25028869483E+03  0.28207044951E+03  0.41800000000E+01 0. -1.
         -5    1    3    3    0  502 -0.62498209603E+02 -0.44594897978E+02 -0.38269655164E+03  0.39034453265E+03  0.41800000000E+01 0. -1.
        -11    1    1    2    0    0  0.17204823655E+03 -0.18639184348E+02 -0.47729029670E+03  0.50769483178E+03  0.00000000000E+00 0.  1.
         11    1    1    2    0    0  0.16728148399E+02  0.32320367618E+02 -0.83029041806E+02  0.90654613204E+02  0.00000000000E+00 0. -1.
</event>
<event>
 7    1  0.2612213E-009  0.5792478E+02  0.7561462E-02  0.1406753E+00
         -2   -1    0    0    0  501 -0.00000000000E+00  0.00000000000E+00  0.13619731273E+03  0.13619731273E+03  0.00000000000E+00 0.  1.
          2   -1    0    0  501    0  0.00000000000E+00 -0.00000000000E+00 -0.95780442062E+02  0.95780442062E+02  0.00000000000E+00 0. -1.
         25    2    1    2    0    0  0.10090379357E+02  0.66397670163E+01  0.55272108211E+02  0.13730277126E+03  0.12510452745E+03 0.  0.
          5    1    3    3  502    0  0.19688358434E+02  0.19907776012E+02  0.92330210991E+02  0.96572725265E+02  0.41800000000E+01 0.  1.
         -5    1    3    3    0  502 -0.95979790767E+01 -0.13268008995E+02 -0.37058102779E+02  0.40730045994E+02  0.41800000000E+01 0.  1.
        -11    1    1    2    0    0  0.24353136089E+02 -0.22099410808E+02  0.23836467752E+02  0.40615716051E+02  0.00000000000E+00 0.  1.
         11    1    1    2    0    0 -0.34443515446E+02  0.15459643792E+02 -0.38691705293E+02  0.54059267484E+02  0.00000000000E+00 0. -1.
</event>
<event>
 7    1  0.2612213E-009  0.7863541E+02  0.7561462E-02  0.1332969E+00
          1   -1    0    0  501    0  0.00000000000E+00  0.00000000000E+00  0.23467595266E+03  0.23467595266E+03  0.00000000000E+00 0. -1.
         -1   -1    0    0    0  501 -0.00000000000E+00 -0.00000000000E+00 -0.83952484791E+02  0.83952484791E+02  0.00000000000E+00 0.  1.
         25    2    1    2    0    0  0.26765577864E+02  0.10768595088E+02  0.17691439326E+03  0.21858309752E+03  0.12509000432E+03 0.  0.
          5    1    3    3  502    0  0.18053071542E+02  0.50103165236E+02  0.20844464710E+02  0.57342869372E+02  0.41800000000E+01 0.  1.
         -5    1    3    3    0  502  0.87125063221E+01 -0.39334570148E+02  0.15606992855E+03  0.16124022815E+03  0.41800000000E+01 0.  1.
        -11    1    1    2    0    0 -0.42461885220E+02 -0.17931752194E+02  0.20367815786E+02  0.50392532711E+02  0.00000000000E+00 0. -1.
         11    1    1    2    0    0  0.15696307356E+02  0.71631571052E+01 -0.46558741180E+02  0.49652807218E+02  0.00000000000E+00 0.  1.
</event>
<event>
 7    1  0.2612213E-009  0.1373532E+03  0.7561462E-02  0.1216935E+00
          2   -1    0    0  501    0  0.00000000000E+00  0.00000000000E+00  0.10940866318E+03  0.10940866318E+03  0.00000000000E+00 0. -1.
         -2   -1    0    0    0  501 -0.00000000000E+00 -0.00000000000E+00 -0.22454626713E+03  0.22454626713E+03  0.00000000000E+00 0.  1.
         25    2    1    2    0    0  0.10120286455E+03 -0.19043668561E+02 -0.10956984039E+03  0.19559782923E+03  0.12509308442E+03 0.  0.
          5    1    3    3  502    0  0.74925238034E+02 -0.54650737450E+02 -0.19070826010E+02  0.94771637123E+02  0.41800000000E+01 0.  1.
         -5    1    3    3    0  502  0.26277626519E+02  0.35607068889E+02 -0.90499014379E+02  0.10082619210E+03  0.41800000000E+01 0.  1.
        -11    1    1    2    0    0 -0.79472108603E+02 -0.29075909560E+02 -0.10751992424E+02  0.85304336957E+02  0.00000000000E+00 0.  1.
         11    1    1    2    0    0 -0.21730755951E+02  0.48119578121E+02  0.51842288576E+01  0.53052764128E+02  0.00000000000E+00 0. -1.
</event>
<event>
 7    1  0.2612213E-009  0.1207891E+03  0.7561462E-02  0.1241801E+00
          2   -1    0    0  501    0  0.00000000000E+00  0.00000000000E+00  0.77553745403E+03  0.77553745403E+03  0.00000000000E+00 0.  1.
         -2   -1    0    0    0  501 -0.00000000000E+00 -0.00000000000E+00 -0.26978866486E+02  0.26978866486E+02  0.00000000000E+00 0. -1.
         25    2    1    2    0    0 -0.26558224583E+01 -0.94475797127E+02  0.44320146574E+03  0.47011559900E+03  0.12509359519E+03 0.  0.
          5    1    3    3  502    0  0.29754099333E+02  0.79112920994E+01  0.30089728247E+02  0.43252272955E+02  0.41800000000E+01 0.  1.
         -5    1    3    3    0  502 -0.32409921792E+02 -0.10238708923E+03  0.41311173749E+03  0.42686332605E+03  0.41800000000E+01 0.  1.
        -11    1    1    2    0    0 -0.12420907445E+02  0.83411693184E+02  0.30180476894E+03  0.31336545447E+03  0.00000000000E+00 0.  1.
         11    1    1    2    0    0  0.15076729903E+02  0.11064103943E+02  0.35523528710E+01  0.19035267047E+02  0.00000000000E+00 0. -1.
</event>
<event>
 7    1  0.2612213E-009  0.1264669E+03  0.7561462E-02  0.1232794E+00
          1   -1    0    0  501    0  0.00000000000E+00  0.00000000000E+00  0.13387758212E+04  0.13387758212E+04  0.00000000000E+00 0. -1.
         -1   -1    0    0    0  501 -0.00000000000E+00 -0.00000000000E+00 -0.13073714995E+02  0.13073714995E+02  0.00000000000E+00 0.  1.
         25    2    1    2    0    0 -0.29959851328E+02 -0.61200062274E+02  0.90055243853E+03  0.91174672450E+03  0.12507739514E+03 0.  0.
          5    1    3    3  502    0  0.47006416220E+02 -0.10767033681E+02  0.24302607849E+03  0.24779967596E+03  0.41800000000E+01 0. -1.
         -5    1    3    3    0  502 -0.76966267547E+02 -0.50433028593E+02  0.65752636004E+03  0.66394704854E+03  0.41800000000E+01 0. -1.
        -11    1    1    2    0    0  0.61732601997E+02  0.33347089878E+02  0.23160014371E+03  0.24199497747E+03  0.00000000000E+00 0.  1.
         11    1    1    2    0    0 -0.31772750669E+02  0.27852972396E+02  0.19354952399E+03  0.19810783426E+03  0.00000000000E+00 0. -1.
</event>
<event>
 7    1  0.2612213E-009  0.1317256E+03  0.7561462E-02  0.1224917E+00
         -1   -1    0    0    0  501 -0.00000000000E+00  0.00000000000E+00  0.13648607198E+02  0.13648607198E+02  0.00000000000E+00 0.  1.
          1   -1    0    0  501    0  0.00000000000E+00 -0.00000000000E+00 -0.13682081661E+04  0.13682081661E+04  0.00000000000E+00 0. -1.
         25    2    1    2    0    0  0.23968432123E+02  0.81052914805E+02 -0.95105558848E+03  0.96296302574E+03  0.12508795239E+03 0.  0.
          5    1    3    3  502    0  0.69520236178E+02  0.16056396964E+02 -0.45706975301E+03  0.46262414835E+03  0.41800000000E+01 0. -1.
         -5    1    3    3    0  502 -0.45551804056E+02  0.64996517841E+02 -0.49398583547E+03  0.50033887739E+03  0.41800000000E+01 0. -1.
        -11    1    1    2    0    0 -0.49241685053E+02 -0.68273995923E+02 -0.30082751852E+03  0.31238322293E+03  0.00000000000E+00 0.  1.
         11    1    1    2    0    0  0.25273252931E+02 -0.12778918882E+02 -0.10267645190E+03  0.10651052463E+03  0.00000000000E+00 0. -1.
</event>
<event>
 7    1  0.2612213E-009  0.8447482E+02  0.7561462E-02  0.1316812E+00
         -1   -1    0    0    0  501 -0.00000000000E+00  0.00000000000E+00  0.10785915584E+03  0.10785915584E+03  0.00000000000E+00 0.  1.
          1   -1    0    0  501    0  0.00000000000E+00 -0.00000000000E+00 -0.18645766269E+03  0.18645766269E+03  0.00000000000E+00 0. -1.
         25    2    1    2    0    0 -0.45356518938E+00 -0.67142176705E+02 -0.10586756623E+03  0.17709665827E+03  0.12508799773E+03 0.  0.
          5    1    3    3  502    0 -0.17251976655E+02  0.91948191094E+01  0.20382668295E+02  0.28549973096E+02  0.41800000000E+01 0. -1.
         -5    1    3    3    0  502  0.16798411465E+02 -0.76336995815E+02 -0.12625023453E+03  0.14854668517E+03  0.41800000000E+01 0. -1.
        -11    1    1    2    0    0  0.10280207007E+02  0.19559248099E+02  0.56396825893E+02  0.60571022883E+02  0.00000000000E+00 0.  1.
         11    1    1    2    0    0 -0.98266418176E+01  0.47582928607E+02 -0.29127766501E+02  0.56649137377E+02  0.00000000000E+00 0. -1.
</event>
<event>
 7    1  0.2612213E-009  0.1874122E+03  0.7561462E-02  0.1160816E+00
         -1   -1    0    0    0  501 -0.00000000000E+00  0.00000000000E+00  0.10766907546E+03  0.10766907546E+03  0.00000000000E+00 0.  1.
          1   -1    0    0  501    0  0.00000000000E+00 -0.00000000000E+00 -0.38829236562E+03  0.38829236562E+03  0.00000000000E+00 0. -1.
         25    2    1    2    0    0 -0.70315632983E+02 -0.14507846207E+03 -0.71659099104E+02  0.21627396422E+03  0.12508937891E+03 0.  0.
          5    1    3    3  502    0 -0.10985350867E+02 -0.14406770399E+03 -0.49223259715E+02  0.15269768487E+03  0.41800000000E+01 0. -1.
         -5    1    3    3    0  502 -0.59330282116E+02 -0.10107580860E+01 -0.22435839390E+02  0.63576279358E+02  0.41800000000E+01 0. -1.
        -11    1    1    2    0    0  0.11304084279E+02  0.87897418273E+02 -0.16300272059E+03  0.18553604873E+03  0.00000000000E+00 0.  1.
         11    1    1    2    0    0  0.59011548704E+02  0.57181043801E+02 -0.45961470459E+02  0.94151428122E+02  0.00000000000E+00 0. -1.
</event>
<event>
 7    1  0.2612213E-009  0.8186217E+02  0.7561462E-02  0.1323848E+00
         -1   -1    0    0    0  501 -0.00000000000E+00  0.00000000000E+00  0.84155419068E+02  0.84155419068E+02  0.00000000000E+00 0.  1.
          1   -1    0    0  501    0  0.00000000000E+00 -0.00000000000E+00 -0.16775121514E+03  0.16775121514E+03  0.00000000000E+00 0. -1.
         25    2    1    2    0    0 -0.21182138362E+02 -0.44409522025E+02 -0.40264897898E+02  0.14032254026E+03  0.12509302406E+03 0.  0.
          5    1    3    3  502    0  0.23745540544E+02 -0.58843046394E+02 -0.61447325447E+02  0.88428507899E+02  0.41800000000E+01 0. -1.
         -5    1    3    3    0  502 -0.44927678907E+02  0.14433524369E+02  0.21182427549E+02  0.51894032359E+02  0.41800000000E+01 0. -1.
        -11    1    1    2    0    0  0.29799029373E+01  0.28286827410E+02 -0.69961439410E+02  0.75522363779E+02  0.00000000000E+00 0. -1.
         11    1    1    2    0    0  0.18202235425E+02  0.16122694615E+02  0.26630541238E+02  0.36061730168E+02  0.00000000000E+00 0.  1.
</event>
<event>
 7    1  0.2612213E-009  0.1227215E+03  0.7561462E-02  0.1238674E+00
         -1   -1    0    0    0  501 -0.00000000000E+00  0.00000000000E+00  0.44724154677E+02  0.44724154677E+02  0.00000000000E+00 0.  1.
          1   -1    0    0  501    0  0.00000000000E+00 -0.00000000000E+00 -0.52090135842E+03  0.52090135842E+03  0.00000000000E+00 0. -1.
         25    2    1    2    0    0  0.75616514474E+02 -0.41888523790E+02 -0.14150170593E+03  0.20770632865E+03  0.12508669191E+03 0.  0.
          5    1    3    3  502    0 -0.27108986336E+01 -0.43359048388E+02 -0.11799458150E+03  0.12580759004E+03  0.41800000000E+01 0. -1.
         -5    1    3    3    0  502  0.78327413108E+02  0.14705245982E+01 -0.23507124428E+02  0.81898738608E+02  0.41800000000E+01 0. -1.
        -11    1    1    2    0    0 -0.11924929726E+01  0.48604992523E+02 -0.92821740389E+02  0.10478426803E+03  0.00000000000E+00 0. -1.
         11    1    1    2    0    0 -0.74424021502E+02 -0.67164687330E+01 -0.24185375742E+03  0.25313491641E+03  0.00000000000E+00 0.  1.
</event>
<event>
 7    1  0.2612213E-009  0.4597867E+03  0.7561462E-02  0.1024843E+00
         -2   -1    0    0    0  501 -0.00000000000E+00  0.00000000000E+00  0.52144929840E+03  0.52144929840E+03  0.00000000000E+00 0.  1.
          2   -1    0    0  501    0  0.00000000000E+00 -0.00000000000E+00 -0.54579741264E+03  0.54579741264E+03  0.00000000000E+00 0. -1.
         25    2    1    2    0    0 -0.22931933983E+03  0.39409419309E+03 -0.26720703506E+03  0.54308872879E+03  0.12509266608E+03 0.  0.
          5    1    3    3  502    0 -0.16134258840E+03  0.33811438374E+03 -0.25701495117E+03  0.45434229921E+03  0.41800000000E+01 0.  1.
         -5    1    3    3    0  502 -0.67976751432E+02  0.55979809342E+02 -0.10192083889E+02  0.88746429580E+02  0.41800000000E+01 0.  1.
        -11    1    1    2    0    0  0.21067064603E+03 -0.34499159886E+03  0.24297439950E+03  0.47163320833E+03  0.00000000000E+00 0.  1.
         11    1    1    2    0    0  0.18648693800E+02 -0.49102594229E+02 -0.11547869459E+00  0.52524773925E+02  0.00000000000E+00 0. -1.
</event>
<event>
 7    1  0.2612213E-009  0.1174414E+03  0.7561462E-02  0.1247379E+00
          1   -1    0    0  501    0  0.00000000000E+00  0.00000000000E+00  0.15193393730E+03  0.15193393730E+03  0.00000000000E+00 0. -1.
         -1   -1    0    0    0  501 -0.00000000000E+00 -0.00000000000E+00 -0.13151436892E+03  0.13151436892E+03  0.00000000000E+00 0.  1.
         25    2    1    2    0    0  0.72164844476E+02  0.26968639338E+02 -0.37485038467E+02  0.15161543931E+03  0.12508813310E+03 0.  0.
          5    1    3    3  502    0  0.70117721567E+02 -0.17122662464E+02 -0.66823821996E+02  0.98450881325E+02  0.41800000000E+01 0.  1.
         -5    1    3    3    0  502  0.20471229099E+01  0.44091301802E+02  0.29338783529E+02  0.53164557985E+02  0.41800000000E+01 0.  1.
        -11    1    1    2    0    0 -0.26614940072E+02 -0.57534696724E+02  0.27332961663E+02  0.69033956539E+02  0.00000000000E+00 0.  1.
         11    1    1    2    0    0 -0.45549904405E+02  0.30566057386E+02  0.30571645183E+02  0.62798910377E+02  0.00000000000E+00 0. -1.
</event>
<event>
 6    1  0.2612213E-009  0.1215923E+03  0.7561462E-02  0.1240493E+00
          3   -1    0    0  501    0  0.00000000000E+00  0.00000000000E+00  0.14131752341E+03  0.14131752341E+03  0.00000000000E+00 0. -1.
         -3   -1    0    0    0  501 -0.00000000000E+00 -0.00000000000E+00 -0.17583386949E+03  0.17583386949E+03  0.00000000000E+00 0.  1.
          5    1    1    2  502    0  0.55169280317E+02  0.22975844509E+02 -0.85144788138E+02  0.10410881936E+03  0.41800000000E+01 0.  1.
         -5    1    1    2    0  502  0.55329216793E+02 -0.18739399325E+02  0.37539641480E+02  0.69564246567E+02  0.41800000000E+01 0.  1.
        -11    1    1    2    0    0 -0.10012947349E+03 -0.23484917778E+02  0.38625484274E+02  0.10986073393E+03  0.00000000000E+00 0. -1.
         11    1    1    2    0    0 -0.10369023624E+02  0.19248472594E+02 -0.25536683692E+02  0.33617593045E+02  0.00000000000E+00 0.  1.
</event>
<event>
 7    1  0.3266869E-009  0.2213090E+03  0.7561462E-02  0.1132911E+00
         -1   -1    0    0    0  501 -0.00000000000E+00  0.00000000000E+00  0.63223531661E+02  0.63223531661E+02  0.00000000000E+00 0.  1.
          1   -1    0    0  501    0  0.00000000000E+00 -0.00000000000E+00 -0.85622936450E+03  0.85622936450E+03  0.00000000000E+00 0. -1.
         25    2    1    2    0    0  0.64339595854E+01 -0.20030891571E+03 -0.50050102315E+03  0.55345591430E+03  0.12508843811E+03 0.  0.
          5    1    3    3  502    0  0.63103479569E+02 -0.93060684007E+02 -0.27994038254E+03  0.30170586706E+03  0.41800000000E+01 0.  1.
         -5    1    3    3    0  502 -0.56669519984E+02 -0.10724823170E+03 -0.22056064061E+03  0.25175004724E+03  0.41800000000E+01 0.  1.
        -11    1    1    2    0    0  0.25102197605E+02  0.62358153591E+02 -0.15378690349E+03  0.16783644220E+03  0.00000000000E+00 0.  1.
         11    1    1    2    0    0 -0.31536157190E+02  0.13795076212E+03 -0.13871790619E+03  0.19816053966E+03  0.00000000000E+00 0. -1.
</event>
<event>
 7    1  0.2612213E-009  0.2296335E+03  0.7561462E-02  0.1126898E+00
          2   -1    0    0  501    0  0.00000000000E+00  0.00000000000E+00  0.28177435120E+03  0.28177435120E+03  0.00000000000E+00 0. -1.
         -2   -1    0    0    0  501 -0.00000000000E+00 -0.00000000000E+00 -0.24058294866E+03  0.24058294866E+03  0.00000000000E+00 0.  1.
         25    2    1    2    0    0 -0.20108774550E+03 -0.10097636064E+03  0.92080046462E+02  0.27342087206E+03  0.12509089306E+03 0.  0.
          5    1    3    3  502    0 -0.74349489835E+02 -0.20338359127E+02  0.95885857858E+02  0.12309778888E+03  0.41800000000E+01 0. -1.
         -5    1    3    3    0  502 -0.12673825566E+03 -0.80638001511E+02 -0.38058113959E+01  0.15032308318E+03  0.41800000000E+01 0. -1.
        -11    1    1    2    0    0  0.55653329655E+02  0.57457692834E+02 -0.54998626477E+02  0.97074860194E+02  0.00000000000E+00 0. -1.
         11    1    1    2    0    0  0.14543441584E+03  0.43518667804E+02  0.41099825551E+01  0.15186156760E+03  0.00000000000E+00 0.  1.
</event>
<event>
 7    1  0.2612213E-009  0.8140955E+02  0.7561462E-02  0.1325098E+00
         -2   -1    0    0    0  501 -0.00000000000E+00  0.00000000000E+00  0.13960542174E+03  0.13960542174E+03  0.00000000000E+00 0.  1.
          2   -1    0    0  501    0  0.00000000000E+00 -0.00000000000E+00 -0.93517528789E+02  0.93517528789E+02  0.00000000000E+00 0. -1.
         25    2    1    2    0    0  0.29081195096E+02 -0.40784734364E+01  0.60040271834E+01  0.12863144878E+03  0.12509057286E+03 0.  0.
          5    1    3    3  502    0 -0.18439003451E+02  0.35939658068E+02 -0.35385948366E+02  0.53863657619E+02  0.41800000000E+01 0.  1.
         -5    1    3    3    0  502  0.47520198547E+02 -0.40018131505E+02  0.41389975549E+02  0.74767791160E+02  0.41800000000E+01 0.  1.
        -11    1    1    2    0    0 -0.36598224384E+02 -0.14911737191E+02 -0.17627604422E+02  0.43272651545E+02  0.00000000000E+00 0. -1.
         11    1    1    2    0    0  0.75170292878E+01  0.18990210627E+02  0.57711470184E+02  0.61218850200E+02  0.00000000000E+00 0.  1.
</event>
<event>
 7    1  0.2612213E-009  0.1145367E+03  0.7561462E-02  0.1252392E+00
         -1   -1    0    0    0  501 -0.00000000000E+00  0.00000000000E+00  0.77654703890E+02  0.77654703890E+02  0.00000000000E+00 0.  1.
          1   -1    0    0  501    0  0.00000000000E+00 -0.00000000000E+00 -0.24422654332E+03  0.24422654332E+03  0.00000000000E+00 0. -1.
         25    2    1    2    0    0  0.38212411492E+02 -0.81025751806E+02 -0.84597962850E+02  0.17558330916E+03  0.12508925728E+03 0.  0.
          5    1    3    3  502    0  0.55140930189E+02 -0.88458258009E+02 -0.10480687969E+03  0.14787609686E+03  0.41800000000E+01 0.  1.
         -5    1    3    3    0  502 -0.16928518697E+02  0.74325062030E+01  0.20208916836E+02  0.27707212299E+02  0.41800000000E+01 0.  1.
        -11    1    1    2    0    0 -0.10736894742E+02  0.77333302247E+02 -0.23418566408E+02  0.81511654368E+02  0.00000000000E+00 0.  1.
         11    1    1    2    0    0 -0.27475516750E+02  0.36924495586E+01 -0.58555310171E+02  0.64786283685E+02  0.00000000000E+00 0. -1.
</event>
<event>
 7    1  0.2612213E-009  0.1082959E+03  0.7561462E-02  0.1263758E+00
         -3   -1    0    0    0  501 -0.00000000000E+00  0.00000000000E+00  0.20208409782E+03  0.20208409782E+03  0.00000000000E+00 0.  1.
          3   -1    0    0  501    0  0.00000000000E+00 -0.00000000000E+00 -0.10363570137E+03  0.10363570137E+03  0.00000000000E+00 0. -1.
         25    2    1    2    0    0  0.41308852304E+02 -0.78792317556E+02  0.16602565551E+02  0.15437520579E+03  0.12506561637E+03 0.  0.
          5    1    3    3  502    0  0.17827506346E+02 -0.35609656549E+02 -0.54627103921E+02  0.67730794362E+02  0.41800000000E+01 0. -1.
         -5    1    3    3    0  502  0.23481345957E+02 -0.43182661007E+02  0.71229669472E+02  0.86644411433E+02  0.41800000000E+01 0. -1.
        -11    1    1    2    0    0 -0.24431507550E+02 -0.17120046571E+02  0.21576531152E+02  0.36817675813E+02  0.00000000000E+00 0.  1.
         11    1    1    2    0    0 -0.16877344754E+02  0.95912364127E+02  0.60269299743E+02  0.11452691758E+03  0.00000000000E+00 0. -1.
</event>
<event>
 7    1  0.3151637E-009  0.1297811E+03  0.7561462E-02  0.1227781E+00
         -2   -1    0    0    0  501 -0.00000000000E+00  0.00000000000E+00  0.49902280936E+02  0.49902280936E+02  0.00000000000E+00 0. -1.
          2   -1    0    0  501    0  0.00000000000E+00 -0.00000000000E+00 -0.49530780810E+03  0.49530780810E+03  0.00000000000E+00 0.  1.
         25    2    1    2    0    0 -0.26958552018E+02  0.11021265642E+03 -0.23898389455E+03  0.29263053968E+03  0.12508292346E+03 0.  0.
          5    1    3    3  502    0 -0.34921194548E+01  0.28325605053E+02  0.91403748701E+01  0.30258117137E+02  0.41800000000E+01 0. -1.
         -5    1    3    3    0  502 -0.23466432563E+02  0.81887051370E+02 -0.24812426942E+03  0.26237242255E+03  0.41800000000E+01 0. -1.
        -11    1    1    2    0    0 -0.32730616905E+02 -0.24059969087E+02 -0.62410729564E+02  0.74466600299E+02  0.00000000000E+00 0.  1.
         11    1    1    2    0    0  0.59689168923E+02 -0.86152687336E+02 -0.14401090305E+03  0.17811294905E+03  0.00000000000E+00 0. -1.
</event>
<event>
 7    1  0.2612213E-009  0.8134515E+02  0.7561462E-02  0.1325277E+00
         -1   -1    0    0    0  501 -0.00000000000E+00  0.00000000000E+00  0.10277968399E+03  0.10277968399E+03  0.00000000000E+00 0.  1.
          1   -1    0    0  501    0  0.00000000000E+00 -0.00000000000E+00 -0.12321051205E+03  0.12321051205E+03  0.00000000000E+00 0. -1.
         25    2    1    2    0    0  0.27106289117E+02 -0.80932074323E+01 -0.54805924782E+01  0.12836771272E+03  0.12509189366E+03 0.  0.
          5    1    3    3  502    0 -0.13482202327E+02 -0.34572232625E+02 -0.50015209541E+02  0.62417967235E+02  0.41800000000E+01 0. -1.
         -5    1    3    3    0  502  0.40588491444E+02  0.26479025193E+02  0.44534617063E+02  0.65949745487E+02  0.41800000000E+01 0. -1.
        -11    1    1    2    0    0  0.19516985697E+02 -0.15058069881E+02  0.22595707353E+02  0.33439859300E+02  0.00000000000E+00 0.  1.
         11    1    1    2    0    0 -0.46623274814E+02  0.23151277314E+02 -0.37545942933E+02  0.64182624022E+02  0.00000000000E+00 0. -1.
</event>
<event>
 7    1  0.2612213E-009  0.9569669E+02  0.7561462E-02  0.1289615E+00
         -2   -1    0    0    0  501 -0.00000000000E+00  0.00000000000E+00  0.14499237005E+03  0.14499237005E+03  0.00000000000E+00 0.  1.
          2   -1    0    0  501    0  0.00000000000E+00 -0.00000000000E+00 -0.25224467459E+03  0.25224467459E+03  0.00000000000E+00 0. -1.
         25    2    1    2    0    0  0.35142815825E+02  0.13321232120E+02 -0.21508930903E+03  0.25163800900E+03  0.12508318827E+03 0.  0.
          5    1    3    3  502    0  0.54761109555E+02 -0.36676338706E+02 -0.67097041137E+02  0.94145728899E+02  0.41800000000E+01 0. -1.
         -5    1    3    3    0  502 -0.19618293730E+02  0.49997570826E+02 -0.14799226789E+03  0.15749228010E+03  0.41800000000E+01 0. -1.
        -11    1    1    2    0    0 -0.25056669036E+02 -0.37603829441E+02  0.12761606336E+02  0.46954693568E+02  0.00000000000E+00 0. -1.
         11    1    1    2    0    0 -0.10086146789E+02  0.24282597321E+02  0.95075398146E+02  0.98644342069E+02  0.00000000000E+00 0.  1.
</event>
<event>
 7    1  0.2612213E-009  0.1154928E+03  0.7561462E-02  0.1250723E+00
          3   -1    0    0  501    0  0.00000000000E+00  0.00000000000E+00  0.44516990567E+03  0.44516990567E+03  0.00000000000E+00 0. -1.
         -3   -1    0    0    0  501 -0.00000000000E+00 -0.00000000000E+00 -0.36305402795E+02  0.36305402795E+02  0.00000000000E+00 0.  1.
         25    2    1    2    0    0  0.27904721012E+02 -0.42485278095E+02  0.25656661043E+03  0.28992678428E+03  0.12508973717E+03 0.  0.
          5    1    3    3  502    0  0.55887931171E+02  0.22052633414E+02  0.82559872039E+02  0.10219287824E+03  0.41800000000E+01 0. -1.
         -5    1    3    3    0  502 -0.27983210159E+02 -0.64537911509E+02  0.17400673839E+03  0.18773390604E+03  0.41800000000E+01 0. -1.
        -11    1    1    2    0    0  0.34652431964E+01 -0.25333248958E+02  0.92132326003E+02  0.95614574768E+02  0.00000000000E+00 0. -1.
         11    1    1    2    0    0 -0.31369964208E+02  0.67818527054E+02  0.60165566445E+02  0.95933949423E+02  0.00000000000E+00 0.  1.
</event>
<event>
 7    1  0.2612213E-009  0.1135483E+03  0.7561462E-02  0.1254137E+00
         -2   -1    0    0    0  501 -0.00000000000E+00  0.00000000000E+00  0.52405622875E+02  0.52405622875E+02  0.00000000000E+00 0.  1.
          2   -1    0    0  501    0  0.00000000000E+00 -0.00000000000E+00 -0.36686114768E+03  0.36686114768E+03  0.00000000000E+00 0. -1.
         25    2    1    2    0    0 -0.18732523865E+02  0.72476312585E+02 -0.23989373914E+03  0.28072416170E+03  0.12511325087E+03 0.  0.
          5    1    3    3  502    0 -0.46602788196E+02  0.36689891569E+01 -0.17768134392E+03  0.18377544376E+03  0.41800000000E+01 0. -1.
         -5    1    3    3    0  502  0.27870264331E+02  0.68807323428E+02 -0.62212395220E+02  0.96948717940E+02  0.41800000000E+01 0. -1.
        -11    1    1    2    0    0  0.47847512157E+02 -0.42104838274E+02 -0.72339000791E+02  0.96411269368E+02  0.00000000000E+00 0. -1.
         11    1    1    2    0    0 -0.29114988292E+02 -0.30371474311E+02 -0.22227848743E+01  0.42131339495E+02  0.00000000000E+00 0.  1.
</event>
<event>
 7    1  0.2612213E-009  0.1112570E+03  0.7561462E-02  0.1258260E+00
         -2   -1    0    0    0  501 -0.00000000000E+00  0.00000000000E+00  0.21386730923E+02  0.21386730923E+02  0.00000000000E+00 0. -1.
          2   -1    0    0  501    0  0.00000000000E+00 -0.00000000000E+00 -0.61124494135E+03  0.61124494135E+03  0.00000000000E+00 0.  1.
         25    2    1    2    0    0  0.11690679702E+02 -0.39863071532E+02 -0.33803200836E+03  0.36282166037E+03  0.12509269399E+03 0.  0.
          5    1    3    3  502    0 -0.26190019422E+02 -0.72240581404E+02 -0.15458239564E+03  0.17267833726E+03  0.41800000000E+01 0.  1.
         -5    1    3    3    0  502  0.37880699124E+02  0.32377509872E+02 -0.18344961273E+03  0.19014332311E+03  0.41800000000E+01 0.  1.
        -11    1    1    2    0    0  0.36844867362E+02  0.25934048127E+02 -0.14096684587E+03  0.14799246852E+03  0.00000000000E+00 0.  1.
         11    1    1    2    0    0 -0.48535547064E+02  0.13929023405E+02 -0.11085935619E+03  0.12181754339E+03  0.00000000000E+00 0. -1.
</event>
<event>
 7    1  0.2612213E-009  0.1104036E+03  0.7561462E-02  0.1259824E+00
         -4   -1    0    0    0  501 -0.00000000000E+00  0.00000000000E+00  0.79871588163E+02  0.79871588163E+02  0.00000000000E+00 0.  1.
          4   -1    0    0  501    0  0.00000000000E+00 -0.00000000000E+00 -0.22655340329E+03  0.22655340329E+03  0.00000000000E+00 0. -1.
         25    2    1    2    0    0 -0.52088285786E+02 -0.56641161134E+02 -0.54304689524E+02  0.15658188210E+03  0.12508987108E+03 0.  0.
          5    1    3    3  502    0 -0.23440468135E+02  0.29648639579E+02  0.16317870253E+02  0.41379254039E+02  0.41800000000E+01 0. -1.
         -5    1    3    3    0  502 -0.28647817651E+02 -0.86289800713E+02 -0.70622559776E+02  0.11520262806E+03  0.41800000000E+01 0. -1.
        -11    1    1    2    0    0 -0.86477115816E+01  0.17467227405E+02  0.11998275697E+02  0.22887672851E+02  0.00000000000E+00 0.  1.
         11    1    1    2    0    0  0.60735997367E+02  0.39173933729E+02 -0.10437540130E+03  0.12695543650E+03  0.00000000000E+00 0. -1.
</event>
<event>
 7    1  0.2612213E-009  0.1134546E+03  0.7561462E-02  0.1254303E+00
          1   -1    0    0  501    0  0.00000000000E+00  0.00000000000E+00  0.21786177529E+02  0.21786177529E+02  0.00000000000E+00 0. -1.
         -1   -1    0    0    0  501 -0.00000000000E+00 -0.00000000000E+00 -0.17247229241E+04  0.17247229241E+04  0.00000000000E+00 0.  1.
         25    2    1    2    0    0  0.57439953702E+02  0.53140559166E+02 -0.15169383390E+04  0.15240950389E+04  0.12506196856E+03 0.  0.
          5    1    3    3  502    0 -0.35932240251E+02 -0.52521637829E+01 -0.31461692346E+03  0.31673331376E+03  0.41800000000E+01 0.  1.
         -5    1    3    3    0  502  0.93372193953E+02  0.58392722949E+02 -0.12023214155E+04  0.12073617252E+04  0.41800000000E+01 0.  1.
        -11    1    1    2    0    0 -0.14129198977E+02 -0.24315129725E+02 -0.16321124925E+03  0.16561633880E+03  0.00000000000E+00 0.  1.
         11    1    1    2    0    0 -0.43310754725E+02 -0.28825429441E+02 -0.22787158313E+02  0.56797723910E+02  0.00000000000E+00 0. -1.
</event>
<event>
 7    1  0.2612213E-009  0.1030352E+03  0.7561462E-02  0.1274040E+00
          1   -1    0    0  501    0  0.00000000000E+00  0.00000000000E+00  0.23307756035E+03  0.23307756035E+03  0.00000000000E+00 0. -1.
         -1   -1    0    0    0  501 -0.00000000000E+00 -0.00000000000E+00 -0.52126992917E+02  0.52126992917E+02  0.00000000000E+00 0.  1.
         25    2    1    2    0    0 -0.95296983783E+01  0.47866470359E+01  0.91911316003E+02  0.15559199084E+03  0.12508976962E+03 0.  0.
          5    1    3    3  502    0  0.51717548555E+02  0.19177393724E+02  0.17415034335E+02  0.57993388240E+02  0.41800000000E+01 0. -1.
         -5    1    3    3    0  502 -0.61247246934E+02 -0.14390746689E+02  0.74496281668E+02  0.97598602601E+02  0.41800000000E+01 0. -1.
        -11    1    1    2    0    0  0.46279587285E+02  0.11212136582E+02  0.24275403706E+02  0.53449110667E+02  0.00000000000E+00 0.  1.
         11    1    1    2    0    0 -0.36749888907E+02 -0.15998783618E+02  0.64763847720E+02  0.76163451757E+02  0.00000000000E+00 0. -1.
</event>
<event>
 7    1  0.2612213E-009  0.1174458E+03  0.7561462E-02  0.1247371E+00
         -4   -1    0    0    0  501 -0.00000000000E+00  0.00000000000E+00  0.79412003882E+02  0.79412003882E+02  0.00000000000E+00 0. -1.
          4   -1    0    0  501    0  0.00000000000E+00 -0.00000000000E+00 -0.21906665055E+03  0.21906665055E+03  0.00000000000E+00 0.  1.
         25    2    1    2    0    0  0.46459014757E+02  0.79606477855E+02 -0.10962538842E+03  0.19016282815E+03  0.12509414077E+03 0.  0.
          5    1    3    3  502    0 -0.19642613019E+02  0.67677218082E+02 -0.99660149632E+02  0.12212966846E+03  0.41800000000E+01 0. -1.
         -5    1    3    3    0  502  0.66101627776E+02  0.11929259773E+02 -0.99652387886E+01  0.68033159691E+02  0.41800000000E+01 0. -1.
        -11    1    1    2    0    0 -0.28405189015E+02 -0.72012807710E+02 -0.64756706765E+01  0.77682903833E+02  0.00000000000E+00 0. -1.
         11    1    1    2    0    0 -0.18053825742E+02 -0.75936701449E+01 -0.23553587572E+02  0.30632922448E+02  0.00000000000E+00 0.  1.
</event>
<event>
 7    1  0.2612213E-009  0.1186240E+03  0.7561462E-02  0.1245384E+00
         -2   -1    0    0    0  501 -0.00000000000E+00  0.00000000000E+00  0.13035305716E+02  0.13035305716E+02  0.00000000000E+00 0.  1.
          2   -1    0    0  501    0  0.00000000000E+00 -0.00000000000E+00 -0.19669828449E+04  0.19669828449E+04  0.00000000000E+00 0. -1.
         25    2    1    2    0    0 -0.50037949127E+02  0.68936207072E+02 -0.16209076527E+04  0.16279574207E+04  0.12509095975E+03 0.  0.
          5    1    3    3  502    0  0.34516510528E+02  0.42940624768E+02 -0.88828710310E+03  0.89000378465E+03  0.41800000000E+01 0. -1.
         -5    1    3    3    0  502 -0.84554459655E+02  0.25995582304E+02 -0.73262054959E+03  0.73795363610E+03  0.41800000000E+01 0. -1.
        -11    1    1    2    0    0  0.40781604606E+02 -0.23500596792E+02 -0.66230336895E+02  0.81251922125E+02  0.00000000000E+00 0.  1.
         11    1    1    2    0    0  0.92563445209E+01 -0.45435610280E+02 -0.26680954955E+03  0.27080880770E+03  0.00000000000E+00 0. -1.
</event>
<event>
 7    1  0.2612213E-009  0.1422778E+03  0.7561462E-02  0.1210297E+00
         -2   -1    0    0    0  501 -0.00000000000E+00  0.00000000000E+00  0.20634206676E+03  0.20634206676E+03  0.00000000000E+00 0.  1.
          2   -1    0    0  501    0  0.00000000000E+00 -0.00000000000E+00 -0.18321273679E+03  0.18321273679E+03  0.00000000000E+00 0. -1.
         25    2    1    2    0    0 -0.67962362231E+02  0.90959540982E+02 -0.10079624620E+03  0.19672215928E+03  0.12508878418E+03 0.  0.
          5    1    3    3  502    0  0.34749258154E+02  0.42782522658E+02 -0.29331304280E+02  0.62575178769E+02  0.41800000000E+01 0.  1.
         -5    1    3    3    0  502 -0.10271162038E+03  0.48177018324E+02 -0.71464941921E+02  0.13414698051E+03  0.41800000000E+01 0.  1.
        -11    1    1    2    0    0  0.18741348389E+02 -0.43562749602E+02  0.11440095409E+03  0.12384074284E+03  0.00000000000E+00 0.  1.
         11    1    1    2    0    0  0.49221013842E+02 -0.47396791380E+02  0.95246220817E+01  0.68991901427E+02  0.00000000000E+00 0. -1.
</event>
<event>
 7    1  0.2612213E-009  0.1500630E+03  0.7561462E-02  0.1200396E+00
          2   -1    0    0  501    0  0.00000000000E+00  0.00000000000E+00  0.23911762526E+03  0.23911762526E+03  0.00000000000E+00 0. -1.
         -2   -1    0    0    0  501 -0.00000000000E+00 -0.00000000000E+00 -0.15059142254E+03  0.15059142254E+03  0.00000000000E+00 0.  1.
         25    2    1    2    0    0 -0.10660302778E+03  0.79697932424E+02 -0.34910279381E+02  0.18595316658E+03  0.12507552355E+03 0.  0.
          5    1    3    3  502    0 -0.81911574145E+02  0.40429699715E+02  0.38337078920E+02  0.99152764047E+02  0.41800000000E+01 0. -1.
         -5    1    3    3    0  502 -0.24691453630E+02  0.39268232709E+02 -0.73247358301E+02  0.86800402537E+02  0.41800000000E+01 0. -1.
        -11    1    1    2    0    0  0.45838953242E+02  0.16170152547E+02  0.36878184089E+02  0.61013801139E+02  0.00000000000E+00 0.  1.
         11    1    1    2    0    0  0.60764074533E+02 -0.95868084972E+02  0.86558298007E+02  0.14274208007E+03  0.00000000000E+00 0. -1.
</event>
<event>
 7    1  0.2612213E-009  0.1018531E+03  0.7561462E-02  0.1276447E+00
          2   -1    0    0  501    0  0.00000000000E+00  0.00000000000E+00  0.98694160280E+03  0.98694160280E+03  0.00000000000E+00 0. -1.
         -2   -1    0    0    0  501 -0.00000000000E+00 -0.00000000000E+00 -0.12921370314E+02  0.12921370314E+02  0.00000000000E+00 0.  1.
         25    2    1    2    0    0 -0.94434702824E+01 -0.28304805287E+02  0.59738668150E+03  0.61106970138E+03  0.12507994076E+03 0.  0.
          5    1    3    3  502    0 -0.56526302395E+02 -0.23201185926E+02  0.48759509490E+03  0.49142646129E+03  0.41800000000E+01 0. -1.
         -5    1    3    3    0  502  0.47082832112E+02 -0.51036193616E+01  0.10979158660E+03  0.11964324009E+03  0.41800000000E+01 0. -1.
        -11    1    1    2    0    0 -0.16745921236E+02  0.55017116229E+02  0.26093503343E+03  0.26719730655E+03  0.00000000000E+00 0. -1.
         11    1    1    2    0    0  0.26189391518E+02 -0.26712310941E+02  0.11569851756E+03  0.12159596518E+03  0.00000000000E+00 0.  1.
</event>
<event>
 7    1  0.2612213E-009  0.1082859E+03  0.7561462E-02  0.1263777E+00
         -4   -1    0    0    0  501 -0.00000000000E+00  0.00000000000E+00  0.19825854524E+03  0.19825854524E+03  0.00000000000E+00 0.  1.
          4   -1    0    0  501    0  0.00000000000E+00 -0.00000000000E+00 -0.61698994105E+02  0.61698994105E+02  0.00000000000E+00 0. -1.
         25    2    1    2    0    0  0.17429701562E+00  0.20895189417E+02  0.91234942641E+02  0.15623069137E+03  0.12509026679E+03 0.  0.
          5    1    3    3  502    0 -0.28388477173E+02 -0.44031113484E+02  0.56418032361E+02  0.77104548286E+02  0.41800000000E+01 0.  1.
         -5    1    3    3    0  502  0.28562774189E+02  0.64926302901E+02  0.34816910281E+02  0.79126143084E+02  0.41800000000E+01 0.  1.
        -11    1    1    2    0    0 -0.45359556280E+02 -0.11813456619E+02  0.18436936374E+02  0.50368320659E+02  0.00000000000E+00 0. -1.
         11    1    1    2    0    0  0.45185259264E+02 -0.90817327981E+01  0.26887672118E+02  0.53358527316E+02  0.00000000000E+00 0.  1.
</event>
<event>
 7    1  0.2612213E-009  0.9822439E+02  0.7561462E-02  0.1284075E+00
         -1   -1    0    0    0  501 -0.00000000000E+00  0.00000000000E+00  0.25717573450E+02  0.25717573450E+02  0.00000000000E+00 0. -1.
          1   -1    0    0  501    0  0.00000000000E+00 -0.00000000000E+00 -0.48748534375E+03  0.48748534375E+03  0.00000000000E+00 0.  1.
         25    2    1    2    0    0 -0.25294149062E+01 -0.27819816959E+01 -0.32117563540E+03  0.34469594326E+03  0.12508943666E+03 0.  0.
          5    1    3    3  502    0  0.63674222468E+01 -0.52414296439E+02 -0.25984700128E+03  0.26519000549E+03  0.41800000000E+01 0. -1.
         -5    1    3    3    0  502 -0.88968371530E+01  0.49632314743E+02 -0.61328634122E+02  0.79505937774E+02  0.41800000000E+01 0. -1.
        -11    1    1    2    0    0 -0.45108977100E+02  0.34914627745E+01 -0.69017245337E+02  0.82525088799E+02  0.00000000000E+00 0.  1.
         11    1    1    2    0    0  0.47638392006E+02 -0.70948107862E+00 -0.71574889567E+02  0.85981885143E+02  0.00000000000E+00 0. -1.
</event>
<event>
 7    1  0.2612213E-009  0.1040473E+03  0.7561462E-02  0.1272008E+00
          1   -1    0    0  501    0  0.00000000000E+00  0.00000000000E+00  0.12073927328E+03  0.12073927328E+03  0.00000000000E+00 0. -1.
         -1   -1    0    0    0  501 -0.00000000000E+00 -0.00000000000E+00 -0.11301251154E+03  0.11301251154E+03  0.00000000000E+00 0.  1.
         25    2    1    2    0    0 -0.15050186781E+02  0.33035653557E+02 -0.17813755608E+02  0.13147289112E+03  0.12509967499E+03 0.  0.
          5    1    3    3  502    0  0.22058245993E+02 -0.41086205592E+02 -0.12371896072E+01  0.46836369888E+02  0.41800000000E+01 0. -1.
         -5    1    3    3    0  502 -0.37108432773E+02  0.74121859149E+02 -0.16576566001E+02  0.84636521237E+02  0.41800000000E+01 0. -1.
        -11    1    1    2    0    0 -0.11806048428E+02 -0.46682688060E+02 -0.16198663767E+02  0.50804063339E+02  0.00000000000E+00 0.  1.
         11    1    1    2    0    0  0.26856235209E+02  0.13647034502E+02  0.41739181113E+02  0.51474830356E+02  0.00000000000E+00 0. -1.
</event>
<event>
 7    1  0.2612213E-009  0.1093587E+03  0.7561462E-02  0.1261762E+00
          1   -1    0    0  501    0  0.00000000000E+00  0.00000000000E+00  0.71213197627E+03  0.71213197627E+03  0.00000000000E+00 0. -1.
         -1   -1    0    0    0  501 -0.00000000000E+00 -0.00000000000E+00 -0.19080818869E+02  0.19080818869E+02  0.00000000000E+00 0.  1.
         25    2    1    2    0    0 -0.28693574781E+02  0.26986271514E+02  0.41143358978E+03  0.43182974316E+03  0.12509095969E+03 0.  0.
          5    1    3    3  502    0 -0.30198737664E+02 -0.41134862269E+02  0.26964735935E+03  0.27446531922E+03  0.41800000000E+01 0. -1.
         -5    1    3    3    0  502  0.15051628833E+01  0.68121133783E+02  0.14178623043E+03  0.15736442394E+03  0.41800000000E+01 0. -1.
        -11    1    1    2    0    0  0.53105462556E+02  0.10869464816E+02  0.18506131542E+03  0.19283678561E+03  0.00000000000E+00 0. -1.
         11    1    1    2    0    0 -0.24411887776E+02 -0.37855736330E+02  0.96556252203E+02  0.10654626637E+03  0.00000000000E+00 0.  1.
</event>
<event>
 7    1  0.2612213E-009  0.1074609E+03  0.7561462E-02  0.1265346E+00
         -2   -1    0    0    0  501 -0.00000000000E+00  0.00000000000E+00  0.19297942821E+04  0.19297942821E+04  0.00000000000E+00 0.  1.
          2   -1    0    0  501    0  0.00000000000E+00 -0.00000000000E+00 -0.10025067876E+02  0.10025067876E+02  0.00000000000E+00 0. -1.
         25    2    1    2    0    0  0.54044420212E+02 -0.94096878878E+01  0.15255046997E+04  0.15316071389E+04  0.12508596082E+03 0.  0.
          5    1    3    3  502    0  0.31840262390E+02 -0.65667039066E+02  0.98626278883E+03  0.98896800927E+03  0.41800000000E+01 0.  1.
         -5    1    3    3    0  502  0.22204157822E+02  0.56257351178E+02  0.53924191084E+03  0.54263912961E+03  0.41800000000E+01 0.  1.
        -11    1    1    2    0    0 -0.62969073243E+02 -0.61414735541E+01  0.38018897994E+03  0.38541728340E+03  0.00000000000E+00 0.  1.
         11    1    1    2    0    0  0.89246530306E+01  0.15551161442E+02  0.14075534653E+02  0.22794927718E+02  0.00000000000E+00 0. -1.
</event>
<event>
 7    1  0.2612213E-009  0.1390682E+03  0.7561462E-02  0.1214588E+00
          2   -1    0    0  501    0  0.00000000000E+00  0.00000000000E+00  0.47191464773E+03  0.47191464773E+03  0.00000000000E+00 0. -1.
         -2   -1    0    0    0  501 -0.00000000000E+00 -0.00000000000E+00 -0.76406887617E+02  0.76406887617E+02  0.00000000000E+00 0.  1.
         25    2    1    2    0    0 -0.11696095557E+03  0.54901621187E+02  0.33239464654E+03  0.37792643830E+03  0.12509252009E+03 0.  0.
          5    1    3    3  502    0 -0.10628492423E+03  0.69711110964E+02  0.33563326290E+03  0.35891960614E+03  0.41800000000E+01 0. -1.
         -5    1    3    3    0  502 -0.10676031344E+02 -0.14809489777E+02 -0.32386163610E+01  0.19006832157E+02  0.41800000000E+01 0. -1.
        -11    1    1    2    0    0  0.56573811157E+02 -0.11152465579E+02 -0.17813047489E+02  0.60351290443E+02  0.00000000000E+00 0.  1.
         11    1    1    2    0    0  0.60387144417E+02 -0.43749155608E+02  0.80926161065E+02  0.11004380660E+03  0.00000000000E+00 0. -1.
</event>
<event>
 7    1  0.2612213E-009  0.2631278E+03  0.7561462E-02  0.1105278E+00
         -2   -1    0    0    0  501 -0.00000000000E+00  0.00000000000E+00  0.93539307416E+02  0.93539307416E+02  0.00000000000E+00 0.  1.
          2   -1    0    0  501    0  0.00000000000E+00 -0.00000000000E+00 -0.89536722963E+03  0.89536722963E+03  0.00000000000E+00 0. -1.
         25    2    1    2    0    0 -0.13659926508E+03 -0.21547150575E+03 -0.54960278674E+03  0.61870649928E+03  0.12508868876E+03 0.  0.
          5    1    3    3  502    0 -0.52296022700E+02 -0.87174054709E+02 -0.96279490135E+02  0.14007641638E+03  0.41800000000E+01 0.  1.
         -5    1    3    3    0  502 -0.84303242380E+02 -0.12829745104E+03 -0.45332329660E+03  0.47863008291E+03  0.41800000000E+01 0.  1.
        -11    1    1    2    0    0 -0.11177383056E+02  0.39993028061E+02 -0.41016514549E+02  0.58367205272E+02  0.00000000000E+00 0. -1.
         11    1    1    2    0    0  0.14777664814E+03  0.17547847769E+03 -0.21120862093E+03  0.31183283249E+03  0.00000000000E+00 0.  1.
</event>
<event>
 7    1  0.2612213E-009  0.1093268E+03  0.7561462E-02  0.1261822E+00
         -2   -1    0    0    0  501 -0.00000000000E+00  0.00000000000E+00  0.16697906560E+02  0.16697906560E+02  0.00000000000E+00 0.  1.
          2   -1    0    0  501    0  0.00000000000E+00 -0.00000000000E+00 -0.10859284166E+04  0.10859284166E+04  0.00000000000E+00 0. -1.
         25    2    1    2    0    0  0.95756761892E+01 -0.57176666357E+02 -0.79115774759E+03  0.80308156359E+03  0.12509417033E+03 0.  0.
          5    1    3    3  502    0 -0.44059193289E+02  0.56858013697E+00 -0.13215591132E+03  0.13937070385E+03  0.41800000000E+01 0.  1.
         -5    1    3    3    0  502  0.53634869478E+02 -0.57745246494E+02 -0.65900183628E+03  0.66371085974E+03  0.41800000000E+01 0.  1.
        -11    1    1    2    0    0  0.31595099244E+02  0.10644890373E+02 -0.18271582320E+03  0.18573270050E+03  0.00000000000E+00 0. -1.
         11    1    1    2    0    0 -0.41170775433E+02  0.46531775984E+02 -0.95356939208E+02  0.11381205903E+03  0.00000000000E+00 0.  1.
</event>
<event>
 7    1  0.2612213E-009  0.1017406E+03  0.7561462E-02  0.1276678E+00
          4   -1    0    0  501    0  0.00000000000E+00  0.00000000000E+00  0.54504940195E+02  0.54504940195E+02  0.00000000000E+00 0. -1.
         -4   -1    0    0    0  501 -0.00000000000E+00 -0.00000000000E+00 -0.24647292599E+03  0.24647292599E+03  0.00000000000E+00 0.  1.
         25    2    1    2    0    0  0.90284099597E+01  0.33416318767E+02 -0.56889435177E+02  0.14167008252E+03  0.12504336008E+03 0.  0.
          5    1    3    3  502    0  0.61552967329E+02  0.11337910041E+02 -0.24800932492E+01  0.62776900637E+02  0.41800000000E+01 0. -1.
         -5    1    3    3    0  502 -0.52524557369E+02  0.22078408726E+02 -0.54409341928E+02  0.78893181883E+02  0.41800000000E+01 0. -1.
        -11    1    1    2    0    0 -0.78234537964E+00  0.24807117726E+02 -0.50837609784E+02  0.56572676468E+02  0.00000000000E+00 0.  1.
         11    1    1    2    0    0 -0.82460645801E+01 -0.58223436493E+02 -0.84240940829E+02  0.10273510719E+03  0.00000000000E+00 0. -1.
</event>
<event>
 7    1  0.2612213E-009  0.1156903E+03  0.7561462E-02  0.1250381E+00
          1   -1    0    0  501    0  0.00000000000E+00  0.00000000000E+00  0.89975205531E+03  0.89975205531E+03  0.00000000000E+00 0. -1.
         -1   -1    0    0    0  501 -0.00000000000E+00 -0.00000000000E+00 -0.17112471628E+02  0.17112471628E+02  0.00000000000E+00 0.  1.
         25    2    1    2    0    0 -0.22210124239E+02 -0.34798978454E+02  0.65656107692E+03  0.66964561468E+03  0.12509413660E+03 0.  0.
          5    1    3    3  502    0  0.25473987365E+02 -0.68336066843E+02  0.34477289393E+03  0.35242667727E+03  0.41800000000E+01 0. -1.
         -5    1    3    3    0  502 -0.47684111604E+02  0.33537088389E+02  0.31178818300E+03  0.31721893741E+03  0.41800000000E+01 0. -1.
        -11    1    1    2    0    0 -0.35615067496E+02  0.10218213125E+02  0.90346926665E+02  0.97649434560E+02  0.00000000000E+00 0.  1.
         11    1    1    2    0    0  0.57825191736E+02  0.24580765330E+02  0.13573158009E+03  0.14956947769E+03  0.00000000000E+00 0. -1.
</event>
<event>
 7    1  0.2612213E-009  0.1422403E+03  0.7561462E-02  0.1210346E+00
         -3   -1    0    0    0  501 -0.00000000000E+00  0.00000000000E+00  0.56393856142E+02  0.56393856142E+02  0.00000000000E+00 0.  1.
          3   -1    0    0  501    0  0.00000000000E+00 -0.00000000000E+00 -0.36968583056E+03  0.36968583056E+03  0.00000000000E+00 0. -1.
         25    2    1    2    0    0  0.89305069556E+02 -0.28358577335E+02 -0.14393325373E+03  0.21246020509E+03  0.12507179083E+03 0.  0.
          5    1    3    3  502    0  0.24978835379E+02 -0.72193982682E+02 -0.87452351772E+02  0.11619509277E+03  0.41800000000E+01 0. -1.
         -5    1    3    3    0  502  0.64326234177E+02  0.43835405347E+02 -0.56480901954E+02  0.96265112325E+02  0.41800000000E+01 0. -1.
        -11    1    1    2    0    0  0.26467402543E+01 -0.24039965312E+02 -0.35982358300E+02  0.43354991351E+02  0.00000000000E+00 0. -1.
         11    1    1    2    0    0 -0.91951809810E+02  0.52398542647E+02 -0.13337636239E+03  0.17026449026E+03  0.00000000000E+00 0.  1.
</event>
<event>
 7    1  0.2612213E-009  0.1308391E+03  0.7561462E-02  0.1226216E+00
          2   -1    0    0  501    0  0.00000000000E+00  0.00000000000E+00  0.90993885281E+03  0.90993885281E+03  0.00000000000E+00 0. -1.
         -2   -1    0    0    0  501 -0.00000000000E+00 -0.00000000000E+00 -0.24115673682E+02  0.24115673682E+02  0.00000000000E+00 0.  1.
         25    2    1    2    0    0  0.97697236291E+02  0.20993054494E+02  0.44150369437E+03  0.46963598658E+03  0.12508792680E+03 0.  0.
          5    1    3    3  502    0 -0.56141572910E+01  0.22849029403E+02  0.25715401555E+03  0.25826199299E+03  0.41800000000E+01 0. -1.
         -5    1    3    3    0  502  0.10331139358E+03 -0.18559749081E+01  0.18434967882E+03  0.21137399359E+03  0.41800000000E+01 0. -1.
        -11    1    1    2    0    0 -0.66743437197E+01  0.29522647656E+02  0.80642019953E+02  0.86135178474E+02  0.00000000000E+00 0.  1.
         11    1    1    2    0    0 -0.91022892571E+02 -0.50515702150E+02  0.36367746480E+03  0.37828336144E+03  0.00000000000E+00 0. -1.
</event>
<event>
 7    1  0.2612213E-009  0.1332638E+03  0.7561462E-02  0.1222692E+00
         -2   -1    0    0    0  501 -0.00000000000E+00  0.00000000000E+00  0.20974881218E+03  0.20974881218E+03  0.00000000000E+00 0. -1.
          2   -1    0    0  501    0  0.00000000000E+00 -0.00000000000E+00 -0.11538157760E+03  0.11538157760E+03  0.00000000000E+00 0.  1.
         25    2    1    2    0    0 -0.47022515981E+02  0.98983475689E+02  0.29637304591E+02  0.16891946292E+03  0.12508624889E+03 0.  0.
          5    1    3    3  502    0  0.28082111932E+02  0.69209544586E+02 -0.15332293115E+02  0.76361755379E+02  0.41800000000E+01 0. -1.
         -5    1    3    3    0  502 -0.75104627913E+02  0.29773931103E+02  0.44969597706E+02  0.92557707540E+02  0.41800000000E+01 0. -1.
        -11    1    1    2    0    0  0.12731801117E+02 -0.45843114197E+02  0.78211555089E+02  0.91546366549E+02  0.00000000000E+00 0. -1.
         11    1    1    2    0    0  0.34290714864E+02 -0.53140361492E+02 -0.13481625094E+02  0.64664560314E+02  0.00000000000E+00 0.  1.
</event>
<event>
 7    1  0.2612213E-009  0.1145485E+03  0.7561462E-02  0.1252371E+00
         -2   -1    0    0    0  501 -0.00000000000E+00  0.00000000000E+00  0.33009593689E+02  0.33009593689E+02  0.00000000000E+00 0. -1.
          2   -1    0    0  501    0  0.00000000000E+00 -0.00000000000E+00 -0.43636521125E+03  0.43636521125E+03  0.00000000000E+00 0.  1.
         25    2    1    2    0    0 -0.47005208407E+02 -0.13434446118E+02 -0.17698853117E+03  0.22217686962E+03  0.12509055628E+03 0.  0.
          5    1    3    3  502    0 -0.84046342410E+02  0.16366448443E+02 -0.12536417621E+03  0.15187263540E+03  0.41800000000E+01 0.  1.
         -5    1    3    3    0  502  0.37041134003E+02 -0.29800894560E+02 -0.51624354960E+02  0.70304234224E+02  0.41800000000E+01 0.  1.
        -11    1    1    2    0    0  0.16244532147E+02 -0.34818715499E+02 -0.12526171528E+03  0.13102184966E+03  0.00000000000E+00 0.  1.
         11    1    1    2    0    0  0.30760676260E+02  0.48253161617E+02 -0.10110537111E+03  0.11617608566E+03  0.00000000000E+00 0. -1.
</event>
<event>
 7    1  0.2612213E-009  0.1053633E+03  0.7561462E-02  0.1269406E+00
         -1   -1    0    0    0  501 -0.00000000000E+00  0.00000000000E+00  0.29736787456E+02  0.29736787456E+02  0.00000000000E+00 0.  1.
          1   -1    0    0  501    0  0.00000000000E+00 -0.00000000000E+00 -0.46103925907E+03  0.46103925907E+03  0.00000000000E+00 0. -1.
         25    2    1    2    0    0  0.57476772881E+01 -0.44386181125E+02 -0.25807954752E+03  0.29026965990E+03  0.12509298039E+03 0.  0.
          5    1    3    3  502    0 -0.14436665007E+02 -0.77485030135E+02 -0.99700766828E+02  0.12716156061E+03  0.41800000000E+01 0. -1.
         -5    1    3    3    0  502  0.20184342295E+02  0.33098849011E+02 -0.15837878069E+03  0.16310809929E+03  0.41800000000E+01 0. -1.
        -11    1    1    2    0    0  0.29981761622E+02 -0.64508659606E+01 -0.24259911613E+02  0.39103235328E+02  0.00000000000E+00 0.  1.
         11    1    1    2    0    0 -0.35729438910E+02  0.50837047085E+02 -0.14896301248E+03  0.16140315129E+03  0.00000000000E+00 0. -1.
</event>
<event>
 7    1  0.2612213E-009  0.3769843E+03  0.7561462E-02  0.1052054E+00
         -1   -1    0    0    0  501 -0.00000000000E+00  0.00000000000E+00  0.31541139508E+03  0.31541139508E+03  0.00000000000E+00 0.  1.
          1   -1    0    0  501    0  0.00000000000E+00 -0.00000000000E+00 -0.74494836734E+03  0.74494836734E+03  0.00000000000E+00 0. -1.
         25    2    1    2    0    0  0.19528600554E+02 -0.36168235522E+03 -0.54753574073E+03  0.66830947892E+03  0.12508668959E+03 0.  0.
          5    1    3    3  502    0 -0.30868633075E+02 -0.18343245150E+02 -0.52806784874E+02  0.63995125434E+02  0.41800000000E+01 0. -1.
         -5    1    3    3    0  502  0.50397233629E+02 -0.34333911007E+03 -0.49472895585E+03  0.60431435348E+03  0.41800000000E+01 0. -1.
        -11    1    1    2    0    0  0.28216901936E+02  0.74765549381E+02  0.46770489883E+02  0.92593518418E+02  0.00000000000E+00 0.  1.
         11    1    1    2    0    0 -0.47745502490E+02  0.28691680584E+03  0.71228278588E+02  0.29945676508E+03  0.00000000000E+00 0. -1.
</event>
<event>
 7    1  0.2612213E-009  0.9904404E+02  0.7561462E-02  0.1282319E+00
         -1   -1    0    0    0  501 -0.00000000000E+00  0.00000000000E+00  0.51923298794E+02  0.51923298794E+02  0.00000000000E+00 0.  1.
          1   -1    0    0  501    0  0.00000000000E+00 -0.00000000000E+00 -0.38452345349E+03  0.38452345349E+03  0.00000000000E+00 0. -1.
         25    2    1    2    0    0 -0.91155338751E+02 -0.12169148062E+02 -0.18363250358E+03  0.24047044272E+03  0.12509098090E+03 0.  0.
          5    1    3    3  502    0 -0.18185203084E+02 -0.15094785107E+02  0.15335997275E+02  0.28481912876E+02  0.41800000000E+01 0. -1.
         -5    1    3    3    0  502 -0.72970135667E+02  0.29256370444E+01 -0.19896850086E+03  0.21198852984E+03  0.41800000000E+01 0. -1.
        -11    1    1    2    0    0  0.17084065534E+02  0.20174913190E+02  0.31207118721E+01  0.26620128850E+02  0.00000000000E+00 0.  1.
         11    1    1    2    0    0  0.74071273216E+02 -0.80057651274E+01 -0.15208836299E+03  0.16935618072E+03  0.00000000000E+00 0. -1.
</event>
<event>
 7    1  0.2612213E-009  0.1436264E+03  0.7561462E-02  0.1208531E+00
         -1   -1    0    0    0  501 -0.00000000000E+00  0.00000000000E+00  0.29944879749E+03  0.29944879749E+03  0.00000000000E+00 0.  1.
          1   -1    0    0  501    0  0.00000000000E+00 -0.00000000000E+00 -0.91651820749E+02  0.91651820749E+02  0.00000000000E+00 0. -1.
         25    2    1    2    0    0 -0.86986606466E+02  0.75668867253E+02  0.16831488978E+03  0.23931341102E+03  0.12509420209E+03 0.  0.
          5    1    3    3  502    0 -0.91873926798E+00  0.58800510877E+02  0.12207390137E+02  0.60206618700E+02  0.41800000000E+01 0. -1.
         -5    1    3    3    0  502 -0.86067867198E+02  0.16868356376E+02  0.15610749964E+03  0.17910679232E+03  0.41800000000E+01 0. -1.
        -11    1    1    2    0    0  0.17295361176E+02 -0.68249434964E+02 -0.18334292418E+01  0.70430649251E+02  0.00000000000E+00 0. -1.
         11    1    1    2    0    0  0.69691245290E+02 -0.74194322892E+01  0.41315516205E+02  0.81356557971E+02  0.00000000000E+00 0.  1.
</event>
<event>
 7    1  0.2612213E-009  0.1176675E+03  0.7561462E-02  0.1246995E+00
         -1   -1    0    0    0  501 -0.00000000000E+00  0.00000000000E+00  0.75323505968E+02  0.75323505968E+02  0.00000000000E+00 0.  1.
          1   -1    0    0  501    0  0.00000000000E+00 -0.00000000000E+00 -0.39158637312E+03  0.39158637312E+03  0.00000000000E+00 0. -1.
         25    2    1    2    0    0  0.49144771093E+02 -0.10112375955E+03 -0.26604970734E+03  0.31475578120E+03  0.12509009455E+03 0.  0.
          5    1    3    3  502    0  0.23618505920E+02 -0.91360786221E+02 -0.72059107842E+02  0.11880494309E+03  0.41800000000E+01 0. -1.
         -5    1    3    3    0  502  0.25526265173E+02 -0.97629733332E+01 -0.19399059950E+03  0.19595083811E+03  0.41800000000E+01 0. -1.
        -11    1    1    2    0    0 -0.91519899919E+01  0.32899265655E+02 -0.63369618958E+02  0.71984923480E+02  0.00000000000E+00 0. -1.
         11    1    1    2    0    0 -0.39992781101E+02  0.68224493899E+02  0.13156459144E+02  0.80169174407E+02  0.00000000000E+00 0.  1.
</event>
<event>
 7    1  0.2612213E-009  0.1405261E+03  0.7561462E-02  0.1212623E+00
          1   -1    0    0  501    0  0.00000000000E+00  0.00000000000E+00  0.69286760102E+02  0.69286760102E+02  0.00000000000E+00 0. -1.
         -1   -1    0    0    0  501 -0.00000000000E+00 -0.00000000000E+00 -0.32981718436E+03  0.32981718436E+03  0.00000000000E+00 0.  1.
         25    2    1    2    0    0 -0.28679136620E+02  0.10500718690E+03 -0.14486603304E+03  0.22018669557E+03  0.12508801381E+03 0.  0.
          5    1    3    3  502    0 -0.72093305869E+02  0.97616480886E+02 -0.11037169818E+03  0.16409084756E+03  0.41800000000E+01 0. -1.
         -5    1    3    3    0  502  0.43414169249E+02  0.73907060171E+01 -0.34494334859E+02  0.56095848014E+02  0.41800000000E+01 0. -1.
        -11    1    1    2    0    0  0.27563457859E+02 -0.31424627824E+02  0.31163934963E-01  0.41800148496E+02  0.00000000000E+00 0. -1.
         11    1    1    2    0    0  0.11156787607E+01 -0.73582559078E+02 -0.11569555516E+03  0.13711710040E+03  0.00000000000E+00 0.  1.
</event>
<event>
 6    1  0.2612213E-009  0.1136654E+03  0.7561462E-02  0.1253929E+00
         -2   -1    0    0    0  501 -0.00000000000E+00  0.00000000000E+00  0.10936821684E+03  0.10936821684E+03  0.00000000000E+00 0.  1.
          2   -1    0    0  501    0  0.00000000000E+00 -0.00000000000E+00 -0.17249015127E+03  0.17249015127E+03  0.00000000000E+00 0. -1.
          5    1    1    2  502    0 -0.66698534834E+01  0.44317475154E+02 -0.24279240900E+02  0.51141758752E+02  0.41800000000E+01 0. -1.
         -5    1    1    2    0  502  0.24541789091E+02 -0.80355356327E+02 -0.86391390185E+02  0.12058286529E+03  0.41800000000E+01 0. -1.
        -11    1    1    2    0    0  0.21793173978E+02  0.51268051419E+02  0.18641591350E+02  0.58744058903E+02  0.00000000000E+00 0. -1.
         11    1    1    2    0    0 -0.39665109586E+02 -0.15230170246E+02  0.28907105304E+02  0.51389685164E+02  0.00000000000E+00 0.  1.
</event>
<event>
 7    1  0.2612213E-009  0.7772278E+02  0.7561462E-02  0.1335641E+00
          1   -1    0    0  501    0  0.00000000000E+00  0.00000000000E+00  0.65130013071E+03  0.65130013071E+03  0.00000000000E+00 0. -1.
         -1   -1    0    0    0  501 -0.00000000000E+00 -0.00000000000E+00 -0.19710206132E+02  0.19710206132E+02  0.00000000000E+00 0.  1.
         25    2    1    2    0    0 -0.26033748612E+02 -0.15286510317E+02  0.31229440287E+03  0.33776852523E+03  0.12509336155E+03 0.  0.
          5    1    3    3  502    0 -0.31467709260E+02  0.17301507038E+02  0.15875684801E+02  0.39485043241E+02  0.41800000000E+01 0. -1.
         -5    1    3    3    0  502  0.54339606473E+01 -0.32588017354E+02  0.29641871807E+03  0.29828348199E+03  0.41800000000E+01 0. -1.
        -11    1    1    2    0    0  0.35642769730E+02 -0.25668898773E+02  0.23457533337E+03  0.23865222904E+03  0.00000000000E+00 0. -1.
         11    1    1    2    0    0 -0.96090211173E+01  0.40955409090E+02  0.84720188332E+02  0.94589582574E+02  0.00000000000E+00 0.  1.
</event>
<event>
 7    1  0.2612213E-009  0.1160336E+03  0.7561462E-02  0.1249788E+00
         -2   -1    0    0    0  501 -0.00000000000E+00  0.00000000000E+00  0.33644506225E+02  0.33644506225E+02  0.00000000000E+00 0.  1.
          2   -1    0    0  501    0  0.00000000000E+00 -0.00000000000E+00 -0.47280837451E+03  0.47280837451E+03  0.00000000000E+00 0. -1.
         25    2    1    2    0    0 -0.50778300733E+02 -0.19369218752E+02 -0.17581760072E+03  0.22251555905E+03  0.12509093825E+03 0.  0.
          5    1    3    3  502    0  0.32277934136E+02 -0.38699718517E+02 -0.56895237460E+02  0.76118812990E+02  0.41800000000E+01 0. -1.
         -5    1    3    3    0  502 -0.83056234870E+02  0.19330499765E+02 -0.11892236327E+03  0.14639674606E+03  0.41800000000E+01 0. -1.
        -11    1    1    2    0    0  0.55022397577E+02 -0.18474406010E+02 -0.21326740019E+03  0.22102432422E+03  0.00000000000E+00 0. -1.
         11    1    1    2    0    0 -0.42440968442E+01  0.37843624762E+02 -0.50078867368E+02  0.62912997465E+02  0.00000000000E+00 0.  1.
</event>
<event>
 7    1  0.2612213E-009  0.9134743E+02  0.7561462E-02  0.1299621E+00
          2   -1    0    0  501    0  0.00000000000E+00  0.00000000000E+00  0.48811971579E+02  0.48811971579E+02  0.00000000000E+00 0. -1.
         -2   -1    0    0    0  501 -0.00000000000E+00 -0.00000000000E+00 -0.29405607620E+03  0.29405607620E+03  0.00000000000E+00 0.  1.
         25    2    1    2    0    0 -0.14630207264E+02  0.26967205420E+02 -0.18944674654E+03  0.22908075450E+03  0.12508656671E+03 0.  0.
          5    1    3    3  502    0 -0.24853085156E+02  0.51516666319E+02 -0.19353406715E+03  0.20185279364E+03  0.41800000000E+01 0. -1.
         -5    1    3    3    0  502  0.10222877893E+02 -0.24549460899E+02  0.40873206097E+01  0.27227960860E+02  0.41800000000E+01 0. -1.
        -11    1    1    2    0    0 -0.37570188434E+02 -0.26928773208E+02 -0.19291555857E+02  0.50088342085E+02  0.00000000000E+00 0.  1.
         11    1    1    2    0    0  0.52200395698E+02 -0.38432212075E-01 -0.36505802226E+02  0.63698951202E+02  0.00000000000E+00 0. -1.
</event>
<event>
 7    1  0.2612213E-009  0.1132194E+03  0.7561462E-02  0.1254721E+00
         -2   -1    0    0    0  501 -0.00000000000E+00  0.00000000000E+00  0.51386709312E+02  0.51386709312E+02  0.00000000000E+00 0.  1.
          2   -1    0    0  501    0  0.00000000000E+00 -0.00000000000E+00 -0.46071928423E+03  0.46071928423E+03  0.00000000000E+00 0. -1.
         25    2    1    2    0    0  0.44599922900E+02  0.46675022836E+00 -0.55713176922E+02  0.14401802241E+03  0.12509141344E+03 0.  0.
          5    1    3    3  502    0  0.66123770635E+02  0.41876728998E+02 -0.57368869863E+02  0.97132245439E+02  0.41800000000E+01 0. -1.
         -5    1    3    3    0  502 -0.21523847735E+02 -0.41409978769E+02  0.16556929415E+01  0.46885776971E+02  0.41800000000E+01 0. -1.
        -11    1    1    2    0    0 -0.66600965622E+02  0.21624818095E+02 -0.21980246235E+03  0.23068689568E+03  0.00000000000E+00 0.  1.
         11    1    1    2    0    0  0.22001042723E+02 -0.22091568324E+02 -0.13381693564E+03  0.13740107545E+03  0.00000000000E+00 0. -1.
</event>
<event>
 7    1  0.2612213E-009  0.8607202E+02  0.7561462E-02  0.1312653E+00
          1   -1    0    0  501    0  0.00000000000E+00  0.00000000000E+00  0.96421788472E+02  0.96421788472E+02  0.00000000000E+00 0. -1.
         -1   -1    0    0    0  501 -0.00000000000E+00 -0.00000000000E+00 -0.12968439338E+03  0.12968439338E+03  0.00000000000E+00 0.  1.
         25    2    1    2    0    0 -0.11652128049E+02 -0.26672292574E+02 -0.38352178928E+01  0.12848725699E+03  0.12508830094E+03 0.  0.
          5    1    3    3  502    0  0.44706228790E+02 -0.26466822576E+02 -0.36109281051E+02  0.63407351056E+02  0.41800000000E+01 0.  1.
         -5    1    3    3    0  502 -0.56358356840E+02 -0.20546999729E+00  0.32274063158E+02  0.65079905934E+02  0.41800000000E+01 0.  1.
        -11    1    1    2    0    0 -0.18788899131E+02  0.27206309702E+02  0.20671898725E+02  0.38994017683E+02  0.00000000000E+00 0. -1.
         11    1    1    2    0    0  0.30441027180E+02 -0.53401712801E+00 -0.50099285742E+02  0.58624907180E+02  0.00000000000E+00 0.  1.
</event>
<event>
 7    1  0.2612213E-009  0.9009040E+02  0.7561462E-02  0.1302633E+00
          2   -1    0    0  501    0  0.00000000000E+00  0.00000000000E+00  0.82892884516E+03  0.82892884516E+03  0.00000000000E+00 0. -1.
         -2   -1    0    0    0  501 -0.00000000000E+00 -0.00000000000E+00 -0.23051663984E+02  0.23051663984E+02  0.00000000000E+00 0.  1.
         25    2    1    2    0    0 -0.22151429333E+00  0.62488395176E+02  0.62613144821E+03  0.64155548129E+03  0.12509195233E+03 0.  0.
          5    1    3    3  502    0  0.93071451069E+01  0.31552564051E+01 -0.17232891923E+01  0.10817611505E+02  0.41800000000E+01 0. -1.
         -5    1    3    3    0  502 -0.95286594003E+01  0.59333138771E+02  0.62785473740E+03  0.63073786979E+03  0.41800000000E+01 0. -1.
        -11    1    1    2    0    0  0.40774575267E+02 -0.54277530596E+02  0.10635834638E+03  0.12617731239E+03  0.00000000000E+00 0.  1.
         11    1    1    2    0    0 -0.40553060974E+02 -0.82108645801E+01  0.73387386585E+02  0.84247715466E+02  0.00000000000E+00 0. -1.
</event>
<event>
 7    1  0.2612213E-009  0.1029276E+03  0.7561462E-02  0.1274257E+00
         -2   -1    0    0    0  501 -0.00000000000E+00  0.00000000000E+00  0.11652430136E+03  0.11652430136E+03  0.00000000000E+00 0.  1.
          2   -1    0    0  501    0  0.00000000000E+00 -0.00000000000E+00 -0.14983020063E+03  0.14983020063E+03  0.00000000000E+00 0. -1.
         25    2    1    2    0    0 -0.98712040136E+01  0.47734039388E+02 -0.78221705986E+02  0.15537681616E+03  0.12508933019E+03 0.  0.
          5    1    3    3  502    0 -0.18222704002E+02  0.87919342085E+02 -0.37454798171E+02  0.97376649972E+02  0.41800000000E+01 0. -1.
         -5    1    3    3    0  502  0.83514999881E+01 -0.40185302698E+02 -0.40766907815E+02  0.58000166187E+02  0.41800000000E+01 0. -1.
        -11    1    1    2    0    0 -0.16127172194E+02 -0.45899952399E+02  0.62747371307E+02  0.79398513331E+02  0.00000000000E+00 0.  1.
         11    1    1    2    0    0  0.25998376207E+02 -0.18340869886E+01 -0.17831564589E+02  0.31579172506E+02  0.00000000000E+00 0. -1.
</event>
<event>
 7    1  0.2612213E-009  0.9498151E+02  0.7561462E-02  0.1291218E+00
          2   -1    0    0  501    0  0.00000000000E+00  0.00000000000E+00  0.71199643111E+02  0.71199643111E+02  0.00000000000E+00 0. -1.
         -2   -1    0    0    0  501 -0.00000000000E+00 -0.00000000000E+00 -0.21356346805E+03  0.21356346805E+03  0.00000000000E+00 0.  1.
         25    2    1    2    0    0  0.43914009113E+02 -0.12570512757E+02 -0.39657869517E+02  0.13893974969E+03  0.12508017205E+03 0.  0.
          5    1    3    3  502    0  0.51166574647E+02 -0.46816783726E+02  0.17623255630E+02  0.71679014632E+02  0.41800000000E+01 0.  1.
         -5    1    3    3    0  502 -0.72525655339E+01  0.34246270969E+02 -0.57281125147E+02  0.67260735056E+02  0.41800000000E+01 0.  1.
        -11    1    1    2    0    0  0.19185954507E+02 -0.48102991706E+01 -0.69836047569E+02  0.72583147966E+02  0.00000000000E+00 0.  1.
         11    1    1    2    0    0 -0.63099963621E+02  0.17380811928E+02 -0.32869907847E+02  0.73240213504E+02  0.00000000000E+00 0. -1.
</event>
<event>
 7    1  0.2612213E-009  0.9194947E+02  0.7561462E-02  0.1298198E+00
         -2   -1    0    0    0  501 -0.00000000000E+00  0.00000000000E+00  0.62176230857E+03  0.62176230857E+03  0.00000000000E+00 0.  1.
          2   -1    0    0  501    0  0.00000000000E+00 -0.00000000000E+00 -0.21670933941E+02  0.21670933941E+02  0.00000000000E+00 0. -1.
         25    2    1    2    0    0 -0.31935611638E+02  0.27426274948E+02  0.36554204039E+03  0.38863751766E+03  0.12508418362E+03 0.  0.
          5    1    3    3  502    0 -0.57264642232E+02  0.10168851384E+01  0.68792458345E+02  0.89611093233E+02  0.41800000000E+01 0. -1.
         -5    1    3    3    0  502  0.25329030594E+02  0.26409389809E+02  0.29674958205E+03  0.29902642443E+03  0.41800000000E+01 0. -1.
        -11    1    1    2    0    0 -0.76365680831E+01  0.23752033749E+02  0.12587063910E+03  0.12831949995E+03  0.00000000000E+00 0.  1.
         11    1    1    2    0    0  0.39572179721E+02 -0.51178308697E+02  0.10867869514E+03  0.12647622491E+03  0.00000000000E+00 0. -1.
</event>
<event>
 7    1  0.2612213E-009  0.1331705E+03  0.7561462E-02  0.1222826E+00
          1   -1    0    0  501    0  0.00000000000E+00  0.00000000000E+00  0.14127733797E+03  0.14127733797E+03  0.00000000000E+00 0. -1.
         -1   -1    0    0    0  501 -0.00000000000E+00 -0.00000000000E+00 -0.15834853584E+03  0.15834853584E+03  0.00000000000E+00 0.  1.
         25    2    1    2    0    0  0.63224955393E+01  0.82140928848E+02  0.48527281998E+02  0.15745479519E+03  0.12509999716E+03 0.  0.
          5    1    3    3  502    0 -0.51727430789E+02  0.99083464961E+01  0.14579035041E+00  0.52833664279E+02  0.41800000000E+01 0.  1.
         -5    1    3    3    0  502  0.58049926328E+02  0.72232582352E+02  0.48381491648E+02  0.10462113092E+03  0.41800000000E+01 0.  1.
        -11    1    1    2    0    0 -0.47126044671E+02 -0.50814684915E+02 -0.57591523462E+02  0.90109821130E+02  0.00000000000E+00 0. -1.
         11    1    1    2    0    0  0.40803549131E+02 -0.31326243933E+02 -0.80069564087E+01  0.52061257491E+02  0.00000000000E+00 0.  1.
</event>
<event>
 7    1  0.2612213E-009  0.1283370E+03  0.7561462E-02  0.1229944E+00
         -2   -1    0    0    0  501 -0.00000000000E+00  0.00000000000E+00  0.47019803637E+03  0.47019803637E+03  0.00000000000E+00 0.  1.
          2   -1    0    0  501    0  0.00000000000E+00 -0.00000000000E+00 -0.66244013531E+02  0.66244013531E+02  0.00000000000E+00 0. -1.
         25    2    1    2    0    0  0.65974893296E+02  0.72958651790E+02  0.36299382891E+03  0.39634228156E+03  0.12508810059E+03 0.  0.
          5    1    3    3  502    0  0.55898486133E+02 -0.20251438222E+02  0.19509558612E+03  0.20399637650E+03  0.41800000000E+01 0.  1.
         -5    1    3    3    0  502  0.10076407163E+02  0.93210090013E+02  0.16789824280E+03  0.19234590506E+03  0.41800000000E+01 0.  1.
        -11    1    1    2    0    0 -0.50656589422E+02 -0.71791750189E+02 -0.85324070411E+01  0.88277672245E+02  0.00000000000E+00 0. -1.
         11    1    1    2    0    0 -0.15318303875E+02 -0.11669016009E+01  0.49492600969E+02  0.51822096095E+02  0.00000000000E+00 0.  1.
</event>
<event>
 7    1  0.2612213E-009  0.8701180E+02  0.7561462E-02  0.1310254E+00
         -1   -1    0    0    0  501 -0.00000000000E+00  0.00000000000E+00  0.80075008537E+02  0.80075008537E+02  0.00000000000E+00 0.  1.
          1   -1    0    0  501    0  0.00000000000E+00 -0.00000000000E+00 -0.15412129413E+03  0.15412129413E+03  0.00000000000E+00 0. -1.
         25    2    1    2    0    0 -0.83517035828E+01 -0.16161392392E+02 -0.59285590901E+02  0.13962225635E+03  0.12509457072E+03 0.  0.
          5    1    3    3  502    0  0.12529657029E+02 -0.61732158424E+02 -0.62996417677E+02  0.89184487042E+02  0.41800000000E+01 0. -1.
         -5    1    3    3    0  502 -0.20881360612E+02  0.45570766032E+02  0.37108267751E+01  0.50437769311E+02  0.41800000000E+01 0. -1.
        -11    1    1    2    0    0  0.18881607783E+02  0.34567309632E+02 -0.43613580663E+02  0.58766984149E+02  0.00000000000E+00 0. -1.
         11    1    1    2    0    0 -0.10529904200E+02 -0.18405917240E+02  0.28852885973E+02  0.35807062165E+02  0.00000000000E+00 0.  1.
</event>
<event>
 7    1  0.2612213E-009  0.8933416E+02  0.7561462E-02  0.1304472E+00
         -3   -1    0    0    0  501 -0.00000000000E+00  0.00000000000E+00  0.76116942873E+02  0.76116942873E+02  0.00000000000E+00 0.  1.
          3   -1    0    0  501    0  0.00000000000E+00 -0.00000000000E+00 -0.21978817692E+03  0.21978817692E+03  0.00000000000E+00 0. -1.
         25    2    1    2    0    0  0.56857164706E+02 -0.28559022913E+02 -0.10095767500E+03  0.17288313591E+03  0.12509105313E+03 0.  0.
          5    1    3    3  502    0  0.16770606292E+02 -0.43094061164E+01  0.29357529209E+02  0.34338915791E+02  0.41800000000E+01 0.  1.
         -5    1    3    3    0  502  0.40086558414E+02 -0.24249616796E+02 -0.13031520421E+03  0.13854422012E+03  0.41800000000E+01 0.  1.
        -11    1    1    2    0    0  0.86880252555E+01  0.45335686031E+02 -0.27303657687E+02  0.53631109758E+02  0.00000000000E+00 0. -1.
         11    1    1    2    0    0 -0.65545189962E+02 -0.16776663118E+02 -0.15409901367E+02  0.69390874131E+02  0.00000000000E+00 0.  1.
</event>
<event>
 7    1  0.2612213E-009  0.9444173E+02  0.7561462E-02  0.1292438E+00
         -1   -1    0    0    0  501 -0.00000000000E+00  0.00000000000E+00  0.37048271602E+02  0.37048271602E+02  0.00000000000E+00 0.  1.
          1   -1    0    0  501    0  0.00000000000E+00 -0.00000000000E+00 -0.42164969515E+03  0.42164969515E+03  0.00000000000E+00 0. -1.
         25    2    1    2    0    0 -0.20756418773E+02  0.47787017381E+02 -0.27653070254E+03  0.30794672643E+03  0.12509008321E+03 0.  0.
          5    1    3    3  502    0 -0.60565726526E+02  0.18826015687E+02 -0.65739149359E+02  0.91442518856E+02  0.41800000000E+01 0.  1.
         -5    1    3    3    0  502  0.39809307752E+02  0.28961001693E+02 -0.21079155319E+03  0.21650420757E+03  0.41800000000E+01 0.  1.
        -11    1    1    2    0    0  0.36009479822E+02 -0.13621813892E+02 -0.23120496989E+01  0.38569184909E+02  0.00000000000E+00 0.  1.
         11    1    1    2    0    0 -0.15253061048E+02 -0.34165203489E+02 -0.10575867131E+03  0.11218205542E+03  0.00000000000E+00 0. -1.
</event>
<event>
 7    1  0.2612213E-009  0.1232482E+03  0.7561462E-02  0.1237833E+00
         -2   -1    0    0    0  501 -0.00000000000E+00  0.00000000000E+00  0.59799699362E+02  0.59799699362E+02  0.00000000000E+00 0.  1.
          2   -1    0    0  501    0  0.00000000000E+00 -0.00000000000E+00 -0.34129274475E+03  0.34129274475E+03  0.00000000000E+00 0. -1.
         25    2    1    2    0    0 -0.55279518484E+02 -0.72817229058E+02 -0.17179453561E+03  0.23134058398E+03  0.12508768651E+03 0.  0.
          5    1    3    3  502    0 -0.75280083186E+02 -0.76511924560E+02 -0.71780723612E+02  0.12919407961E+03  0.41800000000E+01 0.  1.
         -5    1    3    3    0  502  0.20000564702E+02  0.36946955020E+01 -0.10001381200E+03  0.10214650437E+03  0.41800000000E+01 0.  1.
        -11    1    1    2    0    0  0.70882059960E+02  0.74243508998E+02 -0.62866232567E+02  0.12036830251E+03  0.00000000000E+00 0.  1.
         11    1    1    2    0    0 -0.15602541476E+02 -0.14262799400E+01 -0.46832277202E+02  0.49383557617E+02  0.00000000000E+00 0. -1.
</event>
<event>
 7    1  0.2612213E-009  0.1408789E+03  0.7561462E-02  0.1212151E+00
          1   -1    0    0  501    0  0.00000000000E+00  0.00000000000E+00  0.29040171254E+02  0.29040171254E+02  0.00000000000E+00 0. -1.
         -1   -1    0    0    0  501 -0.00000000000E+00 -0.00000000000E+00 -0.74115578136E+03  0.74115578136E+03  0.00000000000E+00 0.  1.
         25    2    1    2    0    0 -0.25368979059E+02 -0.91822561093E+02 -0.32512695929E+03  0.36115133612E+03  0.12509108720E+03 0.  0.
          5    1    3    3  502    0  0.30067814441E+02  0.11205410160E+02 -0.12666431046E+03  0.13073237788E+03  0.41800000000E+01 0. -1.
         -5    1    3    3    0  502 -0.55436793500E+02 -0.10302797125E+03 -0.19846264883E+03  0.23041895824E+03  0.41800000000E+01 0. -1.
        -11    1    1    2    0    0  0.22586450331E+02  0.11083524164E+03 -0.33785518112E+03  0.35628741479E+03  0.00000000000E+00 0. -1.
         11    1    1    2    0    0  0.27825287284E+01 -0.19012680547E+02 -0.49133469698E+02  0.52757201710E+02  0.00000000000E+00 0.  1.
</event>
<event>
 7    1  0.2612213E-009  0.1360272E+03  0.7561462E-02  0.1218777E+00
          1   -1    0    0  501    0  0.00000000000E+00  0.00000000000E+00  0.63074548286E+03  0.63074548286E+03  0.00000000000E+00 0. -1.
         -1   -1    0    0    0  501 -0.00000000000E+00 -0.00000000000E+00 -0.46241419982E+02  0.46241419982E+02  0.00000000000E+00 0.  1.
         25    2    1    2    0    0 -0.73790811702E+02  0.90192716343E+02  0.43947088864E+03  0.47154987141E+03  0.12507921207E+03 0.  0.
          5    1    3    3  502    0 -0.62711041482E+02 -0.14775000487E+01  0.88140741076E+02  0.10826412318E+03  0.41800000000E+01 0. -1.
         -5    1    3    3    0  502 -0.11079770221E+02  0.91670216391E+02  0.35133014756E+03  0.36328574823E+03  0.41800000000E+01 0. -1.
        -11    1    1    2    0    0  0.30486747048E+02 -0.42923026468E+02  0.68298335196E+01  0.53089307517E+02  0.00000000000E+00 0.  1.
         11    1    1    2    0    0  0.43304064654E+02 -0.47269689875E+02  0.13820334072E+03  0.15234772392E+03  0.00000000000E+00 0. -1.
</event>
<event>
 7    1  0.2612213E-009  0.1709144E+03  0.7561462E-02  0.1176898E+00
          3   -1    0    0  501    0  0.00000000000E+00  0.00000000000E+00  0.30274279118E+03  0.30274279118E+03  0.00000000000E+00 0. -1.
         -3   -1    0    0    0  501 -0.00000000000E+00 -0.00000000000E+00 -0.11084149242E+03  0.11084149242E+03  0.00000000000E+00 0.  1.
         25    2    1    2    0    0 -0.11380511099E+03  0.94019639853E+02  0.12821103576E+03  0.23211436184E+03  0.12509081228E+03 0.  0.
          5    1    3    3  502    0  0.24658079120E+01 -0.23953734192E+02  0.32833209689E+02  0.40931084140E+02  0.41800000000E+01 0. -1.
         -5    1    3    3    0  502 -0.11627091890E+03  0.11797337405E+03  0.95377826073E+02  0.19118327770E+03  0.41800000000E+01 0. -1.
        -11    1    1    2    0    0  0.90927605735E+02 -0.54437530103E+02  0.80156458896E+02  0.13287713148E+03  0.00000000000E+00 0. -1.
         11    1    1    2    0    0  0.22877505254E+02 -0.39582109750E+02 -0.16466195900E+02  0.48592790271E+02  0.00000000000E+00 0.  1.
</event>
<event>
 7    1  0.2612213E-009  0.1040533E+03  0.7561462E-02  0.1271996E+00
         -1   -1    0    0    0  501 -0.00000000000E+00  0.00000000000E+00  0.16742870214E+02  0.16742870214E+02  0.00000000000E+00 0.  1.
          1   -1    0    0  501    0  0.00000000000E+00 -0.00000000000E+00 -0.72646351839E+03  0.72646351839E+03  0.00000000000E+00 0. -1.
         25    2    1    2    0    0 -0.10286536388E+02 -0.15212289024E+02 -0.39753150392E+03  0.41715225223E+03  0.12508988113E+03 0.  0.
          5    1    3    3  502    0 -0.11438135521E+02 -0.64327263442E+02 -0.13508268643E+03  0.15011206593E+03  0.41800000000E+01 0.  1.
         -5    1    3    3    0  502  0.11515991336E+01  0.49114974418E+02 -0.26244881749E+03  0.26704018629E+03  0.41800000000E+01 0.  1.
        -11    1    1    2    0    0  0.21430061788E+02 -0.35468226962E+02 -0.15916482799E+03  0.16447092491E+03  0.00000000000E+00 0. -1.
         11    1    1    2    0    0 -0.11143525401E+02  0.50680515987E+02 -0.15302431627E+03  0.16158321147E+03  0.00000000000E+00 0.  1.
</event>
<event>
 7    1  0.2612213E-009  0.1178454E+03  0.7561462E-02  0.1246694E+00
          1   -1    0    0  501    0  0.00000000000E+00  0.00000000000E+00  0.60719757384E+03  0.60719757384E+03  0.00000000000E+00 0. -1.
         -1   -1    0    0    0  501 -0.00000000000E+00 -0.00000000000E+00 -0.39086968400E+02  0.39086968400E+02  0.00000000000E+00 0.  1.
         25    2    1    2    0    0  0.51445853643E+02 -0.90950122052E+02  0.40282082276E+03  0.43454518510E+03  0.12508517934E+03 0.  0.
          5    1    3    3  502    0  0.69737687771E+02 -0.61396752458E+02  0.13202522521E+03  0.16149625011E+03  0.41800000000E+01 0. -1.
         -5    1    3    3    0  502 -0.18291834128E+02 -0.29553369594E+02  0.27079559754E+03  0.27304893499E+03  0.41800000000E+01 0. -1.
        -11    1    1    2    0    0 -0.38567283854E+02  0.41829669533E+02  0.24271793437E+02  0.61856904172E+02  0.00000000000E+00 0.  1.
         11    1    1    2    0    0 -0.12878569789E+02  0.49120452519E+02  0.14101798924E+03  0.14988245296E+03  0.00000000000E+00 0. -1.
</event>
<event>
 7    1  0.2612213E-009  0.1223559E+03  0.7561462E-02  0.1239260E+00
          1   -1    0    0  501    0  0.00000000000E+00  0.00000000000E+00  0.12543274138E+04  0.12543274138E+04  0.00000000000E+00 0. -1.
         -1   -1    0    0    0  501 -0.00000000000E+00 -0.00000000000E+00 -0.16235444277E+02  0.16235444277E+02  0.00000000000E+00 0.  1.
         25    2    1    2    0    0 -0.96479597763E+01 -0.90841396819E+02  0.77015966407E+03  0.78558160416E+03  0.12508919272E+03 0.  0.
          5    1    3    3  502    0 -0.49555268148E+02 -0.63332237014E+02  0.66328417957E+03  0.66815422779E+03  0.41800000000E+01 0.  1.
         -5    1    3    3    0  502  0.39907308371E+02 -0.27509159805E+02  0.10687548450E+03  0.11742737637E+03  0.41800000000E+01 0.  1.
        -11    1    1    2    0    0 -0.30357279046E+02  0.49054832073E+02  0.13129557969E+03  0.14341014674E+03  0.00000000000E+00 0.  1.
         11    1    1    2    0    0  0.40005238822E+02  0.41786564747E+02  0.33663672575E+03  0.34157110716E+03  0.00000000000E+00 0. -1.
</event>
<event>
 7    1  0.2612213E-009  0.1422657E+03  0.7561462E-02  0.1210312E+00
         -2   -1    0    0    0  501 -0.00000000000E+00  0.00000000000E+00  0.26678576184E+03  0.26678576184E+03  0.00000000000E+00 0.  1.
          2   -1    0    0  501    0  0.00000000000E+00 -0.00000000000E+00 -0.92213643338E+02  0.92213643338E+02  0.00000000000E+00 0. -1.
         25    2    1    2    0    0 -0.62917246345E+02 -0.92230435975E+02  0.11301576148E+03  0.20220666146E+03  0.12509971378E+03 0.  0.
          5    1    3    3  502    0 -0.88550281381E+00 -0.78498386598E+02  0.75035077953E+01  0.78971867415E+02  0.41800000000E+01 0. -1.
         -5    1    3    3    0  502 -0.62031743531E+02 -0.13732049377E+02  0.10551225368E+03  0.12323479404E+03  0.41800000000E+01 0. -1.
        -11    1    1    2    0    0  0.85254894058E+02  0.79309576671E+02  0.39846170618E+02  0.12306958692E+03  0.00000000000E+00 0. -1.
         11    1    1    2    0    0 -0.22337647713E+02  0.12920859304E+02  0.21710186405E+02  0.33723156795E+02  0.00000000000E+00 0.  1.
</event>
<event>
 7    1  0.2612213E-009  0.1247619E+03  0.7561462E-02  0.1235442E+00
          2   -1    0    0  501    0  0.00000000000E+00  0.00000000000E+00  0.54933634936E+03  0.54933634936E+03  0.00000000000E+00 0. -1.
         -2   -1    0    0    0  501 -0.00000000000E+00 -0.00000000000E+00 -0.37627243851E+02  0.37627243851E+02  0.00000000000E+00 0.  1.
         25    2    1    2    0    0 -0.21177512606E+02  0.71244682469E+02  0.40248727922E+03  0.42798146244E+03  0.12509128844E+03 0.  0.
          5    1    3    3  502    0 -0.55009181005E+02  0.89870600696E-01  0.88946366432E+02  0.10466588065E+03  0.41800000000E+01 0.  1.
         -5    1    3    3    0  502  0.33831668399E+02  0.71154811868E+02  0.31354091278E+03  0.32331558179E+03  0.41800000000E+01 0.  1.
        -11    1    1    2    0    0 -0.19256712468E+02  0.12155235582E+02  0.23744780791E+02  0.32899625255E+02  0.00000000000E+00 0.  1.
         11    1    1    2    0    0  0.40434225074E+02 -0.83399918050E+02  0.85477045499E+02  0.12608250551E+03  0.00000000000E+00 0. -1.
</event>
<event>
 7    1  0.2985370E-009  0.1474723E+03  0.7561462E-02  0.1203614E+00
          2   -1    0    0  501    0  0.00000000000E+00  0.00000000000E+00  0.55436755255E+03  0.55436755255E+03  0.00000000000E+00 0. -1.
         -2   -1    0    0    0  501 -0.00000000000E+00 -0.00000000000E+00 -0.59710039147E+02  0.59710039147E+02  0.00000000000E+00 0.  1.
         25    2    1    2    0    0  0.11774882336E+03 -0.49681123448E+02  0.14247528663E+03  0.22865206222E+03  0.12509819674E+03 0.  0.
          5    1    3    3  502    0  0.12860542634E+03 -0.66585338907E+02  0.85810540398E+02  0.16838611666E+03  0.41800000000E+01 0. -1.
         -5    1    3    3    0  502 -0.10856602978E+02  0.16904215459E+02  0.56664746234E+02  0.60265945560E+02  0.41800000000E+01 0. -1.
        -11    1    1    2    0    0 -0.62816953484E+02  0.15011232898E+02  0.67480103149E+02  0.93407018361E+02  0.00000000000E+00 0.  1.
         11    1    1    2    0    0 -0.54931869876E+02  0.34669890550E+02  0.28470212363E+03  0.29201851112E+03  0.00000000000E+00 0. -1.
</event>
<event>
 7    1  0.2612213E-009  0.1435781E+03  0.7561462E-02  0.1208594E+00
         -1   -1    0    0    0  501 -0.00000000000E+00  0.00000000000E+00  0.72611465770E+02  0.72611465770E+02  0.00000000000E+00 0.  1.
          1   -1    0    0  501    0  0.00000000000E+00 -0.00000000000E+00 -0.30031893794E+03  0.30031893794E+03  0.00000000000E+00 0. -1.
         25    2    1    2    0    0 -0.94738806054E+02 -0.17589324954E+02 -0.85079458722E+02  0.17935993655E+03  0.12508655730E+03 0.  0.
          5    1    3    3  502    0 -0.11544837806E+03  0.17312026785E+02 -0.67704935524E+02  0.13501653589E+03  0.41800000000E+01 0. -1.
         -5    1    3    3    0  502  0.20709572008E+02 -0.34901351740E+02 -0.17374523198E+02  0.44343400663E+02  0.41800000000E+01 0. -1.
        -11    1    1    2    0    0 -0.14581405405E+02  0.13925627651E+02 -0.33238524493E+02  0.38875956574E+02  0.00000000000E+00 0. -1.
         11    1    1    2    0    0  0.10932021146E+03  0.36636973029E+01 -0.10938948895E+03  0.15469451058E+03  0.00000000000E+00 0.  1.
</event>
<event>
 7    1  0.2612213E-009  0.9197393E+02  0.7561462E-02  0.1298141E+00
         -2   -1    0    0    0  501 -0.00000000000E+00  0.00000000000E+00  0.92231892831E+02  0.92231892831E+02  0.00000000000E+00 0.  1.
          2   -1    0    0  501    0  0.00000000000E+00 -0.00000000000E+00 -0.15469926344E+03  0.15469926344E+03  0.00000000000E+00 0. -1.
         25    2    1    2    0    0  0.45894697367E+02 -0.99396524994E+01 -0.18626081520E+02  0.13491545902E+03  0.12510048054E+03 0.  0.
          5    1    3    3  502    0 -0.11314220249E+02 -0.51768325918E+02  0.16569018622E+02  0.55677427440E+02  0.41800000000E+01 0.  1.
         -5    1    3    3    0  502  0.57208917616E+02  0.41828673419E+02 -0.35195100142E+02  0.79238031580E+02  0.41800000000E+01 0.  1.
        -11    1    1    2    0    0  0.23169292172E+01  0.11334034257E+02 -0.60033890491E+02  0.61138339044E+02  0.00000000000E+00 0. -1.
         11    1    1    2    0    0 -0.48211626584E+02 -0.13943817574E+01  0.16192601399E+02  0.50877358210E+02  0.00000000000E+00 0.  1.
</event>
<event>
 7    1  0.2791663E-009  0.8615407E+02  0.7561462E-02  0.1312442E+00
          1   -1    0    0  501    0  0.00000000000E+00  0.00000000000E+00  0.45634724257E+03  0.45634724257E+03  0.00000000000E+00 0. -1.
         -1   -1    0    0    0  501 -0.00000000000E+00 -0.00000000000E+00 -0.38500170094E+02  0.38500170094E+02  0.00000000000E+00 0.  1.
         25    2    1    2    0    0  0.26279532768E+02 -0.16803818520E+02  0.36059731595E+03  0.38295047571E+03  0.12509060883E+03 0.  0.
          5    1    3    3  502    0  0.31514363753E+02  0.34015644280E+02  0.29995361778E+03  0.30354548983E+03  0.41800000000E+01 0. -1.
         -5    1    3    3    0  502 -0.52348309844E+01 -0.50819462800E+02  0.60643698166E+02  0.79404985875E+02  0.41800000000E+01 0. -1.
        -11    1    1    2    0    0 -0.49374849906E+02  0.13265260533E+02  0.11640078696E+01  0.51139005217E+02  0.00000000000E+00 0.  1.
         11    1    1    2    0    0  0.23095317138E+02  0.35385579867E+01  0.56085748665E+02  0.60757931742E+02  0.00000000000E+00 0. -1.
</event>
<event>
 7    1  0.2612213E-009  0.1237600E+03  0.7561462E-02  0.1237020E+00
          1   -1    0    0  501    0  0.00000000000E+00  0.00000000000E+00  0.88770434259E+03  0.88770434259E+03  0.00000000000E+00 0. -1.
         -1   -1    0    0    0  501 -0.00000000000E+00 -0.00000000000E+00 -0.20607574922E+02  0.20607574922E+02  0.00000000000E+00 0.  1.
         25    2    1    2    0    0  0.37649141302E+02 -0.69845465469E+02  0.51377021192E+03  0.53469912560E+03  0.12508987718E+03 0.  0.
          5    1    3    3  502    0  0.52822106563E+02 -0.96255043015E+02  0.45821748232E+03  0.47120689909E+03  0.41800000000E+01 0.  1.
         -5    1    3    3    0  502 -0.15172965261E+02  0.26409577546E+02  0.55552729600E+02  0.63492226509E+02  0.41800000000E+01 0.  1.
        -11    1    1    2    0    0  0.21275076799E+02  0.25158600412E+02  0.40732446651E+02  0.52390039871E+02  0.00000000000E+00 0. -1.
         11    1    1    2    0    0 -0.58924218100E+02  0.44686865057E+02  0.31259410911E+03  0.32122275205E+03  0.00000000000E+00 0.  1.
</event>
<event>
 7    1  0.2612213E-009  0.1154588E+03  0.7561462E-02  0.1250782E+00
         -2   -1    0    0    0  501 -0.00000000000E+00  0.00000000000E+00  0.29064328686E+02  0.29064328686E+02  0.00000000000E+00 0.  1.
          2   -1    0    0  501    0  0.00000000000E+00 -0.00000000000E+00 -0.89528736765E+03  0.89528736765E+03  0.00000000000E+00 0. -1.
         25    2    1    2    0    0 -0.60296615625E+02  0.36942892277E+01 -0.76224992297E+03  0.77480512119E+03  0.12509476856E+03 0.  0.
          5    1    3    3  502    0  0.17252683822E+02  0.46687092497E+02 -0.29479385947E+03  0.29899537068E+03  0.41800000000E+01 0.  1.
         -5    1    3    3    0  502 -0.77549299447E+02 -0.42992803270E+02 -0.46745606350E+03  0.47580975051E+03  0.41800000000E+01 0.  1.
        -11    1    1    2    0    0  0.19667751958E+02  0.32369159748E+02 -0.71802572597E+01  0.38550474241E+02  0.00000000000E+00 0.  1.
         11    1    1    2    0    0  0.40628863668E+02 -0.36063448976E+02 -0.96792858735E+02  0.11099610091E+03  0.00000000000E+00 0. -1.
</event>
<event>
 7    1  0.2612213E-009  0.1633572E+03  0.7561462E-02  0.1184958E+00
         -3   -1    0    0    0  501 -0.00000000000E+00  0.00000000000E+00  0.20133491914E+03  0.20133491914E+03  0.00000000000E+00 0.  1.
          3   -1    0    0  501    0  0.00000000000E+00 -0.00000000000E+00 -0.16598841814E+03  0.16598841814E+03  0.00000000000E+00 0. -1.
         25    2    1    2    0    0 -0.85224404512E+02 -0.87818156310E+02  0.10041108694E+03  0.20175548397E+03  0.12509061208E+03 0.  0.
          5    1    3    3  502    0  0.31926647981E+02 -0.30726113038E+02  0.28516786904E+02  0.52859099586E+02  0.41800000000E+01 0. -1.
         -5    1    3    3    0  502 -0.11715105249E+03 -0.57092043272E+02  0.71894300035E+02  0.14889638438E+03  0.41800000000E+01 0. -1.
        -11    1    1    2    0    0  0.18128635414E+02 -0.18626105943E+02 -0.65686228791E+01  0.26809066584E+02  0.00000000000E+00 0. -1.
         11    1    1    2    0    0  0.67095769098E+02  0.10644426225E+03 -0.58495963062E+02  0.13875878672E+03  0.00000000000E+00 0.  1.
</event>
<event>
 7    1  0.2612213E-009  0.1287918E+03  0.7561462E-02  0.1229260E+00
         -2   -1    0    0    0  501 -0.00000000000E+00  0.00000000000E+00  0.46423072141E+03  0.46423072141E+03  0.00000000000E+00 0.  1.
          2   -1    0    0  501    0  0.00000000000E+00 -0.00000000000E+00 -0.87567870681E+02  0.87567870681E+02  0.00000000000E+00 0. -1.
         25    2    1    2    0    0 -0.11791484629E+03 -0.34019086454E+02  0.37142302853E+02  0.17913072812E+03  0.12508820039E+03 0.  0.
          5    1    3    3  502    0 -0.10285889118E+03 -0.27823895939E+02 -0.29304476862E+02  0.11059089223E+03  0.41800000000E+01 0. -1.
         -5    1    3    3    0  502 -0.15055955112E+02 -0.61951905145E+01  0.66446779716E+02  0.68539835894E+02  0.41800000000E+01 0. -1.
        -11    1    1    2    0    0  0.85961580515E+02 -0.20035966371E+01  0.29432517589E+03  0.30662797799E+03  0.00000000000E+00 0. -1.
         11    1    1    2    0    0  0.31953265777E+02  0.36022683091E+02  0.45195371987E+02  0.66039885978E+02  0.00000000000E+00 0.  1.
</event>
<event>
 7    1  0.2612213E-009  0.1048048E+03  0.7561462E-02  0.1270505E+00
          2   -1    0    0  501    0  0.00000000000E+00  0.00000000000E+00  0.42305339368E+03  0.42305339368E+03  0.00000000000E+00 0. -1.
         -2   -1    0    0    0  501 -0.00000000000E+00 -0.00000000000E+00 -0.31787851323E+02  0.31787851323E+02  0.00000000000E+00 0.  1.
         25    2    1    2    0    0 -0.37804263577E+02 -0.51942553782E+01  0.19112037225E+03  0.23158200367E+03  0.12508830921E+03 0.  0.
          5    1    3    3  502    0 -0.82083565402E+02  0.12049537826E+02  0.12269730506E+03  0.14817221109E+03  0.41800000000E+01 0.  1.
         -5    1    3    3    0  502  0.44279301826E+02 -0.17243793204E+02  0.68423067190E+02  0.83409792578E+02  0.41800000000E+01 0.  1.
        -11    1    1    2    0    0  0.23119836336E+02 -0.31639245757E+02  0.32266502170E+02  0.50761164945E+02  0.00000000000E+00 0.  1.
         11    1    1    2    0    0  0.14684427240E+02  0.36833501135E+02  0.16787866793E+03  0.17249807638E+03  0.00000000000E+00 0. -1.
</event>
<event>
 7    1  0.2612213E-009  0.8968750E+02  0.7561462E-02  0.1303610E+00
         -1   -1    0    0    0  501 -0.00000000000E+00  0.00000000000E+00  0.39448278442E+03  0.39448278442E+03  0.00000000000E+00 0. -1.
          1   -1    0    0  501    0  0.00000000000E+00 -0.00000000000E+00 -0.61519429655E+02  0.61519429655E+02  0.00000000000E+00 0.  1.
         25    2    1    2    0    0 -0.22529578959E+02 -0.39679102316E+02  0.31432894306E+02  0.13681199429E+03  0.12508989507E+03 0.  0.
          5    1    3    3  502    0 -0.40193822594E+02 -0.39605097093E+02 -0.35943169867E+02  0.67033506178E+02  0.41800000000E+01 0. -1.
         -5    1    3    3    0  502  0.17664243635E+02 -0.74005223348E-01  0.67376064173E+02  0.69778488114E+02  0.41800000000E+01 0. -1.
        -11    1    1    2    0    0  0.46239254248E+02 -0.12009359024E+02  0.13237534307E+03  0.14073210291E+03  0.00000000000E+00 0. -1.
         11    1    1    2    0    0 -0.23709675289E+02  0.51688461340E+02  0.16915511739E+03  0.17845811687E+03  0.00000000000E+00 0.  1.
</event>
<event>
 7    1  0.3497053E-009  0.1174616E+03  0.7561462E-02  0.1247344E+00
         -1   -1    0    0    0  501 -0.00000000000E+00  0.00000000000E+00  0.10224779257E+03  0.10224779257E+03  0.00000000000E+00 0.  1.
          1   -1    0    0  501    0  0.00000000000E+00 -0.00000000000E+00 -0.33842590438E+03  0.33842590438E+03  0.00000000000E+00 0. -1.
         25    2    1    2    0    0  0.27596237691E+01  0.10171347521E+03  0.70991659465E+01  0.16140422404E+03  0.12509068238E+03 0.  0.
          5    1    3    3  502    0  0.11556625053E+02  0.71540501591E+02  0.63669225411E+02  0.96554863238E+02  0.41800000000E+01 0. -1.
         -5    1    3    3    0  502 -0.87970012834E+01  0.30172973622E+02 -0.56570059465E+02  0.64849360804E+02  0.41800000000E+01 0. -1.
        -11    1    1    2    0    0 -0.41015476131E+02 -0.35915157534E+02 -0.14538192881E+03  0.15526774632E+03  0.00000000000E+00 0. -1.
         11    1    1    2    0    0  0.38255852362E+02 -0.65798317680E+02 -0.97895348955E+02  0.12400172659E+03  0.00000000000E+00 0.  1.
</event>
<event>
 7    1  0.2612213E-009  0.6402380E+02  0.7561462E-02  0.1381682E+00
         -2   -1    0    0    0  501 -0.00000000000E+00  0.00000000000E+00  0.19699771258E+03  0.19699771258E+03  0.00000000000E+00 0. -1.
          2   -1    0    0  501    0  0.00000000000E+00 -0.00000000000E+00 -0.67985356470E+02  0.67985356470E+02  0.00000000000E+00 0.  1.
         25    2    1    2    0    0  0.23586416187E+02  0.24174418679E+02  0.99838449060E+02  0.16357155363E+03  0.12508883123E+03 0.  0.
          5    1    3    3  502    0  0.22220117024E+02  0.26559955638E+02  0.12918014956E+03  0.13380638357E+03  0.41800000000E+01 0.  1.
         -5    1    3    3    0  502  0.13662991626E+01 -0.23855369588E+01 -0.29341700501E+02  0.29765170053E+02  0.41800000000E+01 0.  1.
        -11    1    1    2    0    0 -0.19242844947E+02  0.29005029121E+02  0.32938866251E+02  0.47922309062E+02  0.00000000000E+00 0. -1.
         11    1    1    2    0    0 -0.43435712400E+01 -0.53179447800E+02 -0.37649592016E+01  0.53489206362E+02  0.00000000000E+00 0.  1.
</event>
<event>
 7    1  0.2612213E-009  0.1005527E+03  0.7561462E-02  0.1279138E+00
          2   -1    0    0  501    0  0.00000000000E+00  0.00000000000E+00  0.26936036633E+03  0.26936036633E+03  0.00000000000E+00 0. -1.
         -2   -1    0    0    0  501 -0.00000000000E+00 -0.00000000000E+00 -0.82166875320E+02  0.82166875320E+02  0.00000000000E+00 0.  1.
         25    2    1    2    0    0 -0.93412363399E+02 -0.84619059930E+00  0.66489753104E+02  0.16969952001E+03  0.12510177516E+03 0.  0.
          5    1    3    3  502    0 -0.28616121484E+02 -0.15575383534E+02  0.92545663064E+02  0.98202072957E+02  0.41800000000E+01 0. -1.
         -5    1    3    3    0  502 -0.64796241915E+02  0.14729192934E+02 -0.26055909960E+02  0.71497447050E+02  0.41800000000E+01 0. -1.
        -11    1    1    2    0    0  0.80382463746E+02  0.15718324227E+02  0.27270879929E+02  0.86325587670E+02  0.00000000000E+00 0.  1.
         11    1    1    2    0    0  0.13029899653E+02 -0.14872133628E+02  0.93432857973E+02  0.95502133969E+02  0.00000000000E+00 0. -1.
</event>
<event>
 7    1  0.2612213E-009  0.1343973E+03  0.7561462E-02  0.1221073E+00
         -1   -1    0    0    0  501 -0.00000000000E+00  0.00000000000E+00  0.74228032958E+02  0.74228032958E+02  0.00000000000E+00 0.  1.
          1   -1    0    0  501    0  0.00000000000E+00 -0.00000000000E+00 -0.32631923105E+03  0.32631923105E+03  0.00000000000E+00 0. -1.
         25    2    1    2    0    0 -0.70599376613E+02 -0.59316790076E+02 -0.54846078221E+02  0.16479571106E+03  0.12508709175E+03 0.  0.
          5    1    3    3  502    0 -0.99100169012E+02 -0.44358001532E+02 -0.69711400900E+02  0.12909542058E+03  0.41800000000E+01 0. -1.
         -5    1    3    3    0  502  0.28500792399E+02 -0.14958788544E+02  0.14865322680E+02  0.35700290481E+02  0.41800000000E+01 0. -1.
        -11    1    1    2    0    0  0.90295846369E+02  0.59222755724E+02 -0.15247638100E+03  0.18684143392E+03  0.00000000000E+00 0.  1.
         11    1    1    2    0    0 -0.19696469756E+02  0.94034352570E-01 -0.44768738875E+02  0.48910119033E+02  0.00000000000E+00 0. -1.
</event>
<event>
 7    1  0.2662911E-009  0.9649269E+02  0.7561462E-02  0.1287849E+00
         -1   -1    0    0    0  501 -0.00000000000E+00  0.00000000000E+00  0.40632778661E+02  0.40632778661E+02  0.00000000000E+00 0.  1.
          1   -1    0    0  501    0  0.00000000000E+00 -0.00000000000E+00 -0.70174790424E+03  0.70174790424E+03  0.00000000000E+00 0. -1.
         25    2    1    2    0    0  0.52197534580E+02  0.27354555933E+02 -0.60309460174E+03  0.61874550900E+03  0.12510016750E+03 0.  0.
          5    1    3    3  502    0  0.69225481298E+02 -0.12707184926E+02 -0.52082319401E+03  0.52557388789E+03  0.41800000000E+01 0. -1.
         -5    1    3    3    0  502 -0.17027946718E+02  0.40061740859E+02 -0.82271407730E+02  0.93171621109E+02  0.41800000000E+01 0. -1.
        -11    1    1    2    0    0 -0.12909908327E+02  0.15790463890E+02  0.18409802699E+02  0.27475904322E+02  0.00000000000E+00 0.  1.
         11    1    1    2    0    0 -0.39287626253E+02 -0.43145019824E+02 -0.76430326532E+02  0.96159269579E+02  0.00000000000E+00 0. -1.
</event>
<event>
 7    1  0.2612213E-009  0.2318832E+03  0.7561462E-02  0.1125321E+00
         -2   -1    0    0    0  501 -0.00000000000E+00  0.00000000000E+00  0.41146598600E+02  0.41146598600E+02  0.00000000000E+00 0.  1.
          2   -1    0    0  501    0  0.00000000000E+00 -0.00000000000E+00 -0.14706004081E+04  0.14706004081E+04  0.00000000000E+00 0. -1.
         25    2    1    2    0    0 -0.26265898675E+02  0.21731888456E+03 -0.81443499665E+03  0.85256615752E+03  0.12508914487E+03 0.  0.
          5    1    3    3  502    0 -0.66384603671E+02  0.15996797974E+03 -0.46636031111E+03  0.49749983148E+03  0.41800000000E+01 0.  1.
         -5    1    3    3    0  502  0.40118704997E+02  0.57350904827E+02 -0.34807468554E+03  0.35506632604E+03  0.41800000000E+01 0.  1.
        -11    1    1    2    0    0  0.78282695623E+01 -0.16006146859E+03 -0.53855732766E+03  0.56189407427E+03  0.00000000000E+00 0. -1.
         11    1    1    2    0    0  0.18437629112E+02 -0.57257415976E+02 -0.76461485154E+02  0.97286774864E+02  0.00000000000E+00 0.  1.
</event>
<event>
 7    1  0.2612213E-009  0.1043412E+03  0.7561462E-02  0.1271423E+00
          1   -1    0    0  501    0  0.00000000000E+00  0.00000000000E+00  0.13213124750E+03  0.13213124750E+03  0.00000000000E+00 0. -1.
         -1   -1    0    0    0  501 -0.00000000000E+00 -0.00000000000E+00 -0.15850781630E+03  0.15850781630E+03  0.00000000000E+00 0.  1.
         25    2    1    2    0    0  0.75445042493E+02  0.43193766160E+02  0.23521373126E+02  0.15413621234E+03  0.12508821322E+03 0.  0.
          5    1    3    3  502    0  0.18752749442E+02  0.32284255400E+02 -0.48747234157E+02  0.61544325460E+02  0.41800000000E+01 0. -1.
         -5    1    3    3    0  502  0.56692293051E+02  0.10909510760E+02  0.72268607284E+02  0.92591886875E+02  0.41800000000E+01 0. -1.
        -11    1    1    2    0    0  0.14311813772E+02 -0.10311351580E+02 -0.35758085692E+02  0.39872204318E+02  0.00000000000E+00 0.  1.
         11    1    1    2    0    0 -0.89756856265E+02 -0.32882414581E+02 -0.14139856233E+02  0.96630647155E+02  0.00000000000E+00 0. -1.
</event>
<event>
 7    1  0.2612213E-009  0.1234203E+03  0.7561462E-02  0.1237559E+00
         -1   -1    0    0    0  501 -0.00000000000E+00  0.00000000000E+00  0.20269801953E+03  0.20269801953E+03  0.00000000000E+00 0.  1.
          1   -1    0    0  501    0  0.00000000000E+00 -0.00000000000E+00 -0.89302332631E+02  0.89302332631E+02  0.00000000000E+00 0. -1.
         25    2    1    2    0    0  0.74679565795E+02 -0.23872395011E+02  0.81073232812E+02  0.16842583222E+03  0.12508982009E+03 0.  0.
          5    1    3    3  502    0 -0.41264786221E+00 -0.54612241139E+02  0.66039894124E+02  0.85798643209E+02  0.41800000000E+01 0.  1.
         -5    1    3    3    0  502  0.75092213657E+02  0.30739846129E+02  0.15033338688E+02  0.82627189012E+02  0.41800000000E+01 0.  1.
        -11    1    1    2    0    0 -0.86663153566E+02  0.35932750105E+02  0.43309765189E+02  0.10333150767E+03  0.00000000000E+00 0.  1.
         11    1    1    2    0    0  0.11983587771E+02 -0.12060355094E+02 -0.10987311098E+02  0.20243012276E+02  0.00000000000E+00 0. -1.
</event>
<event>
 7    1  0.2612213E-009  0.9048762E+02  0.7561462E-02  0.1301675E+00
          2   -1    0    0  501    0  0.00000000000E+00  0.00000000000E+00  0.98256822463E+03  0.98256822463E+03  0.00000000000E+00 0. -1.
         -2   -1    0    0    0  501 -0.00000000000E+00 -0.00000000000E+00 -0.14112077638E+02  0.14112077638E+02  0.00000000000E+00 0.  1.
         25    2    1    2    0    0  0.23425535595E+02  0.45516656681E+01  0.69260931676E+03  0.70421978471E+03  0.12509342961E+03 0.  0.
          5    1    3    3  502    0  0.58859611057E+02 -0.23731677658E+02  0.56805956767E+03  0.57160894951E+03  0.41800000000E+01 0.  1.
         -5    1    3    3    0  502 -0.35434075462E+02  0.28283343326E+02  0.12454974909E+03  0.13261083520E+03  0.41800000000E+01 0.  1.
        -11    1    1    2    0    0  0.23975643226E+02  0.16817976762E+01  0.17508752343E+02  0.29735775089E+02  0.00000000000E+00 0.  1.
         11    1    1    2    0    0 -0.47401178821E+02 -0.62334633443E+01  0.25833807788E+03  0.26272474246E+03  0.00000000000E+00 0. -1.
</event>
<event>
 7    1  0.2612213E-009  0.1067240E+03  0.7561462E-02  0.1266760E+00
          2   -1    0    0  501    0  0.00000000000E+00  0.00000000000E+00  0.12617658446E+03  0.12617658446E+03  0.00000000000E+00 0. -1.
         -2   -1    0    0    0  501 -0.00000000000E+00 -0.00000000000E+00 -0.10139241327E+03  0.10139241327E+03  0.00000000000E+00 0.  1.
         25    2    1    2    0    0 -0.20082783536E+02  0.26611956929E+02 -0.13747130786E+02  0.13020639025E+03  0.12511277317E+03 0.  0.
          5    1    3    3  502    0 -0.38524045193E+02 -0.40176428277E+02  0.10269491455E+02  0.56755460547E+02  0.41800000000E+01 0.  1.
         -5    1    3    3    0  502  0.18441261657E+02  0.66788385207E+02 -0.24016622241E+02  0.73450929701E+02  0.41800000000E+01 0.  1.
        -11    1    1    2    0    0  0.46300884807E+02 -0.37740349929E+02  0.18467705182E+02  0.62523292310E+02  0.00000000000E+00 0. -1.
         11    1    1    2    0    0 -0.26218101271E+02  0.11128392999E+02  0.20063596794E+02  0.34839315167E+02  0.00000000000E+00 0.  1.
</event>
<event>
 7    1  0.2612213E-009  0.1264298E+03  0.7561462E-02  0.1232852E+00
          2   -1    0    0  501    0  0.00000000000E+00  0.00000000000E+00  0.92578680271E+03  0.92578680271E+03  0.00000000000E+00 0.  1.
         -2   -1    0    0    0  501 -0.00000000000E+00 -0.00000000000E+00 -0.29016907371E+02  0.29016907371E+02  0.00000000000E+00 0. -1.
         25    2    1    2    0    0  0.13085281911E+02 -0.12047795465E+03  0.37899913593E+03  0.41710090253E+03  0.12508659279E+03 0.  0.
          5    1    3    3  502    0  0.17260173360E+02 -0.22550096749E+02  0.26563069875E+03  0.26717702177E+03  0.41800000000E+01 0. -1.
         -5    1    3    3    0  502 -0.41748914495E+01 -0.97927857899E+02  0.11336843718E+03  0.14992388075E+03  0.41800000000E+01 0. -1.
        -11    1    1    2    0    0 -0.16255781098E+02  0.21168106834E+02  0.31052968728E+02  0.40946624193E+02  0.00000000000E+00 0. -1.
         11    1    1    2    0    0  0.31704991868E+01  0.99309847815E+02  0.48671779068E+03  0.49675618336E+03  0.00000000000E+00 0.  1.
</event>
<event>
 7    1  0.2612213E-009  0.1187721E+03  0.7561462E-02  0.1245137E+00
          2   -1    0    0  501    0  0.00000000000E+00  0.00000000000E+00  0.81905261778E+02  0.81905261778E+02  0.00000000000E+00 0. -1.
         -2   -1    0    0    0  501 -0.00000000000E+00 -0.00000000000E+00 -0.23412878723E+03  0.23412878723E+03  0.00000000000E+00 0.  1.
         25    2    1    2    0    0 -0.56170357081E+02 -0.22067675855E+01 -0.15374286662E+03  0.20602119113E+03  0.12509149979E+03 0.  0.
          5    1    3    3  502    0 -0.14888590448E+02 -0.57645275610E+02 -0.36807729655E+02  0.70120819220E+02  0.41800000000E+01 0. -1.
         -5    1    3    3    0  502 -0.41281766633E+02  0.55438508025E+02 -0.11693513697E+03  0.13590037191E+03  0.41800000000E+01 0. -1.
        -11    1    1    2    0    0  0.39220570100E+02  0.46709961253E+02 -0.77958675729E+01  0.61488609924E+02  0.00000000000E+00 0.  1.
         11    1    1    2    0    0  0.16949786981E+02 -0.44503193667E+02  0.93152087437E+01  0.48524247951E+02  0.00000000000E+00 0. -1.
</event>
<event>
 7    1  0.2612213E-009  0.1072283E+03  0.7561462E-02  0.1265790E+00
          1   -1    0    0  501    0  0.00000000000E+00  0.00000000000E+00  0.26289161357E+03  0.26289161357E+03  0.00000000000E+00 0. -1.
         -1   -1    0    0    0  501 -0.00000000000E+00 -0.00000000000E+00 -0.57402259778E+02  0.57402259778E+02  0.00000000000E+00 0.  1.
         25    2    1    2    0    0  0.46848654645E+02  0.26527258636E+02  0.99841683425E+02  0.16889012546E+03  0.12512801779E+03 0.  0.
          5    1    3    3  502    0 -0.31437731453E+02 -0.26087215943E+02  0.38544830991E+02  0.56320956940E+02  0.41800000000E+01 0.  1.
         -5    1    3    3    0  502  0.78286386098E+02  0.52614474579E+02  0.61296852435E+02  0.11256916852E+03  0.41800000000E+01 0.  1.
        -11    1    1    2    0    0  0.14612013970E+01 -0.30469325625E+02  0.97617510894E+02  0.10227264222E+03  0.00000000000E+00 0. -1.
         11    1    1    2    0    0 -0.48309856042E+02  0.39420669890E+01  0.80301594754E+01  0.49131105668E+02  0.00000000000E+00 0.  1.
</event>
<event>
 7    1  0.2612213E-009  0.9975056E+02  0.7561462E-02  0.1280821E+00
         -2   -1    0    0    0  501 -0.00000000000E+00  0.00000000000E+00  0.10381477421E+03  0.10381477421E+03  0.00000000000E+00 0.  1.
          2   -1    0    0  501    0  0.00000000000E+00 -0.00000000000E+00 -0.13715892620E+03  0.13715892620E+03  0.00000000000E+00 0. -1.
         25    2    1    2    0    0 -0.30663920700E+01 -0.41594666757E+02 -0.33761300669E+02  0.13611003892E+03  0.12508636300E+03 0.  0.
          5    1    3    3  502    0  0.65608147501E+01 -0.73481574100E+02 -0.58634532228E+02  0.94329564782E+02  0.41800000000E+01 0.  1.
         -5    1    3    3    0  502 -0.96272068201E+01  0.31886907343E+02  0.24873231559E+02  0.41780474139E+02  0.41800000000E+01 0.  1.
        -11    1    1    2    0    0 -0.46797392232E+01  0.66137521071E+02  0.23448142626E+02  0.70327000826E+02  0.00000000000E+00 0.  1.
         11    1    1    2    0    0  0.77461312931E+01 -0.24542854314E+02 -0.23030993948E+02  0.34536660668E+02  0.00000000000E+00 0. -1.
</event>
<event>
 6    1  0.2612213E-009  0.7607627E+02  0.7561462E-02  0.1340570E+00
         -4   -1    0    0    0  501 -0.00000000000E+00  0.00000000000E+00  0.27152514635E+03  0.27152514635E+03  0.00000000000E+00 0.  1.
          4   -1    0    0  501    0  0.00000000000E+00 -0.00000000000E+00 -0.59783429073E+02  0.59783429073E+02  0.00000000000E+00 0. -1.
          5    1    1    2  502    0 -0.18554205618E+01 -0.50861143252E+02  0.63437224692E+02  0.81437413730E+02  0.41800000000E+01 0. -1.
         -5    1    1    2    0  502 -0.12665823742E+01  0.38496946308E+02 -0.29549560639E+02  0.48726461394E+02  0.41800000000E+01 0. -1.
        -11    1    1    2    0    0  0.85288740321E+01  0.36564142128E+02  0.17147965642E+03  0.17554187748E+03  0.00000000000E+00 0.  1.
         11    1    1    2    0    0 -0.54068710960E+01 -0.24199945183E+02  0.63743968044E+01  0.25602822824E+02  0.00000000000E+00 0. -1.
</event>
<event>
 7    1  0.2612213E-009  0.1056494E+03  0.7561462E-02  0.1268845E+00
         -2   -1    0    0    0  501 -0.00000000000E+00  0.00000000000E+00  0.17050192551E+03  0.17050192551E+03  0.00000000000E+00 0.  1.
          2   -1    0    0  501    0  0.00000000000E+00 -0.00000000000E+00 -0.11311888102E+03  0.11311888102E+03  0.00000000000E+00 0. -1.
         25    2    1    2    0    0  0.13051163579E+02 -0.44501524487E+02  0.10715378795E+03  0.17111358940E+03  0.12508879907E+03 0.  0.
          5    1    3    3  502    0 -0.42136795695E+02  0.46631776438E+01  0.82913098540E+02  0.93216463603E+02  0.41800000000E+01 0. -1.
         -5    1    3    3    0  502  0.55187959273E+02 -0.49164702130E+02  0.24240689413E+02  0.77897125798E+02  0.41800000000E+01 0. -1.
        -11    1    1    2    0    0 -0.46289130208E+02  0.11211690107E+02 -0.55608332739E+01  0.47951104650E+02  0.00000000000E+00 0.  1.
         11    1    1    2    0    0  0.33237966630E+02  0.33289834380E+02 -0.44209910198E+02  0.64556112479E+02  0.00000000000E+00 0. -1.
</event>
<event>
 7    1  0.2612213E-009  0.1156188E+03  0.7561462E-02  0.1250505E+00
          1   -1    0    0  501    0  0.00000000000E+00  0.00000000000E+00  0.22790191948E+03  0.22790191948E+03  0.00000000000E+00 0. -1.
         -1   -1    0    0    0  501 -0.00000000000E+00 -0.00000000000E+00 -0.65943234993E+02  0.65943234993E+02  0.00000000000E+00 0.  1.
         25    2    1    2    0    0  0.12231307646E+00 -0.52546284980E+02  0.11947286761E+03  0.18078335325E+03  0.12509087772E+03 0.  0.
          5    1    3    3  502    0 -0.36926097260E+02 -0.78006058018E+02  0.56273794981E+02  0.10311495599E+03  0.41800000000E+01 0.  1.
         -5    1    3    3    0  502  0.37048410336E+02  0.25459773038E+02  0.63199072631E+02  0.77668397260E+02  0.41800000000E+01 0.  1.
        -11    1    1    2    0    0 -0.41696281493E+02  0.17156824028E+02  0.36743733616E+02  0.58163893105E+02  0.00000000000E+00 0. -1.
         11    1    1    2    0    0  0.41573968417E+02  0.35389460952E+02  0.57420832636E+01  0.54897908126E+02  0.00000000000E+00 0.  1.
</event>
<event>
 7    1  0.2612213E-009  0.1051582E+03  0.7561462E-02  0.1269808E+00
          2   -1    0    0  501    0  0.00000000000E+00  0.00000000000E+00  0.89445690342E+02  0.89445690342E+02  0.00000000000E+00 0. -1.
         -2   -1    0    0    0  501 -0.00000000000E+00 -0.00000000000E+00 -0.18915464089E+03  0.18915464089E+03  0.00000000000E+00 0.  1.
         25    2    1    2    0    0 -0.19009040790E+02 -0.66490413549E+02 -0.63078759303E+02  0.15623968368E+03  0.12509832195E+03 0.  0.
          5    1    3    3  502    0  0.12284232677E+02  0.78293375477E+01 -0.73297752105E+02  0.74848071201E+02  0.41800000000E+01 0. -1.
         -5    1    3    3    0  502 -0.31293273467E+02 -0.74319751096E+02  0.10218992802E+02  0.81391612475E+02  0.41800000000E+01 0. -1.
        -11    1    1    2    0    0  0.18370508621E+02  0.89514899742E+02 -0.38693721435E+02  0.99235059033E+02  0.00000000000E+00 0.  1.
         11    1    1    2    0    0  0.63853216926E+00 -0.23024486194E+02  0.20635301876E+01  0.23125588525E+02  0.00000000000E+00 0. -1.
</event>
<event>
 7    1  0.2612213E-009  0.1090870E+03  0.7561462E-02  0.1262270E+00
          3   -1    0    0  501    0  0.00000000000E+00  0.00000000000E+00  0.94462141075E+02  0.94462141075E+02  0.00000000000E+00 0. -1.
         -3   -1    0    0    0  501 -0.00000000000E+00 -0.00000000000E+00 -0.18515101897E+03  0.18515101897E+03  0.00000000000E+00 0.  1.
         25    2    1    2    0    0  0.62657632738E+02 -0.29052414526E+02 -0.67273321169E+02  0.15793201357E+03  0.12508716737E+03 0.  0.
          5    1    3    3  502    0  0.88799275760E+01  0.35734927357E+02 -0.63527564599E+02  0.73546325610E+02  0.41800000000E+01 0. -1.
         -5    1    3    3    0  502  0.53777705162E+02 -0.64787341883E+02 -0.37457565708E+01  0.84385687964E+02  0.41800000000E+01 0. -1.
        -11    1    1    2    0    0 -0.60650200701E+02  0.48255737072E+02  0.14762305090E+02  0.78898597307E+02  0.00000000000E+00 0. -1.
         11    1    1    2    0    0 -0.20074320371E+01 -0.19203322545E+02 -0.38177861816E+02  0.42782549164E+02  0.00000000000E+00 0.  1.
</event>
<event>
 7    1  0.2612213E-009  0.1378464E+03  0.7561462E-02  0.1216257E+00
          1   -1    0    0  501    0  0.00000000000E+00  0.00000000000E+00  0.37850546073E+03  0.37850546073E+03  0.00000000000E+00 0. -1.
         -1   -1    0    0    0  501 -0.00000000000E+00 -0.00000000000E+00 -0.59997986484E+02  0.59997986484E+02  0.00000000000E+00 0.  1.
         25    2    1    2    0    0 -0.49566310863E+02 -0.89018364410E+02  0.21546107985E+03  0.26917309114E+03  0.12509831209E+03 0.  0.
          5    1    3    3  502    0 -0.86776292889E+02 -0.32431423945E+02  0.13710232558E+03  0.16551870693E+03  0.41800000000E+01 0.  1.
         -5    1    3    3    0  502  0.37209982026E+02 -0.56586940465E+02  0.78358754276E+02  0.10365438421E+03  0.41800000000E+01 0.  1.
        -11    1    1    2    0    0  0.50389062422E+02  0.35635142931E+02  0.97851659427E+02  0.11568866961E+03  0.00000000000E+00 0. -1.
         11    1    1    2    0    0 -0.82275155843E+00  0.53383221479E+02  0.51947349708E+01  0.53641686467E+02  0.00000000000E+00 0.  1.
</event>
<event>
 7    1  0.2612213E-009  0.1014380E+03  0.7561462E-02  0.1277301E+00
         -1   -1    0    0    0  501 -0.00000000000E+00  0.00000000000E+00  0.26394740691E+03  0.26394740691E+03  0.00000000000E+00 0. -1.
          1   -1    0    0  501    0  0.00000000000E+00 -0.00000000000E+00 -0.57928130519E+02  0.57928130519E+02  0.00000000000E+00 0.  1.
         25    2    1    2    0    0  0.90872522792E+01 -0.53555900004E+02  0.14482646668E+03  0.19892043094E+03  0.12507525661E+03 0.  0.
          5    1    3    3  502    0  0.46750062954E+01  0.33904654474E+02  0.64036200874E+01  0.35069360261E+02  0.41800000000E+01 0. -1.
         -5    1    3    3    0  502  0.44122459838E+01 -0.87460554478E+02  0.13842284659E+03  0.16385107068E+03  0.41800000000E+01 0. -1.
        -11    1    1    2    0    0 -0.34638213201E+02  0.34130088574E+02  0.73875312369E+02  0.88443374752E+02  0.00000000000E+00 0. -1.
         11    1    1    2    0    0  0.25550960922E+02  0.19425811429E+02 -0.12682502658E+02  0.34511731736E+02  0.00000000000E+00 0.  1.
</event>
<event>
 7    1  0.2612213E-009  0.1813048E+03  0.7561462E-02  0.1166546E+00
          2   -1    0    0  501    0  0.00000000000E+00  0.00000000000E+00  0.66442857086E+03  0.66442857086E+03  0.00000000000E+00 0.  1.
         -2   -1    0    0    0  501 -0.00000000000E+00 -0.00000000000E+00 -0.62878189386E+02  0.62878189386E+02  0.00000000000E+00 0. -1.
         25    2    1    2    0    0 -0.73573875315E+02  0.15582032641E+03  0.34785002233E+03  0.40784807297E+03  0.12508926149E+03 0.  0.
          5    1    3    3  502    0 -0.29631891386E+02  0.13898808903E+03  0.32629179835E+03  0.35592070458E+03  0.41800000000E+01 0. -1.
         -5    1    3    3    0  502 -0.43941983930E+02  0.16832237389E+02  0.21558223985E+02  0.51927368397E+02  0.41800000000E+01 0. -1.
        -11    1    1    2    0    0  0.30916709156E+02 -0.46421877925E+02  0.15934619244E+03  0.16882548001E+03  0.00000000000E+00 0.  1.
         11    1    1    2    0    0  0.42657166159E+02 -0.10939844849E+03  0.94354166706E+02  0.15063320727E+03  0.00000000000E+00 0. -1.
</event>
<event>
 7    1  0.2612213E-009  0.2207497E+03  0.7561462E-02  0.1133325E+00
          3   -1    0    0  501    0  0.00000000000E+00  0.00000000000E+00  0.16797311652E+04  0.16797311652E+04  0.00000000000E+00 0.  1.
         -3   -1    0    0    0  501 -0.00000000000E+00 -0.00000000000E+00 -0.30680982515E+02  0.30680982515E+02  0.00000000000E+00 0. -1.
         25    2    1    2    0    0  0.18950478206E+03 -0.63668463030E+02  0.89835325893E+03  0.92879032561E+03  0.12508859066E+03 0.  0.
          5    1    3    3  502    0  0.10629835119E+03 -0.88943167967E+02  0.67444439555E+03  0.68855133554E+03  0.41800000000E+01 0.  1.
         -5    1    3    3    0  502  0.83206430875E+02  0.25274704937E+02  0.22390886339E+03  0.24023899007E+03  0.41800000000E+01 0.  1.
        -11    1    1    2    0    0 -0.82273213612E+02  0.70469611231E+02  0.32518915764E+03  0.34275769288E+03  0.00000000000E+00 0. -1.
         11    1    1    2    0    0 -0.10723156845E+03 -0.68011482002E+01  0.42550776611E+03  0.43886412921E+03  0.00000000000E+00 0.  1.
</event>
<event>
 7    1  0.2821459E-009  0.1069033E+03  0.7561462E-02  0.1266414E+00
          2   -1    0    0  501    0  0.00000000000E+00  0.00000000000E+00  0.52404977686E+03  0.52404977686E+03  0.00000000000E+00 0.  1.
         -2   -1    0    0    0  501 -0.00000000000E+00 -0.00000000000E+00 -0.44292284170E+02  0.44292284170E+02  0.00000000000E+00 0. -1.
         25    2    1    2    0    0 -0.55828679717E+02  0.52063039704E+02  0.11978428041E+03  0.18926973051E+03  0.12508938993E+03 0.  0.
          5    1    3    3  502    0 -0.70702626284E+01  0.49146279608E+02 -0.97464720212E+01  0.50772153094E+02  0.41800000000E+01 0.  1.
         -5    1    3    3    0  502 -0.48758417088E+02  0.29167600962E+01  0.12953075243E+03  0.13849757742E+03  0.41800000000E+01 0.  1.
        -11    1    1    2    0    0  0.77412369125E+02 -0.27251793276E+02  0.29566108214E+03  0.30684004077E+03  0.00000000000E+00 0.  1.
         11    1    1    2    0    0 -0.21583689408E+02 -0.24811246428E+02  0.64312130139E+02  0.72232289738E+02  0.00000000000E+00 0. -1.
</event>
<event>
 7    1  0.3339266E-009  0.1732122E+03  0.7561462E-02  0.1174539E+00
         -1   -1    0    0    0  501 -0.00000000000E+00  0.00000000000E+00  0.61943480497E+02  0.61943480497E+02  0.00000000000E+00 0.  1.
          1   -1    0    0  501    0  0.00000000000E+00 -0.00000000000E+00 -0.58037421483E+03  0.58037421483E+03  0.00000000000E+00 0. -1.
         25    2    1    2    0    0  0.10716607595E+03 -0.11019421537E+03 -0.30714240867E+03  0.36553130864E+03  0.12509734393E+03 0.  0.
          5    1    3    3  502    0 -0.77926531800E+01  0.30554781721E+01 -0.11148733334E+03  0.11187921740E+03  0.41800000000E+01 0.  1.
         -5    1    3    3    0  502  0.11495872913E+03 -0.11324969354E+03 -0.19565507533E+03  0.25365209124E+03  0.41800000000E+01 0.  1.
        -11    1    1    2    0    0 -0.34131862097E+02  0.95133586468E+02 -0.95433274610E+02  0.13900680986E+03  0.00000000000E+00 0. -1.
         11    1    1    2    0    0 -0.73034213850E+02  0.15060628900E+02 -0.11585505105E+03  0.13777957683E+03  0.00000000000E+00 0.  1.
</event>
<event>
 7    1  0.2612213E-009  0.8427270E+02  0.7561462E-02  0.1317346E+00
         -1   -1    0    0    0  501 -0.00000000000E+00  0.00000000000E+00  0.19265917642E+02  0.19265917642E+02  0.00000000000E+00 0.  1.
          1   -1    0    0  501    0  0.00000000000E+00 -0.00000000000E+00 -0.24059653982E+04  0.24059653982E+04  0.00000000000E+00 0. -1.
         25    2    1    2    0    0  0.12367353783E+02  0.34389283120E+02 -0.22528237768E+04  0.22565890315E+04  0.12507403185E+03 0.  0.
          5    1    3    3  502    0  0.31206125945E+02  0.34763806454E+02 -0.29786896126E+03  0.30153894444E+03  0.41800000000E+01 0.  1.
         -5    1    3    3    0  502 -0.18838772162E+02 -0.37452333407E+00 -0.19549548156E+04  0.19550500871E+04  0.41800000000E+01 0.  1.
        -11    1    1    2    0    0 -0.35184673030E+02  0.22010528941E+02 -0.59667493323E+02  0.72681733331E+02  0.00000000000E+00 0. -1.
         11    1    1    2    0    0  0.22817319247E+02 -0.56399812062E+02 -0.74208210430E+02  0.95960551027E+02  0.00000000000E+00 0.  1.
</event>
<event>
 7    1  0.2612213E-009  0.1074706E+03  0.7561462E-02  0.1265327E+00
         -2   -1    0    0    0  501 -0.00000000000E+00  0.00000000000E+00  0.22918037311E+02  0.22918037311E+02  0.00000000000E+00 0.  1.
          2   -1    0    0  501    0  0.00000000000E+00 -0.00000000000E+00 -0.61432896444E+03  0.61432896444E+03  0.00000000000E+00 0. -1.
         25    2    1    2    0    0  0.66028484237E+01 -0.26859980196E+02 -0.22701789140E+03  0.26067165703E+03  0.12509010202E+03 0.  0.
          5    1    3    3  502    0 -0.37683481893E+02  0.35213372896E+02 -0.91332986967E+02  0.10497244089E+03  0.41800000000E+01 0.  1.
         -5    1    3    3    0  502  0.44286330316E+02 -0.62073353092E+02 -0.13568490443E+03  0.15569921614E+03  0.41800000000E+01 0.  1.
        -11    1    1    2    0    0 -0.17326861986E+02  0.54497068718E+02 -0.30360982487E+03  0.30894833938E+03  0.00000000000E+00 0. -1.
         11    1    1    2    0    0  0.10724013563E+02 -0.27637088522E+02 -0.60783210857E+02  0.67627005337E+02  0.00000000000E+00 0.  1.
</event>
<event>
 7    1  0.2698331E-009  0.1150293E+03  0.7561462E-02  0.1251530E+00
          2   -1    0    0  501    0  0.00000000000E+00  0.00000000000E+00  0.24706401161E+03  0.24706401161E+03  0.00000000000E+00 0. -1.
         -2   -1    0    0    0  501 -0.00000000000E+00 -0.00000000000E+00 -0.14424759436E+03  0.14424759436E+03  0.00000000000E+00 0.  1.
         25    2    1    2    0    0  0.10421677148E+03  0.60228708646E+01 -0.63300459254E+02  0.17479274606E+03  0.12509254775E+03 0.  0.
          5    1    3    3  502    0  0.11373015008E+03  0.64644058974E+01 -0.90580383932E+02  0.14559743794E+03  0.41800000000E+01 0.  1.
         -5    1    3    3    0  502 -0.95133786029E+01 -0.44153503282E+00  0.27279924679E+02  0.29195308118E+02  0.41800000000E+01 0.  1.
        -11    1    1    2    0    0 -0.74331150288E+02 -0.11703411640E+02  0.16994472490E+03  0.18585827737E+03  0.00000000000E+00 0. -1.
         11    1    1    2    0    0 -0.29885621193E+02  0.56805407752E+01 -0.38278483968E+01  0.30660582528E+02  0.00000000000E+00 0.  1.
</event>
<event>
 7    1  0.2612213E-009  0.7998059E+02  0.7561462E-02  0.1329107E+00
         -1   -1    0    0    0  501 -0.00000000000E+00  0.00000000000E+00  0.10036740836E+03  0.10036740836E+03  0.00000000000E+00 0.  1.
          1   -1    0    0  501    0  0.00000000000E+00 -0.00000000000E+00 -0.12372725530E+03  0.12372725530E+03  0.00000000000E+00 0. -1.
         25    2    1    2    0    0 -0.69960818448E+01  0.24300207612E+02 -0.64443182469E+01  0.12777650791E+03  0.12508341811E+03 0.  0.
          5    1    3    3  502    0  0.11710064697E+02  0.61389047391E+02 -0.39910229585E+02  0.74270044973E+02  0.41800000000E+01 0.  1.
         -5    1    3    3    0  502 -0.18706146542E+02 -0.37088839779E+02  0.33465911338E+02  0.53506462939E+02  0.41800000000E+01 0.  1.
        -11    1    1    2    0    0 -0.12447358965E+02  0.10121507827E+02 -0.45032979400E+02  0.47805343838E+02  0.00000000000E+00 0. -1.
         11    1    1    2    0    0  0.19443440809E+02 -0.34421715439E+02  0.28117450709E+02  0.48512811902E+02  0.00000000000E+00 0.  1.
</event>
<event>
 7    1  0.2612213E-009  0.7056138E+02  0.7561462E-02  0.1358194E+00
          1   -1    0    0  501    0  0.00000000000E+00  0.00000000000E+00  0.46712021146E+03  0.46712021146E+03  0.00000000000E+00 0. -1.
         -1   -1    0    0    0  501 -0.00000000000E+00 -0.00000000000E+00 -0.26031606680E+02  0.26031606680E+02  0.00000000000E+00 0.  1.
         25    2    1    2    0    0 -0.70391649556E+01 -0.19810438932E+02  0.23480312538E+03  0.26687493959E+03  0.12509085641E+03 0.  0.
          5    1    3    3  502    0 -0.18620414166E+01  0.14288748795E+02  0.23148920848E+03  0.23197491585E+03  0.41800000000E+01 0.  1.
         -5    1    3    3    0  502 -0.51771235389E+01 -0.34099187727E+02  0.33139169024E+01  0.34900023739E+02  0.41800000000E+01 0.  1.
        -11    1    1    2    0    0 -0.40863058587E+02  0.46181804645E+01  0.11408569854E+03  0.12127103429E+03  0.00000000000E+00 0. -1.
         11    1    1    2    0    0  0.47902223543E+02  0.15192258467E+02  0.92199780861E+02  0.10500584426E+03  0.00000000000E+00 0.  1.
</event>
<event>
 7    1  0.2612213E-009  0.1826132E+03  0.7561462E-02  0.1165298E+00
         -2   -1    0    0    0  501 -0.00000000000E+00  0.00000000000E+00  0.28445596996E+03  0.28445596996E+03  0.00000000000E+00 0.  1.
          2   -1    0    0  501    0  0.00000000000E+00 -0.00000000000E+00 -0.12717612726E+03  0.12717612726E+03  0.00000000000E+00 0. -1.
         25    2    1    2    0    0 -0.10032256511E+03  0.11366056262E+03  0.12260140904E+03  0.23165053271E+03  0.12509006053E+03 0.  0.
          5    1    3    3  502    0 -0.69425397418E+02 -0.43294066890E+01  0.20795925761E+02  0.72722572130E+02  0.41800000000E+01 0. -1.
         -5    1    3    3    0  502 -0.30897167688E+02  0.11798996931E+03  0.10180548328E+03  0.15892796058E+03  0.41800000000E+01 0. -1.
        -11    1    1    2    0    0  0.91323462924E+02 -0.40691334398E+02  0.36510407841E+02  0.10643669225E+03  0.00000000000E+00 0.  1.
         11    1    1    2    0    0  0.89991021817E+01 -0.72969228224E+02 -0.18319741831E+01  0.73544872269E+02  0.00000000000E+00 0. -1.
</event>
<event>
 7    1  0.2612213E-009  0.8733133E+02  0.7561462E-02  0.1309446E+00
         -1   -1    0    0    0  501 -0.00000000000E+00  0.00000000000E+00  0.12380222884E+03  0.12380222884E+03  0.00000000000E+00 0.  1.
          1   -1    0    0  501    0  0.00000000000E+00 -0.00000000000E+00 -0.13199658591E+03  0.13199658591E+03  0.00000000000E+00 0. -1.
         25    2    1    2    0    0  0.52629948023E+02 -0.29612947271E+02  0.25122420840E+02  0.14115844687E+03  0.12509089903E+03 0.  0.
          5    1    3    3  502    0  0.38666459379E+02  0.13110809896E+01  0.72766377951E+02  0.82518071805E+02  0.41800000000E+01 0. -1.
         -5    1    3    3    0  502  0.13963488643E+02 -0.30924028260E+02 -0.47643957111E+02  0.58640375068E+02  0.41800000000E+01 0. -1.
        -11    1    1    2    0    0  0.17748126041E+02  0.25493872893E+02 -0.31322201061E+02  0.44113646554E+02  0.00000000000E+00 0. -1.
         11    1    1    2    0    0 -0.70378074063E+02  0.41190743778E+01 -0.19945768512E+01  0.70526721315E+02  0.00000000000E+00 0.  1.
</event>
<event>
 7    1  0.2612213E-009  0.1084454E+03  0.7561462E-02  0.1263476E+00
          1   -1    0    0  501    0  0.00000000000E+00  0.00000000000E+00  0.10401748387E+02  0.10401748387E+02  0.00000000000E+00 0. -1.
         -1   -1    0    0    0  501 -0.00000000000E+00 -0.00000000000E+00 -0.11821268518E+04  0.11821268518E+04  0.00000000000E+00 0.  1.
         25    2    1    2    0    0 -0.15929575060E+02 -0.22302767708E+02 -0.72390759748E+03  0.73514707022E+03  0.12509132802E+03 0.  0.
          5    1    3    3  502    0  0.36950919809E+02 -0.53850263781E+02 -0.41586003078E+03  0.42097774168E+03  0.41800000000E+01 0.  1.
         -5    1    3    3    0  502 -0.52880494868E+02  0.31547496073E+02 -0.30804756670E+03  0.31416932854E+03  0.41800000000E+01 0.  1.
        -11    1    1    2    0    0  0.48150267067E+02  0.29831264599E+02 -0.33709201105E+03  0.34181775331E+03  0.00000000000E+00 0.  1.
         11    1    1    2    0    0 -0.32220692008E+02 -0.75284968903E+01 -0.11072549491E+03  0.11556377669E+03  0.00000000000E+00 0. -1.
</event>
<event>
 7    1  0.2612213E-009  0.1485946E+03  0.7561462E-02  0.1202211E+00
          1   -1    0    0  501    0  0.00000000000E+00  0.00000000000E+00  0.96902313353E+02  0.96902313353E+02  0.00000000000E+00 0. -1.
         -1   -1    0    0    0  501 -0.00000000000E+00 -0.00000000000E+00 -0.25481817788E+03  0.25481817788E+03  0.00000000000E+00 0.  1.
         25    2    1    2    0    0 -0.42643970292E+02 -0.96536319067E+02 -0.33370557493E+02  0.16703004373E+03  0.12509065633E+03 0.  0.
          5    1    3    3  502    0  0.32864170927E+02  0.62133607700E+01 -0.18870856927E+02  0.38629538231E+02  0.41800000000E+01 0.  1.
         -5    1    3    3    0  502 -0.75508141219E+02 -0.10274967984E+03 -0.14499700566E+02  0.12840050550E+03  0.41800000000E+01 0.  1.
        -11    1    1    2    0    0  0.36031754878E+02 -0.29919685586E+01 -0.40147356583E+02  0.54028228511E+02  0.00000000000E+00 0.  1.
         11    1    1    2    0    0  0.66122154143E+01  0.99528287626E+02 -0.84397950449E+02  0.13066221899E+03  0.00000000000E+00 0. -1.
</event>
<event>
 7    1  0.2612213E-009  0.9143155E+02  0.7561462E-02  0.1299422E+00
         -1   -1    0    0    0  501 -0.00000000000E+00  0.00000000000E+00  0.11228019843E+02  0.11228019843E+02  0.00000000000E+00 0.  1.
          1   -1    0    0  501    0  0.00000000000E+00 -0.00000000000E+00 -0.15570049024E+04  0.15570049024E+04  0.00000000000E+00 0. -1.
         25    2    1    2    0    0  0.21346413636E+02  0.49356610344E+02 -0.11602484436E+04  0.11682103067E+04  0.12508847026E+03 0.  0.
          5    1    3    3  502    0 -0.10837387606E+02  0.41044771362E+02 -0.10850339735E+04  0.10858721464E+04  0.41800000000E+01 0.  1.
         -5    1    3    3    0  502  0.32183801242E+02  0.83118389822E+01 -0.75214470120E+02  0.82338160322E+02  0.41800000000E+01 0.  1.
        -11    1    1    2    0    0  0.23895231933E+02  0.14869509899E+02 -0.10170801911E+03  0.10553011696E+03  0.00000000000E+00 0. -1.
         11    1    1    2    0    0 -0.45241645570E+02 -0.64226120244E+02 -0.28382041988E+03  0.29449249864E+03  0.00000000000E+00 0.  1.
</event>
<event>
 7    1  0.2612213E-009  0.1138747E+03  0.7561462E-02  0.1253558E+00
          1   -1    0    0  501    0  0.00000000000E+00  0.00000000000E+00  0.10950690449E+03  0.10950690449E+03  0.00000000000E+00 0. -1.
         -1   -1    0    0    0  501 -0.00000000000E+00 -0.00000000000E+00 -0.12467387172E+03  0.12467387172E+03  0.00000000000E+00 0.  1.
         25    2    1    2    0    0  0.36577100842E+02 -0.75606271742E+01 -0.22395774298E+02  0.13245248102E+03  0.12508813545E+03 0.  0.
          5    1    3    3  502    0 -0.12590242677E+02  0.49882541264E+02 -0.23506844682E+02  0.56717072214E+02  0.41800000000E+01 0.  1.
         -5    1    3    3    0  502  0.49167343519E+02 -0.57443168438E+02  0.11110703840E+01  0.75735408801E+02  0.41800000000E+01 0.  1.
        -11    1    1    2    0    0 -0.68328910128E+02  0.38401466347E+01  0.11759827981E+02  0.69439759790E+02  0.00000000000E+00 0. -1.
         11    1    1    2    0    0  0.31751809286E+02  0.37204805395E+01 -0.45310209126E+01  0.32288535410E+02  0.00000000000E+00 0.  1.
</event>
<event>
 7    1  0.2612213E-009  0.1600943E+03  0.7561462E-02  0.1188590E+00
          2   -1    0    0  501    0  0.00000000000E+00  0.00000000000E+00  0.18991259673E+03  0.18991259673E+03  0.00000000000E+00 0. -1.
         -2   -1    0    0    0  501 -0.00000000000E+00 -0.00000000000E+00 -0.18023224222E+03  0.18023224222E+03  0.00000000000E+00 0.  1.
         25    2    1    2    0    0  0.81510877031E+02  0.12166577291E+03 -0.21786034607E+02  0.19382566847E+03  0.12508866888E+03 0.  0.
          5    1    3    3  502    0  0.46393319685E+02  0.90523212231E+02  0.45637952720E+02  0.11156651466E+03  0.41800000000E+01 0. -1.
         -5    1    3    3    0  502  0.35117557346E+02  0.31142560674E+02 -0.67423987327E+02  0.82259153815E+02  0.41800000000E+01 0. -1.
        -11    1    1    2    0    0 -0.45276498459E+01 -0.86512511520E+02  0.29995315984E+02  0.91676786830E+02  0.00000000000E+00 0.  1.
         11    1    1    2    0    0 -0.76983227185E+02 -0.35153261386E+02  0.14710731250E+01  0.84642383650E+02  0.00000000000E+00 0. -1.
</event>
<event>
 7    1  0.3840759E-009  0.8219327E+02  0.7561462E-02  0.1322940E+00
         -1   -1    0    0    0  501 -0.00000000000E+00  0.00000000000E+00  0.22268861517E+02  0.22268861517E+02  0.00000000000E+00 0.  1.
          1   -1    0    0  501    0  0.00000000000E+00 -0.00000000000E+00 -0.71253073545E+03  0.71253073545E+03  0.00000000000E+00 0. -1.
         25    2    1    2    0    0  0.42484403796E+02  0.80771997666E+01 -0.24708680527E+03  0.28030386638E+03  0.12509277536E+03 0.  0.
          5    1    3    3  502    0  0.49164135649E+02 -0.37031351849E+01 -0.25782024931E+03  0.26252538696E+03  0.41800000000E+01 0. -1.
         -5    1    3    3    0  502 -0.66797318528E+01  0.11780334952E+02  0.10733444045E+02  0.17778479414E+02  0.41800000000E+01 0. -1.
        -11    1    1    2    0    0 -0.35485979250E+02  0.39237490983E+02 -0.22401640125E+03  0.23017859034E+03  0.00000000000E+00 0.  1.
         11    1    1    2    0    0 -0.69984245459E+01 -0.47314690750E+02 -0.21915866742E+03  0.22431714026E+03  0.00000000000E+00 0. -1.
</event>
<event>
 7    1  0.2612213E-009  0.1676377E+03  0.7561462E-02  0.1180334E+00
          1   -1    0    0  501    0  0.00000000000E+00  0.00000000000E+00  0.19347169585E+03  0.19347169585E+03  0.00000000000E+00 0. -1.
         -1   -1    0    0    0  501 -0.00000000000E+00 -0.00000000000E+00 -0.19108648167E+03  0.19108648167E+03  0.00000000000E+00 0.  1.
         25    2    1    2    0    0  0.73742864685E+01  0.14124531125E+03 -0.73511639830E+02  0.20264456027E+03  0.12512489187E+03 0.  0.
          5    1    3    3  502    0 -0.24348767757E+02  0.14077032583E+03 -0.87651990823E+02  0.16765885309E+03  0.41800000000E+01 0.  1.
         -5    1    3    3    0  502  0.31723054226E+02  0.47498542475E+00  0.14140350993E+02  0.34985707178E+02  0.41800000000E+01 0.  1.
        -11    1    1    2    0    0 -0.41423824865E+02 -0.86021660310E+02  0.23005106523E+02  0.98208422424E+02  0.00000000000E+00 0.  1.
         11    1    1    2    0    0  0.34049538396E+02 -0.55223650940E+02  0.52891747492E+02  0.83705194827E+02  0.00000000000E+00 0. -1.
</event>
<event>
 7    1  0.2612213E-009  0.2899737E+03  0.7561462E-02  0.1090363E+00
         -3   -1    0    0    0  501 -0.00000000000E+00  0.00000000000E+00  0.48263071181E+03  0.48263071181E+03  0.00000000000E+00 0.  1.
          3   -1    0    0  501    0  0.00000000000E+00 -0.00000000000E+00 -0.22021281343E+03  0.22021281343E+03  0.00000000000E+00 0. -1.
         25    2    1    2    0    0 -0.24867585707E+03  0.11139804668E+03  0.28684875414E+03  0.41494406039E+03  0.12508860381E+03 0.  0.
          5    1    3    3  502    0 -0.12705912968E+03  0.11964867900E+03  0.13817712672E+03  0.22264370543E+03  0.41800000000E+01 0. -1.
         -5    1    3    3    0  502 -0.12161672740E+03 -0.82506323175E+01  0.14867162742E+03  0.19230035496E+03  0.41800000000E+01 0. -1.
        -11    1    1    2    0    0  0.13195215357E+03 -0.16521195558E+02 -0.33727831399E+02  0.13719288373E+03  0.00000000000E+00 0. -1.
         11    1    1    2    0    0  0.11672370350E+03 -0.94876851120E+02  0.92969756379E+01  0.15070658112E+03  0.00000000000E+00 0.  1.
</event>
<event>
 7    1  0.2612213E-009  0.7198774E+02  0.7561462E-02  0.1353461E+00
         -2   -1    0    0    0  501 -0.00000000000E+00  0.00000000000E+00  0.66819405789E+02  0.66819405789E+02  0.00000000000E+00 0.  1.
          2   -1    0    0  501    0  0.00000000000E+00 -0.00000000000E+00 -0.21378961698E+03  0.21378961698E+03  0.00000000000E+00 0. -1.
         25    2    1    2    0    0  0.27547788605E+02  0.42997268230E+02 -0.11245557668E+03  0.17578228403E+03  0.12508200878E+03 0.  0.
          5    1    3    3  502    0  0.44565327152E+02  0.22767884319E+02  0.93408057140E+01  0.51080015582E+02  0.41800000000E+01 0. -1.
         -5    1    3    3    0  502 -0.17017538547E+02  0.20229383911E+02 -0.12179638239E+03  0.12470226845E+03  0.41800000000E+01 0. -1.
        -11    1    1    2    0    0  0.98593049574E+01 -0.21970586046E+02  0.22843993282E+02  0.33192778951E+02  0.00000000000E+00 0.  1.
         11    1    1    2    0    0 -0.37407093563E+02 -0.21026682184E+02 -0.57358627794E+02  0.71633959787E+02  0.00000000000E+00 0. -1.
</event>
<event>
 7    1  0.2612213E-009  0.1255634E+03  0.7561462E-02  0.1234191E+00
          2   -1    0    0  501    0  0.00000000000E+00  0.00000000000E+00  0.72446827488E+02  0.72446827488E+02  0.00000000000E+00 0. -1.
         -2   -1    0    0    0  501 -0.00000000000E+00 -0.00000000000E+00 -0.40387599270E+03  0.40387599270E+03  0.00000000000E+00 0.  1.
         25    2    1    2    0    0  0.29654442490E+02 -0.11372589451E+03 -0.26042473148E+03  0.31190100465E+03  0.12509288906E+03 0.  0.
          5    1    3    3  502    0 -0.15631478889E+02 -0.34807452210E+02 -0.26143336729E+01  0.38473484404E+02  0.41800000000E+01 0.  1.
         -5    1    3    3    0  502  0.45285921379E+02 -0.78918442297E+02 -0.25781039780E+03  0.27342752024E+03  0.41800000000E+01 0.  1.
        -11    1    1    2    0    0 -0.36259176007E+02  0.89998587916E+02 -0.86899507136E+01  0.97416574128E+02  0.00000000000E+00 0. -1.
         11    1    1    2    0    0  0.66047335169E+01  0.23727306591E+02 -0.62314483024E+02  0.67005241418E+02  0.00000000000E+00 0.  1.
</event>
<event>
 7    1  0.2612213E-009  0.1353562E+03  0.7561462E-02  0.1219718E+00
          3   -1    0    0  501    0  0.00000000000E+00  0.00000000000E+00  0.13381179175E+04  0.13381179175E+04  0.00000000000E+00 0. -1.
         -3   -1    0    0    0  501 -0.00000000000E+00 -0.00000000000E+00 -0.18851635360E+02  0.18851635360E+02  0.00000000000E+00 0.  1.
         25    2    1    2    0    0  0.98421717583E+02  0.47270017810E+02  0.71352460760E+03  0.73259051318E+03  0.12510078046E+03 0.  0.
          5    1    3    3  502    0  0.81911928821E+02  0.60223497085E+02  0.26980136212E+03  0.28835166219E+03  0.41800000000E+01 0.  1.
         -5    1    3    3    0  502  0.16509788762E+02 -0.12953479275E+02  0.44372324548E+03  0.44423885099E+03  0.41800000000E+01 0.  1.
        -11    1    1    2    0    0 -0.10919177516E+03 -0.11021764644E+02  0.38151621872E+03  0.39698734011E+03  0.00000000000E+00 0. -1.
         11    1    1    2    0    0  0.10770057578E+02 -0.36248253166E+02  0.22422545579E+03  0.22739169954E+03  0.00000000000E+00 0.  1.
</event>
<event>
 7    1  0.3079720E-009  0.8725215E+02  0.7561462E-02  0.1309646E+00
          1   -1    0    0  501    0  0.00000000000E+00  0.00000000000E+00  0.17945781769E+04  0.17945781769E+04  0.00000000000E+00 0. -1.
         -1   -1    0    0    0  501 -0.00000000000E+00 -0.00000000000E+00 -0.80836351408E+01  0.80836351408E+01  0.00000000000E+00 0.  1.
         25    2    1    2    0    0  0.10865864449E+02 -0.31365187046E+02  0.13098463806E+04  0.13162241826E+04  0.12508683466E+03 0.  0.
          5    1    3    3  502    0  0.14852281382E+02  0.21583993239E+02  0.10784689081E+04  0.10787952156E+04  0.41800000000E+01 0. -1.
         -5    1    3    3    0  502 -0.39864169322E+01 -0.52949180285E+02  0.23137747246E+03  0.23742896701E+03  0.41800000000E+01 0. -1.
        -11    1    1    2    0    0 -0.50060543454E+02  0.15259753438E+02  0.31550739508E+03  0.31981843980E+03  0.00000000000E+00 0. -1.
         11    1    1    2    0    0  0.39194679005E+02  0.16105433609E+02  0.16114076612E+03  0.16661918965E+03  0.00000000000E+00 0.  1.
</event>
<event>
 7    1  0.2612213E-009  0.9233830E+02  0.7561462E-02  0.1297286E+00
          3   -1    0    0  501    0  0.00000000000E+00  0.00000000000E+00  0.16584743067E+03  0.16584743067E+03  0.00000000000E+00 0. -1.
         -3   -1    0    0    0  501 -0.00000000000E+00 -0.00000000000E+00 -0.77287326104E+02  0.77287326104E+02  0.00000000000E+00 0.  1.
         25    2    1    2    0    0  0.18014097894E+02  0.23619847380E+02  0.67129186224E+02  0.14503408559E+03  0.12508458509E+03 0.  0.
          5    1    3    3  502    0 -0.46029698961E+02  0.40418452122E+02  0.40464475994E+02  0.73533874342E+02  0.41800000000E+01 0.  1.
         -5    1    3    3    0  502  0.64043796855E+02 -0.16798604742E+02  0.26664710231E+02  0.71500211248E+02  0.41800000000E+01 0.  1.
        -11    1    1    2    0    0  0.13907007023E+02  0.42688287219E+01 -0.28865948162E+02  0.32324459876E+02  0.00000000000E+00 0.  1.
         11    1    1    2    0    0 -0.31921104917E+02 -0.27888676102E+02  0.50296866503E+02  0.65776211307E+02  0.00000000000E+00 0. -1.
</event>
<event>
 7    1  0.2612213E-009  0.1541299E+03  0.7561462E-02  0.1195488E+00
         -1   -1    0    0    0  501 -0.00000000000E+00  0.00000000000E+00  0.21482421608E+02  0.21482421608E+02  0.00000000000E+00 0.  1.
          1   -1    0    0  501    0  0.00000000000E+00 -0.00000000000E+00 -0.14690305781E+04  0.14690305781E+04  0.00000000000E+00 0. -1.
         25    2    1    2    0    0 -0.94886403834E+02  0.10261859154E+03 -0.76504761495E+03  0.78770524514E+03  0.12509074752E+03 0.  0.
          5    1    3    3  502    0 -0.64650718077E+02  0.54376495413E+02 -0.16953564053E+03  0.18946325346E+03  0.41800000000E+01 0.  1.
         -5    1    3    3    0  502 -0.30235685757E+02  0.48242096127E+02 -0.59551197442E+03  0.59824199168E+03  0.41800000000E+01 0.  1.
        -11    1    1    2    0    0  0.15939528911E+02  0.16977724241E+02 -0.70220710159E+02  0.73981483072E+02  0.00000000000E+00 0.  1.
         11    1    1    2    0    0  0.78946874922E+02 -0.11959631578E+03 -0.61227983141E+03  0.62882627152E+03  0.00000000000E+00 0. -1.
</event>
<event>
 7    1  0.2612213E-009  0.2570353E+03  0.7561462E-02  0.1108938E+00
         -2   -1    0    0    0  501 -0.00000000000E+00  0.00000000000E+00  0.51948133482E+02  0.51948133482E+02  0.00000000000E+00 0.  1.
          2   -1    0    0  501    0  0.00000000000E+00 -0.00000000000E+00 -0.13767734006E+04  0.13767734006E+04  0.00000000000E+00 0. -1.
         25    2    1    2    0    0  0.12825726901E+03  0.20032719125E+03 -0.83335243175E+03  0.87561688703E+03  0.12509095385E+03 0.  0.
          5    1    3    3  502    0  0.70507515623E+02  0.16268274280E+02 -0.17086373467E+03  0.18560133278E+03  0.41800000000E+01 0.  1.
         -5    1    3    3    0  502  0.57749753389E+02  0.18405891697E+03 -0.66248869709E+03  0.69001555425E+03  0.41800000000E+01 0.  1.
        -11    1    1    2    0    0 -0.91244511165E+02 -0.75471481255E+02 -0.17945863926E+03  0.21500443834E+03  0.00000000000E+00 0.  1.
         11    1    1    2    0    0 -0.37012757847E+02 -0.12485571000E+03 -0.31201419615E+03  0.33810020875E+03  0.00000000000E+00 0. -1.
</event>
<event>
 7    1  0.2612213E-009  0.1311068E+03  0.7561462E-02  0.1225823E+00
          1   -1    0    0  501    0  0.00000000000E+00  0.00000000000E+00  0.10027824542E+03  0.10027824542E+03  0.00000000000E+00 0. -1.
         -1   -1    0    0    0  501 -0.00000000000E+00 -0.00000000000E+00 -0.23299640124E+03  0.23299640124E+03  0.00000000000E+00 0.  1.
         25    2    1    2    0    0  0.58406066820E+02 -0.86329307246E+02 -0.42677020726E+02  0.16832593197E+03  0.12509305874E+03 0.  0.
          5    1    3    3  502    0  0.99568960631E+00 -0.89118165934E+02 -0.60736645609E+02  0.10793262443E+03  0.41800000000E+01 0.  1.
         -5    1    3    3    0  502  0.57410377214E+02  0.27888586882E+01  0.18059624883E+02  0.60393307539E+02  0.41800000000E+01 0.  1.
        -11    1    1    2    0    0 -0.19275465438E+02  0.70607431456E+02 -0.91970734974E+01  0.73766788636E+02  0.00000000000E+00 0. -1.
         11    1    1    2    0    0 -0.39130601382E+02  0.15721875790E+02 -0.80844061597E+02  0.91181926050E+02  0.00000000000E+00 0.  1.
</event>
<event>
 7    1  0.2612213E-009  0.9019295E+02  0.7561462E-02  0.1302385E+00
          4   -1    0    0  501    0  0.00000000000E+00  0.00000000000E+00  0.39613585939E+03  0.39613585939E+03  0.00000000000E+00 0. -1.
         -4   -1    0    0    0  501 -0.00000000000E+00 -0.00000000000E+00 -0.36902744459E+02  0.36902744459E+02  0.00000000000E+00 0.  1.
         25    2    1    2    0    0 -0.88184117821E+00 -0.35591191676E+02  0.22541149496E+03  0.26023985175E+03  0.12508768050E+03 0.  0.
          5    1    3    3  502    0 -0.11005530312E+02  0.33118514801E+02  0.14278871077E+02  0.37938322041E+02  0.41800000000E+01 0.  1.
         -5    1    3    3    0  502  0.10123689134E+02 -0.68709706477E+02  0.21113262388E+03  0.22230152971E+03  0.41800000000E+01 0.  1.
        -11    1    1    2    0    0 -0.47432410308E+01 -0.19608720363E+02 -0.70683313482E+01  0.21376659182E+02  0.00000000000E+00 0.  1.
         11    1    1    2    0    0  0.56250822090E+01  0.55199912039E+02  0.14088995132E+03  0.15142209291E+03  0.00000000000E+00 0. -1.
</event>
<event>
 7    1  0.3899378E-009  0.1272947E+03  0.7561462E-02  0.1231526E+00
          1   -1    0    0  501    0  0.00000000000E+00  0.00000000000E+00  0.17787985303E+04  0.17787985303E+04  0.00000000000E+00 0.  1.
         -1   -1    0    0    0  501 -0.00000000000E+00 -0.00000000000E+00 -0.15619464113E+02  0.15619464113E+02  0.00000000000E+00 0. -1.
         25    2    1    2    0    0  0.96054088144E+02  0.37310329497E+02  0.13316451432E+04  0.13414711016E+04  0.12508988902E+03 0.  0.
          5    1    3    3  502    0  0.79398535901E+02  0.66474672577E+02  0.12296041978E+04  0.12339639238E+04  0.41800000000E+01 0. -1.
         -5    1    3    3    0  502  0.16655552243E+02 -0.29164343080E+02  0.10204094539E+03  0.10750717773E+03  0.41800000000E+01 0. -1.
        -11    1    1    2    0    0 -0.37418505580E+02 -0.44378948651E+02  0.95467872367E+02  0.11173070436E+03  0.00000000000E+00 0.  1.
         11    1    1    2    0    0 -0.58635582564E+02  0.70686191540E+01  0.33606605062E+03  0.34121618851E+03  0.00000000000E+00 0. -1.
</event>
<event>
 6    1  0.2612213E-009  0.1404024E+03  0.7561462E-02  0.1212788E+00
         -3   -1    0    0    0  501 -0.00000000000E+00  0.00000000000E+00  0.17219941582E+03  0.17219941582E+03  0.00000000000E+00 0.  1.
          3   -1    0    0  501    0  0.00000000000E+00 -0.00000000000E+00 -0.12466066296E+03  0.12466066296E+03  0.00000000000E+00 0. -1.
          5    1    1    2  502    0  0.16703199054E+02  0.59880043762E+02  0.21012033262E+02  0.65754045057E+02  0.41800000000E+01 0. -1.
         -5    1    1    2    0  502  0.79126191527E+02 -0.52844683035E+02  0.29064898265E+02  0.99577886208E+02  0.41800000000E+01 0. -1.
        -11    1    1    2    0    0  0.12447651821E+02  0.66594094191E+01  0.15436369150E+02  0.20918251892E+02  0.00000000000E+00 0.  1.
         11    1    1    2    0    0 -0.10827704240E+03 -0.13694770146E+02 -0.17974547820E+02  0.11060989562E+03  0.00000000000E+00 0. -1.
</event>
<event>
 7    1  0.2612213E-009  0.2316474E+03  0.7561462E-02  0.1125486E+00
          1   -1    0    0  501    0  0.00000000000E+00  0.00000000000E+00  0.26001319268E+03  0.26001319268E+03  0.00000000000E+00 0. -1.
         -1   -1    0    0    0  501 -0.00000000000E+00 -0.00000000000E+00 -0.25594903690E+03  0.25594903690E+03  0.00000000000E+00 0.  1.
         25    2    1    2    0    0  0.21347510329E+03  0.40409789923E+02  0.88439031870E+02  0.26584639340E+03  0.12509305207E+03 0.  0.
          5    1    3    3  502    0  0.15484758574E+03 -0.27471043028E+01  0.10976673783E+03  0.18987240591E+03  0.41800000000E+01 0. -1.
         -5    1    3    3    0  502  0.58627517553E+02  0.43156894226E+02 -0.21327705959E+02  0.75973987490E+02  0.41800000000E+01 0. -1.
        -11    1    1    2    0    0 -0.10013550763E+03  0.26824614732E+02 -0.38101738060E+02  0.11044646797E+03  0.00000000000E+00 0.  1.
         11    1    1    2    0    0 -0.11333959566E+03 -0.67234404655E+02 -0.46273138032E+02  0.13966936821E+03  0.00000000000E+00 0. -1.
</event>
<event>
 7    1  0.2612213E-009  0.1118350E+03  0.7561462E-02  0.1257209E+00
         -2   -1    0    0    0  501 -0.00000000000E+00  0.00000000000E+00  0.62426971066E+02  0.62426971066E+02  0.00000000000E+00 0.  1.
          2   -1    0    0  501    0  0.00000000000E+00 -0.00000000000E+00 -0.27387383938E+03  0.27387383938E+03  0.00000000000E+00 0. -1.
         25    2    1    2    0    0  0.63365958440E+02 -0.18812813432E+02 -0.80368041551E+02  0.16269959009E+03  0.12507185084E+03 0.  0.
          5    1    3    3  502    0  0.67773610177E+02 -0.55408383479E+02 -0.88684336373E+02  0.12468253733E+03  0.41800000000E+01 0.  1.
         -5    1    3    3    0  502 -0.44076517368E+01  0.36595570047E+02  0.83162948221E+01  0.38017052759E+02  0.41800000000E+01 0.  1.
        -11    1    1    2    0    0 -0.58870859359E+01  0.37910576023E+02 -0.12329873189E+02  0.40297584643E+02  0.00000000000E+00 0. -1.
         11    1    1    2    0    0 -0.57478872505E+02 -0.19097762591E+02 -0.11874895357E+03  0.13330363572E+03  0.00000000000E+00 0.  1.
</event>
<event>
 7    1  0.2612213E-009  0.1815663E+03  0.7561462E-02  0.1166296E+00
          3   -1    0    0  501    0  0.00000000000E+00  0.00000000000E+00  0.11829726004E+03  0.11829726004E+03  0.00000000000E+00 0. -1.
         -3   -1    0    0    0  501 -0.00000000000E+00 -0.00000000000E+00 -0.32451561473E+03  0.32451561473E+03  0.00000000000E+00 0.  1.
         25    2    1    2    0    0  0.11056932301E+03 -0.10313143172E+03 -0.39694514622E+02  0.20021244030E+03  0.12509076450E+03 0.  0.
          5    1    3    3  502    0  0.12739223151E+03 -0.11758282446E+03 -0.38359899692E+02  0.17760477347E+03  0.41800000000E+01 0.  1.
         -5    1    3    3    0  502 -0.16822908501E+02  0.14451392741E+02 -0.13346149297E+01  0.22607666832E+02  0.41800000000E+01 0.  1.
        -11    1    1    2    0    0 -0.10696042061E+02  0.55464414668E+02 -0.95964251794E+02  0.11135458784E+03  0.00000000000E+00 0.  1.
         11    1    1    2    0    0 -0.99873280945E+02  0.47667017049E+02 -0.70559588273E+02  0.13124584663E+03  0.00000000000E+00 0. -1.
</event>
<event>
 7    1  0.2612213E-009  0.1010705E+03  0.7561462E-02  0.1278061E+00
          1   -1    0    0  501    0  0.00000000000E+00  0.00000000000E+00  0.59636083128E+02  0.59636083128E+02  0.00000000000E+00 0. -1.
         -1   -1    0    0    0  501 -0.00000000000E+00 -0.00000000000E+00 -0.28389411709E+03  0.28389411709E+03  0.00000000000E+00 0.  1.
         25    2    1    2    0    0 -0.36316011898E+02  0.59652199555E+02 -0.14553021926E+03  0.20421364489E+03  0.12508769088E+03 0.  0.
          5    1    3    3  502    0  0.34335081351E+02  0.26666579709E+02 -0.56815889255E+01  0.44042674050E+02  0.41800000000E+01 0.  1.
         -5    1    3    3    0  502 -0.70651093249E+02  0.32985619846E+02 -0.13984863033E+03  0.16017097084E+03  0.41800000000E+01 0.  1.
        -11    1    1    2    0    0  0.21590284792E+02 -0.29400007067E+01 -0.77718278323E+02  0.80715022065E+02  0.00000000000E+00 0.  1.
         11    1    1    2    0    0  0.14725727106E+02 -0.56712198848E+02 -0.10095363807E+01  0.58601533262E+02  0.00000000000E+00 0. -1.
</event>
<event>
 7    1  0.2612213E-009  0.9183114E+02  0.7561462E-02  0.1298477E+00
         -1   -1    0    0    0  501 -0.00000000000E+00  0.00000000000E+00  0.10793970409E+03  0.10793970409E+03  0.00000000000E+00 0.  1.
          1   -1    0    0  501    0  0.00000000000E+00 -0.00000000000E+00 -0.12514617280E+03  0.12514617280E+03  0.00000000000E+00 0. -1.
         25    2    1    2    0    0 -0.25245060318E+02 -0.27180412919E+02 -0.31329975597E+02  0.13418198349E+03  0.12508856624E+03 0.  0.
          5    1    3    3  502    0 -0.52951864565E+02 -0.23354678782E+02  0.30963995220E+02  0.65769159809E+02  0.41800000000E+01 0. -1.
         -5    1    3    3    0  502  0.27706804247E+02 -0.38257341368E+01 -0.62293970818E+02  0.68412823677E+02  0.41800000000E+01 0. -1.
        -11    1    1    2    0    0  0.22462758738E+02 -0.31457289140E+02  0.10665316594E+02  0.40098448202E+02  0.00000000000E+00 0.  1.
         11    1    1    2    0    0  0.27823015795E+01  0.58637702059E+02  0.34581902910E+01  0.58805445198E+02  0.00000000000E+00 0. -1.
</event>
<event>
 7    1  0.2612213E-009  0.9063065E+02  0.7561462E-02  0.1301332E+00
          1   -1    0    0  501    0  0.00000000000E+00  0.00000000000E+00  0.67255748464E+02  0.67255748464E+02  0.00000000000E+00 0. -1.
         -1   -1    0    0    0  501 -0.00000000000E+00 -0.00000000000E+00 -0.34494416298E+03  0.34494416298E+03  0.00000000000E+00 0.  1.
         25    2    1    2    0    0  0.30429718179E+02  0.16339174834E+02 -0.28658236729E+03  0.31458672333E+03  0.12506964807E+03 0.  0.
          5    1    3    3  502    0 -0.27463085171E+02 -0.37550309568E+02 -0.71698397815E+02  0.85570903028E+02  0.41800000000E+01 0.  1.
         -5    1    3    3    0  502  0.57892803350E+02  0.53889484402E+02 -0.21488396948E+03  0.22901582030E+03  0.41800000000E+01 0.  1.
        -11    1    1    2    0    0  0.23734566548E+01  0.11857757096E+02  0.41639645770E+02  0.43360117616E+02  0.00000000000E+00 0. -1.
         11    1    1    2    0    0 -0.32803174834E+02 -0.28196931930E+02 -0.32745692998E+02  0.54253070506E+02  0.00000000000E+00 0.  1.
</event>
<event>
 7    1  0.2612213E-009  0.1003077E+03  0.7561462E-02  0.1279650E+00
          3   -1    0    0  501    0  0.00000000000E+00  0.00000000000E+00  0.40599796076E+02  0.40599796076E+02  0.00000000000E+00 0. -1.
         -3   -1    0    0    0  501 -0.00000000000E+00 -0.00000000000E+00 -0.34801718492E+03  0.34801718492E+03  0.00000000000E+00 0.  1.
         25    2    1    2    0    0  0.47040703381E+02  0.10549150396E+02 -0.20312992000E+03  0.24337946352E+03  0.12509071315E+03 0.  0.
          5    1    3    3  502    0  0.19349427638E+02 -0.50822715139E+02 -0.42455296316E+02  0.69117821937E+02  0.41800000000E+01 0. -1.
         -5    1    3    3    0  502  0.27691275743E+02  0.61371865535E+02 -0.16067462369E+03  0.17426164159E+03  0.41800000000E+01 0. -1.
        -11    1    1    2    0    0 -0.13870476729E+02 -0.34840720886E+02 -0.96315031314E+02  0.10335787930E+03  0.00000000000E+00 0.  1.
         11    1    1    2    0    0 -0.33170226652E+02  0.24291570490E+02 -0.79724375238E+01  0.41879638168E+02  0.00000000000E+00 0. -1.
</event>
<event>
 7    1  0.2612213E-009  0.1333977E+03  0.7561462E-02  0.1222499E+00
         -1   -1    0    0    0  501 -0.00000000000E+00  0.00000000000E+00  0.35075338476E+03  0.35075338476E+03  0.00000000000E+00 0.  1.
          1   -1    0    0  501    0  0.00000000000E+00 -0.00000000000E+00 -0.72125891797E+02  0.72125891797E+02  0.00000000000E+00 0. -1.
         25    2    1    2    0    0 -0.10037886660E+03 -0.48559825549E+02  0.18940243905E+03  0.25289591984E+03  0.12509631824E+03 0.  0.
          5    1    3    3  502    0 -0.17627219698E+02  0.27245544604E+02  0.11154548249E+03  0.11624502415E+03  0.41800000000E+01 0.  1.
         -5    1    3    3    0  502 -0.82751646898E+02 -0.75805370153E+02  0.77856956561E+02  0.13665089569E+03  0.41800000000E+01 0.  1.
        -11    1    1    2    0    0  0.18030619243E+02 -0.10102788020E+02 -0.14411977743E+02  0.25196719202E+02  0.00000000000E+00 0. -1.
         11    1    1    2    0    0  0.82348247353E+02  0.58662613569E+02  0.10363703165E+03  0.14478663751E+03  0.00000000000E+00 0.  1.
</event>
<event>
 7    1  0.2612213E-009  0.1165533E+03  0.7561462E-02  0.1248894E+00
         -2   -1    0    0    0  501 -0.00000000000E+00  0.00000000000E+00  0.40630668760E+03  0.40630668760E+03  0.00000000000E+00 0. -1.
          2   -1    0    0  501    0  0.00000000000E+00 -0.00000000000E+00 -0.51422292809E+02  0.51422292809E+02  0.00000000000E+00 0.  1.
         25    2    1    2    0    0 -0.25293276538E+02 -0.88664349735E+02  0.23044275546E+03  0.27794859100E+03  0.12510171438E+03 0.  0.
          5    1    3    3  502    0  0.15199775756E+01  0.21727455063E+02  0.13703384389E+01  0.22220325443E+02  0.41800000000E+01 0. -1.
         -5    1    3    3    0  502 -0.26813254114E+02 -0.11039180480E+03  0.22907241703E+03  0.25572826556E+03  0.41800000000E+01 0. -1.
        -11    1    1    2    0    0  0.14898867145E+02  0.84896667634E+02  0.13774013184E+03  0.16248619738E+03  0.00000000000E+00 0. -1.
         11    1    1    2    0    0  0.10394409394E+02  0.37676821013E+01 -0.13298492513E+02  0.17294192036E+02  0.00000000000E+00 0.  1.
</event>
<event>
 7    1  0.2612213E-009  0.9543165E+02  0.7561462E-02  0.1290207E+00
         -2   -1    0    0    0  501 -0.00000000000E+00  0.00000000000E+00  0.17981823368E+02  0.17981823368E+02  0.00000000000E+00 0.  1.
          2   -1    0    0  501    0  0.00000000000E+00 -0.00000000000E+00 -0.84315439575E+03  0.84315439575E+03  0.00000000000E+00 0. -1.
         25    2    1    2    0    0 -0.53888558306E+02  0.69752687872E+01 -0.54830590365E+03  0.56501168740E+03  0.12508481854E+03 0.  0.
          5    1    3    3  502    0  0.11325206432E+02 -0.16837206329E+02 -0.11453823205E+02  0.23673070855E+02  0.41800000000E+01 0.  1.
         -5    1    3    3    0  502 -0.65213764738E+02  0.23812475116E+02 -0.53685208045E+03  0.54133861655E+03  0.41800000000E+01 0.  1.
        -11    1    1    2    0    0  0.77107573639E+02 -0.63230327028E+01 -0.24329961680E+03  0.25530425416E+03  0.00000000000E+00 0.  1.
         11    1    1    2    0    0 -0.23219015334E+02 -0.65223608445E+00 -0.33567051933E+02  0.40820277565E+02  0.00000000000E+00 0. -1.
</event>
<event>
 7    1  0.2612213E-009  0.1240605E+03  0.7561462E-02  0.1236545E+00
         -3   -1    0    0    0  501 -0.00000000000E+00  0.00000000000E+00  0.30665921966E+02  0.30665921966E+02  0.00000000000E+00 0.  1.
          3   -1    0    0  501    0  0.00000000000E+00 -0.00000000000E+00 -0.61297950842E+03  0.61297950842E+03  0.00000000000E+00 0. -1.
         25    2    1    2    0    0  0.19546669374E+02  0.83289358304E+02 -0.28773353835E+03  0.32520257527E+03  0.12508771474E+03 0.  0.
          5    1    3    3  502    0  0.68093480042E+02  0.67900055228E+02 -0.14928286389E+03  0.17762315551E+03  0.41800000000E+01 0.  1.
         -5    1    3    3    0  502 -0.48546810668E+02  0.15389303075E+02 -0.13845067447E+03  0.14757941975E+03  0.41800000000E+01 0.  1.
        -11    1    1    2    0    0  0.18022809003E+02 -0.36969649022E+02 -0.41490839121E+02  0.58421454314E+02  0.00000000000E+00 0.  1.
         11    1    1    2    0    0 -0.37569478377E+02 -0.46319709281E+02 -0.25308920898E+03  0.26002140081E+03  0.00000000000E+00 0. -1.
</event>
<event>
 7    1  0.2612213E-009  0.1636715E+03  0.7561462E-02  0.1184613E+00
         -2   -1    0    0    0  501 -0.00000000000E+00  0.00000000000E+00  0.24291271685E+02  0.24291271685E+02  0.00000000000E+00 0.  1.
          2   -1    0    0  501    0  0.00000000000E+00 -0.00000000000E+00 -0.15763408542E+04  0.15763408542E+04  0.00000000000E+00 0. -1.
         25    2    1    2    0    0  0.11664542017E+03  0.11350103180E+03 -0.79507572126E+03  0.82114684170E+03  0.12509234525E+03 0.  0.
          5    1    3    3  502    0  0.22592165863E+02  0.23031894144E+02 -0.46570882176E+03  0.46684371386E+03  0.41800000000E+01 0. -1.
         -5    1    3    3    0  502  0.94053254306E+02  0.90469137660E+02 -0.32936689950E+03  0.35430312784E+03  0.41800000000E+01 0. -1.
        -11    1    1    2    0    0 -0.88630666654E+02 -0.72099015127E+02 -0.66556443750E+03  0.67529969904E+03  0.00000000000E+00 0. -1.
         11    1    1    2    0    0 -0.28014753515E+02 -0.41402016678E+02 -0.91409423730E+02  0.10418558512E+03  0.00000000000E+00 0.  1.
</event>
<event>
 7    1  0.2612213E-009  0.1130685E+03  0.7561462E-02  0.1254991E+00
          2   -1    0    0  501    0  0.00000000000E+00  0.00000000000E+00  0.57539772532E+03  0.57539772532E+03  0.00000000000E+00 0. -1.
         -2   -1    0    0    0  501 -0.00000000000E+00 -0.00000000000E+00 -0.24359914744E+02  0.24359914744E+02  0.00000000000E+00 0.  1.
         25    2    1    2    0    0  0.29727226767E+02  0.36921108229E+02  0.30941142580E+03  0.33709054043E+03  0.12509087014E+03 0.  0.
          5    1    3    3  502    0 -0.84539134769E+01 -0.43572847327E+02  0.10261885822E+03  0.11188460189E+03  0.41800000000E+01 0. -1.
         -5    1    3    3    0  502  0.38181140244E+02  0.80493955556E+02  0.20679256757E+03  0.22520593854E+03  0.41800000000E+01 0. -1.
        -11    1    1    2    0    0  0.14051155184E+02 -0.45618154053E+02  0.18218078745E+03  0.18833026910E+03  0.00000000000E+00 0.  1.
         11    1    1    2    0    0 -0.43778381951E+02  0.86970458236E+01  0.59445597330E+02  0.74336830536E+02  0.00000000000E+00 0. -1.
</event>
<event>
 7    1  0.2612213E-009  0.1043187E+03  0.7561462E-02  0.1271468E+00
         -2   -1    0    0    0  501 -0.00000000000E+00  0.00000000000E+00  0.32022160551E+02  0.32022160551E+02  0.00000000000E+00 0.  1.
          2   -1    0    0  501    0  0.00000000000E+00 -0.00000000000E+00 -0.45345844117E+03  0.45345844117E+03  0.00000000000E+00 0. -1.
         25    2    1    2    0    0  0.28035026314E+02 -0.38266898446E+02 -0.18976016583E+03  0.23217841777E+03  0.12509028310E+03 0.  0.
          5    1    3    3  502    0  0.69705862020E+02  0.80610885979E+01 -0.11479749490E+03  0.13460990151E+03  0.41800000000E+01 0. -1.
         -5    1    3    3    0  502 -0.41670835706E+02 -0.46327987044E+02 -0.74962670924E+02  0.97568516254E+02  0.41800000000E+01 0. -1.
        -11    1    1    2    0    0 -0.72873868299E+01 -0.16114715291E+02 -0.37729691363E+01  0.18083842286E+02  0.00000000000E+00 0.  1.
         11    1    1    2    0    0 -0.20747639484E+02  0.54381613737E+02 -0.22790314566E+03  0.23521834167E+03  0.00000000000E+00 0. -1.
</event>
<event>
 7    1  0.2612213E-009  0.1243793E+03  0.7561462E-02  0.1236043E+00
          2   -1    0    0  501    0  0.00000000000E+00  0.00000000000E+00  0.11937251198E+03  0.11937251198E+03  0.00000000000E+00 0. -1.
         -2   -1    0    0    0  501 -0.00000000000E+00 -0.00000000000E+00 -0.25927816378E+03  0.25927816378E+03  0.00000000000E+00 0.  1.
         25    2    1    2    0    0 -0.58053301961E+02 -0.93516411855E+02  0.16642876917E+02  0.16745374201E+03  0.12509302622E+03 0.  0.
          5    1    3    3  502    0 -0.39195584736E+02 -0.71806297060E+02 -0.49150821600E+02  0.95528602126E+02  0.41800000000E+01 0. -1.
         -5    1    3    3    0  502 -0.18857717226E+02 -0.21710114794E+02  0.65793698518E+02  0.71925139888E+02  0.41800000000E+01 0. -1.
        -11    1    1    2    0    0  0.37845638715E+02  0.10699788363E+03 -0.14544928990E+03  0.18448939104E+03  0.00000000000E+00 0.  1.
         11    1    1    2    0    0  0.20207663246E+02 -0.13481471779E+02 -0.11099238812E+02  0.26707542706E+02  0.00000000000E+00 0. -1.
</event>
<event>
 7    1  0.2612213E-009  0.8879544E+02  0.7561462E-02  0.1305795E+00
         -2   -1    0    0    0  501 -0.00000000000E+00  0.00000000000E+00  0.50408292147E+03  0.50408292147E+03  0.00000000000E+00 0. -1.
          2   -1    0    0  501    0  0.00000000000E+00 -0.00000000000E+00 -0.26141900923E+02  0.26141900923E+02  0.00000000000E+00 0.  1.
         25    2    1    2    0    0 -0.38702667131E+02 -0.75991480988E+00  0.26090751020E+03  0.29192381094E+03  0.12509319966E+03 0.  0.
          5    1    3    3  502    0  0.10483008347E+02 -0.42034702235E+02  0.31668453262E+02  0.53825393524E+02  0.41800000000E+01 0.  1.
         -5    1    3    3    0  502 -0.49185675479E+02  0.41274787425E+02  0.22923905694E+03  0.23809841742E+03  0.41800000000E+01 0.  1.
        -11    1    1    2    0    0  0.48285250429E+02 -0.15616894406E+02  0.21292226886E+03  0.21888637550E+03  0.00000000000E+00 0. -1.
         11    1    1    2    0    0 -0.95825832973E+01  0.16376809216E+02  0.41112414777E+01  0.19414635954E+02  0.00000000000E+00 0.  1.
</event>
<event>
 7    1  0.2612213E-009  0.9859633E+02  0.7561462E-02  0.1283276E+00
         -2   -1    0    0    0  501 -0.00000000000E+00  0.00000000000E+00  0.13151383338E+03  0.13151383338E+03  0.00000000000E+00 0.  1.
          2   -1    0    0  501    0  0.00000000000E+00 -0.00000000000E+00 -0.11366407533E+03  0.11366407533E+03  0.00000000000E+00 0. -1.
         25    2    1    2    0    0 -0.40316914533E+02 -0.77048833493E+01  0.49486254477E+02  0.14064237609E+03  0.12508624922E+03 0.  0.
          5    1    3    3  502    0  0.31388325544E+02 -0.13313908316E+02  0.58697808287E+02  0.68010236236E+02  0.41800000000E+01 0. -1.
         -5    1    3    3    0  502 -0.71705240077E+02  0.56090249670E+01 -0.92115538099E+01  0.72632139849E+02  0.41800000000E+01 0. -1.
        -11    1    1    2    0    0 -0.21086480150E+00 -0.33207952422E+02  0.85750449897E+01  0.34297871138E+02  0.00000000000E+00 0. -1.
         11    1    1    2    0    0  0.40527779334E+02  0.40912835771E+02 -0.40211541411E+02  0.70237661487E+02  0.00000000000E+00 0.  1.
</event>
<event>
 7    1  0.2612213E-009  0.7594455E+02  0.7561462E-02  0.1340971E+00
          1   -1    0    0  501    0  0.00000000000E+00  0.00000000000E+00  0.75417276700E+02  0.75417276700E+02  0.00000000000E+00 0. -1.
         -1   -1    0    0    0  501 -0.00000000000E+00 -0.00000000000E+00 -0.25302766164E+03  0.25302766164E+03  0.00000000000E+00 0.  1.
         25    2    1    2    0    0 -0.46007887138E+02  0.41483392266E+02 -0.29052566566E+02  0.14256510952E+03  0.12507262417E+03 0.  0.
          5    1    3    3  502    0  0.95614424522E+01  0.31649065562E+02 -0.66725373527E+02  0.74584397866E+02  0.41800000000E+01 0.  1.
         -5    1    3    3    0  502 -0.55569329590E+02  0.98343267043E+01  0.37672806961E+02  0.67980711655E+02  0.41800000000E+01 0.  1.
        -11    1    1    2    0    0  0.19193587757E+02 -0.18554791357E+02 -0.14821240143E+03  0.15059744364E+03  0.00000000000E+00 0.  1.
         11    1    1    2    0    0  0.26814299381E+02 -0.22928600909E+02 -0.34541694204E+00  0.35282385178E+02  0.00000000000E+00 0. -1.
</event>
<event>
 7    1  0.2612213E-009  0.1194831E+03  0.7561462E-02  0.1243952E+00
          2   -1    0    0  501    0  0.00000000000E+00  0.00000000000E+00  0.84348349432E+03  0.84348349432E+03  0.00000000000E+00 0. -1.
         -2   -1    0    0    0  501 -0.00000000000E+00 -0.00000000000E+00 -0.18343453563E+02  0.18343453563E+02  0.00000000000E+00 0.  1.
         25    2    1    2    0    0 -0.42891823717E+02 -0.26277741012E+02  0.34271219701E+03  0.36827968888E+03  0.12509217022E+03 0.  0.
          5    1    3    3  502    0 -0.19977019697E+02 -0.76642360067E+02  0.20500339002E+03  0.21981127130E+03  0.41800000000E+01 0. -1.
         -5    1    3    3    0  502 -0.22914804020E+02  0.50364619055E+02  0.13770880699E+03  0.14846841758E+03  0.41800000000E+01 0. -1.
        -11    1    1    2    0    0  0.51864483569E+02  0.54090811203E+02  0.34376749857E+03  0.35184063663E+03  0.00000000000E+00 0.  1.
         11    1    1    2    0    0 -0.89726598523E+01 -0.27813070191E+02  0.13866034518E+03  0.14170662237E+03  0.00000000000E+00 0. -1.
</event>
<event>
 7    1  0.2612213E-009  0.1326501E+03  0.7561462E-02  0.1223576E+00
          1   -1    0    0  501    0  0.00000000000E+00  0.00000000000E+00  0.68558578567E+03  0.68558578567E+03  0.00000000000E+00 0. -1.
         -1   -1    0    0    0  501 -0.00000000000E+00 -0.00000000000E+00 -0.37590112806E+02  0.37590112806E+02  0.00000000000E+00 0.  1.
         25    2    1    2    0    0  0.28057112756E+02  0.97532977658E+02  0.21590416083E+03  0.26937524406E+03  0.12509409314E+03 0.  0.
          5    1    3    3  502    0 -0.29426436186E+02  0.61851522942E+02  0.18006505126E+03  0.19269774550E+03  0.41800000000E+01 0. -1.
         -5    1    3    3    0  502  0.57483548942E+02  0.35681454717E+02  0.35839109574E+02  0.76677498555E+02  0.41800000000E+01 0. -1.
        -11    1    1    2    0    0 -0.55557452792E+02 -0.75016218206E+02  0.37585473576E+03  0.38727360606E+03  0.00000000000E+00 0.  1.
         11    1    1    2    0    0  0.27500340037E+02 -0.22516759452E+02  0.56236776273E+02  0.66527048364E+02  0.00000000000E+00 0. -1.
</event>
<event>
 7    1  0.2612213E-009  0.1818244E+03  0.7561462E-02  0.1166049E+00
          1   -1    0    0  501    0  0.00000000000E+00  0.00000000000E+00  0.18117231015E+03  0.18117231015E+03  0.00000000000E+00 0. -1.
         -1   -1    0    0    0  501 -0.00000000000E+00 -0.00000000000E+00 -0.33632567775E+03  0.33632567775E+03  0.00000000000E+00 0.  1.
         25    2    1    2    0    0  0.14443157655E+03 -0.22975111193E+02  0.94344853252E+02  0.21432870256E+03  0.12508998907E+03 0.  0.
          5    1    3    3  502    0  0.14474605839E+03  0.22204179702E+02  0.64844655391E+02  0.16020845405E+03  0.41800000000E+01 0.  1.
         -5    1    3    3    0  502 -0.31448184059E+00 -0.45179290896E+02  0.29500197861E+02  0.54120248507E+02  0.41800000000E+01 0.  1.
        -11    1    1    2    0    0 -0.14476435049E+03 -0.39803078698E+01 -0.21788805969E+03  0.26162524072E+03  0.00000000000E+00 0. -1.
         11    1    1    2    0    0  0.33277393569E+00  0.26955419063E+02 -0.31610161162E+02  0.41544044628E+02  0.00000000000E+00 0.  1.
</event>
<event>
 7    1  0.2612213E-009  0.2544518E+03  0.7561462E-02  0.1110523E+00
         -2   -1    0    0    0  501 -0.00000000000E+00  0.00000000000E+00  0.23242516112E+04  0.23242516112E+04  0.00000000000E+00 0. -1.
          2   -1    0    0  501    0  0.00000000000E+00 -0.00000000000E+00 -0.33478651938E+02  0.33478651938E+02  0.00000000000E+00 0.  1.
         25    2    1    2    0    0  0.12004494619E+03  0.21974745904E+03  0.93422533214E+03  0.97525708057E+03  0.12509862959E+03 0.  0.
          5    1    3    3  502    0  0.40566726825E+02  0.71401075801E+02  0.54523599535E+03  0.55140142907E+03  0.41800000000E+01 0.  1.
         -5    1    3    3    0  502  0.79478219361E+02  0.14834638324E+03  0.38898933679E+03  0.42385565150E+03  0.41800000000E+01 0.  1.
        -11    1    1    2    0    0 -0.56419820506E+02 -0.44399677479E+02  0.24205097660E+03  0.25247416260E+03  0.00000000000E+00 0.  1.
         11    1    1    2    0    0 -0.63625125679E+02 -0.17534778156E+03  0.11144966505E+04  0.11299990200E+04  0.00000000000E+00 0. -1.
</event>
<event>
 7    1  0.2612213E-009  0.1216052E+03  0.7561462E-02  0.1240472E+00
         -1   -1    0    0    0  501 -0.00000000000E+00  0.00000000000E+00  0.35931357353E+02  0.35931357353E+02  0.00000000000E+00 0.  1.
          1   -1    0    0  501    0  0.00000000000E+00 -0.00000000000E+00 -0.43223457229E+03  0.43223457229E+03  0.00000000000E+00 0. -1.
         25    2    1    2    0    0  0.35653329152E+02 -0.46027107322E+02 -0.22533146476E+03  0.26421995048E+03  0.12509300034E+03 0.  0.
          5    1    3    3  502    0  0.74517350709E+02 -0.29496878746E+01 -0.16104574734E+03  0.17752391769E+03  0.41800000000E+01 0. -1.
         -5    1    3    3    0  502 -0.38864021557E+02 -0.43077419448E+02 -0.64285717420E+02  0.86696032793E+02  0.41800000000E+01 0. -1.
        -11    1    1    2    0    0 -0.32766374781E+02 -0.23777753195E+02 -0.75119786427E+02  0.85334630579E+02  0.00000000000E+00 0.  1.
         11    1    1    2    0    0 -0.28869543710E+01  0.69804860517E+02 -0.95851963745E+02  0.11861134858E+03  0.00000000000E+00 0. -1.
</event>
<event>
 7    1  0.2612213E-009  0.1359002E+03  0.7561462E-02  0.1218955E+00
          2   -1    0    0  501    0  0.00000000000E+00  0.00000000000E+00  0.14416992997E+03  0.14416992997E+03  0.00000000000E+00 0. -1.
         -2   -1    0    0    0  501 -0.00000000000E+00 -0.00000000000E+00 -0.16308245932E+03  0.16308245932E+03  0.00000000000E+00 0.  1.
         25    2    1    2    0    0  0.25052230882E+02  0.10131287433E+03  0.18472757393E+02  0.16395266564E+03  0.12508925225E+03 0.  0.
          5    1    3    3  502    0  0.55796331469E+02  0.98209010227E+01  0.33847393389E+02  0.66127143757E+02  0.41800000000E+01 0.  1.
         -5    1    3    3    0  502 -0.30744100587E+02  0.91491973307E+02 -0.15374635996E+02  0.97825521887E+02  0.41800000000E+01 0.  1.
        -11    1    1    2    0    0 -0.14091176072E+02  0.22252620844E+01 -0.36489631796E+02  0.39179155977E+02  0.00000000000E+00 0.  1.
         11    1    1    2    0    0 -0.10961054810E+02 -0.10353813641E+03 -0.89565494089E+00  0.10412056767E+03  0.00000000000E+00 0. -1.
</event>
<event>
 7    1  0.2612213E-009  0.1000629E+03  0.7561462E-02  0.1280164E+00
         -2   -1    0    0    0  501 -0.00000000000E+00  0.00000000000E+00  0.52286054671E+02  0.52286054671E+02  0.00000000000E+00 0.  1.
          2   -1    0    0  501    0  0.00000000000E+00 -0.00000000000E+00 -0.29807571916E+03  0.29807571916E+03  0.00000000000E+00 0. -1.
         25    2    1    2    0    0  0.23812197359E+02 -0.43162280434E+02 -0.18410555965E+03  0.22797466276E+03  0.12509031365E+03 0.  0.
          5    1    3    3  502    0 -0.50123035831E+02 -0.15532716150E+02 -0.96931437819E+02  0.11030303726E+03  0.41800000000E+01 0. -1.
         -5    1    3    3    0  502  0.73935233191E+02 -0.27629564284E+02 -0.87174121835E+02  0.11767162550E+03  0.41800000000E+01 0. -1.
        -11    1    1    2    0    0  0.60886503893E+01  0.37527390085E+02 -0.78788829953E+02  0.87481748928E+02  0.00000000000E+00 0. -1.
         11    1    1    2    0    0 -0.29900847749E+02  0.56348903491E+01  0.17104725113E+02  0.34905362146E+02  0.00000000000E+00 0.  1.
</event>
<event>
 6    1  0.2612213E-009  0.2228781E+03  0.7561462E-02  0.1131755E+00
         -2   -1    0    0    0  501 -0.00000000000E+00  0.00000000000E+00  0.26364878178E+03  0.26364878178E+03  0.00000000000E+00 0. -1.
          2   -1    0    0  501    0  0.00000000000E+00 -0.00000000000E+00 -0.22331116915E+03  0.22331116915E+03  0.00000000000E+00 0.  1.
          5    1    1    2  502    0 -0.21477026132E+03 -0.57935829326E+02  0.71867301302E+02  0.23380591709E+03  0.41800000000E+01 0.  1.
         -5    1    1    2    0  502  0.15925241985E+02  0.50997756761E+01  0.12831863043E+02  0.21488372516E+02  0.41800000000E+01 0.  1.
        -11    1    1    2    0    0  0.46004800280E+02  0.75111047241E+01 -0.54753262371E+02  0.71908122512E+02  0.00000000000E+00 0.  1.
         11    1    1    2    0    0  0.15284021906E+03  0.45324948925E+02  0.10391710660E+02  0.15975753881E+03  0.00000000000E+00 0. -1.
</event>
<event>
 7    1  0.2612213E-009  0.8501567E+02  0.7561462E-02  0.1315392E+00
          1   -1    0    0  501    0  0.00000000000E+00  0.00000000000E+00  0.22778678295E+03  0.22778678295E+03  0.00000000000E+00 0. -1.
         -1   -1    0    0    0  501 -0.00000000000E+00 -0.00000000000E+00 -0.60677472719E+02  0.60677472719E+02  0.00000000000E+00 0.  1.
         25    2    1    2    0    0  0.42881748775E+02  0.94203634882E+01  0.10441034297E+03  0.16875309949E+03  0.12509396964E+03 0.  0.
          5    1    3    3  502    0  0.47781619349E+02  0.45925682728E+02  0.97809716800E+01  0.67122211590E+02  0.41800000000E+01 0. -1.
         -5    1    3    3    0  502 -0.48998705739E+01 -0.36505319240E+02  0.94629371287E+02  0.10163088790E+03  0.41800000000E+01 0. -1.
        -11    1    1    2    0    0 -0.42637296951E+02 -0.26023465366E+02 -0.48169634305E+01  0.50183293810E+02  0.00000000000E+00 0.  1.
         11    1    1    2    0    0 -0.24445182387E+00  0.16603101878E+02  0.67515930699E+02  0.69527862378E+02  0.00000000000E+00 0. -1.
</event>
<event>
 7    1  0.2612213E-009  0.2750018E+03  0.7561462E-02  0.1098451E+00
         -1   -1    0    0    0  501 -0.00000000000E+00  0.00000000000E+00  0.46924731027E+02  0.46924731027E+02  0.00000000000E+00 0.  1.
          1   -1    0    0  501    0  0.00000000000E+00 -0.00000000000E+00 -0.19106114807E+04  0.19106114807E+04  0.00000000000E+00 0. -1.
         25    2    1    2    0    0 -0.11438292637E+02 -0.26372400081E+03 -0.12440423614E+04  0.12778769570E+04  0.12508771751E+03 0.  0.
          5    1    3    3  502    0 -0.28474621609E+02 -0.24395230645E+03 -0.90310230633E+03  0.93591387424E+03  0.41800000000E+01 0.  1.
         -5    1    3    3    0  502  0.17036328972E+02 -0.19771694357E+02 -0.34094005505E+03  0.34196308272E+03  0.41800000000E+01 0.  1.
        -11    1    1    2    0    0 -0.28128954711E+02  0.20619946209E+03 -0.49116870125E+03  0.53343804640E+03  0.00000000000E+00 0.  1.
         11    1    1    2    0    0  0.39567247348E+02  0.57524538711E+02 -0.12847568707E+03  0.14622120839E+03  0.00000000000E+00 0. -1.
</event>
<event>
 7    1  0.2612213E-009  0.1067386E+03  0.7561462E-02  0.1266731E+00
         -2   -1    0    0    0  501 -0.00000000000E+00  0.00000000000E+00  0.34679920066E+02  0.34679920066E+02  0.00000000000E+00 0.  1.
          2   -1    0    0  501    0  0.00000000000E+00 -0.00000000000E+00 -0.72053735310E+03  0.72053735310E+03  0.00000000000E+00 0. -1.
         25    2    1    2    0    0 -0.38230565125E+02 -0.62511322344E+02 -0.58451665564E+03  0.60222603693E+03  0.12508891759E+03 0.  0.
          5    1    3    3  502    0  0.35431671738E+02 -0.19145943819E+02 -0.71920845094E+02  0.82535149397E+02  0.41800000000E+01 0.  1.
         -5    1    3    3    0  502 -0.73662236863E+02 -0.43365378526E+02 -0.51259581055E+03  0.51969088753E+03  0.41800000000E+01 0.  1.
        -11    1    1    2    0    0 -0.66276964557E+01  0.33119786233E+02  0.47567606266E+01  0.34109725476E+02  0.00000000000E+00 0.  1.
         11    1    1    2    0    0  0.44858261580E+02  0.29391536112E+02 -0.10609753802E+03  0.11888151076E+03  0.00000000000E+00 0. -1.
</event>
<event>
 7    1  0.2612213E-009  0.1109936E+03  0.7561462E-02  0.1258741E+00
         -3   -1    0    0    0  501 -0.00000000000E+00  0.00000000000E+00  0.94458609143E+03  0.94458609143E+03  0.00000000000E+00 0.  1.
          3   -1    0    0  501    0  0.00000000000E+00 -0.00000000000E+00 -0.24840053612E+02  0.24840053612E+02  0.00000000000E+00 0. -1.
         25    2    1    2    0    0  0.78880290440E+02  0.14092985960E+02  0.71414620744E+03  0.72943335322E+03  0.12508996247E+03 0.  0.
          5    1    3    3  502    0  0.54985525341E+02  0.44284265439E+02  0.17293438288E+03  0.18683756941E+03  0.41800000000E+01 0.  1.
         -5    1    3    3    0  502  0.23894765098E+02 -0.30191279479E+02  0.54121182457E+03  0.54259578381E+03  0.41800000000E+01 0.  1.
        -11    1    1    2    0    0 -0.72028935889E+02  0.22377593699E+02  0.17927417466E+03  0.19449461176E+03  0.00000000000E+00 0.  1.
         11    1    1    2    0    0 -0.68513545506E+01 -0.36470579659E+02  0.26325655715E+02  0.45498180059E+02  0.00000000000E+00 0. -1.
</event>
<event>
 7    1  0.2612213E-009  0.1198658E+03  0.7561462E-02  0.1243319E+00
          1   -1    0    0  501    0  0.00000000000E+00  0.00000000000E+00  0.35709047653E+02  0.35709047653E+02  0.00000000000E+00 0. -1.
         -1   -1    0    0    0  501 -0.00000000000E+00 -0.00000000000E+00 -0.49326470061E+03  0.49326470061E+03  0.00000000000E+00 0.  1.
         25    2    1    2    0    0 -0.62427107101E+02 -0.44161484493E+02 -0.24771021410E+03  0.28784651248E+03  0.12509150317E+03 0.  0.
          5    1    3    3  502    0 -0.89364159810E+02 -0.28104876627E+02 -0.23628072958E+03  0.25420836477E+03  0.41800000000E+01 0.  1.
         -5    1    3    3    0  502  0.26937052709E+02 -0.16056607867E+02 -0.11429484516E+02  0.33638147707E+02  0.41800000000E+01 0.  1.
        -11    1    1    2    0    0  0.82769427153E+02  0.44506990282E+02 -0.19318677178E+03  0.21483197864E+03  0.00000000000E+00 0.  1.
         11    1    1    2    0    0 -0.20342320052E+02 -0.34550578878E+00 -0.16658667071E+02  0.26295257137E+02  0.00000000000E+00 0. -1.
</event>
<event>
 7    1  0.2612213E-009  0.7275201E+02  0.7561462E-02  0.1350977E+00
          1   -1    0    0  501    0  0.00000000000E+00  0.00000000000E+00  0.57683542862E+03  0.57683542862E+03  0.00000000000E+00 0. -1.
         -1   -1    0    0    0  501 -0.00000000000E+00 -0.00000000000E+00 -0.24360003259E+02  0.24360003259E+02  0.00000000000E+00 0.  1.
         25    2    1    2    0    0 -0.50170794325E+01 -0.47590187938E+02  0.36116511604E+03  0.38519886352E+03  0.12509167174E+03 0.  0.
          5    1    3    3  502    0 -0.16039699275E+02 -0.24512125309E+02  0.74209056016E+01  0.30506695658E+02  0.41800000000E+01 0.  1.
         -5    1    3    3    0  502  0.11022619843E+02 -0.23078062629E+02  0.35374421044E+03  0.35469216786E+03  0.41800000000E+01 0.  1.
        -11    1    1    2    0    0  0.15152768601E+02  0.66682852302E+02  0.93570661251E+02  0.11589511566E+03  0.00000000000E+00 0.  1.
         11    1    1    2    0    0 -0.10135689169E+02 -0.19092664364E+02  0.97739648072E+02  0.10010145270E+03  0.00000000000E+00 0. -1.
</event>
<event>
 7    1  0.2612213E-009  0.1079992E+03  0.7561462E-02  0.1264320E+00
          1   -1    0    0  501    0  0.00000000000E+00  0.00000000000E+00  0.98713067030E+03  0.98713067030E+03  0.00000000000E+00 0. -1.
         -1   -1    0    0    0  501 -0.00000000000E+00 -0.00000000000E+00 -0.13392265109E+02  0.13392265109E+02  0.00000000000E+00 0.  1.
         25    2    1    2    0    0  0.34643462178E+02 -0.66352334638E+01  0.63002525947E+03  0.64328976603E+03  0.12508277147E+03 0.  0.
          5    1    3    3  502    0 -0.45729504643E+02  0.59307115196E+01  0.28801662823E+03  0.29171460620E+03  0.41800000000E+01 0. -1.
         -5    1    3    3    0  502  0.80372966821E+02 -0.12565944983E+02  0.34200863124E+03  0.35157515983E+03  0.41800000000E+01 0. -1.
        -11    1    1    2    0    0  0.26274511433E+02  0.74727165208E+01  0.47277935372E+02  0.54602148458E+02  0.00000000000E+00 0.  1.
         11    1    1    2    0    0 -0.60917973611E+02 -0.83748305695E+00  0.29643521035E+03  0.30263102092E+03  0.00000000000E+00 0. -1.
</event>
<event>
 7    1  0.2612213E-009  0.1250714E+03  0.7561462E-02  0.1234958E+00
         -2   -1    0    0    0  501 -0.00000000000E+00  0.00000000000E+00  0.14759628803E+02  0.14759628803E+02  0.00000000000E+00 0.  1.
          2   -1    0    0  501    0  0.00000000000E+00 -0.00000000000E+00 -0.11815000567E+04  0.11815000567E+04  0.00000000000E+00 0. -1.
         25    2    1    2    0    0 -0.34548482071E+02 -0.76615194356E+02 -0.74646366783E+03  0.76152436715E+03  0.12509144157E+03 0.  0.
          5    1    3    3  502    0 -0.51732465058E+02 -0.10033752135E+03 -0.67143923699E+03  0.68087589728E+03  0.41800000000E+01 0.  1.
         -5    1    3    3    0  502  0.17183982987E+02  0.23722326989E+02 -0.75024430835E+02  0.80648469863E+02  0.41800000000E+01 0.  1.
        -11    1    1    2    0    0  0.50418128093E+02  0.30751946975E+02 -0.28398947656E+03  0.29006498010E+03  0.00000000000E+00 0. -1.
         11    1    1    2    0    0 -0.15869646022E+02  0.45863247381E+02 -0.13628728353E+03  0.14467033827E+03  0.00000000000E+00 0.  1.
</event>
<event>
 7    1  0.2612213E-009  0.1236725E+03  0.7561462E-02  0.1237159E+00
          2   -1    0    0  501    0  0.00000000000E+00  0.00000000000E+00  0.11699337800E+04  0.11699337800E+04  0.00000000000E+00 0. -1.
         -2   -1    0    0    0  501 -0.00000000000E+00 -0.00000000000E+00 -0.19032019732E+02  0.19032019732E+02  0.00000000000E+00 0.  1.
         25    2    1    2    0    0  0.70694806609E+02  0.64557502060E+02  0.74471780880E+03  0.76119446538E+03  0.12508785968E+03 0.  0.
          5    1    3    3  502    0  0.63018641386E+02  0.15882881695E+02  0.13942065074E+03  0.15388049046E+03  0.41800000000E+01 0. -1.
         -5    1    3    3    0  502  0.76761652238E+01  0.48674620365E+02  0.60529715806E+03  0.60731397492E+03  0.41800000000E+01 0. -1.
        -11    1    1    2    0    0  0.22481514040E+02 -0.16803405862E+02  0.11366911290E+03  0.11708304809E+03  0.00000000000E+00 0. -1.
         11    1    1    2    0    0 -0.93176320649E+02 -0.47754096198E+02  0.29251483854E+03  0.31068828622E+03  0.00000000000E+00 0.  1.
</event>
<event>
 7    1  0.2612213E-009  0.1126773E+03  0.7561462E-02  0.1255691E+00
          1   -1    0    0  501    0  0.00000000000E+00  0.00000000000E+00  0.30194211564E+03  0.30194211564E+03  0.00000000000E+00 0. -1.
         -1   -1    0    0    0  501 -0.00000000000E+00 -0.00000000000E+00 -0.42815394867E+02  0.42815394867E+02  0.00000000000E+00 0.  1.
         25    2    1    2    0    0  0.33870800422E+02 -0.65649538446E+01  0.12914814684E+03  0.18307167914E+03  0.12508263720E+03 0.  0.
          5    1    3    3  502    0  0.14147853967E+02 -0.65491065486E+02  0.60346672459E+02  0.90268680655E+02  0.41800000000E+01 0. -1.
         -5    1    3    3    0  502  0.19722946455E+02  0.58926111641E+02  0.68801474382E+02  0.92802998482E+02  0.41800000000E+01 0. -1.
        -11    1    1    2    0    0 -0.30683791686E+02 -0.39360340972E+02  0.62102737979E+02  0.79671083702E+02  0.00000000000E+00 0.  1.
         11    1    1    2    0    0 -0.31870087356E+01  0.45925294817E+02  0.67875835952E+02  0.82014747667E+02  0.00000000000E+00 0. -1.
</event>
<event>
 7    1  0.2612213E-009  0.1370184E+03  0.7561462E-02  0.1217398E+00
         -1   -1    0    0    0  501 -0.00000000000E+00  0.00000000000E+00  0.15468837338E+03  0.15468837338E+03  0.00000000000E+00 0.  1.
          1   -1    0    0  501    0  0.00000000000E+00 -0.00000000000E+00 -0.12325808642E+03  0.12325808642E+03  0.00000000000E+00 0. -1.
         25    2    1    2    0    0 -0.14310895062E+02  0.82347430562E+02  0.93867180356E+00  0.15043281743E+03  0.12507298036E+03 0.  0.
          5    1    3    3  502    0  0.41773539825E+02 -0.92011645894E+01  0.96352556768E+00  0.42989427082E+02  0.41800000000E+01 0.  1.
         -5    1    3    3    0  502 -0.56084434887E+02  0.91548595151E+02 -0.24853764120E-01  0.10744339034E+03  0.41800000000E+01 0.  1.
        -11    1    1    2    0    0  0.50181808425E+02 -0.69049445963E+02  0.24382567921E+02  0.88772459147E+02  0.00000000000E+00 0.  1.
         11    1    1    2    0    0 -0.35870913364E+02 -0.13297984599E+02  0.61090472285E+01  0.38741183229E+02  0.00000000000E+00 0. -1.
</event>
<event>
 7    1  0.2612213E-009  0.1747293E+03  0.7561462E-02  0.1173004E+00
          2   -1    0    0  501    0  0.00000000000E+00  0.00000000000E+00  0.35735768343E+03  0.35735768343E+03  0.00000000000E+00 0. -1.
         -2   -1    0    0    0  501 -0.00000000000E+00 -0.00000000000E+00 -0.12823164313E+03  0.12823164313E+03  0.00000000000E+00 0.  1.
         25    2    1    2    0    0 -0.13121491370E+03 -0.40157769285E+02 -0.17791686147E+02  0.18650638605E+03  0.12505234076E+03 0.  0.
          5    1    3    3  502    0 -0.11618984906E+03  0.20555336869E+02 -0.31800952363E+02  0.12227581883E+03  0.41800000000E+01 0. -1.
         -5    1    3    3    0  502 -0.15025064643E+02 -0.60713106154E+02  0.14009266216E+02  0.64230567227E+02  0.41800000000E+01 0. -1.
        -11    1    1    2    0    0  0.13736186313E+03  0.97762965463E+01  0.20459457911E+03  0.24662278730E+03  0.00000000000E+00 0. -1.
         11    1    1    2    0    0 -0.61469494272E+01  0.30381472738E+02  0.42323147342E+02  0.52460153202E+02  0.00000000000E+00 0.  1.
</event>
<event>
 7    1  0.2612213E-009  0.2344514E+03  0.7561462E-02  0.1123545E+00
          2   -1    0    0  501    0  0.00000000000E+00  0.00000000000E+00  0.50656809231E+03  0.50656809231E+03  0.00000000000E+00 0. -1.
         -2   -1    0    0    0  501 -0.00000000000E+00 -0.00000000000E+00 -0.13772913834E+03  0.13772913834E+03  0.00000000000E+00 0.  1.
         25    2    1    2    0    0 -0.23273150196E+03 -0.12189575092E+02  0.11453242413E+03  0.28822934211E+03  0.12508373089E+03 0.  0.
          5    1    3    3  502    0 -0.44729884909E+02 -0.15924907028E+02 -0.25203627217E+02  0.53917163248E+02  0.41800000000E+01 0. -1.
         -5    1    3    3    0  502 -0.18800161705E+03  0.37353319354E+01  0.13973605134E+03  0.23431217886E+03  0.41800000000E+01 0. -1.
        -11    1    1    2    0    0  0.17552246242E+03  0.12184120883E+02  0.23912390831E+03  0.29687847874E+03  0.00000000000E+00 0. -1.
         11    1    1    2    0    0  0.57209039540E+02  0.54542095282E-02  0.15182621536E+02  0.59189409792E+02  0.00000000000E+00 0.  1.
</event>
<event>
 7    1  0.2612213E-009  0.1549265E+03  0.7561462E-02  0.1194547E+00
          2   -1    0    0  501    0  0.00000000000E+00  0.00000000000E+00  0.13727566452E+04  0.13727566452E+04  0.00000000000E+00 0.  1.
         -2   -1    0    0    0  501 -0.00000000000E+00 -0.00000000000E+00 -0.18318590456E+02  0.18318590456E+02  0.00000000000E+00 0. -1.
         25    2    1    2    0    0 -0.11322205854E+03 -0.15866571494E+02  0.75074526125E+03  0.76963439530E+03  0.12509065717E+03 0.  0.
          5    1    3    3  502    0 -0.10742026623E+03 -0.59314961373E+02  0.60712887502E+03  0.61941934222E+03  0.41800000000E+01 0. -1.
         -5    1    3    3    0  502 -0.58017923128E+01  0.43448389879E+02  0.14361638623E+03  0.15021505308E+03  0.41800000000E+01 0. -1.
        -11    1    1    2    0    0  0.85016854105E+02  0.50102949501E+02  0.47988900724E+03  0.48993023003E+03  0.00000000000E+00 0. -1.
         11    1    1    2    0    0  0.28205204436E+02 -0.34236378007E+02  0.12380378626E+03  0.13151061033E+03  0.00000000000E+00 0.  1.
</event>
<event>
 7    1  0.2612213E-009  0.7822054E+02  0.7561462E-02  0.1334178E+00
          1   -1    0    0  501    0  0.00000000000E+00  0.00000000000E+00  0.11635176103E+03  0.11635176103E+03  0.00000000000E+00 0.  1.
         -1   -1    0    0    0  501 -0.00000000000E+00 -0.00000000000E+00 -0.12373154986E+03  0.12373154986E+03  0.00000000000E+00 0. -1.
         25    2    1    2    0    0 -0.14992492279E+02 -0.46432909900E+02 -0.22703980842E+02  0.13617944351E+03  0.12509428501E+03 0.  0.
          5    1    3    3  502    0  0.59697045155E+01  0.27166108204E+01  0.47344354357E+02  0.47978929082E+02  0.41800000000E+01 0. -1.
         -5    1    3    3    0  502 -0.20962196794E+02 -0.49149520720E+02 -0.70048335199E+02  0.88200514429E+02  0.41800000000E+01 0. -1.
        -11    1    1    2    0    0 -0.28455943946E+02 -0.37352440530E+01  0.23422119846E+02  0.37044412428E+02  0.00000000000E+00 0.  1.
         11    1    1    2    0    0  0.43448436225E+02  0.50168153953E+02 -0.80979278398E+01  0.66859454954E+02  0.00000000000E+00 0. -1.
</event>
<event>
 7    1  0.2612213E-009  0.1082098E+03  0.7561462E-02  0.1263921E+00
          3   -1    0    0  501    0  0.00000000000E+00  0.00000000000E+00  0.29677100705E+02  0.29677100705E+02  0.00000000000E+00 0. -1.
         -3   -1    0    0    0  501 -0.00000000000E+00 -0.00000000000E+00 -0.42326011605E+03  0.42326011605E+03  0.00000000000E+00 0.  1.
         25    2    1    2    0    0 -0.26041651690E+02  0.97269713605E+01 -0.27149902680E+03  0.30022026950E+03  0.12509079532E+03 0.  0.
          5    1    3    3  502    0  0.21395498773E+02  0.54878000204E+02 -0.94323322876E+02  0.11128218147E+03  0.41800000000E+01 0.  1.
         -5    1    3    3    0  502 -0.47437150463E+02 -0.45151028843E+02 -0.17717570392E+03  0.18893808803E+03  0.41800000000E+01 0.  1.
        -11    1    1    2    0    0  0.50107308804E+02 -0.31589460933E+02 -0.78303844522E+02  0.98184156077E+02  0.00000000000E+00 0.  1.
         11    1    1    2    0    0 -0.24065657113E+02  0.21862489572E+02 -0.43780144024E+02  0.54532791176E+02  0.00000000000E+00 0. -1.
</event>
<event>
 7    1  0.2612213E-009  0.8562056E+02  0.7561462E-02  0.1313818E+00
          2   -1    0    0  501    0  0.00000000000E+00  0.00000000000E+00  0.32224807131E+03  0.32224807131E+03  0.00000000000E+00 0. -1.
         -2   -1    0    0    0  501 -0.00000000000E+00 -0.00000000000E+00 -0.33259793171E+02  0.33259793171E+02  0.00000000000E+00 0.  1.
         25    2    1    2    0    0 -0.87900369017E+01  0.17438835933E+02  0.16316175514E+03  0.20651835367E+03  0.12508674717E+03 0.  0.
          5    1    3    3  502    0 -0.40078083031E+00 -0.51878968831E+02  0.43147374539E+02  0.67607369139E+02  0.41800000000E+01 0. -1.
         -5    1    3    3    0  502 -0.83892560714E+01  0.69317804764E+02  0.12001438060E+03  0.13891098454E+03  0.41800000000E+01 0. -1.
        -11    1    1    2    0    0  0.51747697094E+01  0.15379624732E+02 -0.25581555849E+01  0.16427271789E+02  0.00000000000E+00 0.  1.
         11    1    1    2    0    0  0.36152671923E+01 -0.32818460665E+02  0.12838467859E+03  0.13256223902E+03  0.00000000000E+00 0. -1.
</event>
<event>
 7    1  0.3553613E-009  0.1154704E+03  0.7561462E-02  0.1250762E+00
          1   -1    0    0  501    0  0.00000000000E+00  0.00000000000E+00  0.11076393738E+04  0.11076393738E+04  0.00000000000E+00 0. -1.
         -1   -1    0    0    0  501 -0.00000000000E+00 -0.00000000000E+00 -0.17272892237E+02  0.17272892237E+02  0.00000000000E+00 0.  1.
         25    2    1    2    0    0  0.10994756611E+02 -0.72580437060E+02  0.77888800683E+03  0.79227756334E+03  0.12509358763E+03 0.  0.
          5    1    3    3  502    0 -0.35301063169E+01 -0.97612831600E+02  0.38194772267E+03  0.39426166666E+03  0.41800000000E+01 0.  1.
         -5    1    3    3    0  502  0.14524862928E+02  0.25032394540E+02  0.39694028416E+03  0.39801589668E+03  0.41800000000E+01 0.  1.
        -11    1    1    2    0    0  0.27246996269E+02  0.71871126677E+01  0.30077635088E+02  0.41215501048E+02  0.00000000000E+00 0. -1.
         11    1    1    2    0    0 -0.38241752880E+02  0.65393324392E+02  0.28140083964E+03  0.29141920164E+03  0.00000000000E+00 0.  1.
</event>
<event>
 7    1  0.2612213E-009  0.1756524E+03  0.7561462E-02  0.1172078E+00
          1   -1    0    0  501    0  0.00000000000E+00  0.00000000000E+00  0.26330810362E+02  0.26330810362E+02  0.00000000000E+00 0. -1.
         -1   -1    0    0    0  501 -0.00000000000E+00 -0.00000000000E+00 -0.14590101371E+04  0.14590101371E+04  0.00000000000E+00 0.  1.
         25    2    1    2    0    0  0.22164664718E+02 -0.15185723634E+03 -0.96032103068E+03  0.98051743901E+03  0.12508426614E+03 0.  0.
          5    1    3    3  502    0  0.56428608122E+02 -0.43622704601E+02 -0.55488158459E+03  0.55946239685E+03  0.41800000000E+01 0.  1.
         -5    1    3    3    0  502 -0.34263943405E+02 -0.10823453174E+03 -0.40543944610E+03  0.42105504216E+03  0.41800000000E+01 0.  1.
        -11    1    1    2    0    0  0.16980118690E+02  0.99182304614E+02 -0.19069294302E+03  0.21561366491E+03  0.00000000000E+00 0. -1.
         11    1    1    2    0    0 -0.39144783408E+02  0.52674931729E+02 -0.28166535303E+03  0.28920984353E+03  0.00000000000E+00 0.  1.
</event>
<event>
 7    1  0.2612213E-009  0.1415418E+03  0.7561462E-02  0.1211269E+00
         -2   -1    0    0    0  501 -0.00000000000E+00  0.00000000000E+00  0.83857844592E+02  0.83857844592E+02  0.00000000000E+00 0.  1.
          2   -1    0    0  501    0  0.00000000000E+00 -0.00000000000E+00 -0.24061710387E+03  0.24061710387E+03  0.00000000000E+00 0. -1.
         25    2    1    2    0    0 -0.88366005592E+02  0.22159660481E+02 -0.87841205447E+02  0.17794143730E+03  0.12508987264E+03 0.  0.
          5    1    3    3  502    0  0.18036033777E+02  0.41720426823E+02 -0.17784357974E+02  0.48986205377E+02  0.41800000000E+01 0. -1.
         -5    1    3    3    0  502 -0.10640203937E+03 -0.19560766342E+02 -0.70056847473E+02  0.12895523192E+03  0.41800000000E+01 0. -1.
        -11    1    1    2    0    0 -0.15496343984E+02  0.12256856695E+02 -0.13060055198E+02  0.23684008417E+02  0.00000000000E+00 0.  1.
         11    1    1    2    0    0  0.10386234958E+03 -0.34416517175E+02 -0.55857998631E+02  0.12284950275E+03  0.00000000000E+00 0. -1.
</event>
<event>
 7    1  0.2612213E-009  0.1145020E+03  0.7561462E-02  0.1252453E+00
         -2   -1    0    0    0  501 -0.00000000000E+00  0.00000000000E+00  0.46200899635E+02  0.46200899635E+02  0.00000000000E+00 0.  1.
          2   -1    0    0  501    0  0.00000000000E+00 -0.00000000000E+00 -0.36149595408E+03  0.36149595408E+03  0.00000000000E+00 0. -1.
         25    2    1    2    0    0 -0.50318472694E+02 -0.35989440881E+02 -0.12415434430E+03  0.18678314086E+03  0.12508577837E+03 0.  0.
          5    1    3    3  502    0 -0.75761791615E+02 -0.57826947651E+02 -0.55768727135E+02  0.11050533141E+03  0.41800000000E+01 0. -1.
         -5    1    3    3    0  502  0.25443318920E+02  0.21837506770E+02 -0.68385617165E+02  0.76277809452E+02  0.41800000000E+01 0. -1.
        -11    1    1    2    0    0  0.71285331339E+02  0.21977643811E+02 -0.17682485917E+03  0.19191572659E+03  0.00000000000E+00 0. -1.
         11    1    1    2    0    0 -0.20966858645E+02  0.14011797069E+02 -0.14315850979E+02  0.28997986271E+02  0.00000000000E+00 0.  1.
</event>
<event>
 7    1  0.2612213E-009  0.8503625E+02  0.7561462E-02  0.1315338E+00
         -2   -1    0    0    0  501 -0.00000000000E+00  0.00000000000E+00  0.12815230015E+03  0.12815230015E+03  0.00000000000E+00 0.  1.
          2   -1    0    0  501    0  0.00000000000E+00 -0.00000000000E+00 -0.16637723316E+03  0.16637723316E+03  0.00000000000E+00 0. -1.
         25    2    1    2    0    0 -0.55796005389E+02 -0.43181561645E+01 -0.10197954546E+03  0.17082020839E+03  0.12509146738E+03 0.  0.
          5    1    3    3  502    0 -0.55973729532E+02  0.40120586970E+02 -0.10548802737E+03  0.12604727770E+03  0.41800000000E+01 0.  1.
         -5    1    3    3    0  502  0.17772414364E+00 -0.44438743135E+02  0.35084819122E+01  0.44772930690E+02  0.41800000000E+01 0.  1.
        -11    1    1    2    0    0  0.30047762602E+02  0.59962726333E+01  0.84956588078E+02  0.90313039926E+02  0.00000000000E+00 0.  1.
         11    1    1    2    0    0  0.25748242787E+02 -0.16781164687E+01 -0.21201975630E+02  0.33396285005E+02  0.00000000000E+00 0. -1.
</event>
<event>
 7    1  0.2612213E-009  0.1065023E+03  0.7561462E-02  0.1267188E+00
          1   -1    0    0  501    0  0.00000000000E+00  0.00000000000E+00  0.62377967826E+03  0.62377967826E+03  0.00000000000E+00 0. -1.
         -1   -1    0    0    0  501 -0.00000000000E+00 -0.00000000000E+00 -0.21047100316E+02  0.21047100316E+02  0.00000000000E+00 0.  1.
         25    2    1    2    0    0  0.28855699290E+02  0.14746638862E+01  0.40874827026E+03  0.42843571489E+03  0.12508871788E+03 0.  0.
          5    1    3    3  502    0  0.75338081428E+02  0.19925673243E+02  0.23833118974E+03  0.25078294872E+03  0.41800000000E+01 0. -1.
         -5    1    3    3    0  502 -0.46482382138E+02 -0.18451009357E+02  0.17041708052E+03  0.17765276617E+03  0.41800000000E+01 0. -1.
        -11    1    1    2    0    0  0.49987793536E+01  0.34802158841E+02  0.13403868514E+03  0.13857325561E+03  0.00000000000E+00 0. -1.
         11    1    1    2    0    0 -0.33854478644E+02 -0.36276822728E+02  0.59945622545E+02  0.77817808076E+02  0.00000000000E+00 0.  1.
</event>
<event>
 7    1  0.2612213E-009  0.1496875E+03  0.7561462E-02  0.1200858E+00
         -2   -1    0    0    0  501 -0.00000000000E+00  0.00000000000E+00  0.24351320946E+02  0.24351320946E+02  0.00000000000E+00 0.  1.
          2   -1    0    0  501    0  0.00000000000E+00 -0.00000000000E+00 -0.13332570743E+04  0.13332570743E+04  0.00000000000E+00 0. -1.
         25    2    1    2    0    0 -0.19349720505E+02 -0.12702436170E+03 -0.88913667866E+03  0.90704009168E+03  0.12509234364E+03 0.  0.
          5    1    3    3  502    0 -0.40619915101E+02 -0.13089595800E+03 -0.53747333907E+03  0.55468801315E+03  0.41800000000E+01 0. -1.
         -5    1    3    3    0  502  0.21270194596E+02  0.38715962960E+01 -0.35166333959E+03  0.35235207854E+03  0.41800000000E+01 0. -1.
        -11    1    1    2    0    0 -0.18228625016E+02  0.21310211708E+02 -0.17752719397E+02  0.33189861991E+02  0.00000000000E+00 0.  1.
         11    1    1    2    0    0  0.37578345521E+02  0.10571414999E+03 -0.40201635532E+03  0.41737844159E+03  0.00000000000E+00 0. -1.
</event>
<event>
 7    1  0.2612213E-009  0.1117883E+03  0.7561462E-02  0.1257294E+00
          2   -1    0    0  501    0  0.00000000000E+00  0.00000000000E+00  0.14420744209E+04  0.14420744209E+04  0.00000000000E+00 0. -1.
         -2   -1    0    0    0  501 -0.00000000000E+00 -0.00000000000E+00 -0.15710797493E+02  0.15710797493E+02  0.00000000000E+00 0.  1.
         25    2    1    2    0    0 -0.69505381865E+02 -0.49221306427E+02  0.10609168873E+04  0.10716557505E+04  0.12509065001E+03 0.  0.
          5    1    3    3  502    0 -0.76117734432E+02 -0.24912520332E+02  0.10217918431E+04  0.10249344302E+04  0.41800000000E+01 0.  1.
         -5    1    3    3    0  502  0.66123525673E+01 -0.24308786095E+02  0.39125044168E+02  0.46721320284E+02  0.41800000000E+01 0.  1.
        -11    1    1    2    0    0  0.80442347461E+02  0.14889730750E+02  0.18747880145E+03  0.20455066937E+03  0.00000000000E+00 0.  1.
         11    1    1    2    0    0 -0.10936965596E+02  0.34331575676E+02  0.17796793467E+03  0.18157879853E+03  0.00000000000E+00 0. -1.
</event>
<event>
 7    1  0.2612213E-009  0.2233988E+03  0.7561462E-02  0.1131374E+00
          1   -1    0    0  501    0  0.00000000000E+00  0.00000000000E+00  0.15427913052E+03  0.15427913052E+03  0.00000000000E+00 0. -1.
         -1   -1    0    0    0  501 -0.00000000000E+00 -0.00000000000E+00 -0.37575420191E+03  0.37575420191E+03  0.00000000000E+00 0.  1.
         25    2    1    2    0    0 -0.14383734676E+03 -0.14843111162E+03 -0.17660705324E+03  0.29926467191E+03  0.12509322677E+03 0.  0.
          5    1    3    3  502    0 -0.89113562141E+02 -0.88743083331E+01 -0.47907615536E+02  0.10164935972E+03  0.41800000000E+01 0.  1.
         -5    1    3    3    0  502 -0.54723784616E+02 -0.13955680329E+03 -0.12869943770E+03  0.19761531219E+03  0.41800000000E+01 0.  1.
        -11    1    1    2    0    0  0.56475794559E+02  0.48421397802E+02 -0.62044575247E+02  0.96869378308E+02  0.00000000000E+00 0.  1.
         11    1    1    2    0    0  0.87361552198E+02  0.10000971382E+03  0.17176557091E+02  0.13389928220E+03  0.00000000000E+00 0. -1.
</event>
<event>
 7    1  0.2612213E-009  0.9252241E+02  0.7561462E-02  0.1296856E+00
         -4   -1    0    0    0  501 -0.00000000000E+00  0.00000000000E+00  0.15108040354E+03  0.15108040354E+03  0.00000000000E+00 0.  1.
          4   -1    0    0  501    0  0.00000000000E+00 -0.00000000000E+00 -0.12577101922E+03  0.12577101922E+03  0.00000000000E+00 0. -1.
         25    2    1    2    0    0 -0.11921972037E+02 -0.65091876492E+02 -0.38025035467E+02  0.14653540703E+03  0.12509051279E+03 0.  0.
          5    1    3    3  502    0  0.13242333283E+02 -0.80399484215E+02  0.17589085832E+02  0.83464272556E+02  0.41800000000E+01 0.  1.
         -5    1    3    3    0  502 -0.25164305320E+02  0.15307607723E+02 -0.55614121299E+02  0.63071134478E+02  0.41800000000E+01 0.  1.
        -11    1    1    2    0    0 -0.77323863060E+01  0.44774211509E+02  0.83862375676E+02  0.95380385134E+02  0.00000000000E+00 0.  1.
         11    1    1    2    0    0  0.19654358343E+02  0.20317664983E+02 -0.20527955888E+02  0.34935630596E+02  0.00000000000E+00 0. -1.
</event>
<event>
 7    1  0.2612213E-009  0.1375123E+03  0.7561462E-02  0.1216716E+00
          2   -1    0    0  501    0  0.00000000000E+00  0.00000000000E+00  0.13114181968E+03  0.13114181968E+03  0.00000000000E+00 0. -1.
         -2   -1    0    0    0  501 -0.00000000000E+00 -0.00000000000E+00 -0.16246412009E+03  0.16246412009E+03  0.00000000000E+00 0.  1.
         25    2    1    2    0    0 -0.85767733939E+02 -0.43015144207E+02 -0.13133625337E+02  0.15819767652E+03  0.12509039101E+03 0.  0.
          5    1    3    3  502    0 -0.10069864146E+03  0.10835379740E+02 -0.12692658816E+02  0.10215771060E+03  0.41800000000E+01 0.  1.
         -5    1    3    3    0  502  0.14930907522E+02 -0.53850523947E+02 -0.44096652107E+00  0.56039965920E+02  0.41800000000E+01 0.  1.
        -11    1    1    2    0    0  0.24565331681E+00  0.31298384574E+02 -0.35543264931E+02  0.47360034886E+02  0.00000000000E+00 0.  1.
         11    1    1    2    0    0  0.85522080623E+02  0.11716759634E+02  0.17354589856E+02  0.88048228372E+02  0.00000000000E+00 0. -1.
</event>
<event>
 7    1  0.2612213E-009  0.1367893E+03  0.7561462E-02  0.1217716E+00
         -3   -1    0    0    0  501 -0.00000000000E+00  0.00000000000E+00  0.14078603623E+03  0.14078603623E+03  0.00000000000E+00 0.  1.
          3   -1    0    0  501    0  0.00000000000E+00 -0.00000000000E+00 -0.13447271584E+03  0.13447271584E+03  0.00000000000E+00 0. -1.
         25    2    1    2    0    0 -0.83519300248E+02 -0.94632006583E+01  0.98931898322E+01  0.15103065095E+03  0.12508939459E+03 0.  0.
          5    1    3    3  502    0  0.32235212926E+02 -0.92333695946E+01 -0.53143567051E+01  0.34206415387E+02  0.41800000000E+01 0. -1.
         -5    1    3    3    0  502 -0.11575451317E+03 -0.22983106366E+00  0.15207546537E+02  0.11682423556E+03  0.41800000000E+01 0. -1.
        -11    1    1    2    0    0  0.62670740490E+02  0.48804991326E+02 -0.58329318786E+01  0.79646544095E+02  0.00000000000E+00 0. -1.
         11    1    1    2    0    0  0.20848559758E+02 -0.39341790668E+02  0.22530624298E+01  0.44581557030E+02  0.00000000000E+00 0.  1.
</event>
<event>
 7    1  0.2612213E-009  0.1171889E+03  0.7561462E-02  0.1247808E+00
         -2   -1    0    0    0  501 -0.00000000000E+00  0.00000000000E+00  0.20278408986E+03  0.20278408986E+03  0.00000000000E+00 0.  1.
          2   -1    0    0  501    0  0.00000000000E+00 -0.00000000000E+00 -0.81582555020E+02  0.81582555020E+02  0.00000000000E+00 0. -1.
         25    2    1    2    0    0  0.51827951852E+02 -0.44489591000E+02  0.72343415568E+02  0.15983274581E+03  0.12508987392E+03 0.  0.
          5    1    3    3  502    0  0.78164292662E+02 -0.10850587664E+02  0.84022873421E+02  0.11534603399E+03  0.41800000000E+01 0. -1.
         -5    1    3    3    0  502 -0.26336340809E+02 -0.33639003336E+02 -0.11679457853E+02  0.44486711818E+02  0.41800000000E+01 0. -1.
        -11    1    1    2    0    0  0.93039995752E+01 -0.20921275968E+02  0.20185986778E+02  0.30524387929E+02  0.00000000000E+00 0.  1.
         11    1    1    2    0    0 -0.61131951427E+02  0.65410866969E+02  0.28672132494E+02  0.94009511139E+02  0.00000000000E+00 0. -1.
</event>
<event>
 7    1  0.2612213E-009  0.5825747E+02  0.7561462E-02  0.1405293E+00
         -1   -1    0    0    0  501 -0.00000000000E+00  0.00000000000E+00  0.12811300516E+03  0.12811300516E+03  0.00000000000E+00 0.  1.
          1   -1    0    0  501    0  0.00000000000E+00 -0.00000000000E+00 -0.10669730851E+03  0.10669730851E+03  0.00000000000E+00 0. -1.
         25    2    1    2    0    0  0.22076609088E+02  0.33938695595E+02  0.27810447485E+02  0.13438824038E+03  0.12509023317E+03 0.  0.
          5    1    3    3  502    0  0.16437491788E+01  0.22072955131E+02 -0.48993316322E+02  0.53923415172E+02  0.41800000000E+01 0.  1.
         -5    1    3    3    0  502  0.20432859909E+02  0.11865740464E+02  0.76803763807E+02  0.80464825208E+02  0.41800000000E+01 0.  1.
        -11    1    1    2    0    0 -0.17115951924E+01 -0.46194362497E+02 -0.38719361394E+02  0.60299565765E+02  0.00000000000E+00 0. -1.
         11    1    1    2    0    0 -0.20365013895E+02  0.12255666902E+02  0.32324610565E+02  0.40122507528E+02  0.00000000000E+00 0.  1.
</event>
<event>
 7    1  0.2612213E-009  0.7203764E+02  0.7561462E-02  0.1353298E+00
         -1   -1    0    0    0  501 -0.00000000000E+00  0.00000000000E+00  0.78008370139E+03  0.78008370139E+03  0.00000000000E+00 0.  1.
          1   -1    0    0  501    0  0.00000000000E+00 -0.00000000000E+00 -0.20071272706E+02  0.20071272706E+02  0.00000000000E+00 0. -1.
         25    2    1    2    0    0 -0.54498288657E+02  0.16467357793E+02  0.50066364619E+03  0.51918452125E+03  0.12508894097E+03 0.  0.
          5    1    3    3  502    0 -0.56989338205E+02  0.13252924157E+02  0.50711016291E+03  0.51049154194E+03  0.41800000000E+01 0.  1.
         -5    1    3    3    0  502  0.24910495472E+01  0.32144336361E+01 -0.64465167209E+01  0.86929793098E+01  0.41800000000E+01 0.  1.
        -11    1    1    2    0    0  0.65050838819E+02 -0.70341050133E+01  0.25865158585E+03  0.26679905008E+03  0.00000000000E+00 0.  1.
         11    1    1    2    0    0 -0.10552550162E+02 -0.94332527800E+01  0.69719664434E+00  0.14171402757E+02  0.00000000000E+00 0. -1.
</event>
<event>
 7    1  0.3026188E-009  0.7765818E+02  0.7561462E-02  0.1335832E+00
          2   -1    0    0  501    0  0.00000000000E+00  0.00000000000E+00  0.56872991026E+03  0.56872991026E+03  0.00000000000E+00 0.  1.
         -2   -1    0    0    0  501 -0.00000000000E+00 -0.00000000000E+00 -0.26842930174E+02  0.26842930174E+02  0.00000000000E+00 0. -1.
         25    2    1    2    0    0  0.11893966576E+02 -0.43391518187E+02  0.39725252283E+03  0.41890505599E+03  0.12509032237E+03 0.  0.
          5    1    3    3  502    0  0.75351300526E+01 -0.70742943160E+02  0.11517592497E+03  0.13544116171E+03  0.41800000000E+01 0.  1.
         -5    1    3    3    0  502  0.43588365234E+01  0.27351424973E+02  0.28207659786E+03  0.28346389428E+03  0.41800000000E+01 0.  1.
        -11    1    1    2    0    0 -0.22189856258E+02  0.17772264141E+02  0.14627138060E+03  0.14900858995E+03  0.00000000000E+00 0.  1.
         11    1    1    2    0    0  0.10295889682E+02  0.25619254046E+02 -0.16369233470E+01  0.27659194497E+02  0.00000000000E+00 0. -1.
</event>
<event>
 7    1  0.2612213E-009  0.1866093E+03  0.7561462E-02  0.1161556E+00
         -1   -1    0    0    0  501 -0.00000000000E+00  0.00000000000E+00  0.43198843927E+03  0.43198843927E+03  0.00000000000E+00 0.  1.
          1   -1    0    0  501    0  0.00000000000E+00 -0.00000000000E+00 -0.13251706736E+03  0.13251706736E+03  0.00000000000E+00 0. -1.
         25    2    1    2    0    0 -0.15777700802E+03  0.50613749105E+02 -0.16562187867E+01  0.20761799549E+03  0.12508858115E+03 0.  0.
          5    1    3    3  502    0 -0.14503484883E+03  0.72728918541E+02 -0.34383810645E+02  0.16590455631E+03  0.41800000000E+01 0.  1.
         -5    1    3    3    0  502 -0.12742159183E+02 -0.22115169437E+02  0.32727591858E+02  0.41713439185E+02  0.41800000000E+01 0.  1.
        -11    1    1    2    0    0  0.22777540421E+02  0.22082246556E+02  0.22619860673E+02  0.38962803512E+02  0.00000000000E+00 0. -1.
         11    1    1    2    0    0  0.13499946760E+03 -0.72695995661E+02  0.27850773003E+03  0.31792470763E+03  0.00000000000E+00 0.  1.
</event>
<event>
 7    1  0.2612213E-009  0.1086135E+03  0.7561462E-02  0.1263159E+00
         -2   -1    0    0    0  501 -0.00000000000E+00  0.00000000000E+00  0.35925555577E+03  0.35925555577E+03  0.00000000000E+00 0.  1.
          2   -1    0    0  501    0  0.00000000000E+00 -0.00000000000E+00 -0.44455080508E+02  0.44455080508E+02  0.00000000000E+00 0. -1.
         25    2    1    2    0    0 -0.49473367427E+02 -0.64855236666E+01  0.20919309942E+03  0.24879779105E+03  0.12509561097E+03 0.  0.
          5    1    3    3  502    0  0.12278161887E+02  0.47070814242E+02  0.10891281848E+03  0.11935614455E+03  0.41800000000E+01 0.  1.
         -5    1    3    3    0  502 -0.61751529313E+02 -0.53556337909E+02  0.10028028094E+03  0.12944164650E+03  0.41800000000E+01 0.  1.
        -11    1    1    2    0    0 -0.51824044073E+01 -0.23602183219E+02  0.86276530397E+02  0.89596652088E+02  0.00000000000E+00 0.  1.
         11    1    1    2    0    0  0.54655771834E+02  0.30087706886E+02  0.19330845439E+02  0.65316193136E+02  0.00000000000E+00 0. -1.
</event>
<event>
 7    1  0.2612213E-009  0.1690706E+03  0.7561462E-02  0.1178821E+00
          2   -1    0    0  501    0  0.00000000000E+00  0.00000000000E+00  0.59293914393E+03  0.59293914393E+03  0.00000000000E+00 0.  1.
         -2   -1    0    0    0  501 -0.00000000000E+00 -0.00000000000E+00 -0.53453511137E+02  0.53453511137E+02  0.00000000000E+00 0. -1.
         25    2    1    2    0    0 -0.12694569286E+03  0.49619137998E+02  0.35956927387E+03  0.40437072610E+03  0.12509337963E+03 0.  0.
          5    1    3    3  502    0 -0.23195582564E+02 -0.38702978479E+02  0.12640486634E+03  0.13428186112E+03  0.41800000000E+01 0. -1.
         -5    1    3    3    0  502 -0.10375011030E+03  0.88322116477E+02  0.23316440753E+03  0.27008886498E+03  0.41800000000E+01 0. -1.
        -11    1    1    2    0    0  0.91001278454E+01 -0.36869623316E+02  0.19866880652E+02  0.42858772697E+02  0.00000000000E+00 0. -1.
         11    1    1    2    0    0  0.11784556502E+03 -0.12749514682E+02  0.16004947827E+03  0.19916315626E+03  0.00000000000E+00 0.  1.
</event>
<event>
 7    1  0.2612213E-009  0.1096601E+03  0.7561462E-02  0.1261201E+00
         -2   -1    0    0    0  501 -0.00000000000E+00  0.00000000000E+00  0.16362625841E+02  0.16362625841E+02  0.00000000000E+00 0.  1.
          2   -1    0    0  501    0  0.00000000000E+00 -0.00000000000E+00 -0.81789600956E+03  0.81789600956E+03  0.00000000000E+00 0. -1.
         25    2    1    2    0    0  0.23860316876E+02 -0.26133072165E+02 -0.52434196394E+03  0.54021705600E+03  0.12509084806E+03 0.  0.
          5    1    3    3  502    0  0.70794932349E+02 -0.62644348193E+01 -0.20993495392E+03  0.22167842220E+03  0.41800000000E+01 0.  1.
         -5    1    3    3    0  502 -0.46934615474E+02 -0.19868637345E+02 -0.31440701002E+03  0.31853863381E+03  0.41800000000E+01 0.  1.
        -11    1    1    2    0    0 -0.56633651045E+02  0.26983275479E+01 -0.13965934142E+03  0.15072950291E+03  0.00000000000E+00 0.  1.
         11    1    1    2    0    0  0.32773334170E+02  0.23434744617E+02 -0.13753207836E+03  0.14331207648E+03  0.00000000000E+00 0. -1.
</event>
<event>
 7    1  0.2612213E-009  0.9219316E+02  0.7561462E-02  0.1297626E+00
          1   -1    0    0  501    0  0.00000000000E+00  0.00000000000E+00  0.49810742623E+02  0.49810742623E+02  0.00000000000E+00 0. -1.
         -1   -1    0    0    0  501 -0.00000000000E+00 -0.00000000000E+00 -0.26117965788E+03  0.26117965788E+03  0.00000000000E+00 0.  1.
         25    2    1    2    0    0  0.18577723666E+02  0.28535265732E+02 -0.13838978456E+03  0.18962803694E+03  0.12509063401E+03 0.  0.
          5    1    3    3  502    0 -0.37224788573E+02  0.13617353796E+01 -0.11854777347E+03  0.12433256292E+03  0.41800000000E+01 0.  1.
         -5    1    3    3    0  502  0.55802512239E+02  0.27173530352E+02 -0.19842011094E+02  0.65295474026E+02  0.41800000000E+01 0.  1.
        -11    1    1    2    0    0  0.22305751763E+02 -0.36754680307E+02 -0.73682579637E+01  0.43620457489E+02  0.00000000000E+00 0. -1.
         11    1    1    2    0    0 -0.40883475428E+02  0.82194145747E+01 -0.65610872734E+02  0.77741906074E+02  0.00000000000E+00 0.  1.
</event>
<event>
 7    1  0.2612213E-009  0.1926716E+03  0.7561462E-02  0.1156074E+00
          3   -1    0    0  501    0  0.00000000000E+00  0.00000000000E+00  0.60603859859E+02  0.60603859859E+02  0.00000000000E+00 0. -1.
         -3   -1    0    0    0  501 -0.00000000000E+00 -0.00000000000E+00 -0.84060233763E+03  0.84060233763E+03  0.00000000000E+00 0.  1.
         25    2    1    2    0    0  0.79742029224E+02  0.16369383604E+03 -0.55540362254E+03  0.59772596441E+03  0.12509468984E+03 0.  0.
          5    1    3    3  502    0  0.71999175156E+00  0.74272575958E+02 -0.87616535313E+02  0.11493939093E+03  0.41800000000E+01 0. -1.
         -5    1    3    3    0  502  0.79022037472E+02  0.89421260079E+02 -0.46778708722E+03  0.48278657348E+03  0.41800000000E+01 0. -1.
        -11    1    1    2    0    0 -0.73881721672E+02 -0.84961471030E+02 -0.18135842887E+03  0.21346625045E+03  0.00000000000E+00 0.  1.
         11    1    1    2    0    0 -0.58603075517E+01 -0.78732365007E+02 -0.43236426362E+02  0.90013982629E+02  0.00000000000E+00 0. -1.
</event>
<event>
 7    1  0.2612213E-009  0.1546943E+03  0.7561462E-02  0.1194821E+00
         -2   -1    0    0    0  501 -0.00000000000E+00  0.00000000000E+00  0.26705907232E+03  0.26705907232E+03  0.00000000000E+00 0.  1.
          2   -1    0    0  501    0  0.00000000000E+00 -0.00000000000E+00 -0.23799739633E+03  0.23799739633E+03  0.00000000000E+00 0. -1.
         25    2    1    2    0    0 -0.11130309753E+01  0.11534238841E+03  0.21111559413E+03  0.27115033771E+03  0.12509039193E+03 0.  0.
          5    1    3    3  502    0 -0.49931860139E+02  0.11541381572E+02  0.40199843420E+02  0.65267863123E+02  0.41800000000E+01 0. -1.
         -5    1    3    3    0  502  0.48818829164E+02  0.10380100684E+03  0.17091575071E+03  0.20588247459E+03  0.41800000000E+01 0. -1.
        -11    1    1    2    0    0  0.40889290285E+02 -0.36204465455E+02 -0.95805285215E+02  0.11027851130E+03  0.00000000000E+00 0. -1.
         11    1    1    2    0    0 -0.39776259310E+02 -0.79137922958E+02 -0.86248632925E+02  0.12362761963E+03  0.00000000000E+00 0.  1.
</event>
<event>
 7    1  0.2612213E-009  0.8899720E+02  0.7561462E-02  0.1305298E+00
          3   -1    0    0  501    0  0.00000000000E+00  0.00000000000E+00  0.18608701216E+03  0.18608701216E+03  0.00000000000E+00 0. -1.
         -3   -1    0    0    0  501 -0.00000000000E+00 -0.00000000000E+00 -0.66241939191E+02  0.66241939191E+02  0.00000000000E+00 0.  1.
         25    2    1    2    0    0 -0.10127044329E+02 -0.29588582417E+01  0.88342303826E+02  0.15349892746E+03  0.12508495600E+03 0.  0.
          5    1    3    3  502    0 -0.44033676515E+02  0.29643017094E+02  0.91826742722E+02  0.10614752097E+03  0.41800000000E+01 0.  1.
         -5    1    3    3    0  502  0.33906632186E+02 -0.32601875336E+02 -0.34844388960E+01  0.47351406484E+02  0.41800000000E+01 0.  1.
        -11    1    1    2    0    0 -0.20154427458E+02  0.30523304790E+02 -0.12564194605E+02  0.38674695442E+02  0.00000000000E+00 0.  1.
         11    1    1    2    0    0  0.30281471787E+02 -0.27564446549E+02  0.44066963747E+02  0.60155328451E+02  0.00000000000E+00 0. -1.
</event>
<event>
 7    1  0.2612213E-009  0.7532061E+02  0.7561462E-02  0.1342881E+00
          2   -1    0    0  501    0  0.00000000000E+00  0.00000000000E+00  0.28329900382E+03  0.28329900382E+03  0.00000000000E+00 0. -1.
         -2   -1    0    0    0  501 -0.00000000000E+00 -0.00000000000E+00 -0.43249961309E+02  0.43249961309E+02  0.00000000000E+00 0.  1.
         25    2    1    2    0    0 -0.35636168902E+01  0.73793499776E+01  0.16432503120E+03  0.20668128513E+03  0.12508910253E+03 0.  0.
          5    1    3    3  502    0  0.45323275519E+02 -0.22083880502E+02  0.25778850985E+02  0.56779561815E+02  0.41800000000E+01 0. -1.
         -5    1    3    3    0  502 -0.48886892409E+02  0.29463230479E+02  0.13854618021E+03  0.14990172331E+03  0.41800000000E+01 0. -1.
        -11    1    1    2    0    0 -0.14420918346E+02 -0.17105409645E+02 -0.14955680727E+02  0.26911527476E+02  0.00000000000E+00 0.  1.
         11    1    1    2    0    0  0.17984535236E+02  0.97260596675E+01  0.90679692038E+02  0.92956152526E+02  0.00000000000E+00 0. -1.
</event>
<event>
 7    1  0.2612213E-009  0.2124651E+03  0.7561462E-02  0.1139629E+00
         -1   -1    0    0    0  501 -0.00000000000E+00  0.00000000000E+00  0.39122091014E+02  0.39122091014E+02  0.00000000000E+00 0.  1.
          1   -1    0    0  501    0  0.00000000000E+00 -0.00000000000E+00 -0.12370452934E+04  0.12370452934E+04  0.00000000000E+00 0. -1.
         25    2    1    2    0    0  0.25610526990E+02  0.18545797256E+03 -0.47489354635E+03  0.52556807761E+03  0.12508942865E+03 0.  0.
          5    1    3    3  502    0 -0.24517659843E+02 -0.58909302197E+01 -0.78235366594E+02  0.82304700286E+02  0.41800000000E+01 0.  1.
         -5    1    3    3    0  502  0.50128186832E+02  0.19134890278E+03 -0.39665817976E+03  0.44326337732E+03  0.41800000000E+01 0.  1.
        -11    1    1    2    0    0 -0.51521365904E+02 -0.10438060137E+03 -0.42518529729E+03  0.44083137152E+03  0.00000000000E+00 0.  1.
         11    1    1    2    0    0  0.25910838914E+02 -0.81077371185E+02 -0.29784435877E+03  0.30976793530E+03  0.00000000000E+00 0. -1.
</event>
<event>
 7    1  0.2612213E-009  0.3653183E+03  0.7561462E-02  0.1056498E+00
         -2   -1    0    0    0  501 -0.00000000000E+00  0.00000000000E+00  0.53032837526E+02  0.53032837526E+02  0.00000000000E+00 0.  1.
          2   -1    0    0  501    0  0.00000000000E+00 -0.00000000000E+00 -0.26812104693E+04  0.26812104693E+04  0.00000000000E+00 0. -1.
         25    2    1    2    0    0  0.17773294652E+03 -0.31352122215E+03 -0.12430073346E+04  0.13002300640E+04  0.12508568471E+03 0.  0.
          5    1    3    3  502    0  0.11616576845E+02 -0.39211812387E+02 -0.32960985608E+03  0.33216357523E+03  0.41800000000E+01 0.  1.
         -5    1    3    3    0  502  0.16611636967E+03 -0.27430940977E+03 -0.91339747851E+03  0.96806648878E+03  0.41800000000E+01 0.  1.
        -11    1    1    2    0    0 -0.53121272396E+02  0.17312648067E+03 -0.60123973618E+03  0.62792027221E+03  0.00000000000E+00 0. -1.
         11    1    1    2    0    0 -0.12461167412E+03  0.14039474148E+03 -0.78393056096E+03  0.80609297055E+03  0.00000000000E+00 0.  1.
</event>
<event>
 7    1  0.2612213E-009  0.6764276E+02  0.7561462E-02  0.1368297E+00
         -1   -1    0    0    0  501 -0.00000000000E+00  0.00000000000E+00  0.21477328191E+03  0.21477328191E+03  0.00000000000E+00 0.  1.
          1   -1    0    0  501    0  0.00000000000E+00 -0.00000000000E+00 -0.78704326779E+02  0.78704326779E+02  0.00000000000E+00 0. -1.
         25    2    1    2    0    0 -0.25409486796E+01  0.46356906304E+02  0.11810370903E+02  0.13394998502E+03  0.12509074483E+03 0.  0.
          5    1    3    3  502    0  0.21137474761E+02  0.28009083407E+01 -0.50051242386E+02  0.54564065017E+02  0.41800000000E+01 0. -1.
         -5    1    3    3    0  502 -0.23678423441E+02  0.43555997964E+02  0.61861613289E+02  0.79385919998E+02  0.41800000000E+01 0. -1.
        -11    1    1    2    0    0 -0.19215761574E+02 -0.10589132474E+02 -0.59676888356E+01  0.22737381763E+02  0.00000000000E+00 0. -1.
         11    1    1    2    0    0  0.21756710253E+02 -0.35767773831E+02  0.13022627306E+03  0.13679024191E+03  0.00000000000E+00 0.  1.
</event>
<event>
 7    1  0.2612213E-009  0.1171232E+03  0.7561462E-02  0.1247920E+00
         -2   -1    0    0    0  501 -0.00000000000E+00  0.00000000000E+00  0.14912527700E+02  0.14912527700E+02  0.00000000000E+00 0.  1.
          2   -1    0    0  501    0  0.00000000000E+00 -0.00000000000E+00 -0.18706798504E+04  0.18706798504E+04  0.00000000000E+00 0. -1.
         25    2    1    2    0    0 -0.40341177615E+02 -0.76493929869E+02 -0.15140618341E+04  0.15216798957E+04  0.12509090981E+03 0.  0.
          5    1    3    3  502    0 -0.11368509217E+02  0.15546737940E+02 -0.88740111302E+03  0.88761993660E+03  0.41800000000E+01 0.  1.
         -5    1    3    3    0  502 -0.28972668398E+02 -0.92040667809E+02 -0.62666072106E+03  0.63405995912E+03  0.41800000000E+01 0.  1.
        -11    1    1    2    0    0  0.17577200635E+02 -0.15347160680E+02 -0.29096359178E+02  0.37297338250E+02  0.00000000000E+00 0.  1.
         11    1    1    2    0    0  0.22763976980E+02  0.91841090549E+02 -0.31260912943E+03  0.32661514411E+03  0.00000000000E+00 0. -1.
</event>
<event>
 7    1  0.2612213E-009  0.2217626E+03  0.7561462E-02  0.1132576E+00
          1   -1    0    0  501    0  0.00000000000E+00  0.00000000000E+00  0.10537537076E+04  0.10537537076E+04  0.00000000000E+00 0. -1.
         -1   -1    0    0    0  501 -0.00000000000E+00 -0.00000000000E+00 -0.52880457047E+02  0.52880457047E+02  0.00000000000E+00 0.  1.
         25    2    1    2    0    0 -0.64740796177E+02 -0.19331016345E+03  0.62588608353E+03  0.67003076108E+03  0.12509053223E+03 0.  0.
          5    1    3    3  502    0 -0.85968607931E+02 -0.18155983786E+03  0.60581353098E+03  0.63826490033E+03  0.41800000000E+01 0. -1.
         -5    1    3    3    0  502  0.21227811754E+02 -0.11750325597E+02  0.20072552548E+02  0.31765860751E+02  0.41800000000E+01 0. -1.
        -11    1    1    2    0    0  0.74557231646E+02  0.10309674098E+03  0.16922068874E+03  0.21171528119E+03  0.00000000000E+00 0.  1.
         11    1    1    2    0    0 -0.98164354686E+01  0.90213422473E+02  0.20576647825E+03  0.22488812234E+03  0.00000000000E+00 0. -1.
</event>
<event>
 7    1  0.2612213E-009  0.1000685E+03  0.7561462E-02  0.1280152E+00
         -2   -1    0    0    0  501 -0.00000000000E+00  0.00000000000E+00  0.22552717829E+02  0.22552717829E+02  0.00000000000E+00 0.  1.
          2   -1    0    0  501    0  0.00000000000E+00 -0.00000000000E+00 -0.73483929195E+03  0.73483929195E+03  0.00000000000E+00 0. -1.
         25    2    1    2    0    0 -0.68558467239E+02  0.15209790531E+02 -0.39288322460E+03  0.41825628975E+03  0.12509793997E+03 0.  0.
          5    1    3    3  502    0 -0.75115333803E+02  0.81390214422E+01 -0.39898908410E+03  0.40610136503E+03  0.41800000000E+01 0. -1.
         -5    1    3    3    0  502  0.65568665635E+01  0.70707690884E+01  0.61058595068E+01  0.12154924720E+02  0.41800000000E+01 0. -1.
        -11    1    1    2    0    0 -0.96310263292E+01  0.24453752775E+02 -0.70069200846E+02  0.74836058154E+02  0.00000000000E+00 0. -1.
         11    1    1    2    0    0  0.78189493568E+02 -0.39663543305E+02 -0.24933414868E+03  0.26429966188E+03  0.00000000000E+00 0.  1.
</event>
<event>
 7    1  0.2612213E-009  0.1386076E+03  0.7561462E-02  0.1215215E+00
         -2   -1    0    0    0  501 -0.00000000000E+00  0.00000000000E+00  0.63157720987E+02  0.63157720987E+02  0.00000000000E+00 0.  1.
          2   -1    0    0  501    0  0.00000000000E+00 -0.00000000000E+00 -0.35057894024E+03  0.35057894024E+03  0.00000000000E+00 0. -1.
         25    2    1    2    0    0  0.94342638463E+02  0.34193635180E+02 -0.13462496068E+03  0.20938405794E+03  0.12509222823E+03 0.  0.
          5    1    3    3  502    0  0.75339503042E+02 -0.35397086426E+02 -0.97091440941E+02  0.12795786318E+03  0.41800000000E+01 0.  1.
         -5    1    3    3    0  502  0.19003135422E+02  0.69590721606E+02 -0.37533519739E+02  0.81426194762E+02  0.41800000000E+01 0.  1.
        -11    1    1    2    0    0 -0.72198335128E+02  0.93087250666E+01 -0.43881275546E+02  0.84998931177E+02  0.00000000000E+00 0. -1.
         11    1    1    2    0    0 -0.22144303335E+02 -0.43502360247E+02 -0.10891498302E+03  0.11935367210E+03  0.00000000000E+00 0.  1.
</event>
<event>
 7    1  0.2612213E-009  0.9420310E+02  0.7561462E-02  0.1292981E+00
          1   -1    0    0  501    0  0.00000000000E+00  0.00000000000E+00  0.58322818943E+03  0.58322818943E+03  0.00000000000E+00 0. -1.
         -1   -1    0    0    0  501 -0.00000000000E+00 -0.00000000000E+00 -0.34711803210E+02  0.34711803210E+02  0.00000000000E+00 0.  1.
         25    2    1    2    0    0  0.51076169170E+02  0.62177538900E+02  0.22388051099E+03  0.26878459925E+03  0.12509139137E+03 0.  0.
          5    1    3    3  502    0  0.98260058509E+01  0.11704270176E+02  0.19782821253E+03  0.19846161947E+03  0.41800000000E+01 0. -1.
         -5    1    3    3    0  502  0.41250163319E+02  0.50473268725E+02  0.26052298455E+02  0.70322979775E+02  0.41800000000E+01 0. -1.
        -11    1    1    2    0    0 -0.66371295803E+02 -0.63546333305E+02  0.32026956862E+03  0.33319045899E+03  0.00000000000E+00 0.  1.
         11    1    1    2    0    0  0.15295126633E+02  0.13687944046E+01  0.43663066210E+01  0.15964934399E+02  0.00000000000E+00 0. -1.
</event>
<event>
 7    1  0.2612213E-009  0.2036816E+03  0.7561462E-02  0.1146670E+00
         -1   -1    0    0    0  501 -0.00000000000E+00  0.00000000000E+00  0.38977047924E+03  0.38977047924E+03  0.00000000000E+00 0.  1.
          1   -1    0    0  501    0  0.00000000000E+00 -0.00000000000E+00 -0.13612239804E+03  0.13612239804E+03  0.00000000000E+00 0. -1.
         25    2    1    2    0    0  0.10160278060E+03 -0.15598064508E+03  0.22210962867E+03  0.31564749405E+03  0.12509023418E+03 0.  0.
          5    1    3    3  502    0 -0.22951210232E+02 -0.50128206142E+02  0.28415717431E+02  0.62165267628E+02  0.41800000000E+01 0. -1.
         -5    1    3    3    0  502  0.12455399083E+03 -0.10585243894E+03  0.19369391124E+03  0.25348222642E+03  0.41800000000E+01 0. -1.
        -11    1    1    2    0    0 -0.82729288505E+02  0.10173753295E+03 -0.20527158436E+02  0.13272537444E+03  0.00000000000E+00 0. -1.
         11    1    1    2    0    0 -0.18873492091E+02  0.54243112134E+02  0.52065610973E+02  0.77520008796E+02  0.00000000000E+00 0.  1.
</event>
<event>
 7    1  0.2612213E-009  0.1093458E+03  0.7561462E-02  0.1261786E+00
          2   -1    0    0  501    0  0.00000000000E+00  0.00000000000E+00  0.49328899219E+03  0.49328899219E+03  0.00000000000E+00 0. -1.
         -2   -1    0    0    0  501 -0.00000000000E+00 -0.00000000000E+00 -0.50137361055E+02  0.50137361055E+02  0.00000000000E+00 0.  1.
         25    2    1    2    0    0  0.37530698240E+02  0.55695923101E+01  0.56983429544E+02  0.14259699068E+03  0.12508883579E+03 0.  0.
          5    1    3    3  502    0  0.93580824788E+01  0.56273994406E+02  0.61841180868E+02  0.84238590950E+02  0.41800000000E+01 0. -1.
         -5    1    3    3    0  502  0.28172615761E+02 -0.50704402096E+02 -0.48577513242E+01  0.58358399727E+02  0.41800000000E+01 0. -1.
        -11    1    1    2    0    0 -0.25766548077E+02 -0.50606206573E+02  0.15632720740E+03  0.16632227427E+03  0.00000000000E+00 0. -1.
         11    1    1    2    0    0 -0.11764150163E+02  0.45036614263E+02  0.22984099419E+03  0.23450708830E+03  0.00000000000E+00 0.  1.
</event>
<event>
 7    1  0.2612213E-009  0.1383258E+03  0.7561462E-02  0.1215600E+00
          2   -1    0    0  501    0  0.00000000000E+00  0.00000000000E+00  0.28277613022E+03  0.28277613022E+03  0.00000000000E+00 0. -1.
         -2   -1    0    0    0  501 -0.00000000000E+00 -0.00000000000E+00 -0.84673685963E+02  0.84673685963E+02  0.00000000000E+00 0.  1.
         25    2    1    2    0    0  0.64250521782E+02 -0.83267735594E+02  0.13367626269E+03  0.21113579978E+03  0.12508931769E+03 0.  0.
          5    1    3    3  502    0 -0.23288850236E+02  0.16831100097E+02  0.14211123500E+02  0.32327772996E+02  0.41800000000E+01 0. -1.
         -5    1    3    3    0  502  0.87539372018E+02 -0.10009883569E+03  0.11946513919E+03  0.17880802678E+03  0.41800000000E+01 0. -1.
        -11    1    1    2    0    0 -0.47147710658E+02  0.85185009358E+02  0.85172264401E+02  0.12935883063E+03  0.00000000000E+00 0.  1.
         11    1    1    2    0    0 -0.17102811124E+02 -0.19172737636E+01 -0.20746082834E+02  0.26955185771E+02  0.00000000000E+00 0. -1.
</event>
<event>
 7    1  0.2612213E-009  0.1187392E+03  0.7561462E-02  0.1245192E+00
         -2   -1    0    0    0  501 -0.00000000000E+00  0.00000000000E+00  0.25800684136E+02  0.25800684136E+02  0.00000000000E+00 0.  1.
          2   -1    0    0  501    0  0.00000000000E+00 -0.00000000000E+00 -0.72188085059E+03  0.72188085059E+03  0.00000000000E+00 0. -1.
         25    2    1    2    0    0 -0.33957635697E+02 -0.73697167432E+02 -0.42049551239E+03  0.44614585045E+03  0.12508097546E+03 0.  0.
          5    1    3    3  502    0 -0.60212594810E+02 -0.24574478396E+02 -0.35093909306E+03  0.35693862357E+03  0.41800000000E+01 0.  1.
         -5    1    3    3    0  502  0.26254959113E+02 -0.49122689036E+02 -0.69556419336E+02  0.89207226876E+02  0.41800000000E+01 0.  1.
        -11    1    1    2    0    0 -0.14307641882E+02 -0.11619546771E+02 -0.17310968890E+02  0.25286204288E+02  0.00000000000E+00 0.  1.
         11    1    1    2    0    0  0.48265277579E+02  0.85316714202E+02 -0.25827368517E+03  0.27624947999E+03  0.00000000000E+00 0. -1.
</event>
<event>
 7    1  0.2612213E-009  0.3195977E+03  0.7561462E-02  0.1075835E+00
         -2   -1    0    0    0  501 -0.00000000000E+00  0.00000000000E+00  0.21429208283E+03  0.21429208283E+03  0.00000000000E+00 0.  1.
          2   -1    0    0  501    0  0.00000000000E+00 -0.00000000000E+00 -0.52344033761E+03  0.52344033761E+03  0.00000000000E+00 0. -1.
         25    2    1    2    0    0  0.31524189713E+03 -0.10423240561E+02 -0.21729048344E+03  0.40292475530E+03  0.12508839511E+03 0.  0.
          5    1    3    3  502    0  0.43731413970E+02  0.22676146925E+02  0.60130229992E+01  0.49802339832E+02  0.41800000000E+01 0.  1.
         -5    1    3    3    0  502  0.27151048316E+03 -0.33099387487E+02 -0.22330350644E+03  0.35312241547E+03  0.41800000000E+01 0.  1.
        -11    1    1    2    0    0 -0.19498284814E+03 -0.44214618997E+01 -0.86947976710E+02  0.21353643963E+03  0.00000000000E+00 0.  1.
         11    1    1    2    0    0 -0.12025904899E+03  0.14844702461E+02 -0.49097946317E+01  0.12127122552E+03  0.00000000000E+00 0. -1.
</event>
<event>
 7    1  0.2612213E-009  0.1453006E+03  0.7561462E-02  0.1206369E+00
          2   -1    0    0  501    0  0.00000000000E+00  0.00000000000E+00  0.27785476691E+03  0.27785476691E+03  0.00000000000E+00 0. -1.
         -2   -1    0    0    0  501 -0.00000000000E+00 -0.00000000000E+00 -0.11175700461E+03  0.11175700461E+03  0.00000000000E+00 0.  1.
         25    2    1    2    0    0 -0.99926409604E+02  0.80969203755E+02  0.31447102593E+02  0.18214362665E+03  0.12508429627E+03 0.  0.
          5    1    3    3  502    0 -0.17375897187E+02 -0.13384364114E+02  0.50548104995E+02  0.55259807495E+02  0.41800000000E+01 0. -1.
         -5    1    3    3    0  502 -0.82550512417E+02  0.94353567869E+02 -0.19101002401E+02  0.12688381915E+03  0.41800000000E+01 0. -1.
        -11    1    1    2    0    0  0.53674663867E+01 -0.39023004406E+02  0.22592334873E+01  0.39455148007E+02  0.00000000000E+00 0.  1.
         11    1    1    2    0    0  0.94558943217E+02 -0.41946199348E+02  0.13239142622E+03  0.16801299687E+03  0.00000000000E+00 0. -1.
</event>
<event>
 7    1  0.2612213E-009  0.1381341E+03  0.7561462E-02  0.1215862E+00
         -2   -1    0    0    0  501 -0.00000000000E+00  0.00000000000E+00  0.38764155106E+02  0.38764155106E+02  0.00000000000E+00 0.  1.
          2   -1    0    0  501    0  0.00000000000E+00 -0.00000000000E+00 -0.69112729760E+03  0.69112729760E+03  0.00000000000E+00 0. -1.
         25    2    1    2    0    0 -0.53409247163E+02  0.10725572060E+03 -0.40632644738E+03  0.44170697016E+03  0.12509008101E+03 0.  0.
          5    1    3    3  502    0  0.22979301772E+02  0.43290226189E+02 -0.44298843639E+02  0.66196313652E+02  0.41800000000E+01 0.  1.
         -5    1    3    3    0  502 -0.76388548935E+02  0.63965494408E+02 -0.36202760374E+03  0.37551065651E+03  0.41800000000E+01 0.  1.
        -11    1    1    2    0    0 -0.56137457135E+00 -0.44843144799E+02 -0.17056619473E+03  0.17636340199E+03  0.00000000000E+00 0. -1.
         11    1    1    2    0    0  0.53970621734E+02 -0.62412575798E+02 -0.75470500389E+02  0.11182108056E+03  0.00000000000E+00 0.  1.
</event>
<event>
 7    1  0.2612213E-009  0.7716816E+02  0.7561462E-02  0.1337285E+00
         -2   -1    0    0    0  501 -0.00000000000E+00  0.00000000000E+00  0.42247814303E+03  0.42247814303E+03  0.00000000000E+00 0.  1.
          2   -1    0    0  501    0  0.00000000000E+00 -0.00000000000E+00 -0.16244547425E+03  0.16244547425E+03  0.00000000000E+00 0. -1.
         25    2    1    2    0    0 -0.25329756804E+02 -0.53187238472E+02  0.38995492945E+03  0.41374235766E+03  0.12508961828E+03 0.  0.
          5    1    3    3  502    0  0.10506964919E+02 -0.10800336981E+02  0.33552730351E+03  0.33589148157E+03  0.41800000000E+01 0.  1.
         -5    1    3    3    0  502 -0.35836721722E+02 -0.42386901491E+02  0.54427625935E+02  0.77850876082E+02  0.41800000000E+01 0.  1.
        -11    1    1    2    0    0 -0.17591394380E+02  0.28584113261E+02 -0.11456439592E+03  0.11937968630E+03  0.00000000000E+00 0. -1.
         11    1    1    2    0    0  0.42921151184E+02  0.24603125211E+02 -0.15357864747E+02  0.51801573322E+02  0.00000000000E+00 0.  1.
</event>
<event>
 7    1  0.2612213E-009  0.9946817E+02  0.7561462E-02  0.1281418E+00
         -3   -1    0    0    0  501 -0.00000000000E+00  0.00000000000E+00  0.24296616038E+02  0.24296616038E+02  0.00000000000E+00 0.  1.
          3   -1    0    0  501    0  0.00000000000E+00 -0.00000000000E+00 -0.59059313302E+03  0.59059313302E+03  0.00000000000E+00 0. -1.
         25    2    1    2    0    0  0.48522646355E+02 -0.16251795098E+02 -0.30945028630E+03  0.33767734917E+03  0.12509174393E+03 0.  0.
          5    1    3    3  502    0 -0.31446696222E+02  0.80960627867E+01 -0.18386154549E+03  0.18675379848E+03  0.41800000000E+01 0. -1.
         -5    1    3    3    0  502  0.79969342577E+02 -0.24347857885E+02 -0.12558874081E+03  0.15092355069E+03  0.41800000000E+01 0. -1.
        -11    1    1    2    0    0 -0.63652673994E+02  0.20343439124E+02 -0.25214381862E+03  0.26084866051E+03  0.00000000000E+00 0. -1.
         11    1    1    2    0    0  0.15130027639E+02 -0.40916440256E+01 -0.47024120630E+01  0.16363739377E+02  0.00000000000E+00 0.  1.
</event>
<event>
 7    1  0.2612213E-009  0.1670194E+03  0.7561462E-02  0.1180992E+00
         -1   -1    0    0    0  501 -0.00000000000E+00  0.00000000000E+00  0.35050590863E+02  0.35050590863E+02  0.00000000000E+00 0.  1.
          1   -1    0    0  501    0  0.00000000000E+00 -0.00000000000E+00 -0.90338836725E+03  0.90338836725E+03  0.00000000000E+00 0. -1.
         25    2    1    2    0    0  0.75202911905E+02 -0.11102983178E+03 -0.53081520975E+03  0.56160187595E+03  0.12509507848E+03 0.  0.
          5    1    3    3  502    0  0.46711110249E+02  0.15560251086E+02 -0.98258127468E+02  0.10998264067E+03  0.41800000000E+01 0. -1.
         -5    1    3    3    0  502  0.28491801656E+02 -0.12659008287E+03 -0.43255708229E+03  0.45161923528E+03  0.41800000000E+01 0. -1.
        -11    1    1    2    0    0 -0.54483944942E+02  0.14926581422E+02 -0.19975025392E+03  0.20758484297E+03  0.00000000000E+00 0. -1.
         11    1    1    2    0    0 -0.20718966963E+02  0.96103250361E+02 -0.13777231271E+03  0.16925223920E+03  0.00000000000E+00 0.  1.
</event>
<event>
 7    1  0.2612213E-009  0.1560985E+03  0.7561462E-02  0.1193173E+00
         -2   -1    0    0    0  501 -0.00000000000E+00  0.00000000000E+00  0.10737189725E+03  0.10737189725E+03  0.00000000000E+00 0.  1.
          2   -1    0    0  501    0  0.00000000000E+00 -0.00000000000E+00 -0.29396199823E+03  0.29396199823E+03  0.00000000000E+00 0. -1.
         25    2    1    2    0    0  0.30147117575E+02  0.12363998575E+03 -0.16330208049E+03  0.24189018584E+03  0.12509035831E+03 0.  0.
          5    1    3    3  502    0  0.23879014104E+02 -0.16214344711E+02 -0.63606007280E+02  0.69973629683E+02  0.41800000000E+01 0. -1.
         -5    1    3    3    0  502  0.62681034714E+01  0.13985433046E+03 -0.99696073212E+02  0.17191655616E+03  0.41800000000E+01 0. -1.
        -11    1    1    2    0    0 -0.13924585453E+01 -0.11191198476E+03  0.11853951432E+02  0.11254664561E+03  0.00000000000E+00 0.  1.
         11    1    1    2    0    0 -0.28754659030E+02 -0.11728000986E+02 -0.35141971921E+02  0.46897064019E+02  0.00000000000E+00 0. -1.
</event>
<event>
 7    1  0.2612213E-009  0.8401474E+02  0.7561462E-02  0.1318029E+00
          1   -1    0    0  501    0  0.00000000000E+00  0.00000000000E+00  0.39517625270E+03  0.39517625270E+03  0.00000000000E+00 0. -1.
         -1   -1    0    0    0  501 -0.00000000000E+00 -0.00000000000E+00 -0.34380153447E+02  0.34380153447E+02  0.00000000000E+00 0.  1.
         25    2    1    2    0    0 -0.15415751315E+02 -0.41230571396E+02  0.22029167464E+03  0.25712440619E+03  0.12508770099E+03 0.  0.
          5    1    3    3  502    0  0.29268531846E+02  0.78448454859E+00  0.18267116408E+03  0.18504996341E+03  0.41800000000E+01 0. -1.
         -5    1    3    3    0  502 -0.44684283161E+02 -0.42015055944E+02  0.37620510563E+02  0.72074442784E+02  0.41800000000E+01 0. -1.
        -11    1    1    2    0    0 -0.25128764539E+01 -0.16415545530E+02 -0.28820868245E+01  0.16855002450E+02  0.00000000000E+00 0.  1.
         11    1    1    2    0    0  0.17928627769E+02  0.57646116926E+02  0.14338651143E+03  0.15557699750E+03  0.00000000000E+00 0. -1.
</event>
<event>
 7    1  0.2612213E-009  0.9844705E+02  0.7561462E-02  0.1283596E+00
          1   -1    0    0  501    0  0.00000000000E+00  0.00000000000E+00  0.42473333134E+03  0.42473333134E+03  0.00000000000E+00 0. -1.
         -1   -1    0    0    0  501 -0.00000000000E+00 -0.00000000000E+00 -0.37842206157E+02  0.37842206157E+02  0.00000000000E+00 0.  1.
         25    2    1    2    0    0  0.13348135321E+02  0.15186221148E+02  0.34892491562E+03  0.37121406025E+03  0.12506993146E+03 0.  0.
          5    1    3    3  502    0 -0.43369875714E+02  0.37993889608E+02  0.23330897131E+03  0.24036436978E+03  0.41800000000E+01 0.  1.
         -5    1    3    3    0  502  0.56718011034E+02 -0.22807668461E+02  0.11561594432E+03  0.13084969047E+03  0.41800000000E+01 0.  1.
        -11    1    1    2    0    0 -0.41995820073E+02 -0.23311515922E+02  0.38533402411E+02  0.61578395396E+02  0.00000000000E+00 0. -1.
         11    1    1    2    0    0  0.28647684752E+02  0.81252947742E+01 -0.56719284987E+00  0.29783081851E+02  0.00000000000E+00 0.  1.
</event>
<event>
 7    1  0.2612213E-009  0.1417908E+03  0.7561462E-02  0.1210939E+00
          2   -1    0    0  501    0  0.00000000000E+00  0.00000000000E+00  0.21603364653E+02  0.21603364653E+02  0.00000000000E+00 0. -1.
         -2   -1    0    0    0  501 -0.00000000000E+00 -0.00000000000E+00 -0.12179746897E+04  0.12179746897E+04  0.00000000000E+00 0.  1.
         25    2    1    2    0    0  0.88913294911E+02  0.12258851162E+02 -0.93296178247E+03  0.94557980365E+03  0.12509046356E+03 0.  0.
          5    1    3    3  502    0  0.64794217413E+02  0.66878150188E+02 -0.61662665591E+03  0.62363200909E+03  0.41800000000E+01 0. -1.
         -5    1    3    3    0  502  0.24119077498E+02 -0.54619299026E+02 -0.31633512656E+03  0.32194779456E+03  0.41800000000E+01 0. -1.
        -11    1    1    2    0    0 -0.46024254642E+02 -0.53804880095E+02 -0.14736446128E+03  0.16349153368E+03  0.00000000000E+00 0. -1.
         11    1    1    2    0    0 -0.42889040268E+02  0.41546028933E+02 -0.11604508131E+03  0.13050671703E+03  0.00000000000E+00 0.  1.
</event>
<event>
 7    1  0.2612213E-009  0.1266140E+03  0.7561462E-02  0.1232568E+00
         -2   -1    0    0    0  501 -0.00000000000E+00  0.00000000000E+00  0.39027840902E+03  0.39027840902E+03  0.00000000000E+00 0.  1.
          2   -1    0    0  501    0  0.00000000000E+00 -0.00000000000E+00 -0.73311226894E+02  0.73311226894E+02  0.00000000000E+00 0. -1.
         25    2    1    2    0    0  0.39410613018E+02 -0.89140906535E+02  0.28478029591E+03  0.32594830637E+03  0.12507271425E+03 0.  0.
          5    1    3    3  502    0 -0.14192767790E+02  0.25256120956E+02  0.81242947741E+02  0.86355053476E+02  0.41800000000E+01 0.  1.
         -5    1    3    3    0  502  0.53603380807E+02 -0.11439702749E+03  0.20353734817E+03  0.23959325290E+03  0.41800000000E+01 0.  1.
        -11    1    1    2    0    0 -0.42993883725E+01  0.13376960608E+02 -0.30264346895E+02  0.33367027265E+02  0.00000000000E+00 0. -1.
         11    1    1    2    0    0 -0.35111224645E+02  0.75763945928E+02  0.62451233111E+02  0.10427430228E+03  0.00000000000E+00 0.  1.
</event>
<event>
 7    1  0.2612213E-009  0.1076045E+03  0.7561462E-02  0.1265071E+00
         -2   -1    0    0    0  501 -0.00000000000E+00  0.00000000000E+00  0.18437702435E+02  0.18437702435E+02  0.00000000000E+00 0.  1.
          2   -1    0    0  501    0  0.00000000000E+00 -0.00000000000E+00 -0.65950021344E+03  0.65950021344E+03  0.00000000000E+00 0. -1.
         25    2    1    2    0    0 -0.15008157524E+02 -0.10720592550E+02 -0.35215002468E+03  0.37416094881E+03  0.12508636951E+03 0.  0.
          5    1    3    3  502    0  0.30449673279E+02  0.44239167224E+02 -0.17647736562E+03  0.18451563482E+03  0.41800000000E+01 0. -1.
         -5    1    3    3    0  502 -0.45457830803E+02 -0.54959759774E+02 -0.17567265906E+03  0.18964531399E+03  0.41800000000E+01 0. -1.
        -11    1    1    2    0    0  0.38509308031E+02  0.37854313605E+02 -0.12827377232E+03  0.13917642232E+03  0.00000000000E+00 0.  1.
         11    1    1    2    0    0 -0.23501150508E+02 -0.27133721055E+02 -0.16063871401E+03  0.16460054475E+03  0.00000000000E+00 0. -1.
</event>
<event>
 7    1  0.2612213E-009  0.8566542E+02  0.7561462E-02  0.1313701E+00
         -2   -1    0    0    0  501 -0.00000000000E+00  0.00000000000E+00  0.42510752368E+02  0.42510752368E+02  0.00000000000E+00 0.  1.
          2   -1    0    0  501    0  0.00000000000E+00 -0.00000000000E+00 -0.25417924944E+03  0.25417924944E+03  0.00000000000E+00 0. -1.
         25    2    1    2    0    0  0.25321595438E+02 -0.10363901982E+02 -0.14175703139E+03  0.19102553017E+03  0.12508838302E+03 0.  0.
          5    1    3    3  502    0  0.62492522436E+02 -0.11033056576E+02 -0.13977377988E+03  0.15356179746E+03  0.41800000000E+01 0. -1.
         -5    1    3    3    0  502 -0.37170926999E+02  0.66915459442E+00 -0.19832515132E+01  0.37463732707E+02  0.41800000000E+01 0. -1.
        -11    1    1    2    0    0 -0.10727134985E+02 -0.27621038420E+02 -0.65255731057E+01  0.30341000193E+02  0.00000000000E+00 0.  1.
         11    1    1    2    0    0 -0.14594460453E+02  0.37984940401E+02 -0.63385892571E+02  0.75323471443E+02  0.00000000000E+00 0. -1.
</event>
<event>
 7    1  0.2612213E-009  0.1895285E+03  0.7561462E-02  0.1158887E+00
         -1   -1    0    0    0  501 -0.00000000000E+00  0.00000000000E+00  0.20292384202E+04  0.20292384202E+04  0.00000000000E+00 0.  1.
          1   -1    0    0  501    0  0.00000000000E+00 -0.00000000000E+00 -0.27966688218E+02  0.27966688218E+02  0.00000000000E+00 0. -1.
         25    2    1    2    0    0  0.85374919813E+02 -0.16378786110E+03  0.14899638531E+04  0.15065706611E+04  0.12509009998E+03 0.  0.
          5    1    3    3  502    0 -0.39769806528E+00 -0.29909839287E+02  0.54395756907E+02  0.62218384899E+02  0.41800000000E+01 0.  1.
         -5    1    3    3    0  502  0.85772617878E+02 -0.13387802181E+03  0.14355680962E+04  0.14443522762E+04  0.41800000000E+01 0.  1.
        -11    1    1    2    0    0 -0.18512546566E+01  0.42477694146E+02  0.22154966131E+03  0.22559262858E+03  0.00000000000E+00 0.  1.
         11    1    1    2    0    0 -0.83523665156E+02  0.12131016695E+03  0.28975821760E+03  0.32504181872E+03  0.00000000000E+00 0. -1.
</event>
<event>
 7    1  0.2612213E-009  0.1149104E+03  0.7561462E-02  0.1251738E+00
         -1   -1    0    0    0  501 -0.00000000000E+00  0.00000000000E+00  0.10389524988E+03  0.10389524988E+03  0.00000000000E+00 0.  1.
          1   -1    0    0  501    0  0.00000000000E+00 -0.00000000000E+00 -0.26474035113E+03  0.26474035113E+03  0.00000000000E+00 0. -1.
         25    2    1    2    0    0 -0.79465460193E+02  0.48407321832E+02  0.60501289888E+01  0.15601965111E+03  0.12508996484E+03 0.  0.
          5    1    3    3  502    0 -0.17803679582E+02  0.42764070837E+02 -0.52889762135E+02  0.70431073398E+02  0.41800000000E+01 0. -1.
         -5    1    3    3    0  502 -0.61661780611E+02  0.56432509951E+01  0.58939891124E+02  0.85588577717E+02  0.41800000000E+01 0. -1.
        -11    1    1    2    0    0  0.57845463548E+02  0.10239771088E+02 -0.39727006517E+02  0.70916751278E+02  0.00000000000E+00 0.  1.
         11    1    1    2    0    0  0.21619996645E+02 -0.58647092920E+02 -0.12716822373E+03  0.14169919862E+03  0.00000000000E+00 0. -1.
</event>
<event>
 7    1  0.2612213E-009  0.1770950E+03  0.7561462E-02  0.1170644E+00
          2   -1    0    0  501    0  0.00000000000E+00  0.00000000000E+00  0.11398899092E+04  0.11398899092E+04  0.00000000000E+00 0. -1.
         -2   -1    0    0    0  501 -0.00000000000E+00 -0.00000000000E+00 -0.34554775605E+02  0.34554775605E+02  0.00000000000E+00 0.  1.
         25    2    1    2    0    0  0.62167862682E+02  0.13002959847E+03  0.81579713262E+03  0.83782177596E+03  0.12509127484E+03 0.  0.
          5    1    3    3  502    0 -0.52967115688E+01 -0.22769757787E+02  0.10441317920E+03  0.10707988333E+03  0.41800000000E+01 0. -1.
         -5    1    3    3    0  502  0.67464574250E+02  0.15279935626E+03  0.71138395343E+03  0.73074189263E+03  0.41800000000E+01 0. -1.
        -11    1    1    2    0    0  0.17857376514E+02 -0.33582039025E+02  0.11938967460E+03  0.12530177031E+03  0.00000000000E+00 0.  1.
         11    1    1    2    0    0 -0.80025239195E+02 -0.96447559445E+02  0.17014832641E+03  0.21132113859E+03  0.00000000000E+00 0. -1.
</event>
<event>
 7    1  0.2612213E-009  0.9651601E+02  0.7561462E-02  0.1287798E+00
         -2   -1    0    0    0  501 -0.00000000000E+00  0.00000000000E+00  0.98621762330E+02  0.98621762330E+02  0.00000000000E+00 0.  1.
          2   -1    0    0  501    0  0.00000000000E+00 -0.00000000000E+00 -0.23243372284E+03  0.23243372284E+03  0.00000000000E+00 0. -1.
         25    2    1    2    0    0  0.81539726306E+02  0.48494745075E+02 -0.11347475816E+03  0.19371387706E+03  0.12509227857E+03 0.  0.
          5    1    3    3  502    0  0.28893263079E+02  0.17627198685E+02 -0.12663189098E+03  0.13114361212E+03  0.41800000000E+01 0.  1.
         -5    1    3    3    0  502  0.52646463227E+02  0.30867546390E+02  0.13157132822E+02  0.62570264939E+02  0.41800000000E+01 0.  1.
        -11    1    1    2    0    0 -0.65244016626E+02 -0.26585203259E+02  0.32712869634E+02  0.77676808492E+02  0.00000000000E+00 0.  1.
         11    1    1    2    0    0 -0.16295709681E+02 -0.21909541816E+02 -0.53050071979E+02  0.59664799619E+02  0.00000000000E+00 0. -1.
</event>
<event>
 7    1  0.2612213E-009  0.1468232E+03  0.7561462E-02  0.1204432E+00
          2   -1    0    0  501    0  0.00000000000E+00  0.00000000000E+00  0.26129274253E+03  0.26129274253E+03  0.00000000000E+00 0. -1.
         -2   -1    0    0    0  501 -0.00000000000E+00 -0.00000000000E+00 -0.10513621406E+03  0.10513621406E+03  0.00000000000E+00 0.  1.
         25    2    1    2    0    0 -0.12281687511E+03  0.22436261492E+02  0.81556519452E+02  0.19464486989E+03  0.12509112226E+03 0.  0.
          5    1    3    3  502    0 -0.49699824184E+02  0.63135963487E+02  0.75994837288E+02  0.11067479435E+03  0.41800000000E+01 0.  1.
         -5    1    3    3    0  502 -0.73117050922E+02 -0.40699701995E+02  0.55616821643E+01  0.83970075542E+02  0.41800000000E+01 0.  1.
        -11    1    1    2    0    0  0.70691714265E+02  0.42943247058E+01 -0.71834733844E+01  0.71185405669E+02  0.00000000000E+00 0.  1.
         11    1    1    2    0    0  0.52125160841E+02 -0.26730586198E+02  0.81783482405E+02  0.10059868103E+03  0.00000000000E+00 0. -1.
</event>
<event>
 7    1  0.2612213E-009  0.3007598E+03  0.7561462E-02  0.1084861E+00
          1   -1    0    0  501    0  0.00000000000E+00  0.00000000000E+00  0.60358383087E+03  0.60358383087E+03  0.00000000000E+00 0. -1.
         -1   -1    0    0    0  501 -0.00000000000E+00 -0.00000000000E+00 -0.19502038666E+03  0.19502038666E+03  0.00000000000E+00 0.  1.
         25    2    1    2    0    0 -0.14017137747E+03  0.26266628705E+03  0.36000136136E+03  0.48361885862E+03  0.12507848264E+03 0.  0.
          5    1    3    3  502    0 -0.11915076156E+03  0.23476974858E+03  0.36285475624E+03  0.44832441976E+03  0.41800000000E+01 0.  1.
         -5    1    3    3    0  502 -0.21020615915E+02  0.27896538473E+02 -0.28533948805E+01  0.35294438862E+02  0.41800000000E+01 0.  1.
        -11    1    1    2    0    0  0.92857146794E+02 -0.11407591117E+03  0.59480374503E+02  0.15866215103E+03  0.00000000000E+00 0. -1.
         11    1    1    2    0    0  0.47314230677E+02 -0.14859037588E+03 -0.10918291653E+02  0.15632320788E+03  0.00000000000E+00 0.  1.
</event>
<event>
 7    1  0.2612213E-009  0.1712570E+03  0.7561462E-02  0.1176543E+00
         -1   -1    0    0    0  501 -0.00000000000E+00  0.00000000000E+00  0.92127308273E+02  0.92127308273E+02  0.00000000000E+00 0.  1.
          1   -1    0    0  501    0  0.00000000000E+00 -0.00000000000E+00 -0.56554241421E+03  0.56554241421E+03  0.00000000000E+00 0. -1.
         25    2    1    2    0    0  0.13641050682E+03 -0.37069232570E+02 -0.44959153825E+03  0.48760829816E+03  0.12508935525E+03 0.  0.
          5    1    3    3  502    0  0.87056646558E+02 -0.72471388255E+02 -0.19238490872E+03  0.22329439609E+03  0.41800000000E+01 0.  1.
         -5    1    3    3    0  502  0.49353860262E+02  0.35402155685E+02 -0.25720662953E+03  0.26431390207E+03  0.41800000000E+01 0.  1.
        -11    1    1    2    0    0 -0.80647393845E+02  0.67131021098E+02 -0.11969096070E+02  0.10561171994E+03  0.00000000000E+00 0.  1.
         11    1    1    2    0    0 -0.55763112975E+02 -0.30061788528E+02 -0.11854471623E+02  0.64449704387E+02  0.00000000000E+00 0. -1.
</event>
<event>
 7    1  0.2612213E-009  0.1438810E+03  0.7561462E-02  0.1208200E+00
         -2   -1    0    0    0  501 -0.00000000000E+00  0.00000000000E+00  0.10191022170E+03  0.10191022170E+03  0.00000000000E+00 0.  1.
          2   -1    0    0  501    0  0.00000000000E+00 -0.00000000000E+00 -0.24541360777E+03  0.24541360777E+03  0.00000000000E+00 0. -1.
         25    2    1    2    0    0  0.11252346987E+03  0.25339422000E+02 -0.81911075951E+02  0.18883903154E+03  0.12508852022E+03 0.  0.
          5    1    3    3  502    0  0.81925654748E+02  0.69756124459E+02 -0.80980967135E+02  0.13473351195E+03  0.41800000000E+01 0. -1.
         -5    1    3    3    0  502  0.30597815118E+02 -0.44416702459E+02 -0.93010881658E+00  0.54105519586E+02  0.41800000000E+01 0. -1.
        -11    1    1    2    0    0 -0.71419845217E+02 -0.40582394307E+02  0.89950793659E+00  0.82149462159E+02  0.00000000000E+00 0.  1.
         11    1    1    2    0    0 -0.41103624649E+02  0.15242972307E+02 -0.62491818049E+02  0.76335335770E+02  0.00000000000E+00 0. -1.
</event>
<event>
 7    1  0.2612213E-009  0.1006957E+03  0.7561462E-02  0.1278840E+00
          1   -1    0    0  501    0  0.00000000000E+00  0.00000000000E+00  0.56643686814E+02  0.56643686814E+02  0.00000000000E+00 0. -1.
         -1   -1    0    0    0  501 -0.00000000000E+00 -0.00000000000E+00 -0.27200971656E+03  0.27200971656E+03  0.00000000000E+00 0.  1.
         25    2    1    2    0    0 -0.40986528788E+02  0.43083752329E+02 -0.11134778190E+03  0.17771342883E+03  0.12509048324E+03 0.  0.
          5    1    3    3  502    0 -0.19051905502E+02  0.74702174801E+02 -0.11534476450E+03  0.13879941326E+03  0.41800000000E+01 0. -1.
         -5    1    3    3    0  502 -0.21934623286E+02 -0.31618422473E+02  0.39969826031E+01  0.38914015576E+02  0.41800000000E+01 0. -1.
        -11    1    1    2    0    0 -0.14919138513E+02 -0.38282576160E-01 -0.71872794800E+02  0.73404909862E+02  0.00000000000E+00 0.  1.
         11    1    1    2    0    0  0.55905667301E+02 -0.43045469752E+02 -0.32145453050E+02  0.77535064676E+02  0.00000000000E+00 0. -1.
</event>
<event>
 7    1  0.2612213E-009  0.1083707E+03  0.7561462E-02  0.1263617E+00
          1   -1    0    0  501    0  0.00000000000E+00  0.00000000000E+00  0.75772088833E+02  0.75772088833E+02  0.00000000000E+00 0. -1.
         -1   -1    0    0    0  501 -0.00000000000E+00 -0.00000000000E+00 -0.27145437980E+03  0.27145437980E+03  0.00000000000E+00 0.  1.
         25    2    1    2    0    0 -0.80929006396E+01  0.79182121995E+02 -0.16858122469E+03  0.22450490790E+03  0.12509005104E+03 0.  0.
          5    1    3    3  502    0  0.46168285967E+02  0.25333111717E+02 -0.18409581121E+02  0.55943384377E+02  0.41800000000E+01 0.  1.
         -5    1    3    3    0  502 -0.54261186607E+02  0.53849010278E+02 -0.15017164357E+03  0.16856152352E+03  0.41800000000E+01 0.  1.
        -11    1    1    2    0    0  0.20448331907E+02 -0.66807797775E+02 -0.55596679311E+02  0.89288335586E+02  0.00000000000E+00 0.  1.
         11    1    1    2    0    0 -0.12355431268E+02 -0.12374324220E+02  0.28495613033E+02  0.33433225148E+02  0.00000000000E+00 0. -1.
</event>
<event>
 7    1  0.2612213E-009  0.2504630E+03  0.7561462E-02  0.1113013E+00
         -1   -1    0    0    0  501 -0.00000000000E+00  0.00000000000E+00  0.14770949804E+03  0.14770949804E+03  0.00000000000E+00 0.  1.
          1   -1    0    0  501    0  0.00000000000E+00 -0.00000000000E+00 -0.46644130127E+03  0.46644130127E+03  0.00000000000E+00 0. -1.
         25    2    1    2    0    0  0.13347943041E+03 -0.19289848798E+03 -0.11018757768E+03  0.28777688526E+03  0.12509056082E+03 0.  0.
          5    1    3    3  502    0  0.15691014573E+03 -0.17089825186E+03 -0.10595673146E+03  0.25509078318E+03  0.41800000000E+01 0.  1.
         -5    1    3    3    0  502 -0.23430715315E+02 -0.22000236117E+02 -0.42308462186E+01  0.32686102079E+02  0.41800000000E+01 0.  1.
        -11    1    1    2    0    0 -0.98573989344E+02  0.11741479442E+03 -0.79083342976E+02  0.17250287088E+03  0.00000000000E+00 0.  1.
         11    1    1    2    0    0 -0.34905441069E+02  0.75483693555E+02 -0.12946088258E+03  0.15387104317E+03  0.00000000000E+00 0. -1.
</event>
<event>
 7    1  0.2612213E-009  0.1452906E+03  0.7561462E-02  0.1206382E+00
         -2   -1    0    0    0  501 -0.00000000000E+00  0.00000000000E+00  0.11252134440E+03  0.11252134440E+03  0.00000000000E+00 0.  1.
          2   -1    0    0  501    0  0.00000000000E+00 -0.00000000000E+00 -0.25678006317E+03  0.25678006317E+03  0.00000000000E+00 0. -1.
         25    2    1    2    0    0  0.78959586869E+02 -0.75727354277E+02 -0.62496577355E+02  0.17754332084E+03  0.12508621047E+03 0.  0.
          5    1    3    3  502    0  0.93261279277E+02 -0.22611410033E+02 -0.25668636050E+01  0.96088517861E+02  0.41800000000E+01 0.  1.
         -5    1    3    3    0  502 -0.14301692407E+02 -0.53115944244E+02 -0.59929713750E+02  0.81454802982E+02  0.41800000000E+01 0.  1.
        -11    1    1    2    0    0 -0.21055010934E+02 -0.18984748030E+02  0.24956952265E+02  0.37770141773E+02  0.00000000000E+00 0.  1.
         11    1    1    2    0    0 -0.57904575935E+02  0.94712102307E+02 -0.10671909368E+03  0.15398794496E+03  0.00000000000E+00 0. -1.
</event>
<event>
 7    1  0.2612213E-009  0.1060802E+03  0.7561462E-02  0.1268006E+00
         -1   -1    0    0    0  501 -0.00000000000E+00  0.00000000000E+00  0.30033555571E+02  0.30033555571E+02  0.00000000000E+00 0.  1.
          1   -1    0    0  501    0  0.00000000000E+00 -0.00000000000E+00 -0.48804102133E+03  0.48804102133E+03  0.00000000000E+00 0. -1.
         25    2    1    2    0    0  0.35876024152E+02  0.37965876206E+02 -0.26323235808E+03  0.29608410598E+03  0.12508407817E+03 0.  0.
          5    1    3    3  502    0  0.27498794343E+02 -0.30926366539E+02 -0.19235098354E+03  0.19679684222E+03  0.41800000000E+01 0.  1.
         -5    1    3    3    0  502  0.83772298090E+01  0.68892242745E+02 -0.70881374539E+02  0.99287263767E+02  0.41800000000E+01 0.  1.
        -11    1    1    2    0    0 -0.97208176299E+01  0.28234246945E+02 -0.93877707463E+02  0.98512389852E+02  0.00000000000E+00 0. -1.
         11    1    1    2    0    0 -0.26155206522E+02 -0.66200123150E+02 -0.10089740022E+03  0.12347808107E+03  0.00000000000E+00 0.  1.
</event>
<event>
 7    1  0.2612213E-009  0.1166992E+03  0.7561462E-02  0.1248644E+00
          2   -1    0    0  501    0  0.00000000000E+00  0.00000000000E+00  0.81144338813E+02  0.81144338813E+02  0.00000000000E+00 0. -1.
         -2   -1    0    0    0  501 -0.00000000000E+00 -0.00000000000E+00 -0.24232344505E+03  0.24232344505E+03  0.00000000000E+00 0.  1.
         25    2    1    2    0    0 -0.69591220743E+02 -0.50486334101E+02 -0.10536425719E+03  0.18476996834E+03  0.12508599670E+03 0.  0.
          5    1    3    3  502    0  0.30011365159E+01  0.34329927840E+02 -0.47852574249E+02  0.59117611828E+02  0.41800000000E+01 0.  1.
         -5    1    3    3    0  502 -0.72592357259E+02 -0.84816261941E+02 -0.57511682941E+02  0.12565235651E+03  0.41800000000E+01 0.  1.
        -11    1    1    2    0    0  0.42018517586E+02  0.38174969266E+02 -0.81317050873E+02  0.99173317285E+02  0.00000000000E+00 0.  1.
         11    1    1    2    0    0  0.27572703157E+02  0.12311364834E+02  0.25502201824E+02  0.39524498243E+02  0.00000000000E+00 0. -1.
</event>
<event>
 7    1  0.2612213E-009  0.8230816E+02  0.7561462E-02  0.1322626E+00
          1   -1    0    0  501    0  0.00000000000E+00  0.00000000000E+00  0.40670141729E+03  0.40670141729E+03  0.00000000000E+00 0.  1.
         -1   -1    0    0    0  501 -0.00000000000E+00 -0.00000000000E+00 -0.75392125361E+02  0.75392125361E+02  0.00000000000E+00 0. -1.
         25    2    1    2    0    0 -0.67352706254E+02 -0.15103772374E+02  0.34479458255E+03  0.37322238835E+03  0.12508851276E+03 0.  0.
          5    1    3    3  502    0 -0.60147926252E+01  0.19600472186E+02 -0.35407651732E+00  0.20927350774E+02  0.41800000000E+01 0.  1.
         -5    1    3    3    0  502 -0.61337913629E+02 -0.34704244560E+02  0.34514865907E+03  0.35229503757E+03  0.41800000000E+01 0.  1.
        -11    1    1    2    0    0  0.56343378542E+02  0.25575102928E+01  0.28858947316E+02  0.63355789038E+02  0.00000000000E+00 0.  1.
         11    1    1    2    0    0  0.11009327712E+02  0.12546262081E+02 -0.42344237939E+02  0.45515365269E+02  0.00000000000E+00 0. -1.
</event>
<event>
 7    1  0.2612213E-009  0.1165337E+03  0.7561462E-02  0.1248927E+00
          3   -1    0    0  501    0  0.00000000000E+00  0.00000000000E+00  0.50365739512E+03  0.50365739512E+03  0.00000000000E+00 0. -1.
         -3   -1    0    0    0  501 -0.00000000000E+00 -0.00000000000E+00 -0.39264022020E+02  0.39264022020E+02  0.00000000000E+00 0.  1.
         25    2    1    2    0    0  0.18772390582E+02  0.82156302234E+02  0.31133080016E+03  0.34594260607E+03  0.12508940372E+03 0.  0.
          5    1    3    3  502    0  0.86387882445E+01  0.11279997306E+03  0.27371183229E+03  0.29619942964E+03  0.41800000000E+01 0. -1.
         -5    1    3    3    0  502  0.10133602337E+02 -0.30643670824E+02  0.37618967871E+02  0.49743176433E+02  0.41800000000E+01 0. -1.
        -11    1    1    2    0    0 -0.15073303199E+02 -0.19978690044E+02  0.12702688072E+03  0.12946884162E+03  0.00000000000E+00 0. -1.
         11    1    1    2    0    0 -0.36990873827E+01 -0.62177612191E+02  0.26035692219E+02  0.67509969445E+02  0.00000000000E+00 0.  1.
</event>
<event>
 7    1  0.3831235E-009  0.2267541E+03  0.7561462E-02  0.1128945E+00
         -2   -1    0    0    0  501 -0.00000000000E+00  0.00000000000E+00  0.69951287260E+02  0.69951287260E+02  0.00000000000E+00 0.  1.
          2   -1    0    0  501    0  0.00000000000E+00 -0.00000000000E+00 -0.10000627648E+04  0.10000627648E+04  0.00000000000E+00 0. -1.
         25    2    1    2    0    0  0.15685287014E+03 -0.15817923125E+03 -0.66193369625E+03  0.70952554750E+03  0.12508713865E+03 0.  0.
          5    1    3    3  502    0  0.15436483162E+03 -0.16216716987E+03 -0.50447537082E+03  0.55194163133E+03  0.41800000000E+01 0.  1.
         -5    1    3    3    0  502  0.24880385185E+01  0.39879386233E+01 -0.15745832543E+03  0.15758391617E+03  0.41800000000E+01 0.  1.
        -11    1    1    2    0    0 -0.95030981572E+02  0.10628177106E+03 -0.10062058290E+03  0.17450273356E+03  0.00000000000E+00 0.  1.
         11    1    1    2    0    0 -0.61821888567E+02  0.51897460189E+02 -0.16755719838E+03  0.18598577098E+03  0.00000000000E+00 0. -1.
</event>
<event>
 7    1  0.2612213E-009  0.1621564E+03  0.7561462E-02  0.1186283E+00
         -1   -1    0    0    0  501 -0.00000000000E+00  0.00000000000E+00  0.26089167589E+03  0.26089167589E+03  0.00000000000E+00 0.  1.
          1   -1    0    0  501    0  0.00000000000E+00 -0.00000000000E+00 -0.12597795835E+03  0.12597795835E+03  0.00000000000E+00 0. -1.
         25    2    1    2    0    0  0.11412134141E+03 -0.57710749847E+02 -0.71855191634E+00  0.17889080633E+03  0.12508874073E+03 0.  0.
          5    1    3    3  502    0  0.10331769054E+03  0.81217010537E+01  0.25959309211E+02  0.10691990152E+03  0.41800000000E+01 0.  1.
         -5    1    3    3    0  502  0.10803650865E+02 -0.65832450901E+02 -0.26677861127E+02  0.71970904802E+02  0.41800000000E+01 0.  1.
        -11    1    1    2    0    0 -0.97338749099E+02  0.79896621509E+02  0.12700446101E+03  0.17885311102E+03  0.00000000000E+00 0. -1.
         11    1    1    2    0    0 -0.16782592310E+02 -0.22185871662E+02  0.86278084383E+01  0.29125716892E+02  0.00000000000E+00 0.  1.
</event>
<event>
 7    1  0.2612213E-009  0.1506272E+03  0.7561462E-02  0.1199704E+00
         -1   -1    0    0    0  501 -0.00000000000E+00  0.00000000000E+00  0.90671572206E+02  0.90671572206E+02  0.00000000000E+00 0.  1.
          1   -1    0    0  501    0  0.00000000000E+00 -0.00000000000E+00 -0.50406381426E+03  0.50406381426E+03  0.00000000000E+00 0. -1.
         25    2    1    2    0    0 -0.89139226105E+02 -0.93735880143E+02 -0.39934886539E+03  0.43800992031E+03  0.12506381229E+03 0.  0.
          5    1    3    3  502    0 -0.54106627429E+02 -0.10352981663E+03 -0.37792155225E+03  0.39558579615E+03  0.41800000000E+01 0.  1.
         -5    1    3    3    0  502 -0.35032598676E+02  0.97939364879E+01 -0.21427313141E+02  0.42424124156E+02  0.41800000000E+01 0.  1.
        -11    1    1    2    0    0  0.59345041618E+02  0.11723723665E+02  0.19024833036E+02  0.63413121145E+02  0.00000000000E+00 0.  1.
         11    1    1    2    0    0  0.29794184487E+02  0.82012156477E+02 -0.33068209703E+02  0.93312345016E+02  0.00000000000E+00 0. -1.
</event>
<event>
 7    1  0.2612213E-009  0.9787818E+02  0.7561462E-02  0.1284822E+00
         -2   -1    0    0    0  501 -0.00000000000E+00  0.00000000000E+00  0.20969342268E+02  0.20969342268E+02  0.00000000000E+00 0.  1.
          2   -1    0    0  501    0  0.00000000000E+00 -0.00000000000E+00 -0.84575457908E+03  0.84575457908E+03  0.00000000000E+00 0. -1.
         25    2    1    2    0    0 -0.46913427182E+02  0.60446908514E+02 -0.41831377610E+03  0.44326975311E+03  0.12508781054E+03 0.  0.
          5    1    3    3  502    0  0.25397974407E+01  0.10789939548E+02 -0.33108817033E+03  0.33130004875E+03  0.41800000000E+01 0.  1.
         -5    1    3    3    0  502 -0.49453224623E+02  0.49656968966E+02 -0.87225605769E+02  0.11196970436E+03  0.41800000000E+01 0.  1.
        -11    1    1    2    0    0  0.48165732336E+02  0.48365395835E+01 -0.11527106058E+03  0.12502298706E+03  0.00000000000E+00 0.  1.
         11    1    1    2    0    0 -0.12523051533E+01 -0.65283448098E+02 -0.29120040013E+03  0.29843118118E+03  0.00000000000E+00 0. -1.
</event>
<event>
 7    1  0.2612213E-009  0.9142454E+02  0.7561462E-02  0.1299438E+00
          2   -1    0    0  501    0  0.00000000000E+00  0.00000000000E+00  0.50951081392E+03  0.50951081392E+03  0.00000000000E+00 0. -1.
         -2   -1    0    0    0  501 -0.00000000000E+00 -0.00000000000E+00 -0.32405925727E+02  0.32405925727E+02  0.00000000000E+00 0.  1.
         25    2    1    2    0    0 -0.13632580348E+01 -0.50306188823E+02  0.36044058734E+03  0.38483433426E+03  0.12508987454E+03 0.  0.
          5    1    3    3  502    0  0.44241859817E+02 -0.22433662704E+02  0.29975136176E+03  0.30385681275E+03  0.41800000000E+01 0.  1.
         -5    1    3    3    0  502 -0.45605117852E+02 -0.27872526119E+02  0.60689225586E+02  0.80977521503E+02  0.41800000000E+01 0.  1.
        -11    1    1    2    0    0  0.31039551159E+02  0.32042342555E+02  0.11366662802E+03  0.12210760737E+03  0.00000000000E+00 0. -1.
         11    1    1    2    0    0 -0.29676293124E+02  0.18263846268E+02  0.29976728313E+01  0.34974798019E+02  0.00000000000E+00 0.  1.
</event>
<event>
 7    1  0.2612213E-009  0.9612842E+02  0.7561462E-02  0.1288655E+00
         -3   -1    0    0    0  501 -0.00000000000E+00  0.00000000000E+00  0.14774992005E+03  0.14774992005E+03  0.00000000000E+00 0.  1.
          3   -1    0    0  501    0  0.00000000000E+00 -0.00000000000E+00 -0.91015987359E+02  0.91015987359E+02  0.00000000000E+00 0. -1.
         25    2    1    2    0    0  0.71761015367E+01 -0.84634737223E+01 -0.62888751540E+01  0.12573856359E+03  0.12509000600E+03 0.  0.
          5    1    3    3  502    0 -0.25584653044E+02  0.35256735414E+02 -0.41741622972E+02  0.60476833183E+02  0.41800000000E+01 0.  1.
         -5    1    3    3    0  502  0.32760754581E+02 -0.43720209137E+02  0.35452747818E+02  0.65261730405E+02  0.41800000000E+01 0.  1.
        -11    1    1    2    0    0 -0.42896304656E+02  0.29674124250E+02  0.37947422159E+02  0.64503127456E+02  0.00000000000E+00 0. -1.
         11    1    1    2    0    0  0.35720203119E+02 -0.21210650528E+02  0.25075385688E+02  0.48524216368E+02  0.00000000000E+00 0.  1.
</event>
<event>
 7    1  0.2612213E-009  0.9749064E+02  0.7561462E-02  0.1285663E+00
         -1   -1    0    0    0  501 -0.00000000000E+00  0.00000000000E+00  0.26981606047E+02  0.26981606047E+02  0.00000000000E+00 0.  1.
          1   -1    0    0  501    0  0.00000000000E+00 -0.00000000000E+00 -0.79100455312E+03  0.79100455312E+03  0.00000000000E+00 0. -1.
         25    2    1    2    0    0 -0.42293669193E+02 -0.84384939873E+02 -0.52747677323E+03  0.55026336535E+03  0.12509377451E+03 0.  0.
          5    1    3    3  502    0 -0.30831779233E+02 -0.27096329337E+02 -0.34395454754E+02  0.53715262095E+02  0.41800000000E+01 0. -1.
         -5    1    3    3    0  502 -0.11461889959E+02 -0.57288610536E+02 -0.49308131848E+03  0.49654810326E+03  0.41800000000E+01 0. -1.
        -11    1    1    2    0    0  0.27806076191E+02  0.42122572409E+02 -0.20950706209E+03  0.21550103954E+03  0.00000000000E+00 0. -1.
         11    1    1    2    0    0  0.14487593001E+02  0.42262367464E+02 -0.27039111753E+02  0.52221754270E+02  0.00000000000E+00 0.  1.
</event>
<event>
 7    1  0.2612213E-009  0.2675511E+03  0.7561462E-02  0.1102689E+00
          3   -1    0    0  501    0  0.00000000000E+00  0.00000000000E+00  0.33854203939E+03  0.33854203939E+03  0.00000000000E+00 0. -1.
         -3   -1    0    0    0  501 -0.00000000000E+00 -0.00000000000E+00 -0.25077399957E+03  0.25077399957E+03  0.00000000000E+00 0.  1.
         25    2    1    2    0    0  0.20670787335E+03  0.14575370414E+03  0.13929557285E+03  0.31468006503E+03  0.12509196431E+03 0.  0.
          5    1    3    3  502    0  0.82500401112E+02 -0.87182384147E+01  0.30180394067E+02  0.88377895713E+02  0.41800000000E+01 0. -1.
         -5    1    3    3    0  502  0.12420747224E+03  0.15447194255E+03  0.10911517878E+03  0.22630216931E+03  0.41800000000E+01 0. -1.
        -11    1    1    2    0    0 -0.12174273013E+03 -0.98195817007E+02  0.14363652199E+02  0.15706694535E+03  0.00000000000E+00 0. -1.
         11    1    1    2    0    0 -0.84965143225E+02 -0.47557887130E+02 -0.65891185230E+02  0.11756902859E+03  0.00000000000E+00 0.  1.
</event>
<event>
 7    1  0.2612213E-009  0.1047793E+03  0.7561462E-02  0.1270555E+00
          1   -1    0    0  501    0  0.00000000000E+00  0.00000000000E+00  0.58248439022E+02  0.58248439022E+02  0.00000000000E+00 0. -1.
         -1   -1    0    0    0  501 -0.00000000000E+00 -0.00000000000E+00 -0.27060423116E+03  0.27060423116E+03  0.00000000000E+00 0.  1.
         25    2    1    2    0    0  0.59598741995E+02 -0.16890513301E+02 -0.10227463226E+03  0.17304827158E+03  0.12509318290E+03 0.  0.
          5    1    3    3  502    0 -0.17141197727E+02 -0.23616371433E+02  0.14686702663E+02  0.32935168047E+02  0.41800000000E+01 0.  1.
         -5    1    3    3    0  502  0.76739939722E+02  0.67258581323E+01 -0.11696133492E+03  0.14011310354E+03  0.41800000000E+01 0.  1.
        -11    1    1    2    0    0 -0.77459208290E+02 -0.12573609991E+01 -0.54652993740E+02  0.94807487206E+02  0.00000000000E+00 0.  1.
         11    1    1    2    0    0  0.17860466295E+02  0.18147874300E+02 -0.55428166145E+02  0.60996911398E+02  0.00000000000E+00 0. -1.
</event>
<event>
 7    1  0.2612213E-009  0.8846302E+02  0.7561462E-02  0.1306617E+00
          2   -1    0    0  501    0  0.00000000000E+00  0.00000000000E+00  0.25285178583E+02  0.25285178583E+02  0.00000000000E+00 0. -1.
         -2   -1    0    0    0  501 -0.00000000000E+00 -0.00000000000E+00 -0.60899585943E+03  0.60899585943E+03  0.00000000000E+00 0.  1.
         25    2    1    2    0    0 -0.87780253505E+01 -0.60473237020E+02 -0.32307072128E+03  0.35179036074E+03  0.12509077036E+03 0.  0.
          5    1    3    3  502    0 -0.29558256874E+02 -0.65821843507E+02 -0.80294414271E+02  0.10803180548E+03  0.41800000000E+01 0. -1.
         -5    1    3    3    0  502  0.20780231524E+02  0.53486064862E+01 -0.24277630701E+03  0.24375855526E+03  0.41800000000E+01 0. -1.
        -11    1    1    2    0    0 -0.10158279140E+02 -0.72429962519E+01  0.58634325854E-01  0.12476180015E+02  0.00000000000E+00 0. -1.
         11    1    1    2    0    0  0.18936304490E+02  0.67716233272E+02 -0.26069859389E+03  0.27001449727E+03  0.00000000000E+00 0.  1.
</event>
<event>
 7    1  0.2612213E-009  0.8375747E+02  0.7561462E-02  0.1318714E+00
         -1   -1    0    0    0  501 -0.00000000000E+00  0.00000000000E+00  0.50777907479E+02  0.50777907479E+02  0.00000000000E+00 0.  1.
          1   -1    0    0  501    0  0.00000000000E+00 -0.00000000000E+00 -0.32771956568E+03  0.32771956568E+03  0.00000000000E+00 0. -1.
         25    2    1    2    0    0 -0.22982911025E+02  0.59796568562E+02 -0.18238183087E+03  0.23025062188E+03  0.12509345639E+03 0.  0.
          5    1    3    3  502    0 -0.41972538569E+02  0.23306139524E+02 -0.18265171815E+03  0.18890207166E+03  0.41800000000E+01 0.  1.
         -5    1    3    3    0  502  0.18989627544E+02  0.36490429038E+02  0.26988728360E+00  0.41348550214E+02  0.41800000000E+01 0.  1.
        -11    1    1    2    0    0  0.19217436285E+02 -0.11954113340E+01 -0.86923358667E+02  0.89030383283E+02  0.00000000000E+00 0. -1.
         11    1    1    2    0    0  0.37654747392E+01 -0.58601157228E+02 -0.76364686609E+01  0.59216467997E+02  0.00000000000E+00 0.  1.
</event>
<event>
 7    1  0.3250213E-009  0.7563683E+02  0.7561462E-02  0.1341910E+00
          2   -1    0    0  501    0  0.00000000000E+00  0.00000000000E+00  0.42448345758E+03  0.42448345758E+03  0.00000000000E+00 0. -1.
         -2   -1    0    0    0  501 -0.00000000000E+00 -0.00000000000E+00 -0.37818154184E+02  0.37818154184E+02  0.00000000000E+00 0.  1.
         25    2    1    2    0    0  0.23973375435E+02 -0.18194318255E+02  0.32195497401E+03  0.34670910524E+03  0.12508574028E+03 0.  0.
          5    1    3    3  502    0  0.46286180059E+02 -0.32297354082E+02  0.31366199403E+03  0.31872691829E+03  0.41800000000E+01 0.  1.
         -5    1    3    3    0  502 -0.22312804624E+02  0.14103035828E+02  0.82929799846E+01  0.27982186955E+02  0.41800000000E+01 0.  1.
        -11    1    1    2    0    0  0.10270895803E+02 -0.16352430602E+02 -0.13449206018E+02  0.23532412322E+02  0.00000000000E+00 0. -1.
         11    1    1    2    0    0 -0.34244271238E+02  0.34546748857E+02  0.78159535406E+02  0.92060094199E+02  0.00000000000E+00 0.  1.
</event>
<event>
 7    1  0.2612213E-009  0.1364360E+03  0.7561462E-02  0.1218207E+00
          2   -1    0    0  501    0  0.00000000000E+00  0.00000000000E+00  0.12231987854E+04  0.12231987854E+04  0.00000000000E+00 0. -1.
         -2   -1    0    0    0  501 -0.00000000000E+00 -0.00000000000E+00 -0.21557853377E+02  0.21557853377E+02  0.00000000000E+00 0.  1.
         25    2    1    2    0    0 -0.48297826611E+02 -0.96558525848E+02  0.85315141240E+03  0.86899941769E+03  0.12504569760E+03 0.  0.
          5    1    3    3  502    0  0.19141178264E+02 -0.75703548999E+02  0.63195765461E+03  0.63677732501E+03  0.41800000000E+01 0.  1.
         -5    1    3    3    0  502 -0.67439004875E+02 -0.20854976849E+02  0.22119375779E+03  0.23222209267E+03  0.41800000000E+01 0.  1.
        -11    1    1    2    0    0  0.41030370331E+02  0.10505306849E+03  0.34651279773E+03  0.36440466171E+03  0.00000000000E+00 0.  1.
         11    1    1    2    0    0  0.72674562802E+01 -0.84945426404E+01  0.19767219182E+01  0.11352559403E+02  0.00000000000E+00 0. -1.
</event>
<event>
 7    1  0.2612213E-009  0.1067827E+03  0.7561462E-02  0.1266647E+00
          2   -1    0    0  501    0  0.00000000000E+00  0.00000000000E+00  0.31844474937E+03  0.31844474937E+03  0.00000000000E+00 0. -1.
         -2   -1    0    0    0  501 -0.00000000000E+00 -0.00000000000E+00 -0.47931302882E+02  0.47931302882E+02  0.00000000000E+00 0.  1.
         25    2    1    2    0    0  0.41341006883E+01 -0.54283669130E+02  0.17591363009E+03  0.22261607278E+03  0.12509397701E+03 0.  0.
          5    1    3    3  502    0 -0.23571718178E+02 -0.75504386338E+02  0.54322189110E+02  0.96046399640E+02  0.41800000000E+01 0.  1.
         -5    1    3    3    0  502  0.27705818866E+02  0.21220717208E+02  0.12159144098E+03  0.12656967314E+03  0.41800000000E+01 0.  1.
        -11    1    1    2    0    0 -0.40177861495E+02  0.87223298942E+01  0.68900654412E+02  0.80234903698E+02  0.00000000000E+00 0. -1.
         11    1    1    2    0    0  0.36043760807E+02  0.45561339236E+02  0.25699161987E+02  0.63525075781E+02  0.00000000000E+00 0.  1.
</event>
<event>
 7    1  0.2612213E-009  0.9614507E+02  0.7561462E-02  0.1288618E+00
          2   -1    0    0  501    0  0.00000000000E+00  0.00000000000E+00  0.18672312538E+03  0.18672312538E+03  0.00000000000E+00 0.  1.
         -2   -1    0    0    0  501 -0.00000000000E+00 -0.00000000000E+00 -0.86436412709E+02  0.86436412709E+02  0.00000000000E+00 0. -1.
         25    2    1    2    0    0 -0.45785206363E+02 -0.39690875593E+01  0.38194962834E+01  0.13332365024E+03  0.12509423801E+03 0.  0.
          5    1    3    3  502    0 -0.62230751586E+01 -0.60167772889E+02  0.17532626267E+02  0.63116978244E+02  0.41800000000E+01 0.  1.
         -5    1    3    3    0  502 -0.39562131204E+02  0.56198685330E+02 -0.13713129983E+02  0.70206671992E+02  0.41800000000E+01 0.  1.
        -11    1    1    2    0    0  0.44882940679E+02 -0.12276910247E+02  0.10950785709E+03  0.11898391342E+03  0.00000000000E+00 0.  1.
         11    1    1    2    0    0  0.90226568398E+00  0.16245997806E+02 -0.13040640696E+02  0.20851974435E+02  0.00000000000E+00 0. -1.
</event>
<event>
 7    1  0.2612213E-009  0.9716070E+02  0.7561462E-02  0.1286382E+00
         -1   -1    0    0    0  501 -0.00000000000E+00  0.00000000000E+00  0.39189796480E+02  0.39189796480E+02  0.00000000000E+00 0.  1.
          1   -1    0    0  501    0  0.00000000000E+00 -0.00000000000E+00 -0.30137479943E+03  0.30137479943E+03  0.00000000000E+00 0. -1.
         25    2    1    2    0    0 -0.57348906996E+01 -0.71415050013E+01 -0.15875983906E+03  0.20232666759E+03  0.12508998303E+03 0.  0.
          5    1    3    3  502    0 -0.43637780707E+02  0.39186432291E+02 -0.11109480643E+03  0.12569550826E+03  0.41800000000E+01 0. -1.
         -5    1    3    3    0  502  0.37902890008E+02 -0.46327937292E+02 -0.47665032626E+02  0.76631159328E+02  0.41800000000E+01 0. -1.
        -11    1    1    2    0    0  0.39492666260E+02  0.12313340216E+02 -0.15956426180E+02  0.44338432224E+02  0.00000000000E+00 0.  1.
         11    1    1    2    0    0 -0.33757775561E+02 -0.51718352151E+01 -0.87468737710E+02  0.93899496095E+02  0.00000000000E+00 0. -1.
</event>
<event>
 7    1  0.2612213E-009  0.8443531E+02  0.7561462E-02  0.1316916E+00
         -2   -1    0    0    0  501 -0.00000000000E+00  0.00000000000E+00  0.24524209558E+02  0.24524209558E+02  0.00000000000E+00 0. -1.
          2   -1    0    0  501    0  0.00000000000E+00 -0.00000000000E+00 -0.50121143594E+03  0.50121143594E+03  0.00000000000E+00 0.  1.
         25    2    1    2    0    0  0.16843386160E+02  0.19418426310E+02 -0.27084891317E+03  0.29944564909E+03  0.12509111901E+03 0.  0.
          5    1    3    3  502    0  0.13769782241E+02 -0.38672365017E+02 -0.21420740856E+03  0.21814546753E+03  0.41800000000E+01 0.  1.
         -5    1    3    3    0  502  0.30736039197E+01  0.58090791327E+02 -0.56641504605E+02  0.81300181561E+02  0.41800000000E+01 0.  1.
        -11    1    1    2    0    0 -0.38170391408E+02 -0.26886367145E+02 -0.19627716099E+03  0.20175375944E+03  0.00000000000E+00 0.  1.
         11    1    1    2    0    0  0.21327005248E+02  0.74679408351E+01 -0.95611522217E+01  0.24536236976E+02  0.00000000000E+00 0. -1.
</event>
<event>
 7    1  0.2612213E-009  0.3566227E+03  0.7561462E-02  0.1059929E+00
         -1   -1    0    0    0  501 -0.00000000000E+00  0.00000000000E+00  0.15657929462E+03  0.15657929462E+03  0.00000000000E+00 0.  1.
          1   -1    0    0  501    0  0.00000000000E+00 -0.00000000000E+00 -0.11598676038E+04  0.11598676038E+04  0.00000000000E+00 0. -1.
         25    2    1    2    0    0 -0.30562027063E+03 -0.17999213933E+03 -0.82974137265E+03  0.91099896601E+03  0.12508976996E+03 0.  0.
          5    1    3    3  502    0 -0.27568523600E+03 -0.14430923872E+03 -0.79186516602E+03  0.85082043892E+03  0.41800000000E+01 0.  1.
         -5    1    3    3    0  502 -0.29935034628E+02 -0.35682900613E+02 -0.37876206627E+02  0.60178527090E+02  0.41800000000E+01 0.  1.
        -11    1    1    2    0    0  0.21005619900E+03  0.13464178191E+03 -0.74130299412E+02  0.26028314864E+03  0.00000000000E+00 0.  1.
         11    1    1    2    0    0  0.95564071632E+02  0.45350357423E+02 -0.99416637071E+02  0.14516478372E+03  0.00000000000E+00 0. -1.
</event>
<event>
 7    1  0.2612213E-009  0.4081373E+03  0.7561462E-02  0.1040998E+00
         -2   -1    0    0    0  501 -0.00000000000E+00  0.00000000000E+00  0.82415919367E+02  0.82415919367E+02  0.00000000000E+00 0.  1.
          2   -1    0    0  501    0  0.00000000000E+00 -0.00000000000E+00 -0.22830330671E+04  0.22830330671E+04  0.00000000000E+00 0. -1.
         25    2    1    2    0    0  0.34725102715E+02  0.39490338996E+03 -0.73392368981E+03  0.84347337715E+03  0.12509530500E+03 0.  0.
          5    1    3    3  502    0  0.42589061272E+02  0.52434786286E+02 -0.17842669741E+03  0.19083184667E+03  0.41800000000E+01 0. -1.
         -5    1    3    3    0  502 -0.78639585561E+01  0.34246860368E+03 -0.55549699240E+03  0.65264153048E+03  0.41800000000E+01 0. -1.
        -11    1    1    2    0    0  0.24843093707E+02 -0.21656824082E+03 -0.75112077368E+03  0.78211341817E+03  0.00000000000E+00 0.  1.
         11    1    1    2    0    0 -0.59568196423E+02 -0.17833514914E+03 -0.71557268419E+03  0.73986219109E+03  0.00000000000E+00 0. -1.
</event>
<event>
 7    1  0.2612213E-009  0.2689223E+03  0.7561462E-02  0.1101898E+00
         -2   -1    0    0    0  501 -0.00000000000E+00  0.00000000000E+00  0.18573215180E+03  0.18573215180E+03  0.00000000000E+00 0.  1.
          2   -1    0    0  501    0  0.00000000000E+00 -0.00000000000E+00 -0.55404373414E+03  0.55404373414E+03  0.00000000000E+00 0. -1.
         25    2    1    2    0    0  0.85213289755E+02 -0.23968587219E+03 -0.36623681771E+03  0.46312763465E+03  0.12508867755E+03 0.  0.
          5    1    3    3  502    0  0.11272867668E+03 -0.17861392904E+03 -0.31222748171E+03  0.37698032167E+03  0.41800000000E+01 0. -1.
         -5    1    3    3    0  502 -0.27515386924E+02 -0.61071943155E+02 -0.54009336000E+02  0.86147312979E+02  0.41800000000E+01 0. -1.
        -11    1    1    2    0    0 -0.68629530317E+02  0.11675293528E+03  0.46846716584E+02  0.14330343744E+03  0.00000000000E+00 0.  1.
         11    1    1    2    0    0 -0.16583759438E+02  0.12293293692E+03 -0.48921481209E+02  0.13334481385E+03  0.00000000000E+00 0. -1.
</event>
<event>
 7    1  0.2612213E-009  0.1259639E+03  0.7561462E-02  0.1233571E+00
          1   -1    0    0  501    0  0.00000000000E+00  0.00000000000E+00  0.91451517432E+02  0.91451517432E+02  0.00000000000E+00 0. -1.
         -1   -1    0    0    0  501 -0.00000000000E+00 -0.00000000000E+00 -0.20146290780E+03  0.20146290780E+03  0.00000000000E+00 0.  1.
         25    2    1    2    0    0  0.75875180291E+02  0.65865690753E+02 -0.69453644281E+02  0.17483180029E+03  0.12508803894E+03 0.  0.
          5    1    3    3  502    0  0.78102891262E+02  0.71720973954E+00 -0.76155749651E+02  0.10916843233E+03  0.41800000000E+01 0.  1.
         -5    1    3    3    0  502 -0.22277109716E+01  0.65148481013E+02  0.67021053701E+01  0.65663367953E+02  0.41800000000E+01 0.  1.
        -11    1    1    2    0    0 -0.24460063991E+02  0.46579744765E+00  0.89030691715E+00  0.24480693294E+02  0.00000000000E+00 0.  1.
         11    1    1    2    0    0 -0.51415116299E+02 -0.66331488201E+02 -0.41448053003E+02  0.93601931650E+02  0.00000000000E+00 0. -1.
</event>
<event>
 7    1  0.2612213E-009  0.1332131E+03  0.7561462E-02  0.1222764E+00
          2   -1    0    0  501    0  0.00000000000E+00  0.00000000000E+00  0.13581209386E+04  0.13581209386E+04  0.00000000000E+00 0. -1.
         -2   -1    0    0    0  501 -0.00000000000E+00 -0.00000000000E+00 -0.14310252946E+02  0.14310252946E+02  0.00000000000E+00 0.  1.
         25    2    1    2    0    0  0.20457912426E+02 -0.79915174180E+02  0.91697869621E+03  0.92914153201E+03  0.12509634676E+03 0.  0.
          5    1    3    3  502    0  0.71419197651E+02 -0.40317594427E+02  0.60347677322E+03  0.60903850324E+03  0.41800000000E+01 0.  1.
         -5    1    3    3    0  502 -0.50961285225E+02 -0.39597579753E+02  0.31350192299E+03  0.32010302878E+03  0.41800000000E+01 0.  1.
        -11    1    1    2    0    0 -0.51243931983E+02  0.25794351707E+02  0.19949825712E+03  0.20758334167E+03  0.00000000000E+00 0.  1.
         11    1    1    2    0    0  0.30786019557E+02  0.54120822473E+02  0.22733373229E+03  0.23570631782E+03  0.00000000000E+00 0. -1.
</event>
<event>
 7    1  0.2612213E-009  0.2142630E+03  0.7561462E-02  0.1138234E+00
          1   -1    0    0  501    0  0.00000000000E+00  0.00000000000E+00  0.48175987411E+03  0.48175987411E+03  0.00000000000E+00 0. -1.
         -1   -1    0    0    0  501 -0.00000000000E+00 -0.00000000000E+00 -0.21293886768E+03  0.21293886768E+03  0.00000000000E+00 0.  1.
         25    2    1    2    0    0 -0.11052036498E+03 -0.16410386545E+03 -0.11444282687E+03  0.26055471179E+03  0.12508703963E+03 0.  0.
          5    1    3    3  502    0  0.83007691280E+01 -0.77800519594E+02 -0.72452193355E+01  0.78687922965E+02  0.41800000000E+01 0.  1.
         -5    1    3    3    0  502 -0.11882113411E+03 -0.86303345853E+02 -0.10719760753E+03  0.18186678882E+03  0.41800000000E+01 0.  1.
        -11    1    1    2    0    0  0.39477222112E+02  0.10021917650E+03  0.22070166287E+03  0.24558411674E+03  0.00000000000E+00 0.  1.
         11    1    1    2    0    0  0.71043142869E+02  0.63884688951E+02  0.16256217043E+03  0.18855991326E+03  0.00000000000E+00 0. -1.
</event>
<event>
 7    1  0.2612213E-009  0.7824921E+02  0.7561462E-02  0.1334095E+00
          1   -1    0    0  501    0  0.00000000000E+00  0.00000000000E+00  0.41121093009E+03  0.41121093009E+03  0.00000000000E+00 0. -1.
         -1   -1    0    0    0  501 -0.00000000000E+00 -0.00000000000E+00 -0.63357586431E+02  0.63357586431E+02  0.00000000000E+00 0.  1.
         25    2    1    2    0    0 -0.10581793029E+02 -0.32648283703E+02  0.35298590147E+03  0.37606514126E+03  0.12509220225E+03 0.  0.
          5    1    3    3  502    0 -0.13906588310E+01  0.37310192217E+02  0.23905453624E+03  0.24198869410E+03  0.41800000000E+01 0. -1.
         -5    1    3    3    0  502 -0.91911341982E+01 -0.69958475920E+02  0.11393136523E+03  0.13407644717E+03  0.41800000000E+01 0. -1.
        -11    1    1    2    0    0  0.23020854137E+02  0.19829576861E+02 -0.45298574369E+02  0.54544776868E+02  0.00000000000E+00 0.  1.
         11    1    1    2    0    0 -0.12439061108E+02  0.12818706842E+02  0.40166016562E+02  0.43958598395E+02  0.00000000000E+00 0. -1.
</event>
<event>
 7    1  0.2612213E-009  0.9933685E+02  0.7561462E-02  0.1281697E+00
         -1   -1    0    0    0  501 -0.00000000000E+00  0.00000000000E+00  0.11324809017E+03  0.11324809017E+03  0.00000000000E+00 0.  1.
          1   -1    0    0  501    0  0.00000000000E+00 -0.00000000000E+00 -0.22096248831E+03  0.22096248831E+03  0.00000000000E+00 0. -1.
         25    2    1    2    0    0 -0.24074761887E+02 -0.58329980184E+02 -0.15109478112E+03  0.20605847309E+03  0.12509388755E+03 0.  0.
          5    1    3    3  502    0 -0.96469198441E+01 -0.62236148113E+02 -0.97529133966E+01  0.63866993933E+02  0.41800000000E+01 0. -1.
         -5    1    3    3    0  502 -0.14427842043E+02  0.39061679288E+01 -0.14134186772E+03  0.14219147916E+03  0.41800000000E+01 0. -1.
        -11    1    1    2    0    0 -0.19001981432E+02  0.72295498846E+02  0.21030749980E+02  0.77653119038E+02  0.00000000000E+00 0.  1.
         11    1    1    2    0    0  0.43076743319E+02 -0.13965518662E+02  0.22349633006E+02  0.50498986346E+02  0.00000000000E+00 0. -1.
</event>
<event>
 7    1  0.2612213E-009  0.1027282E+03  0.7561462E-02  0.1274661E+00
         -1   -1    0    0    0  501 -0.00000000000E+00  0.00000000000E+00  0.24713815693E+02  0.24713815693E+02  0.00000000000E+00 0.  1.
          1   -1    0    0  501    0  0.00000000000E+00 -0.00000000000E+00 -0.58269996121E+03  0.58269996121E+03  0.00000000000E+00 0. -1.
         25    2    1    2    0    0  0.15413822254E+02 -0.54840928409E+01 -0.43854229778E+03  0.45632714273E+03  0.12508978000E+03 0.  0.
          5    1    3    3  502    0 -0.22473253469E+02  0.44918309021E+02 -0.10050665797E+03  0.11243559179E+03  0.41800000000E+01 0. -1.
         -5    1    3    3    0  502  0.37887075723E+02 -0.50402401862E+02 -0.33803563981E+03  0.34389155093E+03  0.41800000000E+01 0. -1.
        -11    1    1    2    0    0 -0.31232107796E+02  0.41842421817E+02 -0.76686775761E+02  0.92774427497E+02  0.00000000000E+00 0.  1.
         11    1    1    2    0    0  0.15818285542E+02 -0.36358328976E+02 -0.42757071978E+02  0.58312206677E+02  0.00000000000E+00 0. -1.
</event>
<event>
 7    1  0.2612213E-009  0.1253485E+03  0.7561462E-02  0.1234526E+00
          1   -1    0    0  501    0  0.00000000000E+00  0.00000000000E+00  0.45568560588E+03  0.45568560588E+03  0.00000000000E+00 0. -1.
         -1   -1    0    0    0  501 -0.00000000000E+00 -0.00000000000E+00 -0.66655048891E+02  0.66655048891E+02  0.00000000000E+00 0.  1.
         25    2    1    2    0    0 -0.10752022583E+03 -0.11343441017E+02  0.84108800121E+02  0.18550196504E+03  0.12508963250E+03 0.  0.
          5    1    3    3  502    0 -0.50465954989E+02 -0.32306004571E+01  0.11079180750E+03  0.12185871492E+03  0.41800000000E+01 0.  1.
         -5    1    3    3    0  502 -0.57054270843E+02 -0.81128405598E+01 -0.26683007381E+02  0.63643250124E+02  0.41800000000E+01 0.  1.
        -11    1    1    2    0    0  0.10601843905E+03  0.40123159951E+02  0.22634730344E+03  0.25314596414E+03  0.00000000000E+00 0.  1.
         11    1    1    2    0    0  0.15017867774E+01 -0.28779718934E+02  0.78574453428E+02  0.83692725592E+02  0.00000000000E+00 0. -1.
</event>
<event>
 7    1  0.2612213E-009  0.1960949E+03  0.7561462E-02  0.1153076E+00
         -1   -1    0    0    0  501 -0.00000000000E+00  0.00000000000E+00  0.41108768533E+02  0.41108768533E+02  0.00000000000E+00 0.  1.
          1   -1    0    0  501    0  0.00000000000E+00 -0.00000000000E+00 -0.97947672536E+03  0.97947672536E+03  0.00000000000E+00 0. -1.
         25    2    1    2    0    0 -0.16528003618E+03  0.62725457511E+01 -0.57213321215E+03  0.60855586275E+03  0.12508793091E+03 0.  0.
          5    1    3    3  502    0 -0.12628220835E+03 -0.52274089768E+02 -0.36588054424E+03  0.39059675070E+03  0.41800000000E+01 0.  1.
         -5    1    3    3    0  502 -0.38997827824E+02  0.58546635519E+02 -0.20625266791E+03  0.21795911205E+03  0.41800000000E+01 0.  1.
        -11    1    1    2    0    0  0.10477046164E+03 -0.44043402985E+02 -0.18323448816E+03  0.21561898950E+03  0.00000000000E+00 0.  1.
         11    1    1    2    0    0  0.60509574533E+02  0.37770857234E+02 -0.18300025652E+03  0.19641064164E+03  0.00000000000E+00 0. -1.
</event>
<event>
 7    1  0.2612213E-009  0.1222776E+03  0.7561462E-02  0.1239386E+00
         -1   -1    0    0    0  501 -0.00000000000E+00  0.00000000000E+00  0.76082904029E+02  0.76082904029E+02  0.00000000000E+00 0.  1.
          1   -1    0    0  501    0  0.00000000000E+00 -0.00000000000E+00 -0.39758700244E+03  0.39758700244E+03  0.00000000000E+00 0. -1.
         25    2    1    2    0    0 -0.47640203419E+02  0.47782020667E+02 -0.32902605314E+03  0.35841141925E+03  0.12509153177E+03 0.  0.
          5    1    3    3  502    0  0.22579747443E+00 -0.38091332232E+02 -0.53247092047E+02  0.65602787953E+02  0.41800000000E+01 0.  1.
         -5    1    3    3    0  502 -0.47866000894E+02  0.85873352899E+02 -0.27577896110E+03  0.29280863130E+03  0.41800000000E+01 0.  1.
        -11    1    1    2    0    0  0.41975564832E+02  0.15165429114E+02  0.22971307698E+02  0.50195809193E+02  0.00000000000E+00 0.  1.
         11    1    1    2    0    0  0.56646385869E+01 -0.62947449781E+02 -0.15449352962E+02  0.65062678021E+02  0.00000000000E+00 0. -1.
</event>
<event>
 7    1  0.2612213E-009  0.1007969E+03  0.7561462E-02  0.1278629E+00
         -2   -1    0    0    0  501 -0.00000000000E+00  0.00000000000E+00  0.12290057072E+03  0.12290057072E+03  0.00000000000E+00 0.  1.
          2   -1    0    0  501    0  0.00000000000E+00 -0.00000000000E+00 -0.15196948860E+03  0.15196948860E+03  0.00000000000E+00 0. -1.
         25    2    1    2    0    0  0.48887196753E+02 -0.22617284504E+02  0.45858627616E+02  0.14370744409E+03  0.12508923294E+03 0.  0.
          5    1    3    3  502    0 -0.10306859190E+02  0.30940824790E+02 -0.21407721644E+02  0.39234282599E+02  0.41800000000E+01 0.  1.
         -5    1    3    3    0  502  0.59194055943E+02 -0.53558109294E+02  0.67266349260E+02  0.10447316150E+03  0.41800000000E+01 0.  1.
        -11    1    1    2    0    0 -0.33949838116E+02  0.48317381777E+02 -0.81572035111E+02  0.10070331575E+03  0.00000000000E+00 0. -1.
         11    1    1    2    0    0 -0.14937358637E+02 -0.25700097273E+02  0.66444896121E+01  0.30459299485E+02  0.00000000000E+00 0.  1.
</event>
<event>
 7    1  0.2612213E-009  0.1547247E+03  0.7561462E-02  0.1194785E+00
          1   -1    0    0  501    0  0.00000000000E+00  0.00000000000E+00  0.30468390585E+03  0.30468390585E+03  0.00000000000E+00 0.  1.
         -1   -1    0    0    0  501 -0.00000000000E+00 -0.00000000000E+00 -0.10828239084E+03  0.10828239084E+03  0.00000000000E+00 0. -1.
         25    2    1    2    0    0  0.61330425802E+01 -0.13607595352E+03  0.16286831990E+03  0.24643060609E+03  0.12509066573E+03 0.  0.
          5    1    3    3  502    0  0.28723451980E+02 -0.40166260180E+02 -0.69601379454E+01  0.50042792395E+02  0.41800000000E+01 0.  1.
         -5    1    3    3    0  502 -0.22590409400E+02 -0.95909693340E+02  0.16982845784E+03  0.19638781369E+03  0.41800000000E+01 0.  1.
        -11    1    1    2    0    0 -0.40207525445E+02  0.30892006689E+02  0.22330511666E+02  0.55404087673E+02  0.00000000000E+00 0. -1.
         11    1    1    2    0    0  0.34074482864E+02  0.10518394683E+03  0.11202683456E+02  0.11113160293E+03  0.00000000000E+00 0.  1.
</event>
<event>
 7    1  0.2612213E-009  0.1345333E+03  0.7561462E-02  0.1220880E+00
          2   -1    0    0  501    0  0.00000000000E+00  0.00000000000E+00  0.87961835902E+03  0.87961835902E+03  0.00000000000E+00 0. -1.
         -2   -1    0    0    0  501 -0.00000000000E+00 -0.00000000000E+00 -0.23383551303E+02  0.23383551303E+02  0.00000000000E+00 0.  1.
         25    2    1    2    0    0 -0.92634394160E+02 -0.13851740464E+02  0.42407291375E+03  0.45194958567E+03  0.12509032783E+03 0.  0.
          5    1    3    3  502    0 -0.10939814519E+03 -0.45736188197E+02  0.34811435305E+03  0.36777823247E+03  0.41800000000E+01 0. -1.
         -5    1    3    3    0  502  0.16763751027E+02  0.31884447733E+02  0.75958560699E+02  0.84171353198E+02  0.41800000000E+01 0. -1.
        -11    1    1    2    0    0 -0.37956035973E+01  0.17252079668E+02  0.15942914210E+02  0.23795322503E+02  0.00000000000E+00 0.  1.
         11    1    1    2    0    0  0.96429997757E+02 -0.34003392035E+01  0.41621897976E+03  0.42725700215E+03  0.00000000000E+00 0. -1.
</event>
<event>
 7    1  0.2612213E-009  0.1731887E+03  0.7561462E-02  0.1174563E+00
          1   -1    0    0  501    0  0.00000000000E+00  0.00000000000E+00  0.54828708397E+02  0.54828708397E+02  0.00000000000E+00 0. -1.
         -1   -1    0    0    0  501 -0.00000000000E+00 -0.00000000000E+00 -0.72117055213E+03  0.72117055213E+03  0.00000000000E+00 0.  1.
         25    2    1    2    0    0 -0.55170512981E+02 -0.12812257802E+03 -0.52623121036E+03  0.55859424147E+03  0.12509620037E+03 0.  0.
          5    1    3    3  502    0 -0.95183113231E+02 -0.98973567786E+02 -0.40030338142E+03  0.42322081912E+03  0.41800000000E+01 0.  1.
         -5    1    3    3    0  502  0.40012600250E+02 -0.29149010231E+02 -0.12592782894E+03  0.13537342235E+03  0.41800000000E+01 0.  1.
        -11    1    1    2    0    0  0.69142796560E+02  0.65800347752E+02 -0.52344748319E+02  0.10885947252E+03  0.00000000000E+00 0. -1.
         11    1    1    2    0    0 -0.13972283579E+02  0.62322230264E+02 -0.87765885053E+02  0.10854554654E+03  0.00000000000E+00 0.  1.
</event>
<event>
 7    1  0.2612213E-009  0.1014504E+03  0.7561462E-02  0.1277275E+00
          2   -1    0    0  501    0  0.00000000000E+00  0.00000000000E+00  0.70909266002E+02  0.70909266002E+02  0.00000000000E+00 0. -1.
         -2   -1    0    0    0  501 -0.00000000000E+00 -0.00000000000E+00 -0.24969104376E+03  0.24969104376E+03  0.00000000000E+00 0.  1.
         25    2    1    2    0    0 -0.14951501887E+02  0.22865821285E+02 -0.40313390894E+01  0.12808397962E+03  0.12507142339E+03 0.  0.
          5    1    3    3  502    0  0.26586232883E+02  0.60883295466E+02 -0.19819480715E+02  0.69454212698E+02  0.41800000000E+01 0.  1.
         -5    1    3    3    0  502 -0.41537734770E+02 -0.38017474181E+02  0.15788141626E+02  0.58629766918E+02  0.41800000000E+01 0.  1.
        -11    1    1    2    0    0 -0.10551876946E+02 -0.44926821152E+02 -0.11487308119E+03  0.12379655144E+03  0.00000000000E+00 0.  1.
         11    1    1    2    0    0  0.25503378833E+02  0.22060999867E+02 -0.59877357480E+02  0.68719778709E+02  0.00000000000E+00 0. -1.
</event>
<event>
 7    1  0.2612213E-009  0.1298415E+03  0.7561462E-02  0.1227691E+00
         -3   -1    0    0    0  501 -0.00000000000E+00  0.00000000000E+00  0.35561884175E+03  0.35561884175E+03  0.00000000000E+00 0.  1.
          3   -1    0    0  501    0  0.00000000000E+00 -0.00000000000E+00 -0.71440896894E+02  0.71440896894E+02  0.00000000000E+00 0. -1.
         25    2    1    2    0    0 -0.90220000858E+02 -0.70473835092E+02  0.18228873357E+03  0.24896251661E+03  0.12508773841E+03 0.  0.
          5    1    3    3  502    0 -0.50439561516E+02 -0.16589630671E+02  0.17324560042E+03  0.18124810531E+03  0.41800000000E+01 0.  1.
         -5    1    3    3    0  502 -0.39780439342E+02 -0.53884204421E+02  0.90431331477E+01  0.67714411298E+02  0.41800000000E+01 0.  1.
        -11    1    1    2    0    0  0.44026401772E+02 -0.11246856694E+02  0.60095267586E+02  0.75340938571E+02  0.00000000000E+00 0.  1.
         11    1    1    2    0    0  0.46193599086E+02  0.81720691786E+02  0.41793943701E+02  0.10275628347E+03  0.00000000000E+00 0. -1.
</event>
<event>
 7    1  0.2612213E-009  0.1549953E+03  0.7561462E-02  0.1194466E+00
         -4   -1    0    0    0  501 -0.00000000000E+00  0.00000000000E+00  0.72321433275E+02  0.72321433275E+02  0.00000000000E+00 0.  1.
          4   -1    0    0  501    0  0.00000000000E+00 -0.00000000000E+00 -0.75742312262E+03  0.75742312262E+03  0.00000000000E+00 0. -1.
         25    2    1    2    0    0  0.81549660683E+02  0.79711560616E+02 -0.47854439637E+02  0.17590408885E+03  0.12509165051E+03 0.  0.
          5    1    3    3  502    0  0.23197272923E+02  0.99215451116E+02 -0.51274497534E+02  0.11414186659E+03  0.41800000000E+01 0. -1.
         -5    1    3    3    0  502  0.58352387761E+02 -0.19503890500E+02  0.34200578964E+01  0.61762222256E+02  0.41800000000E+01 0. -1.
        -11    1    1    2    0    0  0.26352891889E+00 -0.62803674547E+02 -0.26804092267E+03  0.27530039450E+03  0.00000000000E+00 0.  1.
         11    1    1    2    0    0 -0.81813189602E+02 -0.16907886069E+02 -0.36920632704E+03  0.37854007255E+03  0.00000000000E+00 0. -1.
</event>
<event>
 7    1  0.2612213E-009  0.1111617E+03  0.7561462E-02  0.1258434E+00
          3   -1    0    0  501    0  0.00000000000E+00  0.00000000000E+00  0.50722321486E+02  0.50722321486E+02  0.00000000000E+00 0. -1.
         -3   -1    0    0    0  501 -0.00000000000E+00 -0.00000000000E+00 -0.25683654450E+03  0.25683654450E+03  0.00000000000E+00 0.  1.
         25    2    1    2    0    0  0.29727650051E+02  0.98615068523E+00 -0.13777502372E+03  0.18845143737E+03  0.12508909392E+03 0.  0.
          5    1    3    3  502    0 -0.34875049667E+02 -0.35987064426E+02 -0.78413399740E+02  0.93152947103E+02  0.41800000000E+01 0.  1.
         -5    1    3    3    0  502  0.64602699718E+02  0.36973215111E+02 -0.59361623977E+02  0.95298490270E+02  0.41800000000E+01 0.  1.
        -11    1    1    2    0    0  0.25099752479E+02  0.26203361677E+02 -0.27591523178E+02  0.45584053012E+02  0.00000000000E+00 0. -1.
         11    1    1    2    0    0 -0.54827402530E+02 -0.27189512362E+02 -0.40747676119E+02  0.73523375601E+02  0.00000000000E+00 0.  1.
</event>
<event>
 7    1  0.2612213E-009  0.1074679E+03  0.7561462E-02  0.1265332E+00
          1   -1    0    0  501    0  0.00000000000E+00  0.00000000000E+00  0.35558027433E+03  0.35558027433E+03  0.00000000000E+00 0. -1.
         -1   -1    0    0    0  501 -0.00000000000E+00 -0.00000000000E+00 -0.55566852438E+02  0.55566852438E+02  0.00000000000E+00 0.  1.
         25    2    1    2    0    0  0.67507016142E+02  0.55616079860E+02  0.16533556452E+03  0.22502101661E+03  0.12509301920E+03 0.  0.
          5    1    3    3  502    0  0.53800651056E+02  0.43368396192E+02  0.18515152251E+03  0.19767115756E+03  0.41800000000E+01 0. -1.
         -5    1    3    3    0  502  0.13706365087E+02  0.12247683668E+02 -0.19815957989E+02  0.27349859052E+02  0.41800000000E+01 0. -1.
        -11    1    1    2    0    0  0.19045306285E+02  0.67152550537E+01  0.33469399042E+02  0.39089883783E+02  0.00000000000E+00 0. -1.
         11    1    1    2    0    0 -0.86552322428E+02 -0.62331334914E+02  0.10120845833E+03  0.14703622638E+03  0.00000000000E+00 0.  1.
</event>
<event>
 7    1  0.2612213E-009  0.1583368E+03  0.7561462E-02  0.1190587E+00
          2   -1    0    0  501    0  0.00000000000E+00  0.00000000000E+00  0.11878176153E+04  0.11878176153E+04  0.00000000000E+00 0.  1.
         -2   -1    0    0    0  501 -0.00000000000E+00 -0.00000000000E+00 -0.22942270722E+02  0.22942270722E+02  0.00000000000E+00 0. -1.
         25    2    1    2    0    0 -0.12267320851E+03 -0.10685052465E+01  0.68550411311E+03  0.70753997008E+03  0.12508821843E+03 0.  0.
          5    1    3    3  502    0  0.12924937703E+02  0.24313352256E+02  0.50114924391E+02  0.57333857007E+02  0.41800000000E+01 0. -1.
         -5    1    3    3    0  502 -0.13559814622E+03 -0.25381857502E+02  0.63538918872E+03  0.65020611308E+03  0.41800000000E+01 0. -1.
        -11    1    1    2    0    0  0.60369778636E+02 -0.43322790280E+02  0.27950160119E+03  0.28921016475E+03  0.00000000000E+00 0. -1.
         11    1    1    2    0    0  0.62303429878E+02  0.44391295527E+02  0.19986963033E+03  0.21400975123E+03  0.00000000000E+00 0.  1.
</event>
<event>
 7    1  0.2612213E-009  0.8712498E+02  0.7561462E-02  0.1309967E+00
         -1   -1    0    0    0  501 -0.00000000000E+00  0.00000000000E+00  0.25871905888E+03  0.25871905888E+03  0.00000000000E+00 0.  1.
          1   -1    0    0  501    0  0.00000000000E+00 -0.00000000000E+00 -0.55778776329E+02  0.55778776329E+02  0.00000000000E+00 0. -1.
         25    2    1    2    0    0  0.32238897217E+02  0.15691644866E+02  0.12561344759E+03  0.18086370812E+03  0.12508944195E+03 0.  0.
          5    1    3    3  502    0  0.35625848549E+02 -0.43747521729E+02  0.10208191579E+03  0.11671005387E+03  0.41800000000E+01 0. -1.
         -5    1    3    3    0  502 -0.33869513323E+01  0.59439166595E+02  0.23531531795E+02  0.64153654248E+02  0.41800000000E+01 0. -1.
        -11    1    1    2    0    0  0.10520640759E+02  0.35524700605E+01 -0.21527438511E+02  0.24222603790E+02  0.00000000000E+00 0. -1.
         11    1    1    2    0    0 -0.42759537975E+02 -0.19244114927E+02  0.98854273482E+02  0.10941152331E+03  0.00000000000E+00 0.  1.
</event>
<event>
 7    1  0.2612213E-009  0.1292408E+03  0.7561462E-02  0.1228587E+00
         -1   -1    0    0    0  501 -0.00000000000E+00  0.00000000000E+00  0.36957000491E+02  0.36957000491E+02  0.00000000000E+00 0.  1.
          1   -1    0    0  501    0  0.00000000000E+00 -0.00000000000E+00 -0.57306448973E+03  0.57306448973E+03  0.00000000000E+00 0. -1.
         25    2    1    2    0    0 -0.65586163995E+02 -0.70699270701E+02 -0.27995908379E+03  0.32143971849E+03  0.12508585948E+03 0.  0.
          5    1    3    3  502    0 -0.64306918672E+02  0.94178073091E+01 -0.65085491619E+02  0.92074255375E+02  0.41800000000E+01 0. -1.
         -5    1    3    3    0  502 -0.12792453224E+01 -0.80117078010E+02 -0.21487359217E+03  0.22936546312E+03  0.41800000000E+01 0. -1.
        -11    1    1    2    0    0  0.62719732160E+02  0.25302898918E+02 -0.71522675772E+02  0.98435230713E+02  0.00000000000E+00 0.  1.
         11    1    1    2    0    0  0.28664318350E+01  0.45396371783E+02 -0.18462572967E+03  0.19014654101E+03  0.00000000000E+00 0. -1.
</event>
<event>
 7    1  0.2612213E-009  0.4938944E+03  0.7561462E-02  0.1015385E+00
          1   -1    0    0  501    0  0.00000000000E+00  0.00000000000E+00  0.12902473891E+04  0.12902473891E+04  0.00000000000E+00 0. -1.
         -1   -1    0    0    0  501 -0.00000000000E+00 -0.00000000000E+00 -0.19890698002E+03  0.19890698002E+03  0.00000000000E+00 0.  1.
         25    2    1    2    0    0  0.92072033304E+02 -0.48475839669E+03  0.49448244899E+03  0.70966723047E+03  0.12508686247E+03 0.  0.
          5    1    3    3  502    0  0.54540997782E+02 -0.35497178202E+03  0.27686650451E+03  0.45348894164E+03  0.41800000000E+01 0.  1.
         -5    1    3    3    0  502  0.37531035523E+02 -0.12978661467E+03  0.21761594448E+03  0.25617828883E+03  0.41800000000E+01 0.  1.
        -11    1    1    2    0    0 -0.79050977047E+02  0.42625044898E+03  0.47133115719E+03  0.64038391763E+03  0.00000000000E+00 0. -1.
         11    1    1    2    0    0 -0.13021056257E+02  0.58507947705E+02  0.12552680289E+03  0.13910322101E+03  0.00000000000E+00 0.  1.
</event>
<event>
 7    1  0.2612213E-009  0.1241940E+03  0.7561462E-02  0.1236334E+00
          1   -1    0    0  501    0  0.00000000000E+00  0.00000000000E+00  0.12744687324E+04  0.12744687324E+04  0.00000000000E+00 0. -1.
         -1   -1    0    0    0  501 -0.00000000000E+00 -0.00000000000E+00 -0.24523874131E+02  0.24523874131E+02  0.00000000000E+00 0.  1.
         25    2    1    2    0    0  0.47896152170E+02  0.43227876176E+02  0.11188939999E+04  0.11277119327E+04  0.12509088503E+03 0.  0.
          5    1    3    3  502    0  0.24544368038E+02 -0.43713452547E+02  0.43818229806E+03  0.44106064285E+03  0.41800000000E+01 0. -1.
         -5    1    3    3    0  502  0.23351784132E+02  0.86941328723E+02  0.68071170184E+03  0.68665128988E+03  0.41800000000E+01 0. -1.
        -11    1    1    2    0    0 -0.46975014766E+02 -0.68287823458E+02  0.84257276438E+02  0.11819123266E+03  0.00000000000E+00 0. -1.
         11    1    1    2    0    0 -0.92113740377E+00  0.25059947282E+02  0.46793581944E+02  0.53089441164E+02  0.00000000000E+00 0.  1.
</event>
<event>
 7    1  0.2612213E-009  0.9687584E+02  0.7561462E-02  0.1287006E+00
         -1   -1    0    0    0  501 -0.00000000000E+00  0.00000000000E+00  0.21760834398E+02  0.21760834398E+02  0.00000000000E+00 0.  1.
          1   -1    0    0  501    0  0.00000000000E+00 -0.00000000000E+00 -0.57434572524E+03  0.57434572524E+03  0.00000000000E+00 0. -1.
         25    2    1    2    0    0  0.22952588001E+02  0.70229594062E+01 -0.28686900544E+03  0.31387521620E+03  0.12509069434E+03 0.  0.
          5    1    3    3  502    0 -0.35811021051E+02  0.18496487180E+02 -0.30887225983E+02  0.50951372853E+02  0.41800000000E+01 0.  1.
         -5    1    3    3    0  502  0.58763609052E+02 -0.11473527774E+02 -0.25598177945E+03  0.26292384335E+03  0.41800000000E+01 0.  1.
        -11    1    1    2    0    0  0.30711073720E+02  0.16218430564E+02 -0.12766281291E+03  0.13230268833E+03  0.00000000000E+00 0.  1.
         11    1    1    2    0    0 -0.53663661721E+02 -0.23241389970E+02 -0.13805307249E+03  0.14992865511E+03  0.00000000000E+00 0. -1.
</event>
<event>
 7    1  0.2612213E-009  0.1539336E+03  0.7561462E-02  0.1195721E+00
         -3   -1    0    0    0  501 -0.00000000000E+00  0.00000000000E+00  0.23386183014E+03  0.23386183014E+03  0.00000000000E+00 0.  1.
          3   -1    0    0  501    0  0.00000000000E+00 -0.00000000000E+00 -0.13154196387E+03  0.13154196387E+03  0.00000000000E+00 0. -1.
         25    2    1    2    0    0  0.65044148186E+02 -0.11954090622E+03  0.74736106873E+02  0.19938445783E+03  0.12509159395E+03 0.  0.
          5    1    3    3  502    0 -0.27931905774E+02 -0.16051953817E+02  0.47523757914E+02  0.57565932180E+02  0.41800000000E+01 0. -1.
         -5    1    3    3    0  502  0.92976053960E+02 -0.10348895241E+03  0.27212348959E+02  0.14181852565E+03  0.41800000000E+01 0. -1.
        -11    1    1    2    0    0 -0.57390778485E+02  0.10151615294E+03 -0.16504476118E+02  0.11777787778E+03  0.00000000000E+00 0. -1.
         11    1    1    2    0    0 -0.76533697015E+01  0.18024753282E+02  0.44088235506E+02  0.48241458402E+02  0.00000000000E+00 0.  1.
</event>
<event>
 7    1  0.2612213E-009  0.1117095E+03  0.7561462E-02  0.1257437E+00
         -1   -1    0    0    0  501 -0.00000000000E+00  0.00000000000E+00  0.88478415440E+02  0.88478415440E+02  0.00000000000E+00 0.  1.
          1   -1    0    0  501    0  0.00000000000E+00 -0.00000000000E+00 -0.19571480663E+03  0.19571480663E+03  0.00000000000E+00 0. -1.
         25    2    1    2    0    0  0.47359450473E+02  0.50601889686E+02 -0.88431188048E+02  0.16813188706E+03  0.12507912551E+03 0.  0.
          5    1    3    3  502    0 -0.14736145067E+02 -0.15653146207E+02  0.17868387479E+02  0.28265290176E+02  0.41800000000E+01 0.  1.
         -5    1    3    3    0  502  0.62095595541E+02  0.66255035894E+02 -0.10629957553E+03  0.13986659688E+03  0.41800000000E+01 0.  1.
        -11    1    1    2    0    0 -0.66161505902E+02 -0.60249659927E+02 -0.27581877668E+01  0.89526387084E+02  0.00000000000E+00 0.  1.
         11    1    1    2    0    0  0.18802055429E+02  0.96477702406E+01 -0.16047015374E+02  0.26534947925E+02  0.00000000000E+00 0. -1.
</event>
<event>
 7    1  0.2612213E-009  0.1837804E+03  0.7561462E-02  0.1164194E+00
         -2   -1    0    0    0  501 -0.00000000000E+00  0.00000000000E+00  0.65415713766E+02  0.65415713766E+02  0.00000000000E+00 0.  1.
          2   -1    0    0  501    0  0.00000000000E+00 -0.00000000000E+00 -0.80545475443E+03  0.80545475443E+03  0.00000000000E+00 0. -1.
         25    2    1    2    0    0  0.15686622943E+03  0.28048060955E+02 -0.61669804560E+03  0.64912114105E+03  0.12509224059E+03 0.  0.
          5    1    3    3  502    0  0.15201156893E+03 -0.16995772652E+02 -0.41381294284E+03  0.44119723191E+03  0.41800000000E+01 0.  1.
         -5    1    3    3    0  502  0.48546605005E+01  0.45043833606E+02 -0.20288510275E+03  0.20792390914E+03  0.41800000000E+01 0.  1.
        -11    1    1    2    0    0 -0.14031730466E+03 -0.42986092499E+02 -0.67325455441E+02  0.16146041957E+03  0.00000000000E+00 0.  1.
         11    1    1    2    0    0 -0.16548924767E+02  0.14938031544E+02 -0.56015539628E+02  0.60288907580E+02  0.00000000000E+00 0. -1.
</event>
<event>
 7    1  0.2612213E-009  0.1318327E+03  0.7561462E-02  0.1224761E+00
         -2   -1    0    0    0  501 -0.00000000000E+00  0.00000000000E+00  0.34079926965E+02  0.34079926965E+02  0.00000000000E+00 0.  1.
          2   -1    0    0  501    0  0.00000000000E+00 -0.00000000000E+00 -0.95962271657E+03  0.95962271657E+03  0.00000000000E+00 0. -1.
         25    2    1    2    0    0  0.23333167507E+02  0.81326001908E+02 -0.81003547975E+03  0.82399285624E+03  0.12509353857E+03 0.  0.
          5    1    3    3  502    0  0.22229345430E+02 -0.26439583794E+02 -0.33833597300E+03  0.34012041752E+03  0.41800000000E+01 0.  1.
         -5    1    3    3    0  502  0.11038220763E+01  0.10776558570E+03 -0.47169950675E+03  0.48387243872E+03  0.41800000000E+01 0.  1.
        -11    1    1    2    0    0  0.25010479142E+02  0.15656832250E+01 -0.97044798965E+01  0.26872892679E+02  0.00000000000E+00 0.  1.
         11    1    1    2    0    0 -0.48343646648E+02 -0.82891685133E+02 -0.10580282996E+03  0.14283689461E+03  0.00000000000E+00 0. -1.
</event>
<event>
 7    1  0.2612213E-009  0.9903611E+02  0.7561462E-02  0.1282336E+00
         -1   -1    0    0    0  501 -0.00000000000E+00  0.00000000000E+00  0.22781060436E+02  0.22781060436E+02  0.00000000000E+00 0.  1.
          1   -1    0    0  501    0  0.00000000000E+00 -0.00000000000E+00 -0.57879119915E+03  0.57879119915E+03  0.00000000000E+00 0. -1.
         25    2    1    2    0    0  0.12276230064E+02  0.16464229739E+02 -0.23296079747E+03  0.26521912197E+03  0.12509465542E+03 0.  0.
          5    1    3    3  502    0 -0.43162224365E+01 -0.46150531720E+02 -0.16416511636E+03  0.17063457793E+03  0.41800000000E+01 0.  1.
         -5    1    3    3    0  502  0.16592452500E+02  0.62614761459E+02 -0.68795681113E+02  0.94584544045E+02  0.41800000000E+01 0.  1.
        -11    1    1    2    0    0 -0.19330127491E+02 -0.49343226675E+02 -0.25500152671E+03  0.26044996923E+03  0.00000000000E+00 0. -1.
         11    1    1    2    0    0  0.70538974274E+01  0.32878996936E+02 -0.68047814535E+02  0.75903168389E+02  0.00000000000E+00 0.  1.
</event>
<event>
 7    1  0.2612213E-009  0.1340089E+03  0.7561462E-02  0.1221626E+00
          4   -1    0    0  501    0  0.00000000000E+00  0.00000000000E+00  0.88365460879E+02  0.88365460879E+02  0.00000000000E+00 0. -1.
         -4   -1    0    0    0  501 -0.00000000000E+00 -0.00000000000E+00 -0.22948258288E+03  0.22948258288E+03  0.00000000000E+00 0.  1.
         25    2    1    2    0    0 -0.56255607080E+02 -0.70593824906E+02 -0.74574093373E+02  0.17133603797E+03  0.12508621451E+03 0.  0.
          5    1    3    3  502    0 -0.70415879383E+02  0.97320377878E+00 -0.67971952212E+02  0.97964288812E+02  0.41800000000E+01 0. -1.
         -5    1    3    3    0  502  0.14160272303E+02 -0.71567028684E+02 -0.66021411616E+01  0.73371749157E+02  0.41800000000E+01 0. -1.
        -11    1    1    2    0    0  0.39333450233E+02 -0.11179441794E+02 -0.43892480552E+02  0.59988749571E+02  0.00000000000E+00 0.  1.
         11    1    1    2    0    0  0.16922156847E+02  0.81773266700E+02 -0.22650548079E+02  0.86523256223E+02  0.00000000000E+00 0. -1.
</event>
<event>
 7    1  0.2612213E-009  0.1278945E+03  0.7561462E-02  0.1230614E+00
         -1   -1    0    0    0  501 -0.00000000000E+00  0.00000000000E+00  0.13946156935E+03  0.13946156935E+03  0.00000000000E+00 0.  1.
          1   -1    0    0  501    0  0.00000000000E+00 -0.00000000000E+00 -0.17653272496E+03  0.17653272496E+03  0.00000000000E+00 0. -1.
         25    2    1    2    0    0  0.34866906698E+02 -0.79851395362E+02 -0.89354836485E+02  0.17670308585E+03  0.12509095579E+03 0.  0.
          5    1    3    3  502    0  0.22544965035E+02  0.29059362072E+02 -0.30631411922E+01  0.37142660196E+02  0.41800000000E+01 0. -1.
         -5    1    3    3    0  502  0.12321941663E+02 -0.10891075743E+03 -0.86291695293E+02  0.13956042565E+03  0.41800000000E+01 0. -1.
        -11    1    1    2    0    0  0.18975457416E+02  0.11930624272E+02 -0.17160620848E+02  0.28229323186E+02  0.00000000000E+00 0. -1.
         11    1    1    2    0    0 -0.53842364114E+02  0.67920771090E+02  0.69444301722E+02  0.11106188527E+03  0.00000000000E+00 0.  1.
</event>
<event>
 7    1  0.2612213E-009  0.8074019E+02  0.7561462E-02  0.1326964E+00
          2   -1    0    0  501    0  0.00000000000E+00  0.00000000000E+00  0.15464094047E+04  0.15464094047E+04  0.00000000000E+00 0. -1.
         -2   -1    0    0    0  501 -0.00000000000E+00 -0.00000000000E+00 -0.17451095149E+02  0.17451095149E+02  0.00000000000E+00 0.  1.
         25    2    1    2    0    0  0.21649911696E+02 -0.53063033496E+02  0.13354349302E+04  0.13425047757E+04  0.12509282785E+03 0.  0.
          5    1    3    3  502    0  0.15870272733E+01  0.15996432620E+02  0.24542818563E+02  0.29634892528E+02  0.41800000000E+01 0. -1.
         -5    1    3    3    0  502  0.20062884423E+02 -0.69059466117E+02  0.13108921117E+04  0.13128698831E+04  0.41800000000E+01 0. -1.
        -11    1    1    2    0    0  0.11503529072E+02  0.30857207473E+02  0.17371072499E+03  0.17680473526E+03  0.00000000000E+00 0. -1.
         11    1    1    2    0    0 -0.33153440768E+02  0.22205826023E+02  0.19812654349E+02  0.44550988951E+02  0.00000000000E+00 0.  1.
</event>
<event>
 7    1  0.2612213E-009  0.1138394E+03  0.7561462E-02  0.1253621E+00
         -2   -1    0    0    0  501 -0.00000000000E+00  0.00000000000E+00  0.11026011705E+03  0.11026011705E+03  0.00000000000E+00 0.  1.
          2   -1    0    0  501    0  0.00000000000E+00 -0.00000000000E+00 -0.22875592676E+03  0.22875592676E+03  0.00000000000E+00 0. -1.
         25    2    1    2    0    0  0.18354371829E+02  0.72910997287E+02 -0.15084295175E+03  0.20988703851E+03  0.12508427700E+03 0.  0.
          5    1    3    3  502    0  0.48830964306E+02  0.17531296096E+02 -0.13485393310E+03  0.14455056240E+03  0.41800000000E+01 0.  1.
         -5    1    3    3    0  502 -0.30476592477E+02  0.55379701191E+02 -0.15989018650E+02  0.65336476109E+02  0.41800000000E+01 0.  1.
        -11    1    1    2    0    0 -0.25003357012E+02  0.11559724426E+02 -0.15716390487E+02  0.31714350389E+02  0.00000000000E+00 0. -1.
         11    1    1    2    0    0  0.66489851835E+01 -0.84470721713E+02  0.48063532530E+02  0.97414654903E+02  0.00000000000E+00 0.  1.
</event>
<event>
 7    1  0.2612213E-009  0.9643910E+02  0.7561462E-02  0.1287967E+00
          1   -1    0    0  501    0  0.00000000000E+00  0.00000000000E+00  0.12752775004E+03  0.12752775004E+03  0.00000000000E+00 0. -1.
         -1   -1    0    0    0  501 -0.00000000000E+00 -0.00000000000E+00 -0.11635882759E+03  0.11635882759E+03  0.00000000000E+00 0.  1.
         25    2    1    2    0    0 -0.45772261785E+02  0.28265248435E+02  0.20556763313E+02  0.13771257827E+03  0.12509256364E+03 0.  0.
          5    1    3    3  502    0  0.38250464785E+02  0.32318929241E+02  0.18234441779E+02  0.53456323392E+02  0.41800000000E+01 0.  1.
         -5    1    3    3    0  502 -0.84022726570E+02 -0.40536808056E+01  0.23223215336E+01  0.84256254875E+02  0.41800000000E+01 0.  1.
        -11    1    1    2    0    0  0.31543338874E+02 -0.61974782943E+01 -0.49027481074E+02  0.58626656608E+02  0.00000000000E+00 0.  1.
         11    1    1    2    0    0  0.14228922911E+02 -0.22067770141E+02  0.39639640213E+02  0.47547342748E+02  0.00000000000E+00 0. -1.
</event>
<event>
 7    1  0.2612213E-009  0.8798019E+02  0.7561462E-02  0.1307818E+00
         -3   -1    0    0    0  501 -0.00000000000E+00  0.00000000000E+00  0.22362402886E+02  0.22362402886E+02  0.00000000000E+00 0.  1.
          3   -1    0    0  501    0  0.00000000000E+00 -0.00000000000E+00 -0.70855313087E+03  0.70855313087E+03  0.00000000000E+00 0. -1.
         25    2    1    2    0    0  0.31737006032E+02 -0.36976256024E+02 -0.50952270054E+03  0.52691121946E+03  0.12509024651E+03 0.  0.
          5    1    3    3  502    0  0.49787729730E+02 -0.60252024107E+02 -0.47470398584E+03  0.48111378177E+03  0.41800000000E+01 0. -1.
         -5    1    3    3    0  502 -0.18050723698E+02  0.23275768082E+02 -0.34818714700E+02  0.45797437693E+02  0.41800000000E+01 0. -1.
        -11    1    1    2    0    0  0.12294512973E+02  0.12620364269E+02  0.25985246084E+01  0.17809575337E+02  0.00000000000E+00 0.  1.
         11    1    1    2    0    0 -0.44031519005E+02  0.24355891755E+02 -0.17926655206E+03  0.18619473896E+03  0.00000000000E+00 0. -1.
</event>
<event>
 7    1  0.2612213E-009  0.1062728E+03  0.7561462E-02  0.1267632E+00
         -2   -1    0    0    0  501 -0.00000000000E+00  0.00000000000E+00  0.88572545775E+02  0.88572545775E+02  0.00000000000E+00 0.  1.
          2   -1    0    0  501    0  0.00000000000E+00 -0.00000000000E+00 -0.13999790535E+03  0.13999790535E+03  0.00000000000E+00 0. -1.
         25    2    1    2    0    0  0.90731283922E+01 -0.13251872854E+02 -0.51813841284E+02  0.13634485001E+03  0.12508920890E+03 0.  0.
          5    1    3    3  502    0 -0.11051417378E+02 -0.65940359435E+02 -0.14362005822E+02  0.68512804932E+02  0.41800000000E+01 0.  1.
         -5    1    3    3    0  502  0.20124545770E+02  0.52688486580E+02 -0.37451835461E+02  0.67832045082E+02  0.41800000000E+01 0.  1.
        -11    1    1    2    0    0 -0.48532217246E+02  0.64690199288E+01 -0.11819633993E+02  0.50367927071E+02  0.00000000000E+00 0.  1.
         11    1    1    2    0    0  0.39459088854E+02  0.67828529256E+01  0.12208115702E+02  0.41857674040E+02  0.00000000000E+00 0. -1.
</event>
<event>
 7    1  0.2612213E-009  0.1303548E+03  0.7561462E-02  0.1226930E+00
          1   -1    0    0  501    0  0.00000000000E+00  0.00000000000E+00  0.24889749215E+03  0.24889749215E+03  0.00000000000E+00 0. -1.
         -1   -1    0    0    0  501 -0.00000000000E+00 -0.00000000000E+00 -0.11261885576E+03  0.11261885576E+03  0.00000000000E+00 0.  1.
         25    2    1    2    0    0 -0.80460862948E+02  0.36061001563E+00  0.17862934741E+03  0.23244252525E+03  0.12508798216E+03 0.  0.
          5    1    3    3  502    0 -0.72820561810E+02  0.55737055497E+02  0.98423453000E+02  0.13458864023E+03  0.41800000000E+01 0.  1.
         -5    1    3    3    0  502 -0.76403011384E+01 -0.55376445482E+02  0.80205894407E+02  0.97853885019E+02  0.41800000000E+01 0.  1.
        -11    1    1    2    0    0  0.73764849243E+02 -0.32077872942E+02 -0.51350638212E+02  0.95431289214E+02  0.00000000000E+00 0.  1.
         11    1    1    2    0    0  0.66960137052E+01  0.31717262926E+02  0.89999271955E+01  0.33642533445E+02  0.00000000000E+00 0. -1.
</event>
<event>
 7    1  0.2612213E-009  0.9289128E+02  0.7561462E-02  0.1295997E+00
          2   -1    0    0  501    0  0.00000000000E+00  0.00000000000E+00  0.37908255077E+03  0.37908255077E+03  0.00000000000E+00 0.  1.
         -2   -1    0    0    0  501 -0.00000000000E+00 -0.00000000000E+00 -0.45422140379E+02  0.45422140379E+02  0.00000000000E+00 0. -1.
         25    2    1    2    0    0  0.14584551217E+02  0.44046963473E+02  0.91448998402E+02  0.16175314059E+03  0.12509322547E+03 0.  0.
          5    1    3    3  502    0  0.67795945024E+02  0.42275991401E+02  0.55806137710E+02  0.97546640213E+02  0.41800000000E+01 0. -1.
         -5    1    3    3    0  502 -0.53211393807E+02  0.17709720718E+01  0.35642860692E+02  0.64206500382E+02  0.41800000000E+01 0. -1.
        -11    1    1    2    0    0 -0.10617016768E+02 -0.28622105168E+01 -0.50157937614E+01  0.12086003523E+02  0.00000000000E+00 0. -1.
         11    1    1    2    0    0 -0.39675344488E+01 -0.41184752956E+02  0.24722720575E+03  0.25066554703E+03  0.00000000000E+00 0.  1.
</event>
<event>
 7    1  0.2612213E-009  0.1004601E+03  0.7561462E-02  0.1279331E+00
          3   -1    0    0  501    0  0.00000000000E+00  0.00000000000E+00  0.16651472878E+03  0.16651472878E+03  0.00000000000E+00 0. -1.
         -3   -1    0    0    0  501 -0.00000000000E+00 -0.00000000000E+00 -0.80778909557E+02  0.80778909557E+02  0.00000000000E+00 0.  1.
         25    2    1    2    0    0 -0.22287836218E+02 -0.34819533794E+02  0.66396154722E+02  0.14751697336E+03  0.12507461969E+03 0.  0.
          5    1    3    3  502    0  0.36044705166E+02 -0.27158105787E+02 -0.14333461735E+02  0.47536344051E+02  0.41800000000E+01 0. -1.
         -5    1    3    3    0  502 -0.58332541385E+02 -0.76614280075E+01  0.80729616457E+02  0.99980629308E+02  0.41800000000E+01 0. -1.
        -11    1    1    2    0    0 -0.32720827044E+02  0.23931603008E+02  0.24606450249E+00  0.40539298128E+02  0.00000000000E+00 0. -1.
         11    1    1    2    0    0  0.55008663262E+02  0.10887930787E+02  0.19093600003E+02  0.59237366854E+02  0.00000000000E+00 0.  1.
</event>
<event>
 7    1  0.2612213E-009  0.9937123E+02  0.7561462E-02  0.1281624E+00
         -1   -1    0    0    0  501 -0.00000000000E+00  0.00000000000E+00  0.37204011164E+03  0.37204011164E+03  0.00000000000E+00 0.  1.
          1   -1    0    0  501    0  0.00000000000E+00 -0.00000000000E+00 -0.33089814372E+02  0.33089814372E+02  0.00000000000E+00 0. -1.
         25    2    1    2    0    0 -0.27152310458E+02 -0.90673959148E+01  0.21356609593E+03  0.24914319491E+03  0.12506953509E+03 0.  0.
          5    1    3    3  502    0 -0.69838453518E+02 -0.27757966741E+02  0.91888623369E+02  0.11878091518E+03  0.41800000000E+01 0.  1.
         -5    1    3    3    0  502  0.42686143060E+02  0.18690570826E+02  0.12167747256E+03  0.13036227973E+03  0.41800000000E+01 0.  1.
        -11    1    1    2    0    0  0.24100752649E+02  0.39408368750E+02  0.11473779383E+03  0.12368761919E+03  0.00000000000E+00 0.  1.
         11    1    1    2    0    0  0.30515578091E+01 -0.30340972835E+02  0.10646407503E+02  0.32299111913E+02  0.00000000000E+00 0. -1.
</event>
<event>
 7    1  0.2612213E-009  0.9833912E+02  0.7561462E-02  0.1283828E+00
          2   -1    0    0  501    0  0.00000000000E+00  0.00000000000E+00  0.12528963616E+03  0.12528963616E+03  0.00000000000E+00 0. -1.
         -2   -1    0    0    0  501 -0.00000000000E+00 -0.00000000000E+00 -0.11777776573E+03  0.11777776573E+03  0.00000000000E+00 0.  1.
         25    2    1    2    0    0  0.23535243284E+02  0.20842498157E+02  0.44884290643E+02  0.13656580277E+03  0.12508917433E+03 0.  0.
          5    1    3    3  502    0 -0.44481534324E+01 -0.49529227481E+02  0.31692899159E+01  0.50004472224E+02  0.41800000000E+01 0.  1.
         -5    1    3    3    0  502  0.27983396717E+02  0.70371725638E+02  0.41715000727E+02  0.86561330551E+02  0.41800000000E+01 0.  1.
        -11    1    1    2    0    0 -0.45483702827E+02 -0.17461070710E+02  0.13868296471E+02  0.50655560999E+02  0.00000000000E+00 0. -1.
         11    1    1    2    0    0  0.21948459542E+02 -0.33814274468E+01 -0.51240716680E+02  0.55846038120E+02  0.00000000000E+00 0.  1.
</event>
<event>
 7    1  0.2612213E-009  0.1292704E+03  0.7561462E-02  0.1228542E+00
         -1   -1    0    0    0  501 -0.00000000000E+00  0.00000000000E+00  0.82139230615E+02  0.82139230615E+02  0.00000000000E+00 0.  1.
          1   -1    0    0  501    0  0.00000000000E+00 -0.00000000000E+00 -0.24081641536E+03  0.24081641536E+03  0.00000000000E+00 0. -1.
         25    2    1    2    0    0 -0.65889755442E+02  0.50858008718E+02 -0.56056543698E+02  0.16036876209E+03  0.12509119409E+03 0.  0.
          5    1    3    3  502    0 -0.79802563426E+02 -0.80932628310E-01 -0.69292251596E+02  0.10577024256E+03  0.41800000000E+01 0.  1.
         -5    1    3    3    0  502  0.13912807984E+02  0.50938941347E+02  0.13235707898E+02  0.54598519532E+02  0.41800000000E+01 0.  1.
        -11    1    1    2    0    0  0.41267928013E+01 -0.62645333044E+02 -0.44407688239E+02  0.76899355951E+02  0.00000000000E+00 0. -1.
         11    1    1    2    0    0  0.61762962641E+02  0.11787324326E+02 -0.58212952812E+02  0.85687527938E+02  0.00000000000E+00 0.  1.
</event>
<event>
 7    1  0.2612213E-009  0.1699048E+03  0.7561462E-02  0.1177947E+00
          1   -1    0    0  501    0  0.00000000000E+00  0.00000000000E+00  0.16940524458E+04  0.16940524458E+04  0.00000000000E+00 0. -1.
         -1   -1    0    0    0  501 -0.00000000000E+00 -0.00000000000E+00 -0.25215988256E+02  0.25215988256E+02  0.00000000000E+00 0.  1.
         25    2    1    2    0    0 -0.61845728656E+02  0.12699092629E+03  0.13060917839E+04  0.13196511377E+04  0.12510710465E+03 0.  0.
          5    1    3    3  502    0 -0.91236442029E+02  0.10633658342E+03  0.79357426121E+03  0.80585925432E+03  0.41800000000E+01 0.  1.
         -5    1    3    3    0  502  0.29390713373E+02  0.20654342871E+02  0.51251752273E+03  0.51379188337E+03  0.41800000000E+01 0.  1.
        -11    1    1    2    0    0  0.80004456741E+02 -0.80212664418E+02  0.28907046945E+03  0.31047789122E+03  0.00000000000E+00 0. -1.
         11    1    1    2    0    0 -0.18158728084E+02 -0.46778261870E+02  0.73674204120E+02  0.89139405102E+02  0.00000000000E+00 0.  1.
</event>
<event>
 7    1  0.2612213E-009  0.1506973E+03  0.7561462E-02  0.1199619E+00
         -2   -1    0    0    0  501 -0.00000000000E+00  0.00000000000E+00  0.48393465089E+02  0.48393465089E+02  0.00000000000E+00 0.  1.
          2   -1    0    0  501    0  0.00000000000E+00 -0.00000000000E+00 -0.62515186181E+03  0.62515186181E+03  0.00000000000E+00 0. -1.
         25    2    1    2    0    0  0.11409661337E+03  0.20268207859E+02 -0.17244255206E+03  0.24251168618E+03  0.12508655700E+03 0.  0.
          5    1    3    3  502    0  0.12733960268E+03 -0.46735113265E-01 -0.88738714658E+02  0.15526560622E+03  0.41800000000E+01 0.  1.
         -5    1    3    3    0  502 -0.13242989310E+02  0.20314942972E+02 -0.83703837403E+02  0.87246079968E+02  0.41800000000E+01 0.  1.
        -11    1    1    2    0    0 -0.94894096742E+02 -0.55007998036E+02 -0.29963410571E+03  0.31907893499E+03  0.00000000000E+00 0.  1.
         11    1    1    2    0    0 -0.19202516627E+02  0.34739790177E+02 -0.10468173895E+03  0.11195470573E+03  0.00000000000E+00 0. -1.
</event>
<event>
 7    1  0.2612213E-009  0.9174768E+02  0.7561462E-02  0.1298674E+00
         -2   -1    0    0    0  501 -0.00000000000E+00  0.00000000000E+00  0.29888541617E+02  0.29888541617E+02  0.00000000000E+00 0.  1.
          2   -1    0    0  501    0  0.00000000000E+00 -0.00000000000E+00 -0.51109403192E+03  0.51109403192E+03  0.00000000000E+00 0. -1.
         25    2    1    2    0    0  0.51524303367E+02  0.25412638728E+02 -0.23391527159E+03  0.27141082330E+03  0.12508766796E+03 0.  0.
          5    1    3    3  502    0  0.61424733415E+02  0.21116906687E+02 -0.24612607158E+03  0.25458679686E+03  0.41800000000E+01 0. -1.
         -5    1    3    3    0  502 -0.99004300476E+01  0.42957320414E+01  0.12210799997E+02  0.16824026434E+02  0.41800000000E+01 0. -1.
        -11    1    1    2    0    0 -0.26898096545E+02  0.33511455387E+02 -0.87184923173E+02  0.97199465372E+02  0.00000000000E+00 0.  1.
         11    1    1    2    0    0 -0.24626206822E+02 -0.58924094115E+02 -0.16010529554E+03  0.17237228487E+03  0.00000000000E+00 0. -1.
</event>
<event>
 7    1  0.2612213E-009  0.8144228E+02  0.7561462E-02  0.1325008E+00
          1   -1    0    0  501    0  0.00000000000E+00  0.00000000000E+00  0.95739874034E+02  0.95739874034E+02  0.00000000000E+00 0. -1.
         -1   -1    0    0    0  501 -0.00000000000E+00 -0.00000000000E+00 -0.14873086824E+03  0.14873086824E+03  0.00000000000E+00 0.  1.
         25    2    1    2    0    0  0.19238325821E+02  0.44623223869E+02 -0.22517955320E+02  0.13607015819E+03  0.12508670733E+03 0.  0.
          5    1    3    3  502    0  0.31857294879E+02  0.73691410534E+01  0.46215740241E+02  0.56767583381E+02  0.41800000000E+01 0. -1.
         -5    1    3    3    0  502 -0.12618969057E+02  0.37254082816E+02 -0.68733695562E+02  0.79302574814E+02  0.41800000000E+01 0. -1.
        -11    1    1    2    0    0  0.81827010294E+01 -0.58889351324E+02  0.69531728135E+01  0.59860328329E+02  0.00000000000E+00 0. -1.
         11    1    1    2    0    0 -0.27421026851E+02  0.14266127454E+02 -0.37426211700E+02  0.48540255751E+02  0.00000000000E+00 0.  1.
</event>
<event>
 7    1  0.2612213E-009  0.1636240E+03  0.7561462E-02  0.1184665E+00
          1   -1    0    0  501    0  0.00000000000E+00  0.00000000000E+00  0.65811403372E+03  0.65811403372E+03  0.00000000000E+00 0. -1.
         -1   -1    0    0    0  501 -0.00000000000E+00 -0.00000000000E+00 -0.54723211715E+02  0.54723211715E+02  0.00000000000E+00 0.  1.
         25    2    1    2    0    0  0.96124772024E+01 -0.14001754500E+03  0.43026084398E+03  0.46954209013E+03  0.12509223764E+03 0.  0.
          5    1    3    3  502    0 -0.24059625776E+02 -0.16673733072E+02  0.11583910181E+02  0.31757492692E+02  0.41800000000E+01 0. -1.
         -5    1    3    3    0  502  0.33672102978E+02 -0.12334381192E+03  0.41867693380E+03  0.43778459744E+03  0.41800000000E+01 0. -1.
        -11    1    1    2    0    0 -0.34978700166E+02  0.87493847989E+01  0.25740670038E+02  0.44301730143E+02  0.00000000000E+00 0.  1.
         11    1    1    2    0    0  0.25366222963E+02  0.13126816020E+03  0.14738930799E+03  0.19899342516E+03  0.00000000000E+00 0. -1.
</event>
<event>
 7    1  0.2612213E-009  0.8055504E+02  0.7561462E-02  0.1327484E+00
          1   -1    0    0  501    0  0.00000000000E+00  0.00000000000E+00  0.97173998368E+03  0.97173998368E+03  0.00000000000E+00 0. -1.
         -1   -1    0    0    0  501 -0.00000000000E+00 -0.00000000000E+00 -0.17492733169E+02  0.17492733169E+02  0.00000000000E+00 0.  1.
         25    2    1    2    0    0  0.25611174288E+02 -0.15525112151E+02  0.77288425213E+03  0.78351415076E+03  0.12508955145E+03 0.  0.
          5    1    3    3  502    0  0.23769770729E+02 -0.35831040296E+02  0.85310096992E+02  0.95625051624E+02  0.41800000000E+01 0. -1.
         -5    1    3    3    0  502  0.18414035594E+01  0.20305928145E+02  0.68757415514E+03  0.68788909913E+03  0.41800000000E+01 0. -1.
        -11    1    1    2    0    0  0.31707145524E+02  0.23168609347E+02  0.73179280837E+02  0.83050193740E+02  0.00000000000E+00 0.  1.
         11    1    1    2    0    0 -0.57318319812E+02 -0.76434971953E+01  0.10818371754E+03  0.12266837236E+03  0.00000000000E+00 0. -1.
</event>
<event>
 7    1  0.2612213E-009  0.1136336E+03  0.7561462E-02  0.1253985E+00
          1   -1    0    0  501    0  0.00000000000E+00  0.00000000000E+00  0.10930076893E+03  0.10930076893E+03  0.00000000000E+00 0. -1.
         -1   -1    0    0    0  501 -0.00000000000E+00 -0.00000000000E+00 -0.15307133921E+03  0.15307133921E+03  0.00000000000E+00 0.  1.
         25    2    1    2    0    0  0.68735383970E+02  0.11677841514E+01 -0.99612492972E+01  0.14308280806E+03  0.12509015447E+03 0.  0.
          5    1    3    3  502    0  0.52458338674E+02 -0.58006336525E+02 -0.19805878207E+02  0.80785874911E+02  0.41800000000E+01 0.  1.
         -5    1    3    3    0  502  0.16277045296E+02  0.59174120677E+02  0.98446289100E+01  0.62296933149E+02  0.41800000000E+01 0.  1.
        -11    1    1    2    0    0 -0.78858829396E+01 -0.21798306477E+02  0.23633053810E+02  0.33103995943E+02  0.00000000000E+00 0. -1.
         11    1    1    2    0    0 -0.60849501030E+02  0.20630522326E+02 -0.57442374794E+02  0.86185304136E+02  0.00000000000E+00 0.  1.
</event>
<event>
 7    1  0.2612213E-009  0.1646248E+03  0.7561462E-02  0.1183572E+00
          1   -1    0    0  501    0  0.00000000000E+00  0.00000000000E+00  0.12500818095E+04  0.12500818095E+04  0.00000000000E+00 0. -1.
         -1   -1    0    0    0  501 -0.00000000000E+00 -0.00000000000E+00 -0.34407273329E+02  0.34407273329E+02  0.00000000000E+00 0.  1.
         25    2    1    2    0    0 -0.13171279709E+03  0.10860739534E+02  0.98857227404E+03  0.10051813336E+04  0.12509258904E+03 0.  0.
          5    1    3    3  502    0 -0.14130705332E+03  0.40911696439E+02  0.73237423466E+03  0.74701468675E+03  0.41800000000E+01 0.  1.
         -5    1    3    3    0  502  0.95942562329E+01 -0.30050956905E+02  0.25619803938E+03  0.25816664685E+03  0.41800000000E+01 0.  1.
        -11    1    1    2    0    0  0.45646964620E+02 -0.38656265003E+02  0.14619028425E+03  0.15795427001E+03  0.00000000000E+00 0. -1.
         11    1    1    2    0    0  0.86065832471E+02  0.27795525470E+02  0.80911977868E+02  0.12135347922E+03  0.00000000000E+00 0.  1.
</event>
<event>
 7    1  0.2612213E-009  0.1631612E+03  0.7561462E-02  0.1185173E+00
          1   -1    0    0  501    0  0.00000000000E+00  0.00000000000E+00  0.17439818448E+03  0.17439818448E+03  0.00000000000E+00 0.  1.
         -1   -1    0    0    0  501 -0.00000000000E+00 -0.00000000000E+00 -0.27672135846E+03  0.27672135846E+03  0.00000000000E+00 0. -1.
         25    2    1    2    0    0  0.41546715806E+02 -0.14472039372E+03  0.67110859530E+02  0.20693264166E+03  0.12508848373E+03 0.  0.
          5    1    3    3  502    0  0.22618617661E+02 -0.14556536618E+03  0.93237696836E+02  0.17438927205E+03  0.41800000000E+01 0. -1.
         -5    1    3    3    0  502  0.18928098144E+02  0.84497245213E+00 -0.26126837306E+02  0.32543369607E+02  0.41800000000E+01 0. -1.
        -11    1    1    2    0    0  0.51536286563E+01  0.77650748008E+02 -0.31698585924E+02  0.84029750114E+02  0.00000000000E+00 0.  1.
         11    1    1    2    0    0 -0.46700344462E+02  0.67069645716E+02 -0.13773544759E+03  0.16015715117E+03  0.00000000000E+00 0. -1.
</event>
<event>
 7    1  0.2612213E-009  0.1052542E+03  0.7561462E-02  0.1269620E+00
         -4   -1    0    0    0  501 -0.00000000000E+00  0.00000000000E+00  0.18890563207E+02  0.18890563207E+02  0.00000000000E+00 0.  1.
          4   -1    0    0  501    0  0.00000000000E+00 -0.00000000000E+00 -0.67100456337E+03  0.67100456337E+03  0.00000000000E+00 0. -1.
         25    2    1    2    0    0  0.20786344600E+02  0.81815803953E+01 -0.33954902286E+03  0.36254527875E+03  0.12508608973E+03 0.  0.
          5    1    3    3  502    0 -0.39981669591E+02 -0.31878914257E+02 -0.10391017087E+03  0.11588612983E+03  0.41800000000E+01 0.  1.
         -5    1    3    3    0  502  0.60768014190E+02  0.40060494652E+02 -0.23563885199E+03  0.24665914892E+03  0.41800000000E+01 0.  1.
        -11    1    1    2    0    0 -0.52406787539E+02  0.36570519872E+01 -0.10894862626E+03  0.12095308418E+03  0.00000000000E+00 0. -1.
         11    1    1    2    0    0  0.31620442939E+02 -0.11838632382E+02 -0.20361635104E+03  0.20639676364E+03  0.00000000000E+00 0.  1.
</event>
<event>
 7    1  0.2612213E-009  0.1194989E+03  0.7561462E-02  0.1243926E+00
         -1   -1    0    0    0  501 -0.00000000000E+00  0.00000000000E+00  0.86840501202E+02  0.86840501202E+02  0.00000000000E+00 0. -1.
          1   -1    0    0  501    0  0.00000000000E+00 -0.00000000000E+00 -0.28903912555E+03  0.28903912555E+03  0.00000000000E+00 0.  1.
         25    2    1    2    0    0  0.32290383316E+01 -0.74472833216E+02 -0.20878623290E+03  0.25454546782E+03  0.12508027248E+03 0.  0.
          5    1    3    3  502    0 -0.23738388761E+02 -0.85532436471E+02 -0.71272831334E+02  0.11391487030E+03  0.41800000000E+01 0. -1.
         -5    1    3    3    0  502  0.26967427093E+02  0.11059603255E+02 -0.13751340156E+03  0.14063059752E+03  0.41800000000E+01 0. -1.
        -11    1    1    2    0    0 -0.40849407673E+02  0.43096764628E+01 -0.27923678985E+01  0.41170921011E+02  0.00000000000E+00 0. -1.
         11    1    1    2    0    0  0.37620369341E+02  0.70163156754E+02  0.93799764528E+01  0.80163237916E+02  0.00000000000E+00 0.  1.
</event>
<event>
 7    1  0.2612213E-009  0.6933651E+02  0.7561462E-02  0.1362364E+00
         -4   -1    0    0    0  501 -0.00000000000E+00  0.00000000000E+00  0.65037734421E+02  0.65037734421E+02  0.00000000000E+00 0.  1.
          4   -1    0    0  501    0  0.00000000000E+00 -0.00000000000E+00 -0.19711698165E+03  0.19711698165E+03  0.00000000000E+00 0. -1.
         25    2    1    2    0    0  0.32259815864E+02  0.84457104150E+01 -0.77735594318E+02  0.15100463780E+03  0.12509017655E+03 0.  0.
          5    1    3    3  502    0  0.27290516442E+02 -0.29850983618E+02  0.20378004050E+02  0.45481743147E+02  0.41800000000E+01 0.  1.
         -5    1    3    3    0  502  0.49692994215E+01  0.38296694033E+02 -0.98113598368E+02  0.10552289465E+03  0.41800000000E+01 0.  1.
        -11    1    1    2    0    0 -0.10214989720E+02  0.20429040029E+02  0.18734070394E+02  0.29540769879E+02  0.00000000000E+00 0.  1.
         11    1    1    2    0    0 -0.22044826144E+02 -0.28874750444E+02 -0.73077723302E+02  0.81609308390E+02  0.00000000000E+00 0. -1.
</event>
<event>
 7    1  0.2612213E-009  0.1233851E+03  0.7561462E-02  0.1237615E+00
          1   -1    0    0  501    0  0.00000000000E+00  0.00000000000E+00  0.33200428899E+02  0.33200428899E+02  0.00000000000E+00 0. -1.
         -1   -1    0    0    0  501 -0.00000000000E+00 -0.00000000000E+00 -0.62276038678E+03  0.62276038678E+03  0.00000000000E+00 0.  1.
         25    2    1    2    0    0 -0.80146760150E+02 -0.14321774236E+02 -0.42954395827E+03  0.45473489646E+03  0.12508875887E+03 0.  0.
          5    1    3    3  502    0 -0.84216991496E+02  0.35717072550E+02 -0.33866056275E+03  0.35082283291E+03  0.41800000000E+01 0.  1.
         -5    1    3    3    0  502  0.40702313456E+01 -0.50038846786E+02 -0.90883395515E+02  0.10391206355E+03  0.41800000000E+01 0.  1.
        -11    1    1    2    0    0  0.61645942564E+02 -0.20851439024E+02 -0.14465352752E+03  0.15861793016E+03  0.00000000000E+00 0.  1.
         11    1    1    2    0    0  0.18500817587E+02  0.35173213260E+02 -0.15362472085E+02  0.42607989051E+02  0.00000000000E+00 0. -1.
</event>
<event>
 7    1  0.2612213E-009  0.1845097E+03  0.7561462E-02  0.1163509E+00
          4   -1    0    0  501    0  0.00000000000E+00  0.00000000000E+00  0.11934227765E+04  0.11934227765E+04  0.00000000000E+00 0.  1.
         -4   -1    0    0    0  501 -0.00000000000E+00 -0.00000000000E+00 -0.32271654364E+02  0.32271654364E+02  0.00000000000E+00 0. -1.
         25    2    1    2    0    0 -0.70901940685E+02  0.14645674243E+03  0.59454962145E+03  0.62897801750E+03  0.12508969392E+03 0.  0.
          5    1    3    3  502    0 -0.13029564715E+02 -0.22613210432E+02  0.71574908910E+02  0.76299192841E+02  0.41800000000E+01 0. -1.
         -5    1    3    3    0  502 -0.57872375970E+02  0.16906995286E+03  0.52297471254E+03  0.55267882466E+03  0.41800000000E+01 0. -1.
        -11    1    1    2    0    0  0.40587344482E+02 -0.61971450238E+02  0.11877564493E+03  0.13998373836E+03  0.00000000000E+00 0. -1.
         11    1    1    2    0    0  0.30314596203E+02 -0.84485292190E+02  0.44782585575E+03  0.45673267500E+03  0.00000000000E+00 0.  1.
</event>
<event>
 7    1  0.2612213E-009  0.1381672E+03  0.7561462E-02  0.1215817E+00
          1   -1    0    0  501    0  0.00000000000E+00  0.00000000000E+00  0.63694341170E+03  0.63694341170E+03  0.00000000000E+00 0. -1.
         -1   -1    0    0    0  501 -0.00000000000E+00 -0.00000000000E+00 -0.33651081668E+02  0.33651081668E+02  0.00000000000E+00 0.  1.
         25    2    1    2    0    0  0.87439085749E+02 -0.38467356065E+02  0.39242096562E+03  0.42280752760E+03  0.12508660974E+03 0.  0.
          5    1    3    3  502    0  0.11381335523E+03 -0.16551552652E+02  0.34799137813E+03  0.36652817815E+03  0.41800000000E+01 0. -1.
         -5    1    3    3    0  502 -0.26374269481E+02 -0.21915803413E+02  0.44429587488E+02  0.56279349447E+02  0.41800000000E+01 0. -1.
        -11    1    1    2    0    0  0.73178959372E+01  0.30775926632E+02  0.30751566231E+02  0.44117661845E+02  0.00000000000E+00 0.  1.
         11    1    1    2    0    0 -0.94756981686E+02  0.76914294325E+01  0.18011979818E+03  0.20366930393E+03  0.00000000000E+00 0. -1.
</event>
<event>
 7    1  0.2612213E-009  0.1156008E+03  0.7561462E-02  0.1250536E+00
          2   -1    0    0  501    0  0.00000000000E+00  0.00000000000E+00  0.10458176600E+04  0.10458176600E+04  0.00000000000E+00 0.  1.
         -2   -1    0    0    0  501 -0.00000000000E+00 -0.00000000000E+00 -0.15649399362E+02  0.15649399362E+02  0.00000000000E+00 0. -1.
         25    2    1    2    0    0 -0.60415186700E+02 -0.84203617362E+01  0.67573790302E+03  0.68992029907E+03  0.12508960074E+03 0.  0.
          5    1    3    3  502    0 -0.14479967367E+02  0.46020413848E+02  0.11671781347E+03  0.12636482235E+03  0.41800000000E+01 0. -1.
         -5    1    3    3    0  502 -0.45935219332E+02 -0.54440775584E+02  0.55902008955E+03  0.56355547672E+03  0.41800000000E+01 0. -1.
        -11    1    1    2    0    0  0.41234619968E+02  0.50489146877E+02  0.20186689105E+03  0.21213130259E+03  0.00000000000E+00 0.  1.
         11    1    1    2    0    0  0.19180566731E+02 -0.42068785141E+02  0.15256346652E+03  0.15941545766E+03  0.00000000000E+00 0. -1.
</event>
<event>
 7    1  0.2612213E-009  0.1043185E+03  0.7561462E-02  0.1271468E+00
         -1   -1    0    0    0  501 -0.00000000000E+00  0.00000000000E+00  0.73269126664E+02  0.73269126664E+02  0.00000000000E+00 0.  1.
          1   -1    0    0  501    0  0.00000000000E+00 -0.00000000000E+00 -0.23758092077E+03  0.23758092077E+03  0.00000000000E+00 0. -1.
         25    2    1    2    0    0  0.67560782495E+02 -0.15556143981E+02 -0.60461047204E+02  0.15527136709E+03  0.12508879351E+03 0.  0.
          5    1    3    3  502    0  0.49592139751E+02 -0.61205863619E+02 -0.20982849778E+01  0.78913961162E+02  0.41800000000E+01 0. -1.
         -5    1    3    3    0  502  0.17968642744E+02  0.45649719639E+02 -0.58362762226E+02  0.76357405927E+02  0.41800000000E+01 0. -1.
        -11    1    1    2    0    0 -0.14294164267E+02  0.22644076166E+02  0.10866799483E+02  0.28899215361E+02  0.00000000000E+00 0.  1.
         11    1    1    2    0    0 -0.53266618228E+02 -0.70879321851E+01 -0.11471754638E+03  0.12667946498E+03  0.00000000000E+00 0. -1.
</event>
<event>
 7    1  0.2612213E-009  0.7413275E+02  0.7561462E-02  0.1346578E+00
          1   -1    0    0  501    0  0.00000000000E+00  0.00000000000E+00  0.52200613823E+03  0.52200613823E+03  0.00000000000E+00 0. -1.
         -1   -1    0    0    0  501 -0.00000000000E+00 -0.00000000000E+00 -0.33038942537E+02  0.33038942537E+02  0.00000000000E+00 0.  1.
         25    2    1    2    0    0 -0.49596722553E+02 -0.37149769601E+02  0.34943086919E+03  0.37628766143E+03  0.12510208444E+03 0.  0.
          5    1    3    3  502    0  0.30696226734E+01  0.11037517797E+02  0.26652669267E+03  0.26680554658E+03  0.41800000000E+01 0.  1.
         -5    1    3    3    0  502 -0.52666345226E+02 -0.48187287399E+02  0.82904176521E+02  0.10948211484E+03  0.41800000000E+01 0.  1.
        -11    1    1    2    0    0  0.35073843709E+02  0.15158042661E+02  0.14657990777E+03  0.15147808466E+03  0.00000000000E+00 0. -1.
         11    1    1    2    0    0  0.14522878843E+02  0.21991726940E+02 -0.70435812641E+01  0.27279334683E+02  0.00000000000E+00 0.  1.
</event>
<event>
 7    1  0.3203876E-009  0.1245300E+03  0.7561462E-02  0.1235806E+00
          2   -1    0    0  501    0  0.00000000000E+00  0.00000000000E+00  0.10100278191E+04  0.10100278191E+04  0.00000000000E+00 0. -1.
         -2   -1    0    0    0  501 -0.00000000000E+00 -0.00000000000E+00 -0.17586719789E+02  0.17586719789E+02  0.00000000000E+00 0.  1.
         25    2    1    2    0    0 -0.39273630537E+02  0.59549549333E+02  0.66063020712E+03  0.67614184872E+03  0.12508781771E+03 0.  0.
          5    1    3    3  502    0  0.45246751710E+02  0.28387566844E+02  0.22756836921E+03  0.23379041374E+03  0.41800000000E+01 0.  1.
         -5    1    3    3    0  502 -0.84520382247E+02  0.31161982489E+02  0.43306183792E+03  0.44235143498E+03  0.41800000000E+01 0.  1.
        -11    1    1    2    0    0 -0.15099430263E+02  0.91766002570E+01  0.16376602391E+02  0.24091407024E+02  0.00000000000E+00 0.  1.
         11    1    1    2    0    0  0.54373060800E+02 -0.68726149590E+02  0.31543428983E+03  0.32738128318E+03  0.00000000000E+00 0. -1.
</event>
<event>
 7    1  0.2612213E-009  0.1836908E+03  0.7561462E-02  0.1164278E+00
         -1   -1    0    0    0  501 -0.00000000000E+00  0.00000000000E+00  0.11432136259E+03  0.11432136259E+03  0.00000000000E+00 0.  1.
          1   -1    0    0  501    0  0.00000000000E+00 -0.00000000000E+00 -0.36873913124E+03  0.36873913124E+03  0.00000000000E+00 0. -1.
         25    2    1    2    0    0  0.18907669551E+02 -0.16911147421E+03 -0.95509017142E+02  0.23178818613E+03  0.12509036812E+03 0.  0.
          5    1    3    3  502    0 -0.16019173861E+02 -0.18543656950E+02  0.25373603436E+02  0.35521448387E+02  0.41800000000E+01 0.  1.
         -5    1    3    3    0  502  0.34926843412E+02 -0.15056781726E+03 -0.12088262058E+03  0.19626673774E+03  0.41800000000E+01 0.  1.
        -11    1    1    2    0    0  0.14444654490E+02 -0.10678185398E+01  0.20994478631E+01  0.14635435118E+02  0.00000000000E+00 0.  1.
         11    1    1    2    0    0 -0.33352324041E+02  0.17017929275E+03 -0.16100819937E+03  0.23663687258E+03  0.00000000000E+00 0. -1.
</event>
<event>
 7    1  0.4305798E-009  0.1334476E+03  0.7561462E-02  0.1222428E+00
          1   -1    0    0  501    0  0.00000000000E+00  0.00000000000E+00  0.14051657115E+03  0.14051657115E+03  0.00000000000E+00 0. -1.
         -1   -1    0    0    0  501 -0.00000000000E+00 -0.00000000000E+00 -0.22107979921E+03  0.22107979921E+03  0.00000000000E+00 0.  1.
         25    2    1    2    0    0 -0.13083301741E+03 -0.75829379763E+00  0.34614037732E+01  0.18104452640E+03  0.12508911132E+03 0.  0.
          5    1    3    3  502    0 -0.60652465981E+02  0.62843353190E+01  0.63637742185E+02  0.88235192131E+02  0.41800000000E+01 0.  1.
         -5    1    3    3    0  502 -0.70180551426E+02 -0.70426291166E+01 -0.60176338412E+02  0.92809334272E+02  0.41800000000E+01 0.  1.
        -11    1    1    2    0    0  0.74706872948E+02 -0.16285427063E+02  0.19352966436E+01  0.76485798508E+02  0.00000000000E+00 0. -1.
         11    1    1    2    0    0  0.56126144459E+02  0.17043720861E+02 -0.85959928473E+02  0.10406604545E+03  0.00000000000E+00 0.  1.
</event>
<event>
 7    1  0.2612213E-009  0.1481145E+03  0.7561462E-02  0.1202809E+00
          1   -1    0    0  501    0  0.00000000000E+00  0.00000000000E+00  0.48562555313E+03  0.48562555313E+03  0.00000000000E+00 0. -1.
         -1   -1    0    0    0  501 -0.00000000000E+00 -0.00000000000E+00 -0.62497618441E+02  0.62497618441E+02  0.00000000000E+00 0.  1.
         25    2    1    2    0    0  0.10550244578E+03 -0.74939830413E+02  0.15822412099E+03  0.23964303500E+03  0.12508863863E+03 0.  0.
          5    1    3    3  502    0  0.27843454911E+02 -0.49198584565E+02  0.14625082936E+03  0.15685195630E+03  0.41800000000E+01 0. -1.
         -5    1    3    3    0  502  0.77658990868E+02 -0.25741245848E+02  0.11973291625E+02  0.82791078703E+02  0.41800000000E+01 0. -1.
        -11    1    1    2    0    0 -0.17159408516E+02  0.66728154454E+02  0.12738024238E+03  0.14481995044E+03  0.00000000000E+00 0. -1.
         11    1    1    2    0    0 -0.88343037263E+02  0.82116759596E+01  0.13752357132E+03  0.16366018613E+03  0.00000000000E+00 0.  1.
</event>
<event>
 7    1  0.2612213E-009  0.1061263E+03  0.7561462E-02  0.1267916E+00
         -1   -1    0    0    0  501 -0.00000000000E+00  0.00000000000E+00  0.44028372334E+03  0.44028372334E+03  0.00000000000E+00 0.  1.
          1   -1    0    0  501    0  0.00000000000E+00 -0.00000000000E+00 -0.16265717972E+03  0.16265717972E+03  0.00000000000E+00 0. -1.
         25    2    1    2    0    0 -0.54055741106E+02 -0.15381782296E+02  0.41052531823E+03  0.43282431919E+03  0.12508889642E+03 0.  0.
          5    1    3    3  502    0 -0.12910404159E+02 -0.62030124335E+02  0.12084325038E+03  0.13650999386E+03  0.41800000000E+01 0. -1.
         -5    1    3    3    0  502 -0.41145336947E+02  0.46648342039E+02  0.28968206784E+03  0.29631432533E+03  0.41800000000E+01 0. -1.
        -11    1    1    2    0    0 -0.36237353945E+01  0.27280337236E+02 -0.97708457460E+02  0.10151005328E+03  0.00000000000E+00 0. -1.
         11    1    1    2    0    0  0.57679476500E+02 -0.11898554939E+02 -0.35190317137E+02  0.68606530587E+02  0.00000000000E+00 0.  1.
</event>
<event>
 7    1  0.2612213E-009  0.1377283E+03  0.7561462E-02  0.1216419E+00
          3   -1    0    0  501    0  0.00000000000E+00  0.00000000000E+00  0.11247341559E+03  0.11247341559E+03  0.00000000000E+00 0. -1.
         -3   -1    0    0    0  501 -0.00000000000E+00 -0.00000000000E+00 -0.34384144470E+03  0.34384144470E+03  0.00000000000E+00 0.  1.
         25    2    1    2    0    0 -0.83703625373E+02 -0.42078733415E+02  0.34281908002E+02  0.15998224575E+03  0.12506859331E+03 0.  0.
          5    1    3    3  502    0  0.61878240893E+01 -0.54400763131E+02 -0.14623195592E+02  0.56824664060E+02  0.41800000000E+01 0.  1.
         -5    1    3    3    0  502 -0.89891449462E+02  0.12322029716E+02  0.48905103594E+02  0.10315758169E+03  0.41800000000E+01 0.  1.
        -11    1    1    2    0    0  0.39185120149E+02  0.67795303887E+02 -0.18223637752E+03  0.19834760941E+03  0.00000000000E+00 0.  1.
         11    1    1    2    0    0  0.44518505224E+02 -0.25716570472E+02 -0.83413559601E+02  0.97985005126E+02  0.00000000000E+00 0. -1.
</event>
<event>
 7    1  0.2612213E-009  0.1228422E+03  0.7561462E-02  0.1238481E+00
         -2   -1    0    0    0  501 -0.00000000000E+00  0.00000000000E+00  0.11449843549E+04  0.11449843549E+04  0.00000000000E+00 0.  1.
          2   -1    0    0  501    0  0.00000000000E+00 -0.00000000000E+00 -0.14784818915E+02  0.14784818915E+02  0.00000000000E+00 0. -1.
         25    2    1    2    0    0 -0.50618702378E+02 -0.44255654964E+02  0.79535361239E+03  0.80793303805E+03  0.12509040412E+03 0.  0.
          5    1    3    3  502    0 -0.86180186324E+02 -0.53915392236E+02  0.65043865572E+03  0.65834778901E+03  0.41800000000E+01 0.  1.
         -5    1    3    3    0  502  0.35561483946E+02  0.96597372721E+01  0.14491495667E+03  0.14958524904E+03  0.41800000000E+01 0.  1.
        -11    1    1    2    0    0  0.15224802886E+02  0.64370085981E+02  0.23138479262E+03  0.24065374472E+03  0.00000000000E+00 0.  1.
         11    1    1    2    0    0  0.35393899492E+02 -0.20114431016E+02  0.10346113101E+03  0.11118239108E+03  0.00000000000E+00 0. -1.
</event>
<event>
 6    1  0.2612213E-009  0.1968007E+03  0.7561462E-02  0.1152467E+00
         -2   -1    0    0    0  501 -0.00000000000E+00  0.00000000000E+00  0.27860913228E+03  0.27860913228E+03  0.00000000000E+00 0.  1.
          2   -1    0    0  501    0  0.00000000000E+00 -0.00000000000E+00 -0.17546574179E+03  0.17546574179E+03  0.00000000000E+00 0. -1.
          5    1    1    2  502    0 -0.18539607456E+02  0.41739575553E+02 -0.18047333936E+02  0.49285777605E+02  0.41800000000E+01 0. -1.
         -5    1    1    2    0  502  0.14922744997E+03  0.61761341155E+02 -0.26127230961E+02  0.16365634630E+03  0.41800000000E+01 0. -1.
        -11    1    1    2    0    0 -0.74118387511E+02 -0.71644994062E+01  0.85765497877E+02  0.11358074681E+03  0.00000000000E+00 0.  1.
         11    1    1    2    0    0 -0.56569455004E+02 -0.96336417302E+02  0.61552457511E+02  0.12755200337E+03  0.00000000000E+00 0. -1.
</event>
<event>
 7    1  0.2612213E-009  0.4334778E+03  0.7561462E-02  0.1032767E+00
         -2   -1    0    0    0  501 -0.00000000000E+00  0.00000000000E+00  0.12433383494E+03  0.12433383494E+03  0.00000000000E+00 0.  1.
          2   -1    0    0  501    0  0.00000000000E+00 -0.00000000000E+00 -0.15998258936E+04  0.15998258936E+04  0.00000000000E+00 0. -1.
         25    2    1    2    0    0  0.24954701295E+03 -0.35160054954E+03 -0.68208792439E+03  0.81657087733E+03  0.12508957984E+03 0.  0.
          5    1    3    3  502    0  0.22274909796E+03 -0.27980685050E+03 -0.62789667470E+03  0.72262074474E+03  0.41800000000E+01 0.  1.
         -5    1    3    3    0  502  0.26797914999E+02 -0.71793699042E+02 -0.54191249695E+02  0.93950132591E+02  0.41800000000E+01 0.  1.
        -11    1    1    2    0    0 -0.43459098182E+02  0.86059175281E+02 -0.11193505700E+03  0.14773060567E+03  0.00000000000E+00 0. -1.
         11    1    1    2    0    0 -0.20608791477E+03  0.26554137426E+03 -0.68146907731E+03  0.75985824559E+03  0.00000000000E+00 0.  1.
</event>
<event>
 7    1  0.2612213E-009  0.1384752E+03  0.7561462E-02  0.1215395E+00
          1   -1    0    0  501    0  0.00000000000E+00  0.00000000000E+00  0.20138299719E+04  0.20138299719E+04  0.00000000000E+00 0. -1.
         -1   -1    0    0    0  501 -0.00000000000E+00 -0.00000000000E+00 -0.98706713368E+01  0.98706713368E+01  0.00000000000E+00 0.  1.
         25    2    1    2    0    0 -0.82203528958E+02 -0.31949786186E+02  0.12813131249E+04  0.12904218859E+04  0.12508841133E+03 0.  0.
          5    1    3    3  502    0 -0.11518554433E+03 -0.31902250343E+02  0.97353076082E+03  0.98084916163E+03  0.41800000000E+01 0.  1.
         -5    1    3    3    0  502  0.32982015371E+02 -0.47535842227E-01  0.30778236403E+03  0.30957272426E+03  0.41800000000E+01 0.  1.
        -11    1    1    2    0    0  0.99175811137E+02  0.15327039340E+02  0.60358987730E+03  0.61187539551E+03  0.00000000000E+00 0.  1.
         11    1    1    2    0    0 -0.16972282179E+02  0.16622746845E+02  0.11905629845E+03  0.12140336188E+03  0.00000000000E+00 0. -1.
</event>
<event>
 7    1  0.2612213E-009  0.2158752E+03  0.7561462E-02  0.1136996E+00
         -2   -1    0    0    0  501 -0.00000000000E+00  0.00000000000E+00  0.73518092900E+02  0.73518092900E+02  0.00000000000E+00 0. -1.
          2   -1    0    0  501    0  0.00000000000E+00 -0.00000000000E+00 -0.79877758883E+03  0.79877758883E+03  0.00000000000E+00 0.  1.
         25    2    1    2    0    0 -0.93478122572E+02 -0.17365406174E+03 -0.21231393984E+03  0.31562433289E+03  0.12509043891E+03 0.  0.
          5    1    3    3  502    0 -0.94704631083E+01  0.13244623562E+02  0.43674114971E+01  0.17368258634E+02  0.41800000000E+01 0. -1.
         -5    1    3    3    0  502 -0.84007659463E+02 -0.18689868530E+03 -0.21668135133E+03  0.29825607426E+03  0.41800000000E+01 0. -1.
        -11    1    1    2    0    0  0.12918334907E+02  0.10000286256E+03 -0.31341397335E+03  0.32923513572E+03  0.00000000000E+00 0.  1.
         11    1    1    2    0    0  0.80559787664E+02  0.73651199173E+02 -0.19953158274E+03  0.22743621312E+03  0.00000000000E+00 0. -1.
</event>
<event>
 7    1  0.2612213E-009  0.1005524E+03  0.7561462E-02  0.1279139E+00
         -2   -1    0    0    0  501 -0.00000000000E+00  0.00000000000E+00  0.17975502110E+03  0.17975502110E+03  0.00000000000E+00 0.  1.
          2   -1    0    0  501    0  0.00000000000E+00 -0.00000000000E+00 -0.71589848162E+02  0.71589848162E+02  0.00000000000E+00 0. -1.
         25    2    1    2    0    0 -0.10732187551E+02 -0.14232412953E+02  0.29555330644E+02  0.12975544774E+03  0.12508084274E+03 0.  0.
          5    1    3    3  502    0  0.51281099871E+02  0.92833810046E+01  0.35254320837E+02  0.63057687117E+02  0.41800000000E+01 0.  1.
         -5    1    3    3    0  502 -0.62013287422E+02 -0.23515793958E+02 -0.56989901936E+01  0.66697760619E+02  0.41800000000E+01 0.  1.
        -11    1    1    2    0    0  0.42563579788E+02  0.24264461940E+02  0.72741473881E+02  0.87702590954E+02  0.00000000000E+00 0.  1.
         11    1    1    2    0    0 -0.31831392237E+02 -0.10032048987E+02  0.58683684166E+01  0.33886830576E+02  0.00000000000E+00 0. -1.
</event>
<event>
 7    1  0.2612213E-009  0.1055902E+03  0.7561462E-02  0.1268961E+00
          2   -1    0    0  501    0  0.00000000000E+00  0.00000000000E+00  0.13282739025E+04  0.13282739025E+04  0.00000000000E+00 0. -1.
         -2   -1    0    0    0  501 -0.00000000000E+00 -0.00000000000E+00 -0.15816128361E+02  0.15816128361E+02  0.00000000000E+00 0.  1.
         25    2    1    2    0    0  0.84750826602E+02 -0.20630908253E+02  0.88902156328E+03  0.90200593533E+03  0.12508809061E+03 0.  0.
          5    1    3    3  502    0  0.18878026797E+02  0.54307614723E+01  0.69702846190E+03  0.69731773401E+03  0.41800000000E+01 0.  1.
         -5    1    3    3    0  502  0.65872799805E+02 -0.26061669725E+02  0.19199310138E+03  0.20468820132E+03  0.41800000000E+01 0.  1.
        -11    1    1    2    0    0  0.92836137498E+01  0.24314259269E+02  0.43720583128E+02  0.50880822292E+02  0.00000000000E+00 0.  1.
         11    1    1    2    0    0 -0.94034440352E+02 -0.36833510167E+01  0.37971562772E+03  0.39120327323E+03  0.00000000000E+00 0. -1.
</event>
<event>
 7    1  0.2612213E-009  0.9071163E+02  0.7561462E-02  0.1301137E+00
          1   -1    0    0  501    0  0.00000000000E+00  0.00000000000E+00  0.13354644805E+03  0.13354644805E+03  0.00000000000E+00 0. -1.
         -1   -1    0    0    0  501 -0.00000000000E+00 -0.00000000000E+00 -0.11289615544E+03  0.11289615544E+03  0.00000000000E+00 0.  1.
         25    2    1    2    0    0  0.32713457420E+02 -0.44487803656E+02  0.26402225371E+02  0.13926602852E+03  0.12509442124E+03 0.  0.
          5    1    3    3  502    0  0.68938823111E+02 -0.37189563239E+02 -0.18868291854E+02  0.80679054180E+02  0.41800000000E+01 0. -1.
         -5    1    3    3    0  502 -0.36225365690E+02 -0.72982404167E+01  0.45270517225E+02  0.58586974341E+02  0.41800000000E+01 0. -1.
        -11    1    1    2    0    0 -0.28508060165E+02  0.87676636177E+01  0.39421777380E+02  0.49433368806E+02  0.00000000000E+00 0. -1.
         11    1    1    2    0    0 -0.42053972550E+01  0.35720140038E+02 -0.45173710135E+02  0.57743206161E+02  0.00000000000E+00 0.  1.
</event>
<event>
 7    1  0.2612213E-009  0.1003756E+03  0.7561462E-02  0.1279508E+00
         -2   -1    0    0    0  501 -0.00000000000E+00  0.00000000000E+00  0.70482319021E+03  0.70482319021E+03  0.00000000000E+00 0.  1.
          2   -1    0    0  501    0  0.00000000000E+00 -0.00000000000E+00 -0.31465646463E+02  0.31465646463E+02  0.00000000000E+00 0. -1.
         25    2    1    2    0    0 -0.46039566088E+01 -0.63651986458E+02  0.55801623149E+03  0.57541490621E+03  0.12508967936E+03 0.  0.
          5    1    3    3  502    0  0.29774543160E+02 -0.86682365259E+02  0.45793982112E+03  0.46704037088E+03  0.41800000000E+01 0. -1.
         -5    1    3    3    0  502 -0.34378499769E+02  0.23030378801E+02  0.10007641037E+03  0.10837453533E+03  0.41800000000E+01 0. -1.
        -11    1    1    2    0    0  0.13401840013E+02  0.38467664957E+02  0.12579186278E+03  0.13222315721E+03  0.00000000000E+00 0.  1.
         11    1    1    2    0    0 -0.87978834043E+01  0.25184321500E+02 -0.10450550518E+02  0.28650773253E+02  0.00000000000E+00 0. -1.
</event>
<event>
 7    1  0.2612213E-009  0.7517052E+02  0.7561462E-02  0.1343344E+00
          3   -1    0    0  501    0  0.00000000000E+00  0.00000000000E+00  0.34496339487E+02  0.34496339487E+02  0.00000000000E+00 0. -1.
         -3   -1    0    0    0  501 -0.00000000000E+00 -0.00000000000E+00 -0.34722988910E+03  0.34722988910E+03  0.00000000000E+00 0.  1.
         25    2    1    2    0    0  0.56635386346E+01 -0.87336009627E+01 -0.15518294408E+03  0.19959607365E+03  0.12509394481E+03 0.  0.
          5    1    3    3  502    0  0.32219520512E+02  0.15180317803E+02 -0.15938677043E+03  0.16337121699E+03  0.41800000000E+01 0. -1.
         -5    1    3    3    0  502 -0.26555981877E+02 -0.23913918766E+02  0.42038263540E+01  0.36224856662E+02  0.41800000000E+01 0. -1.
        -11    1    1    2    0    0  0.31884145417E+02 -0.13763946960E+02 -0.25699095911E+02  0.43202876010E+02  0.00000000000E+00 0. -1.
         11    1    1    2    0    0 -0.37547684052E+02  0.22497547923E+02 -0.13185150962E+03  0.13892727893E+03  0.00000000000E+00 0.  1.
</event>
<event>
 7    1  0.2612213E-009  0.1095750E+03  0.7561462E-02  0.1261359E+00
         -2   -1    0    0    0  501 -0.00000000000E+00  0.00000000000E+00  0.63730258877E+03  0.63730258877E+03  0.00000000000E+00 0.  1.
          2   -1    0    0  501    0  0.00000000000E+00 -0.00000000000E+00 -0.34440348359E+02  0.34440348359E+02  0.00000000000E+00 0. -1.
         25    2    1    2    0    0 -0.94807134524E+02  0.79771483044E+01  0.44005655513E+03  0.46727754198E+03  0.12508597791E+03 0.  0.
          5    1    3    3  502    0 -0.34997617985E+02 -0.34576162103E+02  0.33748638695E+03  0.34107899089E+03  0.41800000000E+01 0. -1.
         -5    1    3    3    0  502 -0.59809516540E+02  0.42553310407E+02  0.10257016819E+03  0.12619855109E+03  0.41800000000E+01 0. -1.
        -11    1    1    2    0    0  0.75497838447E+02 -0.12229825511E+02  0.53380549265E+02  0.93268297304E+02  0.00000000000E+00 0. -1.
         11    1    1    2    0    0  0.19309296077E+02  0.42526772070E+01  0.10942513602E+03  0.11119709785E+03  0.00000000000E+00 0.  1.
</event>
<event>
 7    1  0.2612213E-009  0.1655402E+03  0.7561462E-02  0.1182580E+00
          3   -1    0    0  501    0  0.00000000000E+00  0.00000000000E+00  0.26340890149E+02  0.26340890149E+02  0.00000000000E+00 0. -1.
         -3   -1    0    0    0  501 -0.00000000000E+00 -0.00000000000E+00 -0.13033751700E+04  0.13033751700E+04  0.00000000000E+00 0.  1.
         25    2    1    2    0    0  0.14661503631E+03  0.50463799685E+01 -0.74995939072E+03  0.77434208650E+03  0.12508055156E+03 0.  0.
          5    1    3    3  502    0  0.86626408027E+02  0.36772881628E+02 -0.62521881838E+03  0.63227559074E+03  0.41800000000E+01 0.  1.
         -5    1    3    3    0  502  0.59988628280E+02 -0.31726501660E+02 -0.12474057234E+03  0.14206649576E+03  0.41800000000E+01 0.  1.
        -11    1    1    2    0    0 -0.74895700581E+02 -0.44414817944E+02 -0.34400810427E+03  0.35485717947E+03  0.00000000000E+00 0. -1.
         11    1    1    2    0    0 -0.71719335726E+02  0.39368437976E+02 -0.18306678484E+03  0.20051679415E+03  0.00000000000E+00 0.  1.
</event>
<event>
 7    1  0.2612213E-009  0.1030927E+03  0.7561462E-02  0.1273924E+00
         -2   -1    0    0    0  501 -0.00000000000E+00  0.00000000000E+00  0.29622797021E+03  0.29622797021E+03  0.00000000000E+00 0.  1.
          2   -1    0    0  501    0  0.00000000000E+00 -0.00000000000E+00 -0.50700429121E+02  0.50700429121E+02  0.00000000000E+00 0. -1.
         25    2    1    2    0    0 -0.16059659869E+02 -0.41546607370E+02  0.18912801869E+03  0.23108489245E+03  0.12508711687E+03 0.  0.
          5    1    3    3  502    0 -0.19456915330E+02  0.32528174443E+02  0.13196340441E+03  0.13736253561E+03  0.41800000000E+01 0.  1.
         -5    1    3    3    0  502  0.33972554603E+01 -0.74074781813E+02  0.57164614283E+02  0.93722356839E+02  0.41800000000E+01 0.  1.
        -11    1    1    2    0    0  0.74998118675E+01 -0.25300676230E+02 -0.22757773130E+01  0.26486799695E+02  0.00000000000E+00 0.  1.
         11    1    1    2    0    0  0.85598480019E+01  0.66847283599E+02  0.58675299705E+02  0.89356707179E+02  0.00000000000E+00 0. -1.
</event>
<event>
 7    1  0.2612213E-009  0.1221814E+03  0.7561462E-02  0.1239541E+00
          2   -1    0    0  501    0  0.00000000000E+00  0.00000000000E+00  0.60868443975E+03  0.60868443975E+03  0.00000000000E+00 0. -1.
         -2   -1    0    0    0  501 -0.00000000000E+00 -0.00000000000E+00 -0.25858272727E+02  0.25858272727E+02  0.00000000000E+00 0.  1.
         25    2    1    2    0    0 -0.21309298560E+02  0.57106513883E+02  0.28753586209E+03  0.31943648330E+03  0.12509018643E+03 0.  0.
          5    1    3    3  502    0  0.48590935914E+02  0.37964184969E+02  0.17425584823E+03  0.18489167487E+03  0.41800000000E+01 0. -1.
         -5    1    3    3    0  502 -0.69900234474E+02  0.19142328914E+02  0.11328001386E+03  0.13454480843E+03  0.41800000000E+01 0. -1.
        -11    1    1    2    0    0  0.37408202103E+02 -0.76261270393E+02  0.23034406588E+03  0.24550670792E+03  0.00000000000E+00 0.  1.
         11    1    1    2    0    0 -0.16098903543E+02  0.19154756510E+02  0.64946239055E+02  0.69599521260E+02  0.00000000000E+00 0. -1.
</event>
<event>
 7    1  0.2612213E-009  0.1237323E+03  0.7561462E-02  0.1237064E+00
          1   -1    0    0  501    0  0.00000000000E+00  0.00000000000E+00  0.14153903681E+03  0.14153903681E+03  0.00000000000E+00 0. -1.
         -1   -1    0    0    0  501 -0.00000000000E+00 -0.00000000000E+00 -0.12108391889E+03  0.12108391889E+03  0.00000000000E+00 0.  1.
         25    2    1    2    0    0 -0.60465634515E+02  0.17899440918E+02  0.43524616903E+02  0.14669303783E+03  0.12509185476E+03 0.  0.
          5    1    3    3  502    0  0.29107409813E+02 -0.21056972523E+02  0.31921266810E+02  0.48239787237E+02  0.41800000000E+01 0.  1.
         -5    1    3    3    0  502 -0.89573044327E+02  0.38956413441E+02  0.11603350092E+02  0.98453250589E+02  0.41800000000E+01 0.  1.
        -11    1    1    2    0    0  0.63382147395E+02  0.26742344502E+02 -0.11828390731E+02  0.69802295272E+02  0.00000000000E+00 0. -1.
         11    1    1    2    0    0 -0.29165128808E+01 -0.44641785419E+02 -0.11241108250E+02  0.46127622608E+02  0.00000000000E+00 0.  1.
</event>
<event>
 7    1  0.2612213E-009  0.7118005E+02  0.7561462E-02  0.1356126E+00
          1   -1    0    0  501    0  0.00000000000E+00  0.00000000000E+00  0.49296881361E+02  0.49296881361E+02  0.00000000000E+00 0. -1.
         -1   -1    0    0    0  501 -0.00000000000E+00 -0.00000000000E+00 -0.24978483112E+03  0.24978483112E+03  0.00000000000E+00 0.  1.
         25    2    1    2    0    0 -0.76712168572E+01 -0.46330578956E+01 -0.83769607420E+02  0.15081905632E+03  0.12509487531E+03 0.  0.
          5    1    3    3  502    0 -0.30980955638E+02 -0.13400839761E+02 -0.10956361969E+03  0.11472166874E+03  0.41800000000E+01 0.  1.
         -5    1    3    3    0  502  0.23309738781E+02  0.87677818652E+01  0.25794012275E+02  0.36097387580E+02  0.41800000000E+01 0.  1.
        -11    1    1    2    0    0  0.36105046449E+02 -0.23512839371E+02 -0.91044696408E+02  0.10072519416E+03  0.00000000000E+00 0.  1.
         11    1    1    2    0    0 -0.28433829591E+02  0.28145897267E+02 -0.25673645935E+02  0.47537462004E+02  0.00000000000E+00 0. -1.
</event>
<event>
 7    1  0.2612213E-009  0.8819220E+02  0.7561462E-02  0.1307290E+00
         -1   -1    0    0    0  501 -0.00000000000E+00  0.00000000000E+00  0.29953195448E+02  0.29953195448E+02  0.00000000000E+00 0.  1.
          1   -1    0    0  501    0  0.00000000000E+00 -0.00000000000E+00 -0.46379951881E+03  0.46379951881E+03  0.00000000000E+00 0. -1.
         25    2    1    2    0    0 -0.66595502366E+01 -0.39643625042E+02 -0.27817543175E+03  0.30764284493E+03  0.12508630058E+03 0.  0.
          5    1    3    3  502    0  0.27839387627E+02 -0.14053649170E+02 -0.25816050345E+03  0.26007086438E+03  0.41800000000E+01 0.  1.
         -5    1    3    3    0  502 -0.34498937864E+02 -0.25589975873E+02 -0.20014928302E+02  0.47571980554E+02  0.41800000000E+01 0.  1.
        -11    1    1    2    0    0  0.26217625128E+02 -0.23778131988E+02 -0.60254642739E+02  0.69881223514E+02  0.00000000000E+00 0.  1.
         11    1    1    2    0    0 -0.19558074891E+02  0.63421757031E+02 -0.95416248876E+02  0.11622864581E+03  0.00000000000E+00 0. -1.
</event>
<event>
 7    1  0.2612213E-009  0.1132711E+03  0.7561462E-02  0.1254629E+00
         -2   -1    0    0    0  501 -0.00000000000E+00  0.00000000000E+00  0.25943009680E+02  0.25943009680E+02  0.00000000000E+00 0.  1.
          2   -1    0    0  501    0  0.00000000000E+00 -0.00000000000E+00 -0.57914288630E+03  0.57914288630E+03  0.00000000000E+00 0. -1.
         25    2    1    2    0    0 -0.50286317148E+02  0.15752273625E+02 -0.25489321345E+03  0.28878299605E+03  0.12509284842E+03 0.  0.
          5    1    3    3  502    0 -0.18338394131E+02  0.64218382731E+02 -0.79107452125E+02  0.10361350666E+03  0.41800000000E+01 0.  1.
         -5    1    3    3    0  502 -0.31947923017E+02 -0.48466109106E+02 -0.17578576132E+03  0.18516948939E+03  0.41800000000E+01 0.  1.
        -11    1    1    2    0    0  0.28102784254E+02  0.35677902672E+02 -0.93062215031E+02  0.10355315103E+03  0.00000000000E+00 0.  1.
         11    1    1    2    0    0  0.22183532894E+02 -0.51430176296E+02 -0.20524444814E+03  0.21274974890E+03  0.00000000000E+00 0. -1.
</event>
<event>
 7    1  0.2612213E-009  0.1428245E+03  0.7561462E-02  0.1209578E+00
         -2   -1    0    0    0  501 -0.00000000000E+00  0.00000000000E+00  0.65856075118E+02  0.65856075118E+02  0.00000000000E+00 0.  1.
          2   -1    0    0  501    0  0.00000000000E+00 -0.00000000000E+00 -0.38578619571E+03  0.38578619571E+03  0.00000000000E+00 0. -1.
         25    2    1    2    0    0  0.57024579950E+02 -0.94766690010E+02 -0.22224119021E+03  0.27797731946E+03  0.12509082802E+03 0.  0.
          5    1    3    3  502    0 -0.25294547240E+02  0.14972325340E+02 -0.41828424183E+02  0.51293996879E+02  0.41800000000E+01 0.  1.
         -5    1    3    3    0  502  0.82319127190E+02 -0.10973901535E+03 -0.18041276603E+03  0.22668332258E+03  0.41800000000E+01 0.  1.
        -11    1    1    2    0    0 -0.35094746200E+02  0.89535929421E+02 -0.11148643135E+03  0.14723297267E+03  0.00000000000E+00 0. -1.
         11    1    1    2    0    0 -0.21929833750E+02  0.52307605893E+01  0.13797500966E+02  0.26431978691E+02  0.00000000000E+00 0.  1.
</event>
<event>
 7    1  0.2612213E-009  0.9791486E+02  0.7561462E-02  0.1284743E+00
         -2   -1    0    0    0  501 -0.00000000000E+00  0.00000000000E+00  0.37915597905E+02  0.37915597905E+02  0.00000000000E+00 0.  1.
          2   -1    0    0  501    0  0.00000000000E+00 -0.00000000000E+00 -0.37270634938E+03  0.37270634938E+03  0.00000000000E+00 0. -1.
         25    2    1    2    0    0 -0.16338012583E+02  0.28498540562E+02 -0.12336177228E+03  0.17870767464E+03  0.12505682166E+03 0.  0.
          5    1    3    3  502    0  0.22371650974E+02 -0.28725355099E+02 -0.98612745198E+02  0.10520257938E+03  0.41800000000E+01 0.  1.
         -5    1    3    3    0  502 -0.38709663557E+02  0.57223895661E+02 -0.24749027084E+02  0.73505095258E+02  0.41800000000E+01 0.  1.
        -11    1    1    2    0    0  0.33210096408E+02 -0.51598650707E+02 -0.10410631362E+03  0.12084475907E+03  0.00000000000E+00 0.  1.
         11    1    1    2    0    0 -0.16872083826E+02  0.23100110145E+02 -0.10732266558E+03  0.11106951358E+03  0.00000000000E+00 0. -1.
</event>
<event>
 7    1  0.2612213E-009  0.1190003E+03  0.7561462E-02  0.1244755E+00
         -1   -1    0    0    0  501 -0.00000000000E+00  0.00000000000E+00  0.31576065228E+02  0.31576065228E+02  0.00000000000E+00 0.  1.
          1   -1    0    0  501    0  0.00000000000E+00 -0.00000000000E+00 -0.82855485233E+03  0.82855485233E+03  0.00000000000E+00 0. -1.
         25    2    1    2    0    0 -0.76612754972E+02 -0.63040268379E+02 -0.60114480977E+03  0.62198234242E+03  0.12507342766E+03 0.  0.
          5    1    3    3  502    0 -0.83557512570E+02 -0.66171251608E+02 -0.60360011718E+03  0.61295274394E+03  0.41800000000E+01 0. -1.
         -5    1    3    3    0  502  0.69447575975E+01  0.31309832287E+01  0.24553074151E+01  0.90295984722E+01  0.41800000000E+01 0. -1.
        -11    1    1    2    0    0  0.81153896778E+02  0.25841597709E+02 -0.81699426296E+02  0.11801923314E+03  0.00000000000E+00 0.  1.
         11    1    1    2    0    0 -0.45411418056E+01  0.37198670670E+02 -0.11413455104E+03  0.12012934200E+03  0.00000000000E+00 0. -1.
</event>
<event>
 7    1  0.2612213E-009  0.2167004E+03  0.7561462E-02  0.1136367E+00
         -2   -1    0    0    0  501 -0.00000000000E+00  0.00000000000E+00  0.38728014032E+03  0.38728014032E+03  0.00000000000E+00 0.  1.
          2   -1    0    0  501    0  0.00000000000E+00 -0.00000000000E+00 -0.17640111931E+03  0.17640111931E+03  0.00000000000E+00 0. -1.
         25    2    1    2    0    0  0.10137553696E+03 -0.17403615605E+03 -0.27243518048E+02  0.23865202382E+03  0.12508795342E+03 0.  0.
          5    1    3    3  502    0  0.31163694355E+01  0.15576088410E+02 -0.18687741436E+02  0.24880320910E+02  0.41800000000E+01 0. -1.
         -5    1    3    3    0  502  0.98259167529E+02 -0.18961224446E+03 -0.85557766121E+01  0.21377170291E+03  0.41800000000E+01 0. -1.
        -11    1    1    2    0    0 -0.71331498448E+02  0.94837653236E+02  0.19906505482E+03  0.23175258184E+03  0.00000000000E+00 0.  1.
         11    1    1    2    0    0 -0.30044038517E+02  0.79198502817E+02  0.39057484245E+02  0.93276653963E+02  0.00000000000E+00 0. -1.
</event>
<event>
 7    1  0.2612213E-009  0.1070899E+03  0.7561462E-02  0.1266056E+00
          1   -1    0    0  501    0  0.00000000000E+00  0.00000000000E+00  0.29800753906E+02  0.29800753906E+02  0.00000000000E+00 0. -1.
         -1   -1    0    0    0  501 -0.00000000000E+00 -0.00000000000E+00 -0.56921497178E+03  0.56921497178E+03  0.00000000000E+00 0.  1.
         25    2    1    2    0    0 -0.65214543666E+02 -0.10639039134E+01 -0.37136594518E+03  0.39725258931E+03  0.12507152305E+03 0.  0.
          5    1    3    3  502    0 -0.50931206474E+02  0.51161590050E+02 -0.12013088099E+03  0.14021553785E+03  0.41800000000E+01 0. -1.
         -5    1    3    3    0  502 -0.14283337191E+02 -0.52225493963E+02 -0.25123506419E+03  0.25703705146E+03  0.41800000000E+01 0. -1.
        -11    1    1    2    0    0  0.60617958239E+01 -0.22939023259E+02 -0.19342963315E+01  0.23805160344E+02  0.00000000000E+00 0. -1.
         11    1    1    2    0    0  0.59152747842E+02  0.24002927173E+02 -0.16611397637E+03  0.17795797604E+03  0.00000000000E+00 0.  1.
</event>
<event>
 7    1  0.2612213E-009  0.1290663E+03  0.7561462E-02  0.1228848E+00
          1   -1    0    0  501    0  0.00000000000E+00  0.00000000000E+00  0.20961105181E+03  0.20961105181E+03  0.00000000000E+00 0. -1.
         -1   -1    0    0    0  501 -0.00000000000E+00 -0.00000000000E+00 -0.96118256421E+02  0.96118256421E+02  0.00000000000E+00 0.  1.
         25    2    1    2    0    0 -0.27956762282E+02 -0.88207216998E+02  0.69835879412E+02  0.17054742441E+03  0.12508908918E+03 0.  0.
          5    1    3    3  502    0 -0.30983278050E+02  0.16780565528E+02  0.53461637624E+02  0.64165177438E+02  0.41800000000E+01 0.  1.
         -5    1    3    3    0  502  0.30265157679E+01 -0.10498778253E+03  0.16374241788E+02  0.10638224698E+03  0.41800000000E+01 0.  1.
        -11    1    1    2    0    0  0.44867204412E+02  0.23488212978E+02 -0.71996778017E+01  0.51152688503E+02  0.00000000000E+00 0. -1.
         11    1    1    2    0    0 -0.16910442130E+02  0.64719004020E+02  0.50856593777E+02  0.84029195313E+02  0.00000000000E+00 0.  1.
</event>
<event>
 7    1  0.2612213E-009  0.1058695E+03  0.7561462E-02  0.1268416E+00
         -1   -1    0    0    0  501 -0.00000000000E+00  0.00000000000E+00  0.61478155620E+02  0.61478155620E+02  0.00000000000E+00 0.  1.
          1   -1    0    0  501    0  0.00000000000E+00 -0.00000000000E+00 -0.27816322392E+03  0.27816322392E+03  0.00000000000E+00 0. -1.
         25    2    1    2    0    0 -0.29948189238E+02  0.12742869294E+02 -0.33737698421E+02  0.13357718675E+03  0.12508140457E+03 0.  0.
          5    1    3    3  502    0  0.12252171118E+01  0.66426794432E+02 -0.23048114669E+02  0.70446491505E+02  0.41800000000E+01 0. -1.
         -5    1    3    3    0  502 -0.31173406350E+02 -0.53683925138E+02 -0.10689583752E+02  0.63130695248E+02  0.41800000000E+01 0. -1.
        -11    1    1    2    0    0 -0.45202769651E+00 -0.41263516406E+02 -0.41190497719E+02  0.58305567638E+02  0.00000000000E+00 0.  1.
         11    1    1    2    0    0  0.30400216935E+02  0.28520647111E+02 -0.14175687216E+03  0.14775862515E+03  0.00000000000E+00 0. -1.
</event>
<event>
 7    1  0.2612213E-009  0.1209417E+03  0.7561462E-02  0.1241552E+00
         -1   -1    0    0    0  501 -0.00000000000E+00  0.00000000000E+00  0.15071402612E+02  0.15071402612E+02  0.00000000000E+00 0.  1.
          1   -1    0    0  501    0  0.00000000000E+00 -0.00000000000E+00 -0.10671013246E+04  0.10671013246E+04  0.00000000000E+00 0. -1.
         25    2    1    2    0    0  0.30669322735E+02  0.51417242543E+02 -0.65780510778E+03  0.67226412190E+03  0.12508856696E+03 0.  0.
          5    1    3    3  502    0  0.40826863881E+02 -0.29639751434E+02 -0.35556449122E+03  0.35915028539E+03  0.41800000000E+01 0.  1.
         -5    1    3    3    0  502 -0.10157541146E+02  0.81056993977E+02 -0.30224061657E+03  0.31311383651E+03  0.41800000000E+01 0.  1.
        -11    1    1    2    0    0 -0.23863580914E+02  0.23937117528E+02 -0.82988404587E+02  0.89607652494E+02  0.00000000000E+00 0.  1.
         11    1    1    2    0    0 -0.68057418214E+01 -0.75354360071E+02 -0.31123640962E+03  0.32030095282E+03  0.00000000000E+00 0. -1.
</event>
<event>
 7    1  0.2612213E-009  0.1858063E+03  0.7561462E-02  0.1162299E+00
         -2   -1    0    0    0  501 -0.00000000000E+00  0.00000000000E+00  0.19365246562E+03  0.19365246562E+03  0.00000000000E+00 0.  1.
          2   -1    0    0  501    0  0.00000000000E+00 -0.00000000000E+00 -0.21726639821E+03  0.21726639821E+03  0.00000000000E+00 0. -1.
         25    2    1    2    0    0  0.23129167436E+01 -0.15862167737E+03 -0.81363714721E+02  0.21778861134E+03  0.12508252891E+03 0.  0.
          5    1    3    3  502    0 -0.27091075342E+02  0.11204750668E+02 -0.12292859344E+02  0.32063368375E+02  0.41800000000E+01 0. -1.
         -5    1    3    3    0  502  0.29403992085E+02 -0.16982642804E+03 -0.69070855376E+02  0.18572524296E+03  0.41800000000E+01 0. -1.
        -11    1    1    2    0    0  0.16598595663E+02  0.14581286815E+03  0.18768256671E+02  0.14794983391E+03  0.00000000000E+00 0. -1.
         11    1    1    2    0    0 -0.18911512407E+02  0.12808809220E+02  0.38981525460E+02  0.45180418572E+02  0.00000000000E+00 0.  1.
</event>
<event>
 7    1  0.2612213E-009  0.1881104E+03  0.7561462E-02  0.1160177E+00
          2   -1    0    0  501    0  0.00000000000E+00  0.00000000000E+00  0.23563492251E+03  0.23563492251E+03  0.00000000000E+00 0. -1.
         -2   -1    0    0    0  501 -0.00000000000E+00 -0.00000000000E+00 -0.17698710633E+03  0.17698710633E+03  0.00000000000E+00 0.  1.
         25    2    1    2    0    0  0.16338845925E+03 -0.24353748903E+02 -0.20722558807E+02  0.20824469015E+03  0.12509009885E+03 0.  0.
          5    1    3    3  502    0  0.51652730628E+02  0.43198061611E+02 -0.36422884608E+02  0.76669263929E+02  0.41800000000E+01 0. -1.
         -5    1    3    3    0  502  0.11173572862E+03 -0.67551810514E+02  0.15700325801E+02  0.13157542622E+03  0.41800000000E+01 0. -1.
        -11    1    1    2    0    0 -0.49706540499E+02  0.39425343385E+02  0.61421436319E+02  0.88304533909E+02  0.00000000000E+00 0.  1.
         11    1    1    2    0    0 -0.11368191875E+03 -0.15071594482E+02  0.17948938671E+02  0.11607280478E+03  0.00000000000E+00 0. -1.
</event>
<event>
 7    1  0.2612213E-009  0.1374760E+03  0.7561462E-02  0.1216766E+00
         -2   -1    0    0    0  501 -0.00000000000E+00  0.00000000000E+00  0.63096364393E+02  0.63096364393E+02  0.00000000000E+00 0.  1.
          2   -1    0    0  501    0  0.00000000000E+00 -0.00000000000E+00 -0.43854988293E+03  0.43854988293E+03  0.00000000000E+00 0. -1.
         25    2    1    2    0    0 -0.82160631458E+02 -0.32924997155E+02 -0.33033049903E+03  0.36414281889E+03  0.12508928475E+03 0.  0.
          5    1    3    3  502    0 -0.45809767612E+02  0.43065162008E+02 -0.93577202034E+02  0.11281537186E+03  0.41800000000E+01 0.  1.
         -5    1    3    3    0  502 -0.36350863846E+02 -0.75990159163E+02 -0.23675329700E+03  0.25132744703E+03  0.41800000000E+01 0.  1.
        -11    1    1    2    0    0  0.23249185555E+02 -0.32242170681E+02 -0.24140860561E+01  0.39823485667E+02  0.00000000000E+00 0.  1.
         11    1    1    2    0    0  0.58911445903E+02  0.65167167836E+02 -0.42708933450E+02  0.97679942765E+02  0.00000000000E+00 0. -1.
</event>
<event>
 7    1  0.2612213E-009  0.1556060E+03  0.7561462E-02  0.1193749E+00
         -2   -1    0    0    0  501 -0.00000000000E+00  0.00000000000E+00  0.75512041223E+02  0.75512041223E+02  0.00000000000E+00 0.  1.
          2   -1    0    0  501    0  0.00000000000E+00 -0.00000000000E+00 -0.41955781434E+03  0.41955781434E+03  0.00000000000E+00 0. -1.
         25    2    1    2    0    0  0.13354758219E+03  0.44417732647E+02 -0.15600519092E+03  0.24453352982E+03  0.12510450003E+03 0.  0.
          5    1    3    3  502    0  0.13288704445E+03  0.28815724734E+02 -0.17365679780E+03  0.22059797913E+03  0.41800000000E+01 0. -1.
         -5    1    3    3    0  502  0.66053774029E+00  0.15602007913E+02  0.17651606881E+02  0.23935550683E+02  0.41800000000E+01 0. -1.
        -11    1    1    2    0    0 -0.59603758896E+02  0.17976612509E+02 -0.41082559232E+02  0.74589163723E+02  0.00000000000E+00 0.  1.
         11    1    1    2    0    0 -0.73943823295E+02 -0.62394345156E+02 -0.14695802297E+03  0.17594716203E+03  0.00000000000E+00 0. -1.
</event>
<event>
 7    1  0.2612213E-009  0.1625370E+03  0.7561462E-02  0.1185862E+00
         -2   -1    0    0    0  501 -0.00000000000E+00  0.00000000000E+00  0.11281674035E+03  0.11281674035E+03  0.00000000000E+00 0.  1.
          2   -1    0    0  501    0  0.00000000000E+00 -0.00000000000E+00 -0.23800859933E+03  0.23800859933E+03  0.00000000000E+00 0. -1.
         25    2    1    2    0    0  0.93921229187E+02 -0.78216197865E+02 -0.79982002950E+02  0.19233481942E+03  0.12512630046E+03 0.  0.
          5    1    3    3  502    0  0.12132797513E+03 -0.42398837539E+02 -0.68093846860E+02  0.14550733093E+03  0.41800000000E+01 0.  1.
         -5    1    3    3    0  502 -0.27406745939E+02 -0.35817360327E+02 -0.11888156091E+02  0.46827488498E+02  0.41800000000E+01 0.  1.
        -11    1    1    2    0    0 -0.10033290712E+03  0.33146644040E+02 -0.38568887627E+02  0.11248533840E+03  0.00000000000E+00 0.  1.
         11    1    1    2    0    0  0.64116779365E+01  0.45069553825E+02 -0.66409684088E+01  0.46005181853E+02  0.00000000000E+00 0. -1.
</event>
<event>
 7    1  0.2921641E-009  0.2026829E+03  0.7561462E-02  0.1147495E+00
          2   -1    0    0  501    0  0.00000000000E+00  0.00000000000E+00  0.62219469214E+03  0.62219469214E+03  0.00000000000E+00 0. -1.
         -2   -1    0    0    0  501 -0.00000000000E+00 -0.00000000000E+00 -0.71775999962E+02  0.71775999962E+02  0.00000000000E+00 0.  1.
         25    2    1    2    0    0  0.13092799923E+03 -0.12425690039E+03  0.26313058173E+03  0.34273273493E+03  0.12508439661E+03 0.  0.
          5    1    3    3  502    0  0.18728534536E+02 -0.84064174461E+02  0.17283535988E+03  0.19315040113E+03  0.41800000000E+01 0. -1.
         -5    1    3    3    0  502  0.11219946469E+03 -0.40192725925E+02  0.90295221849E+02  0.14958233379E+03  0.41800000000E+01 0. -1.
        -11    1    1    2    0    0 -0.96233799364E+01  0.63481845761E+02  0.11750061992E+03  0.13389902862E+03  0.00000000000E+00 0. -1.
         11    1    1    2    0    0 -0.12130461929E+03  0.60775054625E+02  0.16978749052E+03  0.21733892855E+03  0.00000000000E+00 0.  1.
</event>
<event>
 7    1  0.2612213E-009  0.1157584E+03  0.7561462E-02  0.1250263E+00
          2   -1    0    0  501    0  0.00000000000E+00  0.00000000000E+00  0.46018012810E+03  0.46018012810E+03  0.00000000000E+00 0. -1.
         -2   -1    0    0    0  501 -0.00000000000E+00 -0.00000000000E+00 -0.33346333393E+02  0.33346333393E+02  0.00000000000E+00 0.  1.
         25    2    1    2    0    0  0.42131457579E+02 -0.36751336139E+02  0.27635051801E+03  0.30846584039E+03  0.12512332099E+03 0.  0.
          5    1    3    3  502    0 -0.41871446648E+02 -0.18790813767E+02  0.60055666599E+02  0.75699856123E+02  0.41800000000E+01 0. -1.
         -5    1    3    3    0  502  0.84002904228E+02 -0.17960522372E+02  0.21629485141E+03  0.23276598426E+03  0.41800000000E+01 0. -1.
        -11    1    1    2    0    0 -0.38583128234E+02 -0.19386104745E+02  0.10213734143E+03  0.11088965396E+03  0.00000000000E+00 0.  1.
         11    1    1    2    0    0 -0.35483293448E+01  0.56137440883E+02  0.48345935257E+02  0.74170967136E+02  0.00000000000E+00 0. -1.
</event>
<event>
 7    1  0.2612213E-009  0.9052994E+02  0.7561462E-02  0.1301573E+00
         -1   -1    0    0    0  501 -0.00000000000E+00  0.00000000000E+00  0.28094697515E+02  0.28094697515E+02  0.00000000000E+00 0.  1.
          1   -1    0    0  501    0  0.00000000000E+00 -0.00000000000E+00 -0.81741054539E+03  0.81741054539E+03  0.00000000000E+00 0. -1.
         25    2    1    2    0    0  0.36221736595E+02 -0.26214909615E+02 -0.70252208148E+03  0.71497143901E+03  0.12509055902E+03 0.  0.
          5    1    3    3  502    0  0.48027196907E+02 -0.50791509878E+02 -0.66349704478E+03  0.66718227640E+03  0.41800000000E+01 0. -1.
         -5    1    3    3    0  502 -0.11805460312E+02  0.24576600263E+02 -0.39025036699E+02  0.47789162610E+02  0.41800000000E+01 0. -1.
        -11    1    1    2    0    0 -0.55158777503E+02  0.55782174575E+01 -0.86236078411E+02  0.10251960040E+03  0.00000000000E+00 0. -1.
         11    1    1    2    0    0  0.18937040908E+02  0.20636692158E+02 -0.55768798727E+00  0.28014203495E+02  0.00000000000E+00 0.  1.
</event>
<event>
 7    1  0.2612213E-009  0.7763140E+02  0.7561462E-02  0.1335911E+00
         -2   -1    0    0    0  501 -0.00000000000E+00  0.00000000000E+00  0.60882656425E+02  0.60882656425E+02  0.00000000000E+00 0.  1.
          2   -1    0    0  501    0  0.00000000000E+00 -0.00000000000E+00 -0.19796300018E+03  0.19796300018E+03  0.00000000000E+00 0. -1.
         25    2    1    2    0    0 -0.69708893359E+01 -0.10096535653E+02 -0.10810172733E+03  0.16578280030E+03  0.12508964822E+03 0.  0.
          5    1    3    3  502    0 -0.28728603400E+02 -0.48082826057E+02 -0.83716174785E+01  0.56787738062E+02  0.41800000000E+01 0.  1.
         -5    1    3    3    0  502  0.21757714064E+02  0.37986290404E+02 -0.99730109854E+02  0.10899506223E+03  0.41800000000E+01 0.  1.
        -11    1    1    2    0    0  0.51991266064E+01 -0.22187034086E+02 -0.49689776483E+02  0.54665979237E+02  0.00000000000E+00 0. -1.
         11    1    1    2    0    0  0.17717627295E+01  0.32283569739E+02  0.20711160057E+02  0.38396877076E+02  0.00000000000E+00 0.  1.
</event>
<event>
 7    1  0.2612213E-009  0.1005193E+03  0.7561462E-02  0.1279208E+00
          1   -1    0    0  501    0  0.00000000000E+00  0.00000000000E+00  0.34214001760E+02  0.34214001760E+02  0.00000000000E+00 0. -1.
         -1   -1    0    0    0  501 -0.00000000000E+00 -0.00000000000E+00 -0.36292936978E+03  0.36292936978E+03  0.00000000000E+00 0.  1.
         25    2    1    2    0    0  0.17485150781E+02  0.90282801799E+00 -0.21892933284E+03  0.25275413684E+03  0.12509218727E+03 0.  0.
          5    1    3    3  502    0 -0.49799556741E+02 -0.88552728989E+01 -0.13763369583E+03  0.14669327980E+03  0.41800000000E+01 0. -1.
         -5    1    3    3    0  502  0.67284707522E+02  0.97581009169E+01 -0.81295637012E+02  0.10606085704E+03  0.41800000000E+01 0. -1.
        -11    1    1    2    0    0 -0.48232368123E+02 -0.11610490602E+02 -0.29417660995E+02  0.57676369556E+02  0.00000000000E+00 0. -1.
         11    1    1    2    0    0  0.30747217342E+02  0.10707662584E+02 -0.80368374181E+02  0.86712865140E+02  0.00000000000E+00 0.  1.
</event>
<event>
 7    1  0.2612213E-009  0.2005204E+03  0.7561462E-02  0.1149301E+00
         -1   -1    0    0    0  501 -0.00000000000E+00  0.00000000000E+00  0.41221503600E+02  0.41221503600E+02  0.00000000000E+00 0.  1.
          1   -1    0    0  501    0  0.00000000000E+00 -0.00000000000E+00 -0.10835511726E+04  0.10835511726E+04  0.00000000000E+00 0. -1.
         25    2    1    2    0    0  0.17767192981E+03  0.29519457040E+02 -0.53610392953E+03  0.57921802778E+03  0.12508951778E+03 0.  0.
          5    1    3    3  502    0  0.49232864768E+02  0.64900587741E+02 -0.26237932318E+03  0.27476597842E+03  0.41800000000E+01 0.  1.
         -5    1    3    3    0  502  0.12843906504E+03 -0.35381130701E+02 -0.27372460635E+03  0.30445204936E+03  0.41800000000E+01 0.  1.
        -11    1    1    2    0    0 -0.81586251571E+02 -0.37450176309E+02 -0.13581509412E+03  0.16280224796E+03  0.00000000000E+00 0.  1.
         11    1    1    2    0    0 -0.96085678234E+02  0.79307192687E+01 -0.37041064530E+03  0.38275240041E+03  0.00000000000E+00 0. -1.
</event>
<event>
 6    1  0.2612213E-009  0.1068394E+03  0.7561462E-02  0.1266537E+00
          2   -1    0    0  501    0  0.00000000000E+00  0.00000000000E+00  0.16443283379E+03  0.16443283379E+03  0.00000000000E+00 0. -1.
         -2   -1    0    0    0  501 -0.00000000000E+00 -0.00000000000E+00 -0.76602472769E+02  0.76602472769E+02  0.00000000000E+00 0.  1.
          5    1    1    2  502    0 -0.48859921021E+02  0.30488053817E+02  0.58797677489E+02  0.82410269905E+02  0.41800000000E+01 0.  1.
         -5    1    1    2    0  502  0.55811802512E+02 -0.21161978255E+02  0.10458677630E+02  0.60742431307E+02  0.41800000000E+01 0.  1.
        -11    1    1    2    0    0 -0.50077367696E+02 -0.15757208324E+02  0.10583608537E+02  0.53554132793E+02  0.00000000000E+00 0. -1.
         11    1    1    2    0    0  0.43125486206E+02  0.64311327620E+01  0.79903973656E+01  0.44328472556E+02  0.00000000000E+00 0.  1.
</event>
<event>
 7    1  0.2612213E-009  0.1223307E+03  0.7561462E-02  0.1239301E+00
          1   -1    0    0  501    0  0.00000000000E+00  0.00000000000E+00  0.80722201670E+03  0.80722201670E+03  0.00000000000E+00 0. -1.
         -1   -1    0    0    0  501 -0.00000000000E+00 -0.00000000000E+00 -0.24080148884E+02  0.24080148884E+02  0.00000000000E+00 0.  1.
         25    2    1    2    0    0  0.44775926778E+02  0.58956959381E+02  0.61133511546E+03  0.62837732748E+03  0.12508651250E+03 0.  0.
          5    1    3    3  502    0 -0.30776437164E+02  0.61993933914E+02  0.31189976206E+03  0.31951427339E+03  0.41800000000E+01 0.  1.
         -5    1    3    3    0  502  0.75552363942E+02 -0.30369745323E+01  0.29943535340E+03  0.30886305408E+03  0.41800000000E+01 0.  1.
        -11    1    1    2    0    0 -0.61403540049E+02 -0.55152691537E+02  0.10275929015E+03  0.13180169129E+03  0.00000000000E+00 0.  1.
         11    1    1    2    0    0  0.16627613271E+02 -0.38042678444E+01  0.69047462205E+02  0.71123146822E+02  0.00000000000E+00 0. -1.
</event>
<event>
 7    1  0.2612213E-009  0.1874279E+03  0.7561462E-02  0.1160802E+00
          3   -1    0    0  501    0  0.00000000000E+00  0.00000000000E+00  0.12021145364E+03  0.12021145364E+03  0.00000000000E+00 0. -1.
         -3   -1    0    0    0  501 -0.00000000000E+00 -0.00000000000E+00 -0.37992930492E+03  0.37992930492E+03  0.00000000000E+00 0.  1.
         25    2    1    2    0    0 -0.16853384877E+03 -0.59127099836E+02 -0.19951661327E+03  0.29555696522E+03  0.12508944242E+03 0.  0.
          5    1    3    3  502    0 -0.94149512067E+02 -0.68328355970E+02 -0.46940746112E+02  0.12551414620E+03  0.41800000000E+01 0. -1.
         -5    1    3    3    0  502 -0.74384336702E+02  0.92012561343E+01 -0.15257586715E+03  0.17004281902E+03  0.41800000000E+01 0. -1.
        -11    1    1    2    0    0  0.91992429504E+02  0.10240269883E+02 -0.65838406632E+02  0.11358770180E+03  0.00000000000E+00 0.  1.
         11    1    1    2    0    0  0.76541419265E+02  0.48886829953E+02  0.56371686165E+01  0.90996091542E+02  0.00000000000E+00 0. -1.
</event>
<event>
 7    1  0.2612213E-009  0.9073981E+02  0.7561462E-02  0.1301070E+00
         -2   -1    0    0    0  501 -0.00000000000E+00  0.00000000000E+00  0.80453769516E+02  0.80453769516E+02  0.00000000000E+00 0. -1.
          2   -1    0    0  501    0  0.00000000000E+00 -0.00000000000E+00 -0.21913733998E+03  0.21913733998E+03  0.00000000000E+00 0.  1.
         25    2    1    2    0    0 -0.13760434110E+02  0.55866028491E+02 -0.19426003878E+02  0.13905188676E+03  0.12509074665E+03 0.  0.
          5    1    3    3  502    0 -0.20239212240E+02  0.67372132267E+02  0.37941979714E+02  0.80035592975E+02  0.41800000000E+01 0.  1.
         -5    1    3    3    0  502  0.64787781298E+01 -0.11506103776E+02 -0.57367983592E+02  0.59016293781E+02  0.41800000000E+01 0.  1.
        -11    1    1    2    0    0 -0.31789730867E+02 -0.34282903815E+02 -0.92091079462E+02  0.10327957881E+03  0.00000000000E+00 0.  1.
         11    1    1    2    0    0  0.45550164977E+02 -0.21583124676E+02 -0.27166487120E+02  0.57259643927E+02  0.00000000000E+00 0. -1.
</event>
<event>
 7    1  0.2612213E-009  0.8178025E+02  0.7561462E-02  0.1324074E+00
         -1   -1    0    0    0  501 -0.00000000000E+00  0.00000000000E+00  0.69422271305E+03  0.69422271305E+03  0.00000000000E+00 0.  1.
          1   -1    0    0  501    0  0.00000000000E+00 -0.00000000000E+00 -0.24282229269E+02  0.24282229269E+02  0.00000000000E+00 0. -1.
         25    2    1    2    0    0  0.37691830059E+02 -0.39213706110E+02  0.48951172564E+03  0.50815876914E+03  0.12508083912E+03 0.  0.
          5    1    3    3  502    0  0.30357466896E+02 -0.32455243362E+02  0.49431487418E+03  0.49632608823E+03  0.41800000000E+01 0. -1.
         -5    1    3    3    0  502  0.73343631625E+01 -0.67584627478E+01 -0.48031485398E+01  0.11832680914E+02  0.41800000000E+01 0. -1.
        -11    1    1    2    0    0 -0.37786423518E+02 -0.24086253143E+02  0.73092235080E+02  0.85734685056E+02  0.00000000000E+00 0. -1.
         11    1    1    2    0    0  0.94593458688E-01  0.63299959253E+02  0.10733652306E+03  0.12461148812E+03  0.00000000000E+00 0.  1.
</event>
<event>
 7    1  0.2612213E-009  0.9803641E+02  0.7561462E-02  0.1284480E+00
         -1   -1    0    0    0  501 -0.00000000000E+00  0.00000000000E+00  0.21352068523E+03  0.21352068523E+03  0.00000000000E+00 0.  1.
          1   -1    0    0  501    0  0.00000000000E+00 -0.00000000000E+00 -0.65585081373E+02  0.65585081373E+02  0.00000000000E+00 0. -1.
         25    2    1    2    0    0 -0.34893776578E+02 -0.27321206858E+02  0.10151165611E+03  0.16707949005E+03  0.12508763200E+03 0.  0.
          5    1    3    3  502    0 -0.51925631373E+02 -0.54924181359E+02  0.10977825172E+03  0.13334794277E+03  0.41800000000E+01 0.  1.
         -5    1    3    3    0  502  0.17031854795E+02  0.27602974500E+02 -0.82665956028E+01  0.33731547280E+02  0.41800000000E+01 0.  1.
        -11    1    1    2    0    0  0.12651439137E+02 -0.26537899718E+02  0.44981984445E+02  0.53737305090E+02  0.00000000000E+00 0.  1.
         11    1    1    2    0    0  0.22242337442E+02  0.53859106576E+02  0.14419632992E+01  0.58288971463E+02  0.00000000000E+00 0. -1.
</event>
<event>
 7    1  0.2612213E-009  0.1664019E+03  0.7561462E-02  0.1181653E+00
          2   -1    0    0  501    0  0.00000000000E+00  0.00000000000E+00  0.97632636778E+03  0.97632636778E+03  0.00000000000E+00 0. -1.
         -2   -1    0    0    0  501 -0.00000000000E+00 -0.00000000000E+00 -0.44759649388E+02  0.44759649388E+02  0.00000000000E+00 0.  1.
         25    2    1    2    0    0 -0.61922422798E+02  0.11937489617E+03  0.77178037955E+03  0.79334230630E+03  0.12514914470E+03 0.  0.
          5    1    3    3  502    0 -0.94023873231E+02  0.87681856330E+02  0.66536553109E+03  0.67768529498E+03  0.41800000000E+01 0.  1.
         -5    1    3    3    0  502  0.32101450433E+02  0.31693039839E+02  0.10641484846E+03  0.11565701132E+03  0.41800000000E+01 0.  1.
        -11    1    1    2    0    0  0.71081587735E+02 -0.45431486929E+02  0.10783171457E+03  0.13690979069E+03  0.00000000000E+00 0. -1.
         11    1    1    2    0    0 -0.91591649375E+01 -0.73943409241E+02  0.51954624272E+02  0.90833920183E+02  0.00000000000E+00 0.  1.
</event>
<event>
 7    1  0.2612213E-009  0.8738397E+02  0.7561462E-02  0.1309313E+00
         -2   -1    0    0    0  501 -0.00000000000E+00  0.00000000000E+00  0.24178181305E+02  0.24178181305E+02  0.00000000000E+00 0.  1.
          2   -1    0    0  501    0  0.00000000000E+00 -0.00000000000E+00 -0.45181269554E+03  0.45181269554E+03  0.00000000000E+00 0. -1.
         25    2    1    2    0    0  0.37860621421E+01 -0.10158618374E+02 -0.37705268083E+03  0.39741056962E+03  0.12509558318E+03 0.  0.
          5    1    3    3  502    0  0.53808742140E+02  0.29318681724E+02 -0.17152709479E+03  0.18219215811E+03  0.41800000000E+01 0.  1.
         -5    1    3    3    0  502 -0.50022679998E+02 -0.39477300099E+02 -0.20552558603E+03  0.21521841150E+03  0.41800000000E+01 0.  1.
        -11    1    1    2    0    0  0.21378789915E+02 -0.21250674015E+01 -0.45226483404E+02  0.50069984729E+02  0.00000000000E+00 0. -1.
         11    1    1    2    0    0 -0.25164852057E+02  0.12283685776E+02 -0.53553500028E+01  0.28510322498E+02  0.00000000000E+00 0.  1.
</event>
<event>
 7    1  0.2612213E-009  0.1439960E+03  0.7561462E-02  0.1208051E+00
          1   -1    0    0  501    0  0.00000000000E+00  0.00000000000E+00  0.45640141175E+03  0.45640141175E+03  0.00000000000E+00 0. -1.
         -1   -1    0    0    0  501 -0.00000000000E+00 -0.00000000000E+00 -0.55897318032E+02  0.55897318032E+02  0.00000000000E+00 0.  1.
         25    2    1    2    0    0 -0.11003318759E+03  0.31571449969E+02  0.22212765980E+03  0.27944994510E+03  0.12509003055E+03 0.  0.
          5    1    3    3  502    0 -0.11735667481E+03  0.43941880364E+02  0.23042798294E+03  0.26233186176E+03  0.41800000000E+01 0.  1.
         -5    1    3    3    0  502  0.73234872129E+01 -0.12370430395E+02 -0.83003231378E+01  0.17118083342E+02  0.41800000000E+01 0.  1.
        -11    1    1    2    0    0  0.10339302051E+03 -0.59254859226E+02  0.12730295196E+03  0.17437688095E+03  0.00000000000E+00 0.  1.
         11    1    1    2    0    0  0.66401670850E+01  0.27683409257E+02  0.51073481957E+02  0.58471903734E+02  0.00000000000E+00 0. -1.
</event>
<event>
 7    1  0.2612213E-009  0.1403798E+03  0.7561462E-02  0.1212819E+00
         -4   -1    0    0    0  501 -0.00000000000E+00  0.00000000000E+00  0.72450409877E+02  0.72450409877E+02  0.00000000000E+00 0.  1.
          4   -1    0    0  501    0  0.00000000000E+00 -0.00000000000E+00 -0.52091058223E+03  0.52091058223E+03  0.00000000000E+00 0. -1.
         25    2    1    2    0    0  0.90854953647E+02  0.71956629654E+02 -0.40699911864E+03  0.44128172090E+03  0.12509554536E+03 0.  0.
          5    1    3    3  502    0  0.82424357970E+02  0.85809942166E+02 -0.40749111778E+03  0.42452750727E+03  0.41800000000E+01 0. -1.
         -5    1    3    3    0  502  0.84305956763E+01 -0.13853312511E+02  0.49199913933E+00  0.16754213624E+02  0.41800000000E+01 0. -1.
        -11    1    1    2    0    0 -0.10218225949E+03 -0.81055000065E+02 -0.43318292768E+02  0.13743217119E+03  0.00000000000E+00 0. -1.
         11    1    1    2    0    0  0.11327305846E+02  0.90983704102E+01  0.18572390606E+01  0.14647100013E+02  0.00000000000E+00 0.  1.
</event>
<event>
 7    1  0.2612213E-009  0.1518866E+03  0.7561462E-02  0.1198174E+00
         -2   -1    0    0    0  501 -0.00000000000E+00  0.00000000000E+00  0.20766604331E+03  0.20766604331E+03  0.00000000000E+00 0.  1.
          2   -1    0    0  501    0  0.00000000000E+00 -0.00000000000E+00 -0.14244877176E+03  0.14244877176E+03  0.00000000000E+00 0. -1.
         25    2    1    2    0    0 -0.11248199901E+03  0.14716683948E+02  0.10540743573E+03  0.19906450900E+03  0.12508864996E+03 0.  0.
          5    1    3    3  502    0 -0.82854665602E+02 -0.50484819087E+02  0.59361336559E+02  0.11381938872E+03  0.41800000000E+01 0. -1.
         -5    1    3    3    0  502 -0.29627333404E+02  0.65201503035E+02  0.46046099168E+02  0.85245120278E+02  0.41800000000E+01 0. -1.
        -11    1    1    2    0    0  0.60174701920E+02  0.28955277364E+02  0.84759306818E+01  0.67314517300E+02  0.00000000000E+00 0.  1.
         11    1    1    2    0    0  0.52307297086E+02 -0.43671961312E+02 -0.48666094851E+02  0.83735788772E+02  0.00000000000E+00 0. -1.
</event>
<event>
 7    1  0.2612213E-009  0.1028853E+03  0.7561462E-02  0.1274343E+00
          1   -1    0    0  501    0  0.00000000000E+00  0.00000000000E+00  0.55780543316E+02  0.55780543316E+02  0.00000000000E+00 0. -1.
         -1   -1    0    0    0  501 -0.00000000000E+00 -0.00000000000E+00 -0.24089234647E+03  0.24089234647E+03  0.00000000000E+00 0.  1.
         25    2    1    2    0    0  0.65817189757E+01  0.35349452837E+02 -0.76478398451E+02  0.15096534645E+03  0.12509471435E+03 0.  0.
          5    1    3    3  502    0  0.40523632745E+02  0.70060868072E+02 -0.53344856128E+02  0.97024925257E+02  0.41800000000E+01 0. -1.
         -5    1    3    3    0  502 -0.33941913770E+02 -0.34711415235E+02 -0.23133542323E+02  0.53940421192E+02  0.41800000000E+01 0. -1.
        -11    1    1    2    0    0 -0.30659782684E+02 -0.41068350412E+02 -0.22291026746E+02  0.55888474243E+02  0.00000000000E+00 0. -1.
         11    1    1    2    0    0  0.24078063708E+02  0.57188975756E+01 -0.86342377960E+02  0.89819069096E+02  0.00000000000E+00 0.  1.
</event>
<event>
 7    1  0.2612213E-009  0.9089957E+02  0.7561462E-02  0.1300688E+00
          2   -1    0    0  501    0  0.00000000000E+00  0.00000000000E+00  0.87045432396E+02  0.87045432396E+02  0.00000000000E+00 0. -1.
         -2   -1    0    0    0  501 -0.00000000000E+00 -0.00000000000E+00 -0.14090987929E+03  0.14090987929E+03  0.00000000000E+00 0.  1.
         25    2    1    2    0    0  0.22012520955E+02 -0.90537093580E+01 -0.39641301878E+02  0.13336236450E+03  0.12509023430E+03 0.  0.
          5    1    3    3  502    0 -0.34528418950E+02 -0.41247191706E+02  0.52434478138E+01  0.54208013096E+02  0.41800000000E+01 0.  1.
         -5    1    3    3    0  502  0.56540939905E+02  0.32193482348E+02 -0.44884749692E+02  0.79154351403E+02  0.41800000000E+01 0.  1.
        -11    1    1    2    0    0 -0.41960261570E+02  0.76352173584E+01 -0.42335194771E+02  0.60093500576E+02  0.00000000000E+00 0.  1.
         11    1    1    2    0    0  0.19947740615E+02  0.14184919995E+01  0.28112049754E+02  0.34499446613E+02  0.00000000000E+00 0. -1.
</event>
<event>
 7    1  0.2612213E-009  0.1545885E+03  0.7561462E-02  0.1194945E+00
          2   -1    0    0  501    0  0.00000000000E+00  0.00000000000E+00  0.38177898051E+02  0.38177898051E+02  0.00000000000E+00 0. -1.
         -2   -1    0    0    0  501 -0.00000000000E+00 -0.00000000000E+00 -0.74799881277E+03  0.74799881277E+03  0.00000000000E+00 0.  1.
         25    2    1    2    0    0 -0.37563577695E+02  0.11047057035E+03 -0.24545337576E+03  0.29918274235E+03  0.12509270310E+03 0.  0.
          5    1    3    3  502    0 -0.30464642047E+02  0.13509132924E+03 -0.23128174338E+03  0.26960430055E+03  0.41800000000E+01 0. -1.
         -5    1    3    3    0  502 -0.70989356479E+01 -0.24620758888E+02 -0.14171632374E+02  0.29578441806E+02  0.41800000000E+01 0. -1.
        -11    1    1    2    0    0  0.15713582728E+02  0.12307922214E+02 -0.97132325556E+02  0.99161939772E+02  0.00000000000E+00 0.  1.
         11    1    1    2    0    0  0.21849994968E+02 -0.12277849257E+03 -0.36723521341E+03  0.38783202870E+03  0.00000000000E+00 0. -1.
</event>
<event>
 7    1  0.2612213E-009  0.1359707E+03  0.7561462E-02  0.1218856E+00
          3   -1    0    0  501    0  0.00000000000E+00  0.00000000000E+00  0.52256722517E+03  0.52256722517E+03  0.00000000000E+00 0. -1.
         -3   -1    0    0    0  501 -0.00000000000E+00 -0.00000000000E+00 -0.52294721108E+02  0.52294721108E+02  0.00000000000E+00 0.  1.
         25    2    1    2    0    0 -0.93283750342E+02 -0.41123564609E+02  0.37528417344E+03  0.40850885472E+03  0.12509303700E+03 0.  0.
          5    1    3    3  502    0 -0.97736546072E+02 -0.76770263546E+02  0.27206249584E+03  0.29913471856E+03  0.41800000000E+01 0. -1.
         -5    1    3    3    0  502  0.44527957295E+01  0.35646698937E+02  0.10322167760E+03  0.10937413617E+03  0.41800000000E+01 0. -1.
        -11    1    1    2    0    0  0.46109985824E+01  0.19654231575E+02  0.68408797974E+02  0.71325407584E+02  0.00000000000E+00 0. -1.
         11    1    1    2    0    0  0.88672751760E+02  0.21469333034E+02  0.26579532646E+02  0.95027683973E+02  0.00000000000E+00 0.  1.
</event>
<event>
 7    1  0.2612213E-009  0.1735361E+03  0.7561462E-02  0.1174210E+00
         -1   -1    0    0    0  501 -0.00000000000E+00  0.00000000000E+00  0.54296272944E+02  0.54296272944E+02  0.00000000000E+00 0.  1.
          1   -1    0    0  501    0  0.00000000000E+00 -0.00000000000E+00 -0.91949731802E+03  0.91949731802E+03  0.00000000000E+00 0. -1.
         25    2    1    2    0    0  0.14233869568E+03 -0.48236248612E+02 -0.71891700784E+03  0.74503487198E+03  0.12509299077E+03 0.  0.
          5    1    3    3  502    0  0.13322746240E+03  0.12197775829E+02 -0.46971527542E+03  0.48841401990E+03  0.41800000000E+01 0.  1.
         -5    1    3    3    0  502  0.91112332789E+01 -0.60434024441E+02 -0.24920173242E+03  0.25662085208E+03  0.41800000000E+01 0.  1.
        -11    1    1    2    0    0 -0.74269191067E+02  0.13298694973E+02 -0.13034003467E+03  0.15060309647E+03  0.00000000000E+00 0.  1.
         11    1    1    2    0    0 -0.68069504608E+02  0.34937553639E+02 -0.15944002568E+02  0.78155622509E+02  0.00000000000E+00 0. -1.
</event>
<event>
 7    1  0.2612213E-009  0.1070866E+03  0.7561462E-02  0.1266062E+00
          3   -1    0    0  501    0  0.00000000000E+00  0.00000000000E+00  0.18846917687E+03  0.18846917687E+03  0.00000000000E+00 0. -1.
         -3   -1    0    0    0  501 -0.00000000000E+00 -0.00000000000E+00 -0.10548858927E+03  0.10548858927E+03  0.00000000000E+00 0.  1.
         25    2    1    2    0    0  0.74992528324E+02  0.15771855695E+02  0.92604537653E+02  0.17348279551E+03  0.12509216285E+03 0.  0.
          5    1    3    3  502    0 -0.16718678765E+02  0.34296408772E+02  0.65611519384E+02  0.76013826046E+02  0.41800000000E+01 0. -1.
         -5    1    3    3    0  502  0.91711207089E+02 -0.18524553077E+02  0.26993018269E+02  0.97468969460E+02  0.41800000000E+01 0. -1.
        -11    1    1    2    0    0 -0.33503318286E+01 -0.96679361200E+01  0.34586763747E+02  0.36068517279E+02  0.00000000000E+00 0. -1.
         11    1    1    2    0    0 -0.71642196495E+02 -0.61039195750E+01 -0.44210713796E+02  0.84406453350E+02  0.00000000000E+00 0.  1.
</event>
<event>
 7    1  0.2612213E-009  0.1326590E+03  0.7561462E-02  0.1223563E+00
         -3   -1    0    0    0  501 -0.00000000000E+00  0.00000000000E+00  0.76540999054E+02  0.76540999054E+02  0.00000000000E+00 0. -1.
          3   -1    0    0  501    0  0.00000000000E+00 -0.00000000000E+00 -0.23098687940E+03  0.23098687940E+03  0.00000000000E+00 0.  1.
         25    2    1    2    0    0  0.14717713083E+02 -0.77151515110E+02 -0.89191714953E+02  0.17255106835E+03  0.12509892810E+03 0.  0.
          5    1    3    3  502    0 -0.34235960440E+02  0.19028112623E+02 -0.28941239906E+02  0.48879830447E+02  0.41800000000E+01 0. -1.
         -5    1    3    3    0  502  0.48953673523E+02 -0.96179627733E+02 -0.60250475047E+02  0.12367123791E+03  0.41800000000E+01 0. -1.
        -11    1    1    2    0    0  0.32713553031E+02  0.58366860141E+02 -0.32835294764E+02  0.74532030006E+02  0.00000000000E+00 0.  1.
         11    1    1    2    0    0 -0.47431266114E+02  0.18784654968E+02 -0.32418870628E+02  0.60444780091E+02  0.00000000000E+00 0. -1.
</event>
<event>
 7    1  0.2612213E-009  0.1022600E+03  0.7561462E-02  0.1275614E+00
          1   -1    0    0  501    0  0.00000000000E+00  0.00000000000E+00  0.51372565470E+03  0.51372565470E+03  0.00000000000E+00 0. -1.
         -1   -1    0    0    0  501 -0.00000000000E+00 -0.00000000000E+00 -0.36578946248E+02  0.36578946248E+02  0.00000000000E+00 0.  1.
         25    2    1    2    0    0  0.74419894220E+02  0.78491263564E+00  0.18704387870E+03  0.23700819137E+03  0.12509409849E+03 0.  0.
          5    1    3    3  502    0  0.38598292070E+02  0.36142962888E+02  0.17795339197E+03  0.18569066759E+03  0.41800000000E+01 0.  1.
         -5    1    3    3    0  502  0.35821602150E+02 -0.35358050252E+02  0.90904867292E+01  0.51317523783E+02  0.41800000000E+01 0.  1.
        -11    1    1    2    0    0 -0.34890411408E+02 -0.34462012341E+02  0.60426027017E+02  0.77822078126E+02  0.00000000000E+00 0.  1.
         11    1    1    2    0    0 -0.39529482812E+02  0.33677099705E+02  0.22967680274E+03  0.23547433145E+03  0.00000000000E+00 0. -1.
</event>
<event>
 7    1  0.2612213E-009  0.2406590E+03  0.7561462E-02  0.1119355E+00
          2   -1    0    0  501    0  0.00000000000E+00  0.00000000000E+00  0.18720360084E+04  0.18720360084E+04  0.00000000000E+00 0. -1.
         -2   -1    0    0    0  501 -0.00000000000E+00 -0.00000000000E+00 -0.32744368005E+02  0.32744368005E+02  0.00000000000E+00 0.  1.
         25    2    1    2    0    0 -0.94436287679E+02  0.19583804462E+03  0.11282921130E+04  0.11558377539E+04  0.12508824536E+03 0.  0.
          5    1    3    3  502    0 -0.95504124850E+02  0.64264857997E+02  0.63032181985E+03  0.64076054718E+03  0.41800000000E+01 0.  1.
         -5    1    3    3    0  502  0.10678371704E+01  0.13157318663E+03  0.49797029311E+03  0.51507720677E+03  0.41800000000E+01 0.  1.
        -11    1    1    2    0    0  0.61418186082E+02 -0.35828934150E+02  0.24633028941E+03  0.25638743648E+03  0.00000000000E+00 0.  1.
         11    1    1    2    0    0  0.33018101597E+02 -0.16000911048E+03  0.46466923802E+03  0.49255518598E+03  0.00000000000E+00 0. -1.
</event>
<event>
 7    1  0.2612213E-009  0.1737310E+03  0.7561462E-02  0.1174012E+00
          2   -1    0    0  501    0  0.00000000000E+00  0.00000000000E+00  0.88221080564E+03  0.88221080564E+03  0.00000000000E+00 0. -1.
         -2   -1    0    0    0  501 -0.00000000000E+00 -0.00000000000E+00 -0.42966055085E+02  0.42966055085E+02  0.00000000000E+00 0.  1.
         25    2    1    2    0    0  0.57271756796E+02  0.14473671390E+03  0.33814265470E+03  0.39270521704E+03  0.12509261401E+03 0.  0.
          5    1    3    3  502    0  0.70039650135E+02  0.13279372126E+03  0.18398474376E+03  0.23750280701E+03  0.41800000000E+01 0. -1.
         -5    1    3    3    0  502 -0.12767893339E+02  0.11942992640E+02  0.15415791094E+03  0.15520241003E+03  0.41800000000E+01 0. -1.
        -11    1    1    2    0    0 -0.80757333205E+02 -0.97976798137E+02  0.33162671222E+03  0.35510206433E+03  0.00000000000E+00 0.  1.
         11    1    1    2    0    0  0.23485576409E+02 -0.46759915768E+02  0.16947538364E+03  0.17736957936E+03  0.00000000000E+00 0. -1.
</event>
<event>
 7    1  0.2612213E-009  0.1887304E+03  0.7561462E-02  0.1159611E+00
         -1   -1    0    0    0  501 -0.00000000000E+00  0.00000000000E+00  0.51307262136E+02  0.51307262136E+02  0.00000000000E+00 0.  1.
          1   -1    0    0  501    0  0.00000000000E+00 -0.00000000000E+00 -0.82530378550E+03  0.82530378550E+03  0.00000000000E+00 0. -1.
         25    2    1    2    0    0  0.10244766683E+03  0.14051701247E+03 -0.37790164400E+03  0.43440072603E+03  0.12511507907E+03 0.  0.
          5    1    3    3  502    0  0.41617191867E+02 -0.76625562865E+01 -0.32098075030E+02  0.53277239497E+02  0.41800000000E+01 0.  1.
         -5    1    3    3    0  502  0.60830474962E+02  0.14817956875E+03 -0.34580356897E+03  0.38112348654E+03  0.41800000000E+01 0.  1.
        -11    1    1    2    0    0 -0.66271855050E+02 -0.76862139516E+02 -0.32373763281E+03  0.33927246006E+03  0.00000000000E+00 0. -1.
         11    1    1    2    0    0 -0.36175811780E+02 -0.63654872950E+02 -0.72357246560E+02  0.10293786154E+03  0.00000000000E+00 0.  1.
</event>
<event>
 7    1  0.2612213E-009  0.1220565E+03  0.7561462E-02  0.1239743E+00
         -4   -1    0    0    0  501 -0.00000000000E+00  0.00000000000E+00  0.31673625620E+02  0.31673625620E+02  0.00000000000E+00 0.  1.
          4   -1    0    0  501    0  0.00000000000E+00 -0.00000000000E+00 -0.54593873949E+03  0.54593873949E+03  0.00000000000E+00 0. -1.
         25    2    1    2    0    0 -0.84670768161E+01  0.66686219201E+02 -0.36625182589E+03  0.39281903055E+03  0.12509055747E+03 0.  0.
          5    1    3    3  502    0  0.41853788668E+02 -0.11030693028E+02 -0.17460889750E+03  0.17994208874E+03  0.41800000000E+01 0.  1.
         -5    1    3    3    0  502 -0.50320865484E+02  0.77716912229E+02 -0.19164292840E+03  0.21287694181E+03  0.41800000000E+01 0.  1.
        -11    1    1    2    0    0  0.46677088563E+02 -0.36559449588E+02 -0.10109838885E+03  0.11720165604E+03  0.00000000000E+00 0. -1.
         11    1    1    2    0    0 -0.38210011747E+02 -0.30126769613E+02 -0.46914899125E+02  0.67591678519E+02  0.00000000000E+00 0.  1.
</event>
<event>
 7    1  0.2612213E-009  0.1108686E+03  0.7561462E-02  0.1258970E+00
          1   -1    0    0  501    0  0.00000000000E+00  0.00000000000E+00  0.62010049101E+03  0.62010049101E+03  0.00000000000E+00 0. -1.
         -1   -1    0    0    0  501 -0.00000000000E+00 -0.00000000000E+00 -0.27246442350E+02  0.27246442350E+02  0.00000000000E+00 0.  1.
         25    2    1    2    0    0  0.47333951809E+02 -0.26876716027E+02  0.44117847821E+03  0.46178956093E+03  0.12509311766E+03 0.  0.
          5    1    3    3  502    0  0.49379105243E+02  0.29900886384E+02  0.97209227606E+02  0.11313472223E+03  0.41800000000E+01 0.  1.
         -5    1    3    3    0  502 -0.20451534341E+01 -0.56777602411E+02  0.34396925061E+03  0.34865483870E+03  0.41800000000E+01 0.  1.
        -11    1    1    2    0    0  0.27069063991E+02  0.16673273579E+02  0.45537205167E+02  0.55537098696E+02  0.00000000000E+00 0.  1.
         11    1    1    2    0    0 -0.74403015800E+02  0.10203442448E+02  0.10613836528E+03  0.13002027373E+03  0.00000000000E+00 0. -1.
</event>
<event>
 7    1  0.2612213E-009  0.1116227E+03  0.7561462E-02  0.1257594E+00
          4   -1    0    0  501    0  0.00000000000E+00  0.00000000000E+00  0.32716757579E+03  0.32716757579E+03  0.00000000000E+00 0. -1.
         -4   -1    0    0    0  501 -0.00000000000E+00 -0.00000000000E+00 -0.50744661675E+02  0.50744661675E+02  0.00000000000E+00 0.  1.
         25    2    1    2    0    0 -0.51218921449E+02  0.33568601801E+02  0.20261090227E+03  0.24586424380E+03  0.12509124557E+03 0.  0.
          5    1    3    3  502    0 -0.76240486243E+02 -0.68079842978E+00  0.18426999427E+03  0.19946422842E+03  0.41800000000E+01 0. -1.
         -5    1    3    3    0  502  0.25021564794E+02  0.34249400231E+02  0.18340907990E+02  0.46400015375E+02  0.41800000000E+01 0. -1.
        -11    1    1    2    0    0  0.68135633516E+02 -0.16661912812E+01  0.66463250623E+02  0.95197712322E+02  0.00000000000E+00 0.  1.
         11    1    1    2    0    0 -0.16916712067E+02 -0.31902410520E+02  0.73487612314E+01  0.36850281353E+02  0.00000000000E+00 0. -1.
</event>
<event>
 7    1  0.2612213E-009  0.8458945E+02  0.7561462E-02  0.1316510E+00
          1   -1    0    0  501    0  0.00000000000E+00  0.00000000000E+00  0.92795886991E+03  0.92795886991E+03  0.00000000000E+00 0. -1.
         -1   -1    0    0    0  501 -0.00000000000E+00 -0.00000000000E+00 -0.13718455609E+02  0.13718455609E+02  0.00000000000E+00 0.  1.
         25    2    1    2    0    0 -0.22411660630E+02 -0.22578971174E+02  0.51427003068E+03  0.53021781797E+03  0.12508068423E+03 0.  0.
          5    1    3    3  502    0 -0.40965724038E+02 -0.32555885864E+02  0.81671413726E+02  0.97086396937E+02  0.41800000000E+01 0.  1.
         -5    1    3    3    0  502  0.18554063408E+02  0.99769146893E+01  0.43259861695E+03  0.43313142103E+03  0.41800000000E+01 0.  1.
        -11    1    1    2    0    0  0.14160451805E+02  0.57555521842E+02  0.21443734863E+03  0.22247816292E+03  0.00000000000E+00 0.  1.
         11    1    1    2    0    0  0.82512088256E+01 -0.34976550668E+02  0.18553303499E+03  0.18898134462E+03  0.00000000000E+00 0. -1.
</event>
<event>
 7    1  0.2612213E-009  0.7306468E+02  0.7561462E-02  0.1349971E+00
          1   -1    0    0  501    0  0.00000000000E+00  0.00000000000E+00  0.53625074505E+02  0.53625074505E+02  0.00000000000E+00 0. -1.
         -1   -1    0    0    0  501 -0.00000000000E+00 -0.00000000000E+00 -0.25357019708E+03  0.25357019708E+03  0.00000000000E+00 0.  1.
         25    2    1    2    0    0  0.24296656841E+02  0.29890712071E+02 -0.95140424907E+02  0.16181092815E+03  0.12508914347E+03 0.  0.
          5    1    3    3  502    0  0.27716235230E+02  0.20618219332E+02  0.23947552898E+02  0.42240482401E+02  0.41800000000E+01 0. -1.
         -5    1    3    3    0  502 -0.34195783889E+01  0.92724927394E+01 -0.11908797780E+03  0.11957044574E+03  0.41800000000E+01 0. -1.
        -11    1    1    2    0    0 -0.12572039938E+02  0.33685109006E+02 -0.41396406679E+02  0.54830696173E+02  0.00000000000E+00 0.  1.
         11    1    1    2    0    0 -0.11724616902E+02 -0.63575821077E+02 -0.63408290990E+02  0.90553647267E+02  0.00000000000E+00 0. -1.
</event>
<event>
 7    1  0.2612213E-009  0.1446373E+03  0.7561462E-02  0.1207222E+00
          1   -1    0    0  501    0  0.00000000000E+00  0.00000000000E+00  0.35977899527E+03  0.35977899527E+03  0.00000000000E+00 0. -1.
         -1   -1    0    0    0  501 -0.00000000000E+00 -0.00000000000E+00 -0.90407977932E+02  0.90407977932E+02  0.00000000000E+00 0.  1.
         25    2    1    2    0    0  0.43661455067E+02 -0.99434182064E+02  0.24282457724E+02  0.16743043241E+03  0.12509929146E+03 0.  0.
          5    1    3    3  502    0  0.76685915370E+02 -0.27011360400E+02  0.31730743038E+02  0.87376516643E+02  0.41800000000E+01 0. -1.
         -5    1    3    3    0  502 -0.33024460304E+02 -0.72422821663E+02 -0.74482853135E+01  0.80053915770E+02  0.41800000000E+01 0. -1.
        -11    1    1    2    0    0 -0.15979439111E+01  0.82970567770E+02  0.20921946205E+03  0.22507654663E+03  0.00000000000E+00 0. -1.
         11    1    1    2    0    0 -0.42063511156E+02  0.16463614293E+02  0.35869097558E+02  0.57679994157E+02  0.00000000000E+00 0.  1.
</event>
<event>
 7    1  0.2612213E-009  0.9586319E+02  0.7561462E-02  0.1289244E+00
         -1   -1    0    0    0  501 -0.00000000000E+00  0.00000000000E+00  0.25563707494E+02  0.25563707494E+02  0.00000000000E+00 0.  1.
          1   -1    0    0  501    0  0.00000000000E+00 -0.00000000000E+00 -0.70212189185E+03  0.70212189185E+03  0.00000000000E+00 0. -1.
         25    2    1    2    0    0  0.11407409624E+02 -0.57891806217E+02 -0.50748606061E+03  0.52599754794E+03  0.12509887492E+03 0.  0.
          5    1    3    3  502    0 -0.30964565795E+02 -0.22931379852E+02 -0.42525548016E+03  0.42701797190E+03  0.41800000000E+01 0. -1.
         -5    1    3    3    0  502  0.42371975419E+02 -0.34960426366E+02 -0.82230580444E+02  0.98979576038E+02  0.41800000000E+01 0. -1.
        -11    1    1    2    0    0 -0.33344716641E+02  0.66436436192E+02 -0.78518619279E+02  0.10812420522E+03  0.00000000000E+00 0.  1.
         11    1    1    2    0    0  0.21937307018E+02 -0.85446299746E+01 -0.90553504467E+02  0.93563846179E+02  0.00000000000E+00 0. -1.
</event>
<event>
 7    1  0.2612213E-009  0.1415721E+03  0.7561462E-02  0.1211229E+00
         -3   -1    0    0    0  501 -0.00000000000E+00  0.00000000000E+00  0.22586111710E+02  0.22586111710E+02  0.00000000000E+00 0.  1.
          3   -1    0    0  501    0  0.00000000000E+00 -0.00000000000E+00 -0.97984180461E+03  0.97984180461E+03  0.00000000000E+00 0. -1.
         25    2    1    2    0    0 -0.24893925530E+02 -0.94163267388E+02 -0.67666661578E+03  0.69499040537E+03  0.12509007228E+03 0.  0.
          5    1    3    3  502    0 -0.73973504058E+02 -0.72618522265E+02 -0.40679379886E+03  0.41981447839E+03  0.41800000000E+01 0. -1.
         -5    1    3    3    0  502  0.49079578528E+02 -0.21544745124E+02 -0.26987281693E+03  0.27517592698E+03  0.41800000000E+01 0. -1.
        -11    1    1    2    0    0  0.51647490999E+02  0.40353657421E+02 -0.14852124125E+03  0.16234050664E+03  0.00000000000E+00 0.  1.
         11    1    1    2    0    0 -0.26753565469E+02  0.53809609968E+02 -0.13206783587E+03  0.14509700431E+03  0.00000000000E+00 0. -1.
</event>
<event>
 7    1  0.2612213E-009  0.1668394E+03  0.7561462E-02  0.1181185E+00
          2   -1    0    0  501    0  0.00000000000E+00  0.00000000000E+00  0.29679280765E+03  0.29679280765E+03  0.00000000000E+00 0. -1.
         -2   -1    0    0    0  501 -0.00000000000E+00 -0.00000000000E+00 -0.97169306278E+02  0.97169306278E+02  0.00000000000E+00 0.  1.
         25    2    1    2    0    0 -0.11847378249E+03 -0.56983441691E+02  0.98196154655E+02  0.20633627193E+03  0.12509605335E+03 0.  0.
          5    1    3    3  502    0 -0.30099142883E+02 -0.83522031111E+02  0.53300225777E+02  0.10363529587E+03  0.41800000000E+01 0. -1.
         -5    1    3    3    0  502 -0.88374639605E+02  0.26538589420E+02  0.44895928878E+02  0.10270097606E+03  0.41800000000E+01 0. -1.
        -11    1    1    2    0    0  0.15572602457E+02  0.46453122551E+02  0.10954490355E+02  0.50203579563E+02  0.00000000000E+00 0.  1.
         11    1    1    2    0    0  0.10290118003E+03  0.10530319140E+02  0.90472856357E+02  0.13742226243E+03  0.00000000000E+00 0. -1.
</event>
<event>
 7    1  0.2612213E-009  0.1108310E+03  0.7561462E-02  0.1259039E+00
          1   -1    0    0  501    0  0.00000000000E+00  0.00000000000E+00  0.92816516475E+03  0.92816516475E+03  0.00000000000E+00 0. -1.
         -1   -1    0    0    0  501 -0.00000000000E+00 -0.00000000000E+00 -0.15630566422E+02  0.15630566422E+02  0.00000000000E+00 0.  1.
         25    2    1    2    0    0 -0.48935326382E+02  0.47408371323E+01  0.59932571168E+03  0.61421149644E+03  0.12508921606E+03 0.  0.
          5    1    3    3  502    0  0.20163848018E+02 -0.35683500474E+02  0.94921714927E+02  0.10347703773E+03  0.41800000000E+01 0. -1.
         -5    1    3    3    0  502 -0.69099174400E+02  0.40424337607E+02  0.50440399675E+03  0.51073445871E+03  0.41800000000E+01 0. -1.
        -11    1    1    2    0    0 -0.23055108911E+02  0.12565866998E+02  0.54611282556E+02  0.60595637159E+02  0.00000000000E+00 0.  1.
         11    1    1    2    0    0  0.71990435293E+02 -0.17306704130E+02  0.25859760410E+03  0.26898859758E+03  0.00000000000E+00 0. -1.
</event>
<event>
 7    1  0.2612213E-009  0.9935831E+02  0.7561462E-02  0.1281651E+00
          2   -1    0    0  501    0  0.00000000000E+00  0.00000000000E+00  0.18057095938E+03  0.18057095938E+03  0.00000000000E+00 0. -1.
         -2   -1    0    0    0  501 -0.00000000000E+00 -0.00000000000E+00 -0.80060149959E+02  0.80060149959E+02  0.00000000000E+00 0.  1.
         25    2    1    2    0    0 -0.30144833673E+02 -0.42221410634E+02  0.66388198914E+02  0.15081876085E+03  0.12509015612E+03 0.  0.
          5    1    3    3  502    0 -0.70470846008E+02  0.24827246191E+01  0.54714364710E+02  0.89350087657E+02  0.41800000000E+01 0.  1.
         -5    1    3    3    0  502  0.40326012335E+02 -0.44704135253E+02  0.11673834204E+02  0.61468673197E+02  0.41800000000E+01 0.  1.
        -11    1    1    2    0    0  0.16988591524E+02  0.49749708250E+02 -0.17971824396E+02  0.55557467410E+02  0.00000000000E+00 0.  1.
         11    1    1    2    0    0  0.13156242149E+02 -0.75282976159E+01  0.52094434905E+02  0.54254881076E+02  0.00000000000E+00 0. -1.
</event>
<event>
 7    1  0.2612213E-009  0.8668021E+02  0.7561462E-02  0.1311096E+00
          1   -1    0    0  501    0  0.00000000000E+00  0.00000000000E+00  0.20055110379E+03  0.20055110379E+03  0.00000000000E+00 0. -1.
         -1   -1    0    0    0  501 -0.00000000000E+00 -0.00000000000E+00 -0.13375158716E+03  0.13375158716E+03  0.00000000000E+00 0.  1.
         25    2    1    2    0    0 -0.15255442691E+01  0.27688114679E+02 -0.84763992132E+02  0.15362753904E+03  0.12509007718E+03 0.  0.
          5    1    3    3  502    0  0.37392085470E+02  0.87856663450E+01 -0.10028681915E+03  0.10747220331E+03  0.41800000000E+01 0.  1.
         -5    1    3    3    0  502 -0.38917629740E+02  0.18902448334E+02  0.15522827018E+02  0.46155335728E+02  0.41800000000E+01 0.  1.
        -11    1    1    2    0    0  0.37265748436E+02  0.10734739940E+02  0.32639869311E+02  0.50688575801E+02  0.00000000000E+00 0.  1.
         11    1    1    2    0    0 -0.35740204167E+02 -0.38422854618E+02  0.11892363945E+03  0.12998657612E+03  0.00000000000E+00 0. -1.
</event>
<event>
 7    1  0.2612213E-009  0.1788568E+03  0.7561462E-02  0.1168914E+00
          2   -1    0    0  501    0  0.00000000000E+00  0.00000000000E+00  0.19291314010E+04  0.19291314010E+04  0.00000000000E+00 0. -1.
         -2   -1    0    0    0  501 -0.00000000000E+00 -0.00000000000E+00 -0.25068060633E+02  0.25068060633E+02  0.00000000000E+00 0.  1.
         25    2    1    2    0    0  0.11931284031E+03  0.90746452367E+02  0.15123824579E+04  0.15249321106E+04  0.12508705128E+03 0.  0.
          5    1    3    3  502    0  0.82223770315E+02 -0.80660488543E+01  0.47129185480E+03  0.47849691153E+03  0.41800000000E+01 0. -1.
         -5    1    3    3    0  502  0.37089070000E+02  0.98812501221E+02  0.10410906031E+04  0.10464351990E+04  0.41800000000E+01 0. -1.
        -11    1    1    2    0    0 -0.82402514747E+02 -0.13163479722E+02  0.25013631109E+03  0.26368850139E+03  0.00000000000E+00 0. -1.
         11    1    1    2    0    0 -0.36910325568E+02 -0.77582972645E+02  0.14154457142E+03  0.16557884972E+03  0.00000000000E+00 0.  1.
</event>
<event>
 7    1  0.2612213E-009  0.1008876E+03  0.7561462E-02  0.1278441E+00
          1   -1    0    0  501    0  0.00000000000E+00  0.00000000000E+00  0.25780366465E+03  0.25780366465E+03  0.00000000000E+00 0. -1.
         -1   -1    0    0    0  501 -0.00000000000E+00 -0.00000000000E+00 -0.56961241124E+02  0.56961241124E+02  0.00000000000E+00 0.  1.
         25    2    1    2    0    0 -0.31022858037E+02 -0.15080693154E+02  0.59364654557E+02  0.14269049912E+03  0.12508625545E+03 0.  0.
          5    1    3    3  502    0  0.46042738508E+02 -0.23614741230E+02  0.27606265617E+02  0.58797687658E+02  0.41800000000E+01 0.  1.
         -5    1    3    3    0  502 -0.77065596545E+02  0.85340480753E+01  0.31758388939E+02  0.83892811464E+02  0.41800000000E+01 0.  1.
        -11    1    1    2    0    0 -0.17204810728E+02  0.16672645428E+02  0.14909117269E+01  0.24004279525E+02  0.00000000000E+00 0.  1.
         11    1    1    2    0    0  0.48227668765E+02 -0.15919522740E+01  0.13998685725E+03  0.14807012713E+03  0.00000000000E+00 0. -1.
</event>
<event>
 7    1  0.2612213E-009  0.1022705E+03  0.7561462E-02  0.1275593E+00
          1   -1    0    0  501    0  0.00000000000E+00  0.00000000000E+00  0.51179993534E+03  0.51179993534E+03  0.00000000000E+00 0. -1.
         -1   -1    0    0    0  501 -0.00000000000E+00 -0.00000000000E+00 -0.25196123123E+02  0.25196123123E+02  0.00000000000E+00 0.  1.
         25    2    1    2    0    0 -0.25688334358E+02  0.54079851771E+01  0.32251962819E+03  0.34692476867E+03  0.12509495483E+03 0.  0.
          5    1    3    3  502    0  0.28870748110E+02  0.39756372225E+02  0.22216938195E+03  0.22757591240E+03  0.41800000000E+01 0.  1.
         -5    1    3    3    0  502 -0.54559082468E+02 -0.34348387047E+02  0.10035024624E+03  0.11934885627E+03  0.41800000000E+01 0.  1.
        -11    1    1    2    0    0  0.37149836282E+02  0.33524048332E+02  0.12071090354E+03  0.13067170461E+03  0.00000000000E+00 0. -1.
         11    1    1    2    0    0 -0.11461501924E+02 -0.38932033509E+02  0.43373280485E+02  0.59399585179E+02  0.00000000000E+00 0.  1.
</event>
<event>
 7    1  0.2612213E-009  0.8519883E+02  0.7561462E-02  0.1314913E+00
          2   -1    0    0  501    0  0.00000000000E+00  0.00000000000E+00  0.21728339335E+03  0.21728339335E+03  0.00000000000E+00 0. -1.
         -2   -1    0    0    0  501 -0.00000000000E+00 -0.00000000000E+00 -0.56991885273E+02  0.56991885273E+02  0.00000000000E+00 0.  1.
         25    2    1    2    0    0  0.14306139997E+02  0.19490155797E+02  0.10718451776E+03  0.16649722162E+03  0.12509305394E+03 0.  0.
          5    1    3    3  502    0  0.92751821956E+01 -0.42744683995E+02  0.92224003730E+02  0.10215613676E+03  0.41800000000E+01 0.  1.
         -5    1    3    3    0  502  0.50309578014E+01  0.62234839792E+02  0.14960514028E+02  0.64341084855E+02  0.41800000000E+01 0.  1.
        -11    1    1    2    0    0  0.19203544029E+02 -0.23256958084E+02  0.65293428942E+02  0.71922834105E+02  0.00000000000E+00 0. -1.
         11    1    1    2    0    0 -0.33509684026E+02  0.37668022861E+01 -0.12186438623E+02  0.35855222901E+02  0.00000000000E+00 0.  1.
</event>
<event>
 7    1  0.2612213E-009  0.1199279E+03  0.7561462E-02  0.1243216E+00
          2   -1    0    0  501    0  0.00000000000E+00  0.00000000000E+00  0.30567718817E+03  0.30567718817E+03  0.00000000000E+00 0. -1.
         -2   -1    0    0    0  501 -0.00000000000E+00 -0.00000000000E+00 -0.52784371827E+02  0.52784371827E+02  0.00000000000E+00 0.  1.
         25    2    1    2    0    0 -0.13493977033E+02  0.42226125268E+02  0.10849903076E+03  0.17142239432E+03  0.12509382290E+03 0.  0.
          5    1    3    3  502    0  0.47982826913E+02  0.40182340238E+02  0.84561530541E+02  0.10528578723E+03  0.41800000000E+01 0.  1.
         -5    1    3    3    0  502 -0.61476803946E+02  0.20437850296E+01  0.23937500221E+02  0.66136607091E+02  0.41800000000E+01 0.  1.
        -11    1    1    2    0    0 -0.42791161712E+02 -0.40875385597E+02  0.96120417439E+02  0.11287610605E+03  0.00000000000E+00 0. -1.
         11    1    1    2    0    0  0.56285138745E+02 -0.13507396715E+01  0.48273368145E+02  0.74163059627E+02  0.00000000000E+00 0.  1.
</event>
<event>
 7    1  0.2612213E-009  0.7927332E+02  0.7561462E-02  0.1331126E+00
         -2   -1    0    0    0  501 -0.00000000000E+00  0.00000000000E+00  0.37863748381E+02  0.37863748381E+02  0.00000000000E+00 0.  1.
          2   -1    0    0  501    0  0.00000000000E+00 -0.00000000000E+00 -0.36410843423E+03  0.36410843423E+03  0.00000000000E+00 0. -1.
         25    2    1    2    0    0  0.29834847865E+02 -0.20679825862E+02 -0.24154059038E+03  0.27442263223E+03  0.12509256946E+03 0.  0.
          5    1    3    3  502    0  0.19295646557E+02 -0.61000398360E+02 -0.58975562426E+02  0.87114636770E+02  0.41800000000E+01 0.  1.
         -5    1    3    3    0  502  0.10539201309E+02  0.40320572499E+02 -0.18256502796E+03  0.18730799546E+03  0.41800000000E+01 0.  1.
        -11    1    1    2    0    0  0.53400764534E+00  0.22136267836E+02 -0.93350136335E+02  0.95940332872E+02  0.00000000000E+00 0. -1.
         11    1    1    2    0    0 -0.30368855511E+02 -0.14564419742E+01  0.86460408738E+01  0.31609217501E+02  0.00000000000E+00 0.  1.
</event>
<event>
 7    1  0.2612213E-009  0.1261250E+03  0.7561462E-02  0.1233321E+00
         -1   -1    0    0    0  501 -0.00000000000E+00  0.00000000000E+00  0.18348327589E+03  0.18348327589E+03  0.00000000000E+00 0.  1.
          1   -1    0    0  501    0  0.00000000000E+00 -0.00000000000E+00 -0.90992095336E+02  0.90992095336E+02  0.00000000000E+00 0. -1.
         25    2    1    2    0    0 -0.63926209462E+02  0.26267698087E+02  0.62914360602E+02  0.15614741491E+03  0.12508895313E+03 0.  0.
          5    1    3    3  502    0  0.24558158152E+02  0.41697826107E+02  0.41900243362E+01  0.48752851586E+02  0.41800000000E+01 0. -1.
         -5    1    3    3    0  502 -0.88484367614E+02 -0.15430128019E+02  0.58724336266E+02  0.10739456333E+03  0.41800000000E+01 0. -1.
        -11    1    1    2    0    0  0.76715788453E+02 -0.46585598736E+02  0.28969844424E+02  0.94312152417E+02  0.00000000000E+00 0. -1.
         11    1    1    2    0    0 -0.12789578991E+02  0.20317900649E+02  0.60697552970E+00  0.24015803897E+02  0.00000000000E+00 0.  1.
</event>
<event>
 7    1  0.2612213E-009  0.1376595E+03  0.7561462E-02  0.1216513E+00
         -2   -1    0    0    0  501 -0.00000000000E+00  0.00000000000E+00  0.36617116668E+02  0.36617116668E+02  0.00000000000E+00 0.  1.
          2   -1    0    0  501    0  0.00000000000E+00 -0.00000000000E+00 -0.58809055945E+03  0.58809055945E+03  0.00000000000E+00 0. -1.
         25    2    1    2    0    0  0.87623360464E+02 -0.79383949037E+01 -0.20422410261E+03  0.25513859033E+03  0.12508934717E+03 0.  0.
          5    1    3    3  502    0 -0.16660498663E+02  0.35782166970E+02 -0.56829439492E+02  0.69318058843E+02  0.41800000000E+01 0.  1.
         -5    1    3    3    0  502  0.10428385913E+03 -0.43720561874E+02 -0.14739466312E+03  0.18582053148E+03  0.41800000000E+01 0.  1.
        -11    1    1    2    0    0  0.12778324802E+02  0.17442033798E+02 -0.10433015549E+03  0.10654713263E+03  0.00000000000E+00 0. -1.
         11    1    1    2    0    0 -0.10040168527E+03 -0.95036388938E+01 -0.24291918469E+03  0.26302195316E+03  0.00000000000E+00 0.  1.
</event>
<event>
 7    1  0.2612213E-009  0.8486377E+02  0.7561462E-02  0.1315789E+00
          1   -1    0    0  501    0  0.00000000000E+00  0.00000000000E+00  0.17225864064E+03  0.17225864064E+03  0.00000000000E+00 0. -1.
         -1   -1    0    0    0  501 -0.00000000000E+00 -0.00000000000E+00 -0.11173953814E+03  0.11173953814E+03  0.00000000000E+00 0.  1.
         25    2    1    2    0    0 -0.18894746827E+02  0.33821320918E+02  0.11291156493E+03  0.17290707406E+03  0.12508773545E+03 0.  0.
          5    1    3    3  502    0  0.43947679833E+02  0.15415466438E+02  0.93400930791E+02  0.10445210118E+03  0.41800000000E+01 0.  1.
         -5    1    3    3    0  502 -0.62842426659E+02  0.18405854480E+02  0.19510634137E+02  0.68454972880E+02  0.41800000000E+01 0.  1.
        -11    1    1    2    0    0 -0.54575020926E+01 -0.32509277455E+02 -0.72397012501E+02  0.79548506390E+02  0.00000000000E+00 0.  1.
         11    1    1    2    0    0  0.24352248919E+02 -0.13120434626E+01  0.20004550074E+02  0.31542598326E+02  0.00000000000E+00 0. -1.
</event>
<event>
 7    1  0.2612213E-009  0.9123531E+02  0.7561462E-02  0.1299887E+00
          2   -1    0    0  501    0  0.00000000000E+00  0.00000000000E+00  0.11443792348E+03  0.11443792348E+03  0.00000000000E+00 0. -1.
         -2   -1    0    0    0  501 -0.00000000000E+00 -0.00000000000E+00 -0.13114318094E+03  0.13114318094E+03  0.00000000000E+00 0.  1.
         25    2    1    2    0    0 -0.29408160003E+02 -0.23927601617E+02  0.36908857551E+02  0.13582088019E+03  0.12509067805E+03 0.  0.
          5    1    3    3  502    0  0.28832020242E+02 -0.52822337341E+02 -0.12180433481E+01  0.60336065028E+02  0.41800000000E+01 0. -1.
         -5    1    3    3    0  502 -0.58240180245E+02  0.28894735725E+02  0.38126900900E+02  0.75484815160E+02  0.41800000000E+01 0. -1.
        -11    1    1    2    0    0 -0.99054194860E+01  0.12713700345E+02 -0.65285261581E+02  0.67245229506E+02  0.00000000000E+00 0.  1.
         11    1    1    2    0    0  0.39313579489E+02  0.11213901271E+02  0.11671146566E+02  0.42514994721E+02  0.00000000000E+00 0. -1.
</event>
<event>
 7    1  0.2612213E-009  0.1328590E+03  0.7561462E-02  0.1223274E+00
         -2   -1    0    0    0  501 -0.00000000000E+00  0.00000000000E+00  0.47832375454E+03  0.47832375454E+03  0.00000000000E+00 0.  1.
          2   -1    0    0  501    0  0.00000000000E+00 -0.00000000000E+00 -0.46206525019E+02  0.46206525019E+02  0.00000000000E+00 0. -1.
         25    2    1    2    0    0  0.34503956251E+02 -0.93431617404E+02  0.26128175513E+03  0.30632477742E+03  0.12508686411E+03 0.  0.
          5    1    3    3  502    0 -0.38404358476E+02 -0.65915950547E+02  0.16900830382E+03  0.18547529875E+03  0.41800000000E+01 0. -1.
         -5    1    3    3    0  502  0.72908314727E+02 -0.27515666857E+02  0.92273451314E+02  0.12084947868E+03  0.41800000000E+01 0. -1.
        -11    1    1    2    0    0  0.75376153097E+01  0.50963973284E+02  0.18789376929E+02  0.54837787180E+02  0.00000000000E+00 0. -1.
         11    1    1    2    0    0 -0.42041571560E+02  0.42467644120E+02  0.15204609746E+03  0.16336771495E+03  0.00000000000E+00 0.  1.
</event>
<event>
 7    1  0.3273122E-009  0.1622214E+03  0.7561462E-02  0.1186211E+00
          1   -1    0    0  501    0  0.00000000000E+00  0.00000000000E+00  0.10540656399E+04  0.10540656399E+04  0.00000000000E+00 0. -1.
         -1   -1    0    0    0  501 -0.00000000000E+00 -0.00000000000E+00 -0.35180498494E+02  0.35180498494E+02  0.00000000000E+00 0.  1.
         25    2    1    2    0    0 -0.14613482916E+03  0.59376135357E+02  0.48693633206E+03  0.52691154440E+03  0.12509144812E+03 0.  0.
          5    1    3    3  502    0 -0.72388250679E+02  0.36262032301E+02  0.84504044044E+02  0.11710422573E+03  0.41800000000E+01 0.  1.
         -5    1    3    3    0  502 -0.73746578485E+02  0.23114103056E+02  0.40243228802E+03  0.40980731867E+03  0.41800000000E+01 0.  1.
        -11    1    1    2    0    0  0.60470370227E+02 -0.52420851537E+02  0.37449948305E+03  0.38295492445E+03  0.00000000000E+00 0. -1.
         11    1    1    2    0    0  0.85664458937E+02 -0.69552838200E+01  0.15744932630E+03  0.17937966955E+03  0.00000000000E+00 0.  1.
</event>
<event>
 7    1  0.2612213E-009  0.1276932E+03  0.7561462E-02  0.1230919E+00
          1   -1    0    0  501    0  0.00000000000E+00  0.00000000000E+00  0.29473782805E+03  0.29473782805E+03  0.00000000000E+00 0. -1.
         -1   -1    0    0    0  501 -0.00000000000E+00 -0.00000000000E+00 -0.99636756812E+02  0.99636756812E+02  0.00000000000E+00 0.  1.
         25    2    1    2    0    0 -0.97416848739E+02 -0.21351719581E+02  0.20372170798E+03  0.25902932030E+03  0.12509083151E+03 0.  0.
          5    1    3    3  502    0 -0.77135422687E+01 -0.29269515103E+02 -0.56504676562E+01  0.31074160220E+02  0.41800000000E+01 0. -1.
         -5    1    3    3    0  502 -0.89703306470E+02  0.79177955211E+01  0.20937217564E+03  0.22795516008E+03  0.41800000000E+01 0. -1.
        -11    1    1    2    0    0  0.13337581346E+02  0.45328499185E+02 -0.79333383300E+01  0.47911395008E+02  0.00000000000E+00 0.  1.
         11    1    1    2    0    0  0.84079267393E+02 -0.23976779604E+02 -0.68729841250E+00  0.87433869551E+02  0.00000000000E+00 0. -1.
</event>
<event>
 7    1  0.2612213E-009  0.1087313E+03  0.7561462E-02  0.1262937E+00
          2   -1    0    0  501    0  0.00000000000E+00  0.00000000000E+00  0.50503079198E+03  0.50503079198E+03  0.00000000000E+00 0. -1.
         -2   -1    0    0    0  501 -0.00000000000E+00 -0.00000000000E+00 -0.28744459365E+02  0.28744459365E+02  0.00000000000E+00 0.  1.
         25    2    1    2    0    0 -0.21775072451E+02 -0.44615792002E+02  0.31236072609E+03  0.34011785739E+03  0.12508481538E+03 0.  0.
          5    1    3    3  502    0 -0.73940586491E+02 -0.26434606820E+02  0.16803361360E+03  0.18552295402E+03  0.41800000000E+01 0. -1.
         -5    1    3    3    0  502  0.52165514039E+02 -0.18181185182E+02  0.14432711249E+03  0.15459490337E+03  0.41800000000E+01 0. -1.
        -11    1    1    2    0    0  0.45714223882E+02  0.35225769794E+02  0.48448721043E+02  0.75351998603E+02  0.00000000000E+00 0.  1.
         11    1    1    2    0    0 -0.23939151431E+02  0.93900222073E+01  0.11547688549E+03  0.11830539536E+03  0.00000000000E+00 0. -1.
</event>
<event>
 7    1  0.2612213E-009  0.1430739E+03  0.7561462E-02  0.1209252E+00
         -4   -1    0    0    0  501 -0.00000000000E+00  0.00000000000E+00  0.71742378623E+02  0.71742378623E+02  0.00000000000E+00 0.  1.
          4   -1    0    0  501    0  0.00000000000E+00 -0.00000000000E+00 -0.48440242517E+03  0.48440242517E+03  0.00000000000E+00 0. -1.
         25    2    1    2    0    0  0.10004216704E+03 -0.51322683432E+02 -0.36811770882E+03  0.40472257088E+03  0.12508900356E+03 0.  0.
          5    1    3    3  502    0  0.11757528619E+03 -0.56215002184E+02 -0.22233765027E+03  0.25775099907E+03  0.41800000000E+01 0.  1.
         -5    1    3    3    0  502 -0.17533119148E+02  0.48923187525E+01 -0.14578005855E+03  0.14697157181E+03  0.41800000000E+01 0.  1.
        -11    1    1    2    0    0 -0.10587224234E+03  0.23231284461E+02 -0.13625001449E+02  0.10924406135E+03  0.00000000000E+00 0.  1.
         11    1    1    2    0    0  0.58300752923E+01  0.28091398971E+02 -0.30917336282E+02  0.42178171568E+02  0.00000000000E+00 0. -1.
</event>
<event>
 7    1  0.2612213E-009  0.1180913E+03  0.7561462E-02  0.1246279E+00
         -1   -1    0    0    0  501 -0.00000000000E+00  0.00000000000E+00  0.93762090643E+02  0.93762090643E+02  0.00000000000E+00 0.  1.
          1   -1    0    0  501    0  0.00000000000E+00 -0.00000000000E+00 -0.19165655058E+03  0.19165655058E+03  0.00000000000E+00 0. -1.
         25    2    1    2    0    0 -0.71076681975E+02 -0.20679283759E+00 -0.83508737737E+02  0.16635343835E+03  0.12509124545E+03 0.  0.
          5    1    3    3  502    0  0.31602417753E+01  0.52480743322E+02 -0.30097979066E+02  0.60725417179E+02  0.41800000000E+01 0.  1.
         -5    1    3    3    0  502 -0.74236923750E+02 -0.52687536159E+02 -0.53410758671E+02  0.10562802117E+03  0.41800000000E+01 0.  1.
        -11    1    1    2    0    0 -0.27356602604E+00  0.18621292078E+02  0.28321258110E+02  0.33895737460E+02  0.00000000000E+00 0.  1.
         11    1    1    2    0    0  0.71350248001E+02 -0.18414499240E+02 -0.42706980313E+02  0.85169465417E+02  0.00000000000E+00 0. -1.
</event>
<event>
 7    1  0.2612213E-009  0.2007264E+03  0.7561462E-02  0.1149128E+00
         -2   -1    0    0    0  501 -0.00000000000E+00  0.00000000000E+00  0.55661187312E+03  0.55661187312E+03  0.00000000000E+00 0.  1.
          2   -1    0    0  501    0  0.00000000000E+00 -0.00000000000E+00 -0.74136029818E+02  0.74136029818E+02  0.00000000000E+00 0. -1.
         25    2    1    2    0    0 -0.14728183670E+03 -0.83732760471E+02  0.21163352600E+03  0.29854319849E+03  0.12504470177E+03 0.  0.
          5    1    3    3  502    0 -0.44662814406E+01 -0.64832939288E+02  0.50858741925E+02  0.82627729709E+02  0.41800000000E+01 0.  1.
         -5    1    3    3    0  502 -0.14281555526E+03 -0.18899821183E+02  0.16077478408E+03  0.21591546879E+03  0.41800000000E+01 0.  1.
        -11    1    1    2    0    0  0.66427827806E+02  0.89147752160E+02  0.16320053853E+03  0.19746998202E+03  0.00000000000E+00 0.  1.
         11    1    1    2    0    0  0.80854008899E+02 -0.54149916888E+01  0.10764177877E+03  0.13473472243E+03  0.00000000000E+00 0. -1.
</event>
<event>
 7    1  0.2612213E-009  0.1188236E+03  0.7561462E-02  0.1245050E+00
         -1   -1    0    0    0  501 -0.00000000000E+00  0.00000000000E+00  0.35815921311E+03  0.35815921311E+03  0.00000000000E+00 0.  1.
          1   -1    0    0  501    0  0.00000000000E+00 -0.00000000000E+00 -0.65709515956E+02  0.65709515956E+02  0.00000000000E+00 0. -1.
         25    2    1    2    0    0 -0.75137994090E+02 -0.30120037865E+02  0.59488227426E+02  0.16043655468E+03  0.12509238202E+03 0.  0.
          5    1    3    3  502    0  0.47935041318E+01  0.23844865560E+02  0.58943780061E+02  0.63901462450E+02  0.41800000000E+01 0. -1.
         -5    1    3    3    0  502 -0.79931498221E+02 -0.53964903424E+02  0.54444736504E+00  0.96535092233E+02  0.41800000000E+01 0. -1.
        -11    1    1    2    0    0 -0.11612543038E+02  0.27268004828E+02  0.10278188509E+03  0.10696967395E+03  0.00000000000E+00 0. -1.
         11    1    1    2    0    0  0.86750537128E+02  0.28520330361E+01  0.13017958464E+03  0.15646250043E+03  0.00000000000E+00 0.  1.
</event>
<event>
 7    1  0.2612213E-009  0.1360971E+03  0.7561462E-02  0.1218679E+00
          1   -1    0    0  501    0  0.00000000000E+00  0.00000000000E+00  0.18291821802E+04  0.18291821802E+04  0.00000000000E+00 0. -1.
         -1   -1    0    0    0  501 -0.00000000000E+00 -0.00000000000E+00 -0.15758306328E+02  0.15758306328E+02  0.00000000000E+00 0.  1.
         25    2    1    2    0    0  0.44281200920E+02  0.71024844752E+02  0.14832577445E+04  0.14908743141E+04  0.12508928974E+03 0.  0.
          5    1    3    3  502    0 -0.36630923205E+02  0.56980290410E+02  0.72592148728E+03  0.72908713891E+03  0.41800000000E+01 0.  1.
         -5    1    3    3    0  502  0.80912124125E+02  0.14044554341E+02  0.75733625722E+03  0.76178717516E+03  0.41800000000E+01 0.  1.
        -11    1    1    2    0    0  0.15857947905E+02 -0.58575153078E+02  0.21681072375E+03  0.22514309450E+03  0.00000000000E+00 0. -1.
         11    1    1    2    0    0 -0.60139148825E+02 -0.12449691673E+02  0.11335540559E+03  0.12892307792E+03  0.00000000000E+00 0.  1.
</event>
<event>
 7    1  0.2612213E-009  0.2976380E+03  0.7561462E-02  0.1086427E+00
         -1   -1    0    0    0  501 -0.00000000000E+00  0.00000000000E+00  0.13984714734E+03  0.13984714734E+03  0.00000000000E+00 0. -1.
          1   -1    0    0  501    0  0.00000000000E+00 -0.00000000000E+00 -0.67844808536E+03  0.67844808536E+03  0.00000000000E+00 0.  1.
         25    2    1    2    0    0 -0.27099550234E+03  0.95392378549E+02 -0.23592632067E+03  0.39223590592E+03  0.12509799732E+03 0.  0.
          5    1    3    3  502    0  0.46992743083E+01  0.10063270865E+02  0.80225193156E+01  0.14324308559E+02  0.41800000000E+01 0. -1.
         -5    1    3    3    0  502 -0.27569477665E+03  0.85329107684E+02 -0.24394883999E+03  0.37791159736E+03  0.41800000000E+01 0. -1.
        -11    1    1    2    0    0  0.14939502362E+03 -0.87023433196E+02 -0.13817850003E+03  0.22132611431E+03  0.00000000000E+00 0. -1.
         11    1    1    2    0    0  0.12160047873E+03 -0.83689453533E+01 -0.16449611733E+03  0.20473321247E+03  0.00000000000E+00 0.  1.
</event>
<event>
 7    1  0.2612213E-009  0.1563878E+03  0.7561462E-02  0.1192836E+00
          2   -1    0    0  501    0  0.00000000000E+00  0.00000000000E+00  0.32177721851E+03  0.32177721851E+03  0.00000000000E+00 0. -1.
         -2   -1    0    0    0  501 -0.00000000000E+00 -0.00000000000E+00 -0.10627471853E+03  0.10627471853E+03  0.00000000000E+00 0.  1.
         25    2    1    2    0    0 -0.85408291075E+02 -0.11733502599E+03  0.74970875177E+02  0.20574280910E+03  0.12508951540E+03 0.  0.
          5    1    3    3  502    0 -0.42995089134E+02 -0.78083285960E+02  0.10716925930E+03  0.13945716107E+03  0.41800000000E+01 0. -1.
         -5    1    3    3    0  502 -0.42413201941E+02 -0.39251740031E+02 -0.32198384123E+02  0.66285648028E+02  0.41800000000E+01 0. -1.
        -11    1    1    2    0    0  0.32421533635E+02  0.10675143822E+03  0.63983092821E+02  0.12861128089E+03  0.00000000000E+00 0.  1.
         11    1    1    2    0    0  0.52986757440E+02  0.10583587770E+02  0.76548531980E+02  0.93697847054E+02  0.00000000000E+00 0. -1.
</event>
<event>
 7    1  0.2612213E-009  0.2473816E+03  0.7561462E-02  0.1114971E+00
          1   -1    0    0  501    0  0.00000000000E+00  0.00000000000E+00  0.13553153410E+04  0.13553153410E+04  0.00000000000E+00 0. -1.
         -1   -1    0    0    0  501 -0.00000000000E+00 -0.00000000000E+00 -0.51717354190E+02  0.51717354190E+02  0.00000000000E+00 0.  1.
         25    2    1    2    0    0  0.89115164793E+02 -0.22382168862E+03  0.65196133243E+03  0.70621511321E+03  0.12509414954E+03 0.  0.
          5    1    3    3  502    0  0.36140620706E+02 -0.14533630814E+03  0.23560071122E+03  0.27920235396E+03  0.41800000000E+01 0. -1.
         -5    1    3    3    0  502  0.52974544087E+02 -0.78485380481E+02  0.41636062121E+03  0.42701275925E+03  0.41800000000E+01 0. -1.
        -11    1    1    2    0    0 -0.99108245257E+02  0.18279631925E+03  0.46356932965E+03  0.50806836351E+03  0.00000000000E+00 0.  1.
         11    1    1    2    0    0  0.99930804641E+01  0.41025369370E+02  0.18806732470E+03  0.19274921844E+03  0.00000000000E+00 0. -1.
</event>
<event>
 7    1  0.2612213E-009  0.1969186E+03  0.7561462E-02  0.1152365E+00
          1   -1    0    0  501    0  0.00000000000E+00  0.00000000000E+00  0.32074743024E+03  0.32074743024E+03  0.00000000000E+00 0.  1.
         -1   -1    0    0    0  501 -0.00000000000E+00 -0.00000000000E+00 -0.14569570659E+03  0.14569570659E+03  0.00000000000E+00 0. -1.
         25    2    1    2    0    0 -0.17244261826E+03 -0.61845724923E+02  0.55538765540E+02  0.22867705992E+03  0.12508914011E+03 0.  0.
          5    1    3    3  502    0 -0.17215709574E+02  0.69213646706E+01  0.55689912693E+02  0.58848319608E+02  0.41800000000E+01 0.  1.
         -5    1    3    3    0  502 -0.15522690868E+03 -0.68767089594E+02 -0.15114715218E+00  0.16982874031E+03  0.41800000000E+01 0.  1.
        -11    1    1    2    0    0  0.16290388908E+03  0.22436755039E+02  0.10266122604E+03  0.19385668001E+03  0.00000000000E+00 0.  1.
         11    1    1    2    0    0  0.95387291736E+01  0.39408969884E+02  0.16851732080E+02  0.43909396895E+02  0.00000000000E+00 0. -1.
</event>
<event>
 7    1  0.2612213E-009  0.4613654E+02  0.7561462E-02  0.1467369E+00
         -1   -1    0    0    0  501 -0.00000000000E+00  0.00000000000E+00  0.41682442334E+02  0.41682442334E+02  0.00000000000E+00 0.  1.
          1   -1    0    0  501    0  0.00000000000E+00 -0.00000000000E+00 -0.30471803241E+03  0.30471803241E+03  0.00000000000E+00 0. -1.
         25    2    1    2    0    0  0.28032858138E+02  0.19241278839E+01 -0.13275421541E+03  0.18455821181E+03  0.12509399840E+03 0.  0.
          5    1    3    3  502    0 -0.43748038570E+00 -0.12466165126E+02  0.22468344210E+02  0.26036427435E+02  0.41800000000E+01 0. -1.
         -5    1    3    3    0  502  0.28470338523E+02  0.14390293010E+02 -0.15522255962E+03  0.15852178438E+03  0.41800000000E+01 0. -1.
        -11    1    1    2    0    0  0.25726209783E+01 -0.13857782072E+02  0.10310798411E+02  0.17463363551E+02  0.00000000000E+00 0.  1.
         11    1    1    2    0    0 -0.30605479116E+02  0.11933654188E+02 -0.14059217308E+03  0.14437889938E+03  0.00000000000E+00 0. -1.
</event>
<event>
 7    1  0.2612213E-009  0.2202605E+03  0.7561462E-02  0.1133689E+00
          2   -1    0    0  501    0  0.00000000000E+00  0.00000000000E+00  0.24252056764E+03  0.24252056764E+03  0.00000000000E+00 0. -1.
         -2   -1    0    0    0  501 -0.00000000000E+00 -0.00000000000E+00 -0.21269870828E+03  0.21269870828E+03  0.00000000000E+00 0.  1.
         25    2    1    2    0    0  0.11381298217E+02 -0.19835764802E+03  0.19860410593E+02  0.23562091131E+03  0.12508991751E+03 0.  0.
          5    1    3    3  502    0  0.29422043818E+02  0.19240020074E+01  0.17358192128E+02  0.34469373074E+02  0.41800000000E+01 0. -1.
         -5    1    3    3    0  502 -0.18040745601E+02 -0.20028165003E+03  0.25022184647E+01  0.20115153824E+03  0.41800000000E+01 0. -1.
        -11    1    1    2    0    0  0.27223319330E+02  0.58616758029E+02 -0.26908989424E+02  0.70008050602E+02  0.00000000000E+00 0.  1.
         11    1    1    2    0    0 -0.38604617548E+02  0.13974088999E+03  0.36870438195E+02  0.14959031400E+03  0.00000000000E+00 0. -1.
</event>
<event>
 7    1  0.2612213E-009  0.1420903E+03  0.7561462E-02  0.1210544E+00
          2   -1    0    0  501    0  0.00000000000E+00  0.00000000000E+00  0.79301832987E+03  0.79301832987E+03  0.00000000000E+00 0.  1.
         -2   -1    0    0    0  501 -0.00000000000E+00 -0.00000000000E+00 -0.43540140093E+02  0.43540140093E+02  0.00000000000E+00 0. -1.
         25    2    1    2    0    0  0.78940096480E+02 -0.10145988243E+03  0.57392151590E+03  0.60129778877E+03  0.12508987883E+03 0.  0.
          5    1    3    3  502    0  0.24326712362E+02 -0.78724987180E+02  0.13375144770E+03  0.15715067516E+03  0.41800000000E+01 0. -1.
         -5    1    3    3    0  502  0.54613384118E+02 -0.22734895253E+02  0.44017006820E+03  0.44414711361E+03  0.41800000000E+01 0. -1.
        -11    1    1    2    0    0 -0.81351743118E+02  0.60600630448E+02  0.73408221146E+02  0.12521704936E+03  0.00000000000E+00 0.  1.
         11    1    1    2    0    0  0.24116466384E+01  0.40859251984E+02  0.10214845274E+03  0.11004363184E+03  0.00000000000E+00 0. -1.
</event>
<event>
 7    1  0.2612213E-009  0.9645321E+02  0.7561462E-02  0.1287936E+00
         -2   -1    0    0    0  501 -0.00000000000E+00  0.00000000000E+00  0.13257250327E+02  0.13257250327E+02  0.00000000000E+00 0.  1.
          2   -1    0    0  501    0  0.00000000000E+00 -0.00000000000E+00 -0.10695707164E+04  0.10695707164E+04  0.00000000000E+00 0. -1.
         25    2    1    2    0    0 -0.54676290712E+01 -0.24336136964E+02 -0.79027779367E+03  0.80050543133E+03  0.12509121428E+03 0.  0.
          5    1    3    3  502    0  0.54088409559E+02 -0.11063644598E+02 -0.21611518551E+03  0.22309461242E+03  0.41800000000E+01 0.  1.
         -5    1    3    3    0  502 -0.59556038631E+02 -0.13272492366E+02 -0.57416260816E+03  0.57741081891E+03  0.41800000000E+01 0.  1.
        -11    1    1    2    0    0 -0.47395012348E+01  0.49238951102E+02 -0.23939965834E+03  0.24445681335E+03  0.00000000000E+00 0. -1.
         11    1    1    2    0    0  0.10207130306E+02 -0.24902814137E+02 -0.26636014046E+02  0.37865722036E+02  0.00000000000E+00 0.  1.
</event>
<event>
 7    1  0.2805433E-009  0.1591211E+03  0.7561462E-02  0.1189693E+00
          1   -1    0    0  501    0  0.00000000000E+00  0.00000000000E+00  0.10489031794E+04  0.10489031794E+04  0.00000000000E+00 0. -1.
         -1   -1    0    0    0  501 -0.00000000000E+00 -0.00000000000E+00 -0.26649606810E+02  0.26649606810E+02  0.00000000000E+00 0.  1.
         25    2    1    2    0    0 -0.68503235668E+02 -0.98081839484E+02  0.67763148243E+03  0.69938815541E+03  0.12508647175E+03 0.  0.
          5    1    3    3  502    0  0.35515635599E+01  0.27569141498E+02  0.11778068295E+03  0.12108853307E+03  0.41800000000E+01 0.  1.
         -5    1    3    3    0  502 -0.72054799227E+02 -0.12565098098E+03  0.55985079948E+03  0.57829962233E+03  0.41800000000E+01 0.  1.
        -11    1    1    2    0    0  0.83527947401E+02  0.56049617001E+02  0.18692692896E+03  0.21227377213E+03  0.00000000000E+00 0.  1.
         11    1    1    2    0    0 -0.15024711733E+02  0.42032222483E+02  0.15769516118E+03  0.16389085865E+03  0.00000000000E+00 0. -1.
</event>
<event>
 7    1  0.2612213E-009  0.2077786E+03  0.7561462E-02  0.1143337E+00
          3   -1    0    0  501    0  0.00000000000E+00  0.00000000000E+00  0.36664493108E+02  0.36664493108E+02  0.00000000000E+00 0. -1.
         -3   -1    0    0    0  501 -0.00000000000E+00 -0.00000000000E+00 -0.15716741274E+04  0.15716741274E+04  0.00000000000E+00 0.  1.
         25    2    1    2    0    0  0.39377821782E+02  0.18508920385E+03 -0.11309999250E+04  0.11535243717E+04  0.12509604066E+03 0.  0.
          5    1    3    3  502    0  0.73995726961E+02  0.81359969766E+02 -0.71266622648E+03  0.72111402361E+03  0.41800000000E+01 0.  1.
         -5    1    3    3    0  502 -0.34617905179E+02  0.10372923408E+03 -0.41833369856E+03  0.43241034807E+03  0.41800000000E+01 0.  1.
        -11    1    1    2    0    0 -0.21861892336E+02 -0.18726133946E+02 -0.13499395385E+03  0.13802890279E+03  0.00000000000E+00 0.  1.
         11    1    1    2    0    0 -0.17515929446E+02 -0.16636306990E+03 -0.26901575541E+03  0.31678534605E+03  0.00000000000E+00 0. -1.
</event>
<event>
 7    1  0.2612213E-009  0.2577032E+03  0.7561462E-02  0.1108531E+00
          1   -1    0    0  501    0  0.00000000000E+00  0.00000000000E+00  0.23033418142E+03  0.23033418142E+03  0.00000000000E+00 0. -1.
         -1   -1    0    0    0  501 -0.00000000000E+00 -0.00000000000E+00 -0.33190948311E+03  0.33190948311E+03  0.00000000000E+00 0.  1.
         25    2    1    2    0    0  0.25072891234E+03  0.34944995691E+02 -0.72492943526E+02  0.29152777150E+03  0.12508826680E+03 0.  0.
          5    1    3    3  502    0  0.73041619193E+02 -0.13047621850E+02 -0.77479097018E+02  0.10735828540E+03  0.41800000000E+01 0.  1.
         -5    1    3    3    0  502  0.17768729314E+03  0.47992617541E+02  0.49861534923E+01  0.18416948610E+03  0.41800000000E+01 0.  1.
        -11    1    1    2    0    0 -0.17904135479E+03 -0.44821935132E+01 -0.57036242086E+02  0.18796018115E+03  0.00000000000E+00 0.  1.
         11    1    1    2    0    0 -0.71687557543E+02 -0.30462802178E+02  0.27953883923E+02  0.82755711884E+02  0.00000000000E+00 0. -1.
</event>
<event>
 7    1  0.2612213E-009  0.1819087E+03  0.7561462E-02  0.1165968E+00
         -2   -1    0    0    0  501 -0.00000000000E+00  0.00000000000E+00  0.56339817681E+02  0.56339817681E+02  0.00000000000E+00 0.  1.
          2   -1    0    0  501    0  0.00000000000E+00 -0.00000000000E+00 -0.73340845722E+03  0.73340845722E+03  0.00000000000E+00 0. -1.
         25    2    1    2    0    0  0.33927505451E+02 -0.15695606700E+03 -0.23400729216E+03  0.31015001415E+03  0.12508931169E+03 0.  0.
          5    1    3    3  502    0  0.29469292784E+02 -0.17841023329E+03 -0.20213350859E+03  0.27124542071E+03  0.41800000000E+01 0.  1.
         -5    1    3    3    0  502  0.44582126670E+01  0.21454166295E+02 -0.31873783577E+02  0.38904593444E+02  0.41800000000E+01 0.  1.
        -11    1    1    2    0    0 -0.26289686405E+02  0.11288686796E+03 -0.40372878258E+03  0.42003752505E+03  0.00000000000E+00 0. -1.
         11    1    1    2    0    0 -0.76378190452E+01  0.44069199037E+02 -0.39332564793E+02  0.59560735697E+02  0.00000000000E+00 0.  1.
</event>
<event>
 7    1  0.2612213E-009  0.8436605E+02  0.7561462E-02  0.1317099E+00
         -2   -1    0    0    0  501 -0.00000000000E+00  0.00000000000E+00  0.28467534931E+02  0.28467534931E+02  0.00000000000E+00 0.  1.
          2   -1    0    0  501    0  0.00000000000E+00 -0.00000000000E+00 -0.55797083605E+03  0.55797083605E+03  0.00000000000E+00 0. -1.
         25    2    1    2    0    0 -0.52727564544E+02  0.93763535213E+01 -0.35712377215E+03  0.38216930942E+03  0.12509148797E+03 0.  0.
          5    1    3    3  502    0 -0.33148996600E+02  0.17446571987E+02 -0.16978466046E+02  0.41339805986E+02  0.41800000000E+01 0.  1.
         -5    1    3    3    0  502 -0.19578567944E+02 -0.80702184657E+01 -0.34014530610E+03  0.34082950343E+03  0.41800000000E+01 0.  1.
        -11    1    1    2    0    0  0.10414608355E+02  0.41784683066E+02 -0.72924009640E+02  0.84689639202E+02  0.00000000000E+00 0.  1.
         11    1    1    2    0    0  0.42312956189E+02 -0.51161036588E+02 -0.99455519337E+02  0.11957942236E+03  0.00000000000E+00 0. -1.
</event>
<event>
 7    1  0.2612213E-009  0.2118950E+03  0.7561462E-02  0.1140074E+00
         -1   -1    0    0    0  501 -0.00000000000E+00  0.00000000000E+00  0.46404451538E+02  0.46404451538E+02  0.00000000000E+00 0. -1.
          1   -1    0    0  501    0  0.00000000000E+00 -0.00000000000E+00 -0.11972007558E+04  0.11972007558E+04  0.00000000000E+00 0.  1.
         25    2    1    2    0    0  0.12989642788E+03 -0.15680643648E+03 -0.47001295130E+03  0.52727913843E+03  0.12509906051E+03 0.  0.
          5    1    3    3  502    0  0.71472791442E+02 -0.84872606402E+02 -0.11305043175E+03  0.15846006359E+03  0.41800000000E+01 0.  1.
         -5    1    3    3    0  502  0.58423636438E+02 -0.71933830075E+02 -0.35696251955E+03  0.36881907485E+03  0.41800000000E+01 0.  1.
        -11    1    1    2    0    0 -0.14172952229E+03  0.13832255989E+03 -0.57094794878E+03  0.60431940916E+03  0.00000000000E+00 0.  1.
         11    1    1    2    0    0  0.11833094409E+02  0.18483876584E+02 -0.10983540419E+03  0.11200665975E+03  0.00000000000E+00 0. -1.
</event>
<event>
 7    1  0.2612213E-009  0.1097426E+03  0.7561462E-02  0.1261047E+00
         -2   -1    0    0    0  501 -0.00000000000E+00  0.00000000000E+00  0.19978665378E+02  0.19978665378E+02  0.00000000000E+00 0. -1.
          2   -1    0    0  501    0  0.00000000000E+00 -0.00000000000E+00 -0.78175438208E+03  0.78175438208E+03  0.00000000000E+00 0.  1.
         25    2    1    2    0    0 -0.62667803634E+02  0.43885027260E+02 -0.39634885056E+03  0.42260672488E+03  0.12510349056E+03 0.  0.
          5    1    3    3  502    0  0.31012457132E+02 -0.10122283012E+02 -0.14958365188E+03  0.15315669891E+03  0.41800000000E+01 0. -1.
         -5    1    3    3    0  502 -0.93680260766E+02  0.54007310272E+02 -0.24676519867E+03  0.26945002597E+03  0.41800000000E+01 0. -1.
        -11    1    1    2    0    0  0.42834203613E+02 -0.39061036607E+02 -0.34641512617E+03  0.35123207886E+03  0.00000000000E+00 0.  1.
         11    1    1    2    0    0  0.19833600021E+02 -0.48239906534E+01 -0.19011739976E+02  0.27894243717E+02  0.00000000000E+00 0. -1.
</event>
<event>
 7    1  0.2612213E-009  0.1870230E+03  0.7561462E-02  0.1161174E+00
          1   -1    0    0  501    0  0.00000000000E+00  0.00000000000E+00  0.63850465490E+03  0.63850465490E+03  0.00000000000E+00 0. -1.
         -1   -1    0    0    0  501 -0.00000000000E+00 -0.00000000000E+00 -0.89221847291E+02  0.89221847291E+02  0.00000000000E+00 0.  1.
         25    2    1    2    0    0 -0.15880283444E+03 -0.45764729896E+02  0.48806273991E+03  0.53025457102E+03  0.12510763874E+03 0.  0.
          5    1    3    3  502    0 -0.80448429389E+02  0.31194431112E+02  0.30242613523E+03  0.31452198968E+03  0.41800000000E+01 0.  1.
         -5    1    3    3    0  502 -0.78354405053E+02 -0.76959161008E+02  0.18563660468E+03  0.21573258134E+03  0.41800000000E+01 0.  1.
        -11    1    1    2    0    0  0.97861844798E+01  0.25564200507E+02 -0.12385481527E+02  0.30044931468E+02  0.00000000000E+00 0.  1.
         11    1    1    2    0    0  0.14901664996E+03  0.20200529389E+02  0.73605549233E+02  0.16742699971E+03  0.00000000000E+00 0. -1.
</event>
<event>
 7    1  0.2612213E-009  0.1184184E+03  0.7561462E-02  0.1245729E+00
          1   -1    0    0  501    0  0.00000000000E+00  0.00000000000E+00  0.40389156912E+02  0.40389156912E+02  0.00000000000E+00 0. -1.
         -1   -1    0    0    0  501 -0.00000000000E+00 -0.00000000000E+00 -0.50689970223E+03  0.50689970223E+03  0.00000000000E+00 0.  1.
         25    2    1    2    0    0  0.86052617436E+02  0.34897766028E+02 -0.22868077288E+03  0.27670266595E+03  0.12508621995E+03 0.  0.
          5    1    3    3  502    0  0.10665763937E+03  0.20317192215E+02 -0.10748992950E+03  0.15284043208E+03  0.41800000000E+01 0.  1.
         -5    1    3    3    0  502 -0.20605021930E+02  0.14580573813E+02 -0.12119084338E+03  0.12386223387E+03  0.41800000000E+01 0.  1.
        -11    1    1    2    0    0 -0.67074431604E+02 -0.51015019313E+01 -0.62797969150E+02  0.92024940241E+02  0.00000000000E+00 0.  1.
         11    1    1    2    0    0 -0.18978185832E+02 -0.29796264097E+02 -0.17503180329E+03  0.17856125295E+03  0.00000000000E+00 0. -1.
</event>
<event>
 7    1  0.2612213E-009  0.1136069E+03  0.7561462E-02  0.1254032E+00
          2   -1    0    0  501    0  0.00000000000E+00  0.00000000000E+00  0.10629050788E+04  0.10629050788E+04  0.00000000000E+00 0. -1.
         -2   -1    0    0    0  501 -0.00000000000E+00 -0.00000000000E+00 -0.13805985988E+02  0.13805985988E+02  0.00000000000E+00 0.  1.
         25    2    1    2    0    0  0.34543703845E+02  0.16062512297E+01  0.77168245649E+03  0.78252392100E+03  0.12511604922E+03 0.  0.
          5    1    3    3  502    0 -0.19675132556E+02  0.51878832467E+02  0.34694784545E+03  0.35138128004E+03  0.41800000000E+01 0.  1.
         -5    1    3    3    0  502  0.54218836401E+02 -0.50272581237E+02  0.42473461104E+03  0.43114264097E+03  0.41800000000E+01 0.  1.
        -11    1    1    2    0    0  0.29814835163E+02  0.11282984943E+02  0.78705814700E+02  0.84916638020E+02  0.00000000000E+00 0.  1.
         11    1    1    2    0    0 -0.64358539008E+02 -0.12889236172E+02  0.19871082162E+03  0.20927050576E+03  0.00000000000E+00 0. -1.
</event>
<event>
 7    1  0.2612213E-009  0.1135690E+03  0.7561462E-02  0.1254100E+00
         -2   -1    0    0    0  501 -0.00000000000E+00  0.00000000000E+00  0.65106647824E+02  0.65106647824E+02  0.00000000000E+00 0.  1.
          2   -1    0    0  501    0  0.00000000000E+00 -0.00000000000E+00 -0.42150930703E+03  0.42150930703E+03  0.00000000000E+00 0. -1.
         25    2    1    2    0    0  0.11219663890E+02  0.84630995177E+02 -0.55224148272E+02  0.16119923893E+03  0.12508877598E+03 0.  0.
          5    1    3    3  502    0 -0.45124600770E+02  0.40542409653E+02 -0.64840489582E+02  0.88891383522E+02  0.41800000000E+01 0.  1.
         -5    1    3    3    0  502  0.56344264660E+02  0.44088585524E+02  0.96163413106E+01  0.72307855409E+02  0.41800000000E+01 0.  1.
        -11    1    1    2    0    0 -0.23462369336E+00 -0.83635893101E+02 -0.30291653079E+03  0.31425060428E+03  0.00000000000E+00 0. -1.
         11    1    1    2    0    0 -0.10985040197E+02 -0.99510207591E+00  0.17380198560E+01  0.11166111646E+02  0.00000000000E+00 0.  1.
</event>
<event>
 7    1  0.2612213E-009  0.8480675E+02  0.7561462E-02  0.1315939E+00
          1   -1    0    0  501    0  0.00000000000E+00  0.00000000000E+00  0.14227167960E+03  0.14227167960E+03  0.00000000000E+00 0. -1.
         -1   -1    0    0    0  501 -0.00000000000E+00 -0.00000000000E+00 -0.90400729513E+02  0.90400729513E+02  0.00000000000E+00 0.  1.
         25    2    1    2    0    0 -0.47467799405E+02 -0.44228078998E+01  0.17772950008E+02  0.13503830481E+03  0.12508682106E+03 0.  0.
          5    1    3    3  502    0 -0.60402747645E+02 -0.16397267251E+02  0.61413966703E+02  0.87786730219E+02  0.41800000000E+01 0. -1.
         -5    1    3    3    0  502  0.12934948239E+02  0.11974459351E+02 -0.43641016696E+02  0.47251574587E+02  0.41800000000E+01 0. -1.
        -11    1    1    2    0    0  0.42717577090E+00  0.33477087028E+02  0.24572746308E+02  0.41529720636E+02  0.00000000000E+00 0.  1.
         11    1    1    2    0    0  0.47040623635E+02 -0.29054279128E+02  0.95252537710E+01  0.56104383670E+02  0.00000000000E+00 0. -1.
</event>
<event>
 7    1  0.2612213E-009  0.1169205E+03  0.7561462E-02  0.1248265E+00
         -2   -1    0    0    0  501 -0.00000000000E+00  0.00000000000E+00  0.27552532560E+02  0.27552532560E+02  0.00000000000E+00 0.  1.
          2   -1    0    0  501    0  0.00000000000E+00 -0.00000000000E+00 -0.73642767839E+03  0.73642767839E+03  0.00000000000E+00 0. -1.
         25    2    1    2    0    0  0.22043749011E+02 -0.59703041446E+02 -0.56944167380E+03  0.58648290613E+03  0.12509196337E+03 0.  0.
          5    1    3    3  502    0  0.49107408486E+02  0.10099575351E+02 -0.10994740475E+03  0.12091088951E+03  0.41800000000E+01 0. -1.
         -5    1    3    3    0  502 -0.27063659476E+02 -0.69802616797E+02 -0.45949426904E+03  0.46557201662E+03  0.41800000000E+01 0. -1.
        -11    1    1    2    0    0  0.22967082320E+02  0.59240201021E+02 -0.67996363420E+02  0.93061236428E+02  0.00000000000E+00 0.  1.
         11    1    1    2    0    0 -0.45010831330E+02  0.46284042552E+00 -0.71437108618E+02  0.84436068395E+02  0.00000000000E+00 0. -1.
</event>
<event>
 7    1  0.2612213E-009  0.1891934E+03  0.7561462E-02  0.1159191E+00
         -3   -1    0    0    0  501 -0.00000000000E+00  0.00000000000E+00  0.85155529239E+02  0.85155529239E+02  0.00000000000E+00 0.  1.
          3   -1    0    0  501    0  0.00000000000E+00 -0.00000000000E+00 -0.47520274289E+03  0.47520274289E+03  0.00000000000E+00 0. -1.
         25    2    1    2    0    0  0.75035646555E+02  0.13892442532E+03 -0.28656980729E+03  0.35028483674E+03  0.12508744220E+03 0.  0.
          5    1    3    3  502    0 -0.32837616983E+02  0.21286391880E+02 -0.80431328622E+02  0.89543791478E+02  0.41800000000E+01 0. -1.
         -5    1    3    3    0  502  0.10787326354E+03  0.11763803344E+03 -0.20613847867E+03  0.26074104526E+03  0.41800000000E+01 0. -1.
        -11    1    1    2    0    0 -0.83794691329E+02 -0.68032469171E+02 -0.81786860440E+02  0.13542177704E+03  0.00000000000E+00 0. -1.
         11    1    1    2    0    0  0.87590447740E+01 -0.70891956145E+02 -0.21690545917E+02  0.74651658344E+02  0.00000000000E+00 0.  1.
</event>
<event>
 7    1  0.2612213E-009  0.8448711E+02  0.7561462E-02  0.1316779E+00
          1   -1    0    0  501    0  0.00000000000E+00  0.00000000000E+00  0.67932405564E+03  0.67932405564E+03  0.00000000000E+00 0. -1.
         -1   -1    0    0    0  501 -0.00000000000E+00 -0.00000000000E+00 -0.17775482785E+02  0.17775482785E+02  0.00000000000E+00 0.  1.
         25    2    1    2    0    0 -0.34007749394E+01  0.14936380337E+02  0.37870903627E+03  0.39912751562E+03  0.12509028279E+03 0.  0.
          5    1    3    3  502    0  0.19972724373E+02  0.41245722261E+02  0.47890274540E+02  0.66415887551E+02  0.41800000000E+01 0. -1.
         -5    1    3    3    0  502 -0.23373499312E+02 -0.26309341923E+02  0.33081876173E+03  0.33271162807E+03  0.41800000000E+01 0. -1.
        -11    1    1    2    0    0 -0.36795996896E+02  0.12486852948E+02  0.18074003884E+03  0.18486976098E+03  0.00000000000E+00 0. -1.
         11    1    1    2    0    0  0.40196771835E+02 -0.27423233285E+02  0.10209949774E+03  0.11310226182E+03  0.00000000000E+00 0.  1.
</event>
<event>
 7    1  0.2612213E-009  0.1536700E+03  0.7561462E-02  0.1196034E+00
         -2   -1    0    0    0  501 -0.00000000000E+00  0.00000000000E+00  0.67403223333E+02  0.67403223333E+02  0.00000000000E+00 0.  1.
          2   -1    0    0  501    0  0.00000000000E+00 -0.00000000000E+00 -0.46768762032E+03  0.46768762032E+03  0.00000000000E+00 0. -1.
         25    2    1    2    0    0  0.62315274435E+02  0.12374321766E+03 -0.16555054475E+03  0.24949929253E+03  0.12508931513E+03 0.  0.
          5    1    3    3  502    0  0.64465956673E+02  0.83274716468E+02 -0.32410405499E+02  0.11026533797E+03  0.41800000000E+01 0.  1.
         -5    1    3    3    0  502 -0.21506822379E+01  0.40468501193E+02 -0.13314013925E+03  0.13923395456E+03  0.41800000000E+01 0.  1.
        -11    1    1    2    0    0 -0.73984378128E+02 -0.56856300505E+02 -0.11662764544E+03  0.14935974958E+03  0.00000000000E+00 0. -1.
         11    1    1    2    0    0  0.11669103693E+02 -0.66886917156E+02 -0.11810620680E+03  0.13623180154E+03  0.00000000000E+00 0.  1.
</event>
<event>
 7    1  0.2612213E-009  0.1782606E+03  0.7561462E-02  0.1169497E+00
          1   -1    0    0  501    0  0.00000000000E+00  0.00000000000E+00  0.39273740143E+02  0.39273740143E+02  0.00000000000E+00 0. -1.
         -1   -1    0    0    0  501 -0.00000000000E+00 -0.00000000000E+00 -0.96621559692E+03  0.96621559692E+03  0.00000000000E+00 0.  1.
         25    2    1    2    0    0  0.16680778322E+02  0.15194207271E+03 -0.35920491181E+03  0.40992709250E+03  0.12508961059E+03 0.  0.
          5    1    3    3  502    0 -0.19547766940E+02  0.14577139010E+03 -0.33454975437E+03  0.36547561329E+03  0.41800000000E+01 0.  1.
         -5    1    3    3    0  502  0.36228545262E+02  0.61706826062E+01 -0.24655157438E+02  0.44451479210E+02  0.41800000000E+01 0.  1.
        -11    1    1    2    0    0  0.32381330827E+02 -0.61787452731E+02 -0.15041977834E+03  0.16580817114E+03  0.00000000000E+00 0. -1.
         11    1    1    2    0    0 -0.49062109150E+02 -0.90154619976E+02 -0.41731716663E+03  0.42975407342E+03  0.00000000000E+00 0.  1.
</event>
<event>
 7    1  0.2612213E-009  0.1754878E+03  0.7561462E-02  0.1172243E+00
          2   -1    0    0  501    0  0.00000000000E+00  0.00000000000E+00  0.14594945007E+03  0.14594945007E+03  0.00000000000E+00 0. -1.
         -2   -1    0    0    0  501 -0.00000000000E+00 -0.00000000000E+00 -0.24269903528E+03  0.24269903528E+03  0.00000000000E+00 0.  1.
         25    2    1    2    0    0  0.15041246548E+03  0.22579658989E+02 -0.81293741534E+02  0.21304829461E+03  0.12508857922E+03 0.  0.
          5    1    3    3  502    0  0.38637512220E+02  0.64167587489E+02 -0.48351497794E+02  0.89250637945E+02  0.41800000000E+01 0.  1.
         -5    1    3    3    0  502  0.11177495326E+03 -0.41587928500E+02 -0.32942243740E+02  0.12379765666E+03  0.41800000000E+01 0.  1.
        -11    1    1    2    0    0 -0.93732406435E+02  0.44279049191E+01 -0.47429073351E+02  0.10514222443E+03  0.00000000000E+00 0.  1.
         11    1    1    2    0    0 -0.56680059041E+02 -0.27007563908E+02  0.31973229682E+02  0.70457966317E+02  0.00000000000E+00 0. -1.
</event>
<event>
 7    1  0.2612213E-009  0.2381135E+03  0.7561462E-02  0.1121056E+00
          2   -1    0    0  501    0  0.00000000000E+00  0.00000000000E+00  0.22002073855E+04  0.22002073855E+04  0.00000000000E+00 0. -1.
         -2   -1    0    0    0  501 -0.00000000000E+00 -0.00000000000E+00 -0.29029943297E+02  0.29029943297E+02  0.00000000000E+00 0.  1.
         25    2    1    2    0    0  0.20438833261E+03 -0.56639575060E+02  0.14715610421E+04  0.14920193635E+04  0.12508896179E+03 0.  0.
          5    1    3    3  502    0  0.76179870086E+01  0.28776694423E+02  0.13152704797E+03  0.13491837760E+03  0.41800000000E+01 0. -1.
         -5    1    3    3    0  502  0.19677034561E+03 -0.85416269482E+02  0.13400339942E+04  0.13571009859E+04  0.41800000000E+01 0. -1.
        -11    1    1    2    0    0 -0.70054933472E+02 -0.25045188765E+02  0.25452978909E+03  0.26517987993E+03  0.00000000000E+00 0. -1.
         11    1    1    2    0    0 -0.13433339914E+03  0.81684763825E+02  0.44508661097E+03  0.47203808536E+03  0.00000000000E+00 0.  1.
</event>
<event>
 7    1  0.2612213E-009  0.9845106E+02  0.7561462E-02  0.1283587E+00
         -2   -1    0    0    0  501 -0.00000000000E+00  0.00000000000E+00  0.66897069903E+02  0.66897069903E+02  0.00000000000E+00 0.  1.
          2   -1    0    0  501    0  0.00000000000E+00 -0.00000000000E+00 -0.19977708904E+03  0.19977708904E+03  0.00000000000E+00 0. -1.
         25    2    1    2    0    0 -0.39648015176E+02 -0.15691536346E+02 -0.62587636923E+02  0.14622778017E+03  0.12508861650E+03 0.  0.
          5    1    3    3  502    0  0.10749046621E+02 -0.50323002552E+02 -0.67223554376E+02  0.84760988975E+02  0.41800000000E+01 0. -1.
         -5    1    3    3    0  502 -0.50397061797E+02  0.34631466206E+02  0.46359174532E+01  0.61466791196E+02  0.41800000000E+01 0. -1.
        -11    1    1    2    0    0  0.49915879033E+02 -0.14592653884E+02 -0.71539495455E+02  0.88444558549E+02  0.00000000000E+00 0. -1.
         11    1    1    2    0    0 -0.10267863857E+02  0.30284190229E+02  0.12471132418E+01  0.32001820221E+02  0.00000000000E+00 0.  1.
</event>
<event>
 7    1  0.2612213E-009  0.9201714E+02  0.7561462E-02  0.1298039E+00
         -1   -1    0    0    0  501 -0.00000000000E+00  0.00000000000E+00  0.57780232129E+02  0.57780232129E+02  0.00000000000E+00 0.  1.
          1   -1    0    0  501    0  0.00000000000E+00 -0.00000000000E+00 -0.30670775867E+03  0.30670775867E+03  0.00000000000E+00 0. -1.
         25    2    1    2    0    0 -0.42985605411E+02 -0.43839099379E+02 -0.73565074278E+02  0.15757465837E+03  0.12509326081E+03 0.  0.
          5    1    3    3  502    0  0.32014131718E+02 -0.18658754543E+02  0.13686116727E+02  0.39721983106E+02  0.41800000000E+01 0. -1.
         -5    1    3    3    0  502 -0.74999737129E+02 -0.25180344836E+02 -0.87251191005E+02  0.11785267527E+03  0.41800000000E+01 0. -1.
        -11    1    1    2    0    0  0.75923477522E+01  0.27516097360E+02 -0.13359343265E+01  0.28575585363E+02  0.00000000000E+00 0.  1.
         11    1    1    2    0    0  0.35393257659E+02  0.16323002019E+02 -0.17402651794E+03  0.17833774706E+03  0.00000000000E+00 0. -1.
</event>
<event>
 7    1  0.2612213E-009  0.1970988E+03  0.7561462E-02  0.1152210E+00
          2   -1    0    0  501    0  0.00000000000E+00  0.00000000000E+00  0.27601468683E+03  0.27601468683E+03  0.00000000000E+00 0. -1.
         -2   -1    0    0    0  501 -0.00000000000E+00 -0.00000000000E+00 -0.15217938796E+03  0.15217938796E+03  0.00000000000E+00 0.  1.
         25    2    1    2    0    0  0.78907755686E+01 -0.17254600405E+03  0.37436958352E+02  0.21652581946E+03  0.12509003473E+03 0.  0.
          5    1    3    3  502    0 -0.49269638255E+02 -0.10624519597E+03 -0.86517611485E+01  0.11750686912E+03  0.41800000000E+01 0.  1.
         -5    1    3    3    0  502  0.57160413823E+02 -0.66300808086E+02  0.46088719501E+02  0.99018950341E+02  0.41800000000E+01 0.  1.
        -11    1    1    2    0    0  0.30299013383E+02  0.12375954094E+03  0.37732629432E+02  0.13288418081E+03  0.00000000000E+00 0.  1.
         11    1    1    2    0    0 -0.38189788952E+02  0.48786463119E+02  0.48665711086E+02  0.78784074529E+02  0.00000000000E+00 0. -1.
</event>
<event>
 7    1  0.3091969E-009  0.4400902E+02  0.7561462E-02  0.1480625E+00
         -2   -1    0    0    0  501 -0.00000000000E+00  0.00000000000E+00  0.11926088539E+03  0.11926088539E+03  0.00000000000E+00 0.  1.
          2   -1    0    0  501    0  0.00000000000E+00 -0.00000000000E+00 -0.12688487073E+03  0.12688487073E+03  0.00000000000E+00 0. -1.
         25    2    1    2    0    0 -0.22012275015E+02  0.18524846452E+02 -0.54661999641E+02  0.13951101800E+03  0.12509068610E+03 0.  0.
          5    1    3    3  502    0 -0.20425389072E+02  0.10080501390E+02  0.39003015915E+02  0.45359901647E+02  0.41800000000E+01 0.  1.
         -5    1    3    3    0  502 -0.15868859428E+01  0.84443450621E+01 -0.93665015556E+02  0.94151116348E+02  0.41800000000E+01 0.  1.
        -11    1    1    2    0    0  0.25729154027E+02  0.92058914417E+01 -0.20085129304E+02  0.33913864766E+02  0.00000000000E+00 0. -1.
         11    1    1    2    0    0 -0.37168790124E+01 -0.27730737893E+02  0.67123143606E+02  0.72720873353E+02  0.00000000000E+00 0.  1.
</event>
<event>
 7    1  0.2612213E-009  0.1141756E+03  0.7561462E-02  0.1253027E+00
          1   -1    0    0  501    0  0.00000000000E+00  0.00000000000E+00  0.49047646495E+03  0.49047646495E+03  0.00000000000E+00 0. -1.
         -1   -1    0    0    0  501 -0.00000000000E+00 -0.00000000000E+00 -0.28900471285E+02  0.28900471285E+02  0.00000000000E+00 0.  1.
         25    2    1    2    0    0 -0.49896104933E+02 -0.20048962351E+02  0.28108469875E+03  0.31232687207E+03  0.12509150636E+03 0.  0.
          5    1    3    3  502    0 -0.77004543226E+02  0.26793732412E+02  0.15970144336E+03  0.17935893394E+03  0.41800000000E+01 0. -1.
         -5    1    3    3    0  502  0.27108438293E+02 -0.46842694764E+02  0.12138325540E+03  0.13296793813E+03  0.41800000000E+01 0. -1.
        -11    1    1    2    0    0  0.25092884989E+02  0.48547189661E+02  0.14600352736E+03  0.15589583863E+03  0.00000000000E+00 0. -1.
         11    1    1    2    0    0  0.24803219944E+02 -0.28498227310E+02  0.34487767556E+02  0.51154225538E+02  0.00000000000E+00 0.  1.
</event>
<event>
 7    1  0.2612213E-009  0.1556381E+03  0.7561462E-02  0.1193711E+00
          2   -1    0    0  501    0  0.00000000000E+00  0.00000000000E+00  0.46194618757E+03  0.46194618757E+03  0.00000000000E+00 0. -1.
         -2   -1    0    0    0  501 -0.00000000000E+00 -0.00000000000E+00 -0.75150379740E+02  0.75150379740E+02  0.00000000000E+00 0.  1.
         25    2    1    2    0    0  0.47855326870E+02 -0.12975014651E+03  0.28256407307E+03  0.33855045993E+03  0.12509486678E+03 0.  0.
          5    1    3    3  502    0  0.42107765174E+02 -0.14225101077E+03  0.28733524504E+03  0.32339979808E+03  0.41800000000E+01 0.  1.
         -5    1    3    3    0  502  0.57475616963E+01  0.12500864253E+02 -0.47711719704E+01  0.15150661850E+02  0.41800000000E+01 0.  1.
        -11    1    1    2    0    0  0.11824502259E+02  0.14592462442E+02 -0.13697093950E+02  0.23245842563E+02  0.00000000000E+00 0.  1.
         11    1    1    2    0    0 -0.59679829129E+02  0.11515768407E+03  0.11792882871E+03  0.17530026482E+03  0.00000000000E+00 0. -1.
</event>
<event>
 7    1  0.2612213E-009  0.1688064E+03  0.7561462E-02  0.1179098E+00
         -2   -1    0    0    0  501 -0.00000000000E+00  0.00000000000E+00  0.20699349849E+03  0.20699349849E+03  0.00000000000E+00 0.  1.
          2   -1    0    0  501    0  0.00000000000E+00 -0.00000000000E+00 -0.21331701267E+03  0.21331701267E+03  0.00000000000E+00 0. -1.
         25    2    1    2    0    0 -0.13838369658E+03  0.54338013064E+02  0.96973125516E+02  0.21714858130E+03  0.12508817748E+03 0.  0.
          5    1    3    3  502    0 -0.15970393080E+02  0.53830446091E+02 -0.66681671273E+01  0.56698388286E+02  0.41800000000E+01 0. -1.
         -5    1    3    3    0  502 -0.12241330350E+03  0.50756697350E+00  0.10364129264E+03  0.16045019301E+03  0.41800000000E+01 0. -1.
        -11    1    1    2    0    0  0.84071182647E+02 -0.61326410112E+02 -0.10572684969E+03  0.14834776397E+03  0.00000000000E+00 0. -1.
         11    1    1    2    0    0  0.54312513929E+02  0.69883970475E+01  0.24302100006E+01  0.54814165899E+02  0.00000000000E+00 0.  1.
</event>
<event>
 7    1  0.2612213E-009  0.9644945E+02  0.7561462E-02  0.1287945E+00
          1   -1    0    0  501    0  0.00000000000E+00  0.00000000000E+00  0.42641540289E+03  0.42641540289E+03  0.00000000000E+00 0. -1.
         -1   -1    0    0    0  501 -0.00000000000E+00 -0.00000000000E+00 -0.44328540224E+02  0.44328540224E+02  0.00000000000E+00 0.  1.
         25    2    1    2    0    0 -0.58602412846E+02  0.12119784871E+02  0.30565508391E+03  0.33563834753E+03  0.12508772137E+03 0.  0.
          5    1    3    3  502    0  0.20842685887E+02 -0.34190351486E+01  0.23152120049E+01  0.21655021657E+02  0.41800000000E+01 0.  1.
         -5    1    3    3    0  502 -0.79445098734E+02  0.15538820020E+02  0.30333987191E+03  0.31398332588E+03  0.41800000000E+01 0.  1.
        -11    1    1    2    0    0  0.50483733014E+02 -0.37999251363E+02  0.10816932202E+02  0.64105822087E+02  0.00000000000E+00 0.  1.
         11    1    1    2    0    0  0.81186798325E+01  0.25879466492E+02  0.65614846554E+02  0.70999773495E+02  0.00000000000E+00 0. -1.
</event>
<event>
 7    1  0.2612213E-009  0.8177755E+02  0.7561462E-02  0.1324081E+00
          1   -1    0    0  501    0  0.00000000000E+00  0.00000000000E+00  0.93391452290E+03  0.93391452290E+03  0.00000000000E+00 0. -1.
         -1   -1    0    0    0  501 -0.00000000000E+00 -0.00000000000E+00 -0.12780727188E+02  0.12780727188E+02  0.00000000000E+00 0.  1.
         25    2    1    2    0    0  0.73272396975E+01  0.60701051703E+01  0.58211186909E+03  0.59547685014E+03  0.12509163158E+03 0.  0.
          5    1    3    3  502    0  0.39245857148E+02 -0.25257869018E+01  0.54151677489E+03  0.54295902865E+03  0.41800000000E+01 0.  1.
         -5    1    3    3    0  502 -0.31918617451E+02  0.85958920720E+01  0.40595094199E+02  0.52517821485E+02  0.41800000000E+01 0.  1.
        -11    1    1    2    0    0  0.75385167882E+01  0.40813304717E+02  0.18207071568E+03  0.18674126642E+03  0.00000000000E+00 0.  1.
         11    1    1    2    0    0 -0.14865756486E+02 -0.46883409888E+02  0.15695121094E+03  0.16447713353E+03  0.00000000000E+00 0. -1.
</event>
<event>
 7    1  0.2612213E-009  0.1621085E+03  0.7561462E-02  0.1186337E+00
         -2   -1    0    0    0  501 -0.00000000000E+00  0.00000000000E+00  0.20618656056E+02  0.20618656056E+02  0.00000000000E+00 0. -1.
          2   -1    0    0  501    0  0.00000000000E+00 -0.00000000000E+00 -0.14610426084E+04  0.14610426084E+04  0.00000000000E+00 0.  1.
         25    2    1    2    0    0 -0.60972036985E+02  0.11931255473E+03 -0.82552522089E+03  0.84563400533E+03  0.12510757626E+03 0.  0.
          5    1    3    3  502    0  0.19272735097E+02  0.70630889810E+02 -0.19856286584E+03  0.21167154982E+03  0.41800000000E+01 0. -1.
         -5    1    3    3    0  502 -0.80244772083E+02  0.48681664919E+02 -0.62696235505E+03  0.63396245551E+03  0.41800000000E+01 0. -1.
        -11    1    1    2    0    0  0.60951481134E+02 -0.30562625971E+02 -0.35227088841E+03  0.35880905226E+03  0.00000000000E+00 0.  1.
         11    1    1    2    0    0  0.20555851451E-01 -0.88749928758E+02 -0.26262784299E+03  0.27721820682E+03  0.00000000000E+00 0. -1.
</event>
<event>
 7    1  0.2612213E-009  0.8104291E+02  0.7561462E-02  0.1326118E+00
         -1   -1    0    0    0  501 -0.00000000000E+00  0.00000000000E+00  0.86213705290E+02  0.86213705290E+02  0.00000000000E+00 0.  1.
          1   -1    0    0  501    0  0.00000000000E+00 -0.00000000000E+00 -0.14537183210E+03  0.14537183210E+03  0.00000000000E+00 0. -1.
         25    2    1    2    0    0  0.29389638221E+01  0.29748363783E+02 -0.31758566186E+02  0.13247569895E+03  0.12509037385E+03 0.  0.
          5    1    3    3  502    0  0.85865687849E+01 -0.17053412886E+02  0.41148721105E+02  0.45554776952E+02  0.41800000000E+01 0. -1.
         -5    1    3    3    0  502 -0.56476049628E+01  0.46801776669E+02 -0.72907287291E+02  0.86920922000E+02  0.41800000000E+01 0. -1.
        -11    1    1    2    0    0 -0.44762619028E+02 -0.15823349149E+01 -0.14191073426E+02  0.46984916846E+02  0.00000000000E+00 0. -1.
         11    1    1    2    0    0  0.41823655206E+02 -0.28166028868E+02 -0.13208487200E+02  0.52124921593E+02  0.00000000000E+00 0.  1.
</event>
<event>
 7    1  0.2612213E-009  0.1230189E+03  0.7561462E-02  0.1238198E+00
         -1   -1    0    0    0  501 -0.00000000000E+00  0.00000000000E+00  0.37582855245E+03  0.37582855245E+03  0.00000000000E+00 0.  1.
          1   -1    0    0  501    0  0.00000000000E+00 -0.00000000000E+00 -0.51394023216E+02  0.51394023216E+02  0.00000000000E+00 0. -1.
         25    2    1    2    0    0  0.46036679021E+02  0.49084036508E+02  0.93983204443E+02  0.17030756831E+03  0.12507280540E+03 0.  0.
          5    1    3    3  502    0  0.87898688155E+02  0.18598247522E+02  0.63072073477E+02  0.10985277895E+03  0.41800000000E+01 0.  1.
         -5    1    3    3    0  502 -0.41862009134E+02  0.30485788986E+02  0.30911130966E+02  0.60454789359E+02  0.41800000000E+01 0.  1.
        -11    1    1    2    0    0 -0.65558844734E+00 -0.57906802929E+02  0.17706031758E+03  0.18629005256E+03  0.00000000000E+00 0.  1.
         11    1    1    2    0    0 -0.45381090573E+02  0.88227664209E+01  0.53391007209E+02  0.70624954795E+02  0.00000000000E+00 0. -1.
</event>
<event>
 7    1  0.2612213E-009  0.1081828E+03  0.7561462E-02  0.1263973E+00
         -2   -1    0    0    0  501 -0.00000000000E+00  0.00000000000E+00  0.18495317474E+02  0.18495317474E+02  0.00000000000E+00 0.  1.
          2   -1    0    0  501    0  0.00000000000E+00 -0.00000000000E+00 -0.75832549040E+03  0.75832549040E+03  0.00000000000E+00 0. -1.
         25    2    1    2    0    0 -0.26375425981E+02  0.61715280108E+02 -0.44915078385E+03  0.47106125922E+03  0.12513130867E+03 0.  0.
          5    1    3    3  502    0 -0.66182378954E+02  0.30347790201E+02 -0.36901345015E+03  0.37615089319E+03  0.41800000000E+01 0. -1.
         -5    1    3    3    0  502  0.39806952973E+02  0.31367489906E+02 -0.80137333704E+02  0.94910366036E+02  0.41800000000E+01 0. -1.
        -11    1    1    2    0    0  0.31161245447E+02 -0.73517440117E+02 -0.26915721720E+03  0.28075157131E+03  0.00000000000E+00 0. -1.
         11    1    1    2    0    0 -0.47858194653E+01  0.11802160009E+02 -0.21522171869E+02  0.25007977343E+02  0.00000000000E+00 0.  1.
</event>
<event>
 7    1  0.2612213E-009  0.1124920E+03  0.7561462E-02  0.1256023E+00
          3   -1    0    0  501    0  0.00000000000E+00  0.00000000000E+00  0.66542347466E+02  0.66542347466E+02  0.00000000000E+00 0. -1.
         -3   -1    0    0    0  501 -0.00000000000E+00 -0.00000000000E+00 -0.23148682486E+03  0.23148682486E+03  0.00000000000E+00 0.  1.
         25    2    1    2    0    0 -0.14410246349E+02 -0.50435415638E+02 -0.12770417183E+03  0.18630308385E+03  0.12509635166E+03 0.  0.
          5    1    3    3  502    0 -0.52431599676E+02  0.19275577495E+02 -0.56564404234E+02  0.79609200214E+02  0.41800000000E+01 0.  1.
         -5    1    3    3    0  502  0.38021353326E+02 -0.69710993133E+02 -0.71139767599E+02  0.10669388364E+03  0.41800000000E+01 0.  1.
        -11    1    1    2    0    0 -0.15696074892E+02 -0.12249327944E+02 -0.37192452564E+02  0.42186387968E+02  0.00000000000E+00 0.  1.
         11    1    1    2    0    0  0.30106321242E+02  0.62684743582E+02 -0.47853000593E-01  0.69539700507E+02  0.00000000000E+00 0. -1.
</event>
<event>
 7    1  0.2612213E-009  0.1308364E+03  0.7561462E-02  0.1226220E+00
          2   -1    0    0  501    0  0.00000000000E+00  0.00000000000E+00  0.11982863681E+03  0.11982863681E+03  0.00000000000E+00 0. -1.
         -2   -1    0    0    0  501 -0.00000000000E+00 -0.00000000000E+00 -0.23095967464E+03  0.23095967464E+03  0.00000000000E+00 0.  1.
         25    2    1    2    0    0 -0.91200300147E+02  0.76046059699E+02 -0.18119061270E+02  0.17342520583E+03  0.12508998238E+03 0.  0.
          5    1    3    3  502    0 -0.43598006340E+01 -0.74639157636E+01 -0.48224814777E+02  0.49171364231E+02  0.41800000000E+01 0.  1.
         -5    1    3    3    0  502 -0.86840499514E+02  0.83509975463E+02  0.30105753507E+02  0.12425384160E+03  0.41800000000E+01 0.  1.
        -11    1    1    2    0    0  0.43618084524E+02 -0.22024801489E+01 -0.76338573670E+02  0.87948655740E+02  0.00000000000E+00 0.  1.
         11    1    1    2    0    0  0.47582215623E+02 -0.73843579550E+02 -0.16673402886E+02  0.89414449884E+02  0.00000000000E+00 0. -1.
</event>
<event>
 7    1  0.2612213E-009  0.1124944E+03  0.7561462E-02  0.1256019E+00
         -2   -1    0    0    0  501 -0.00000000000E+00  0.00000000000E+00  0.15327339355E+02  0.15327339355E+02  0.00000000000E+00 0.  1.
          2   -1    0    0  501    0  0.00000000000E+00 -0.00000000000E+00 -0.92193651561E+03  0.92193651561E+03  0.00000000000E+00 0. -1.
         25    2    1    2    0    0  0.37274673331E+02 -0.15010481905E+02 -0.62318797753E+03  0.63688802495E+03  0.12509350560E+03 0.  0.
          5    1    3    3  502    0  0.79397366777E+02 -0.23427182070E+02 -0.48766713560E+03  0.49466097709E+03  0.41800000000E+01 0. -1.
         -5    1    3    3    0  502 -0.42122693446E+02  0.84167001653E+01 -0.13552084193E+03  0.14222704785E+03  0.41800000000E+01 0. -1.
        -11    1    1    2    0    0 -0.15456940924E+02 -0.38321551392E+02 -0.13411149375E+03  0.14033300068E+03  0.00000000000E+00 0.  1.
         11    1    1    2    0    0 -0.21817732407E+02  0.53332033297E+02 -0.14930970498E+03  0.16004282934E+03  0.00000000000E+00 0. -1.
</event>
<event>
 7    1  0.2612213E-009  0.1436156E+03  0.7561462E-02  0.1208545E+00
         -1   -1    0    0    0  501 -0.00000000000E+00  0.00000000000E+00  0.67546034658E+02  0.67546034658E+02  0.00000000000E+00 0.  1.
          1   -1    0    0  501    0  0.00000000000E+00 -0.00000000000E+00 -0.43182048432E+03  0.43182048432E+03  0.00000000000E+00 0. -1.
         25    2    1    2    0    0 -0.96120390265E+02  0.58353817242E+01 -0.60722320534E+02  0.16913965722E+03  0.12509133595E+03 0.  0.
          5    1    3    3  502    0  0.26276167966E+02 -0.19264706060E+02 -0.12945335668E+02  0.35307506540E+02  0.41800000000E+01 0. -1.
         -5    1    3    3    0  502 -0.12239655823E+03  0.25100087785E+02 -0.47776984866E+02  0.13383215068E+03  0.41800000000E+01 0. -1.
        -11    1    1    2    0    0  0.82297976887E+02 -0.40738022284E+02 -0.22985503969E+03  0.24751945930E+03  0.00000000000E+00 0. -1.
         11    1    1    2    0    0  0.13822413378E+02  0.34902640560E+02 -0.73697089435E+02  0.82707402455E+02  0.00000000000E+00 0.  1.
</event>
<event>
 7    1  0.2612213E-009  0.1020080E+03  0.7561462E-02  0.1276129E+00
         -2   -1    0    0    0  501 -0.00000000000E+00  0.00000000000E+00  0.59757574136E+02  0.59757574136E+02  0.00000000000E+00 0.  1.
          2   -1    0    0  501    0  0.00000000000E+00 -0.00000000000E+00 -0.28436181869E+03  0.28436181869E+03  0.00000000000E+00 0. -1.
         25    2    1    2    0    0 -0.47528126578E+02 -0.77979106968E+01 -0.18741171506E+03  0.23041403986E+03  0.12509096129E+03 0.  0.
          5    1    3    3  502    0  0.10600213448E+02  0.50345741030E+02 -0.76606678478E+02  0.92374854546E+02  0.41800000000E+01 0.  1.
         -5    1    3    3    0  502 -0.58128340026E+02 -0.58143651726E+02 -0.11080503658E+03  0.13803918531E+03  0.41800000000E+01 0.  1.
        -11    1    1    2    0    0 -0.32636144486E+01  0.17978210005E+02  0.26135412497E+02  0.31889292884E+02  0.00000000000E+00 0.  1.
         11    1    1    2    0    0  0.50791741026E+02 -0.10180299309E+02 -0.63327941994E+02  0.81816060084E+02  0.00000000000E+00 0. -1.
</event>
<event>
 7    1  0.2612213E-009  0.1293292E+03  0.7561462E-02  0.1228454E+00
          1   -1    0    0  501    0  0.00000000000E+00  0.00000000000E+00  0.17004692236E+03  0.17004692236E+03  0.00000000000E+00 0. -1.
         -1   -1    0    0    0  501 -0.00000000000E+00 -0.00000000000E+00 -0.15344825855E+03  0.15344825855E+03  0.00000000000E+00 0.  1.
         25    2    1    2    0    0 -0.96313506286E+02 -0.13133692657E+02  0.78846939503E+02  0.17695578917E+03  0.12509087127E+03 0.  0.
          5    1    3    3  502    0 -0.10864998194E+03  0.28281146830E+02  0.41764876602E+02  0.11985999816E+03  0.41800000000E+01 0. -1.
         -5    1    3    3    0  502  0.12336475656E+02 -0.41414839487E+02  0.37082062901E+02  0.57095791003E+02  0.41800000000E+01 0. -1.
        -11    1    1    2    0    0  0.89910303974E+02  0.18592192064E+01 -0.82798170815E+02  0.12224097736E+03  0.00000000000E+00 0.  1.
         11    1    1    2    0    0  0.64032023121E+01  0.11274473450E+02  0.20549895128E+02  0.24298414376E+02  0.00000000000E+00 0. -1.
</event>
<event>
 7    1  0.2612213E-009  0.1241459E+03  0.7561462E-02  0.1236410E+00
          2   -1    0    0  501    0  0.00000000000E+00  0.00000000000E+00  0.11110293047E+03  0.11110293047E+03  0.00000000000E+00 0. -1.
         -2   -1    0    0    0  501 -0.00000000000E+00 -0.00000000000E+00 -0.15972351292E+03  0.15972351292E+03  0.00000000000E+00 0.  1.
         25    2    1    2    0    0  0.32374712093E+02 -0.55060357957E+02  0.20101564782E+02  0.14188841123E+03  0.12509389806E+03 0.  0.
          5    1    3    3  502    0  0.60931153601E+02  0.15656466529E+02  0.17635644300E+02  0.65469220044E+02  0.41800000000E+01 0. -1.
         -5    1    3    3    0  502 -0.28556441508E+02 -0.70716824486E+02  0.24659204820E+01  0.76419191181E+02  0.41800000000E+01 0. -1.
        -11    1    1    2    0    0  0.17241354797E+02  0.56656202881E+02 -0.41578668858E+02  0.72360039691E+02  0.00000000000E+00 0.  1.
         11    1    1    2    0    0 -0.49616066889E+02 -0.15958449236E+01 -0.27143478373E+02  0.56577992478E+02  0.00000000000E+00 0. -1.
</event>
<event>
 7    1  0.2612213E-009  0.1683048E+03  0.7561462E-02  0.1179627E+00
          2   -1    0    0  501    0  0.00000000000E+00  0.00000000000E+00  0.10913788585E+04  0.10913788585E+04  0.00000000000E+00 0.  1.
         -2   -1    0    0    0  501 -0.00000000000E+00 -0.00000000000E+00 -0.28633093624E+02  0.28633093624E+02  0.00000000000E+00 0. -1.
         25    2    1    2    0    0 -0.10083708742E+03  0.86697793616E+02  0.69495424931E+03  0.71853540756E+03  0.12508835944E+03 0.  0.
          5    1    3    3  502    0 -0.11339847998E+03  0.29189191051E+02  0.36499845219E+03  0.38334392735E+03  0.41800000000E+01 0. -1.
         -5    1    3    3    0  502  0.12561392559E+02  0.57508602565E+02  0.32995579713E+03  0.33519148022E+03  0.41800000000E+01 0. -1.
        -11    1    1    2    0    0  0.10509114281E+03 -0.38315007173E+02  0.27115647245E+03  0.29332238344E+03  0.00000000000E+00 0. -1.
         11    1    1    2    0    0 -0.42540553874E+01 -0.48382786443E+02  0.96635043087E+02  0.10815416110E+03  0.00000000000E+00 0.  1.
</event>
<event>
 7    1  0.2612213E-009  0.1261688E+03  0.7561462E-02  0.1233254E+00
          2   -1    0    0  501    0  0.00000000000E+00  0.00000000000E+00  0.39411033608E+03  0.39411033608E+03  0.00000000000E+00 0. -1.
         -2   -1    0    0    0  501 -0.00000000000E+00 -0.00000000000E+00 -0.56881301511E+02  0.56881301511E+02  0.00000000000E+00 0.  1.
         25    2    1    2    0    0  0.93864280540E+02  0.29410636395E+02  0.21397572300E+03  0.26668881081E+03  0.12514720567E+03 0.  0.
          5    1    3    3  502    0  0.12195186358E+02  0.63679608146E+02  0.12609922496E+03  0.14185310007E+03  0.41800000000E+01 0.  1.
         -5    1    3    3    0  502  0.81669094182E+02 -0.34268971752E+02  0.87876498036E+02  0.12483571074E+03  0.41800000000E+01 0.  1.
        -11    1    1    2    0    0 -0.34409509472E+02 -0.67023284697E+01  0.11488096962E+03  0.12011066868E+03  0.00000000000E+00 0. -1.
         11    1    1    2    0    0 -0.59454771068E+02 -0.22708307925E+02  0.83723419481E+01  0.64192158098E+02  0.00000000000E+00 0.  1.
</event>
<event>
 7    1  0.2612213E-009  0.1208638E+03  0.7561462E-02  0.1241679E+00
         -2   -1    0    0    0  501 -0.00000000000E+00  0.00000000000E+00  0.25613466504E+03  0.25613466504E+03  0.00000000000E+00 0.  1.
          2   -1    0    0  501    0  0.00000000000E+00 -0.00000000000E+00 -0.79728651114E+02  0.79728651114E+02  0.00000000000E+00 0. -1.
         25    2    1    2    0    0  0.56896905448E+02 -0.34357846694E+02  0.17402260226E+03  0.22438551963E+03  0.12508907164E+03 0.  0.
          5    1    3    3  502    0  0.90295859466E+01 -0.75937384209E+02  0.78603723377E+02  0.10974533007E+03  0.41800000000E+01 0. -1.
         -5    1    3    3    0  502  0.47867319502E+02  0.41579537515E+02  0.95418878885E+02  0.11464018957E+03  0.41800000000E+01 0. -1.
        -11    1    1    2    0    0 -0.60029683746E+02 -0.67173679079E+01 -0.21192361073E+02  0.64014077593E+02  0.00000000000E+00 0. -1.
         11    1    1    2    0    0  0.31327782980E+01  0.41075214602E+02  0.23575772740E+02  0.47463718930E+02  0.00000000000E+00 0.  1.
</event>
<event>
 7    1  0.2612213E-009  0.1098374E+03  0.7561462E-02  0.1260871E+00
          1   -1    0    0  501    0  0.00000000000E+00  0.00000000000E+00  0.36336629805E+03  0.36336629805E+03  0.00000000000E+00 0. -1.
         -1   -1    0    0    0  501 -0.00000000000E+00 -0.00000000000E+00 -0.56296547185E+02  0.56296547185E+02  0.00000000000E+00 0.  1.
         25    2    1    2    0    0 -0.70549242066E+02 -0.57965276244E+02  0.18715007015E+03  0.24291905458E+03  0.12508936610E+03 0.  0.
          5    1    3    3  502    0 -0.65127570361E+02 -0.51227114085E+01  0.17694561717E+03  0.18866654825E+03  0.41800000000E+01 0.  1.
         -5    1    3    3    0  502 -0.54216717057E+01 -0.52842564835E+02  0.10204452988E+02  0.54252506332E+02  0.41800000000E+01 0.  1.
        -11    1    1    2    0    0  0.51489781567E+02  0.62854239977E+02  0.13100740548E+03  0.15415833866E+03  0.00000000000E+00 0. -1.
         11    1    1    2    0    0  0.19059460499E+02 -0.48889637328E+01 -0.11087724773E+02  0.22585451989E+02  0.00000000000E+00 0.  1.
</event>
<event>
 7    1  0.2612213E-009  0.1256956E+03  0.7561462E-02  0.1233986E+00
          1   -1    0    0  501    0  0.00000000000E+00  0.00000000000E+00  0.94990150062E+02  0.94990150062E+02  0.00000000000E+00 0. -1.
         -1   -1    0    0    0  501 -0.00000000000E+00 -0.00000000000E+00 -0.26932945225E+03  0.26932945225E+03  0.00000000000E+00 0.  1.
         25    2    1    2    0    0  0.85712077748E+02 -0.79458798625E+02 -0.10353435049E+03  0.20006452615E+03  0.12508473905E+03 0.  0.
          5    1    3    3  502    0  0.54507760199E+02 -0.33546810735E+02 -0.12492353927E+03  0.14042737446E+03  0.41800000000E+01 0.  1.
         -5    1    3    3    0  502  0.31204317548E+02 -0.45911987890E+02  0.21389188784E+02  0.59637151697E+02  0.41800000000E+01 0.  1.
        -11    1    1    2    0    0 -0.36818908955E+01  0.40681481721E+02 -0.60415221736E+02  0.72928309270E+02  0.00000000000E+00 0.  1.
         11    1    1    2    0    0 -0.82030186852E+02  0.38777316904E+02 -0.10389729962E+02  0.91326766887E+02  0.00000000000E+00 0. -1.
</event>
<event>
 7    1  0.2612213E-009  0.1080051E+03  0.7561462E-02  0.1264309E+00
          1   -1    0    0  501    0  0.00000000000E+00  0.00000000000E+00  0.19427855093E+03  0.19427855093E+03  0.00000000000E+00 0. -1.
         -1   -1    0    0    0  501 -0.00000000000E+00 -0.00000000000E+00 -0.10274297939E+03  0.10274297939E+03  0.00000000000E+00 0.  1.
         25    2    1    2    0    0  0.66523399906E+02  0.49197079931E+02  0.87866018166E+02  0.17381951280E+03  0.12508825073E+03 0.  0.
          5    1    3    3  502    0  0.74245989146E+02  0.51505208794E+02  0.11436093501E+03  0.14581203412E+03  0.41800000000E+01 0.  1.
         -5    1    3    3    0  502 -0.77225892395E+01 -0.23081288627E+01 -0.26494916843E+02  0.28007478678E+02  0.41800000000E+01 0.  1.
        -11    1    1    2    0    0 -0.28575858499E+01 -0.52636105452E+02  0.21604181553E+02  0.56968992045E+02  0.00000000000E+00 0. -1.
         11    1    1    2    0    0 -0.63665814056E+02  0.34390255205E+01 -0.17934628180E+02  0.66233025478E+02  0.00000000000E+00 0.  1.
</event>
<event>
 7    1  0.2612213E-009  0.1668443E+03  0.7561462E-02  0.1181179E+00
         -1   -1    0    0    0  501 -0.00000000000E+00  0.00000000000E+00  0.16675726945E+03  0.16675726945E+03  0.00000000000E+00 0.  1.
          1   -1    0    0  501    0  0.00000000000E+00 -0.00000000000E+00 -0.23057452244E+03  0.23057452244E+03  0.00000000000E+00 0. -1.
         25    2    1    2    0    0  0.92990496440E+02 -0.10742018555E+03  0.47441703105E+02  0.19515213445E+03  0.12508921495E+03 0.  0.
          5    1    3    3  502    0  0.49211738408E+01  0.27024545911E+02  0.13238387000E+02  0.30777773214E+02  0.41800000000E+01 0.  1.
         -5    1    3    3    0  502  0.88069322599E+02 -0.13444473146E+03  0.34203316105E+02  0.16437436124E+03  0.41800000000E+01 0.  1.
        -11    1    1    2    0    0 -0.13546065937E+02  0.35375186275E+02  0.11099630745E+02  0.39472794543E+02  0.00000000000E+00 0.  1.
         11    1    1    2    0    0 -0.79444430502E+02  0.72044999274E+02 -0.12235858684E+03  0.16270686289E+03  0.00000000000E+00 0. -1.
</event>
<event>
 7    1  0.2612213E-009  0.1182018E+03  0.7561462E-02  0.1246093E+00
         -2   -1    0    0    0  501 -0.00000000000E+00  0.00000000000E+00  0.64473825452E+02  0.64473825452E+02  0.00000000000E+00 0.  1.
          2   -1    0    0  501    0  0.00000000000E+00 -0.00000000000E+00 -0.30100665665E+03  0.30100665665E+03  0.00000000000E+00 0. -1.
         25    2    1    2    0    0 -0.47834152049E+02 -0.72656266633E+02 -0.14614838870E+03  0.21112599182E+03  0.12509114165E+03 0.  0.
          5    1    3    3  502    0 -0.13125411278E+02 -0.10201583357E+03 -0.12149519801E+03  0.15924214975E+03  0.41800000000E+01 0. -1.
         -5    1    3    3    0  502 -0.34708740771E+02  0.29359566933E+02 -0.24653190697E+02  0.51883842070E+02  0.41800000000E+01 0. -1.
        -11    1    1    2    0    0  0.24932565146E+02  0.48434550725E+02 -0.10474088287E+03  0.11806011627E+03  0.00000000000E+00 0.  1.
         11    1    1    2    0    0  0.22901586903E+02  0.24221715909E+02  0.14356440379E+02  0.36294374008E+02  0.00000000000E+00 0. -1.
</event>
<event>
 7    1  0.2612213E-009  0.7528683E+02  0.7561462E-02  0.1342985E+00
          2   -1    0    0  501    0  0.00000000000E+00  0.00000000000E+00  0.11380492026E+03  0.11380492026E+03  0.00000000000E+00 0.  1.
         -2   -1    0    0    0  501 -0.00000000000E+00 -0.00000000000E+00 -0.11515474107E+03  0.11515474107E+03  0.00000000000E+00 0. -1.
         25    2    1    2    0    0  0.34398171555E+02 -0.24962566781E+02  0.20572983195E+01  0.13212244070E+03  0.12508294413E+03 0.  0.
          5    1    3    3  502    0 -0.18790956955E+02 -0.39097199999E+02 -0.42737800551E+02  0.61038374053E+02  0.41800000000E+01 0.  1.
         -5    1    3    3    0  502  0.53189128509E+02  0.14134633217E+02  0.44795098871E+02  0.71084066644E+02  0.41800000000E+01 0.  1.
        -11    1    1    2    0    0 -0.26627202905E+02  0.31781722658E+02  0.36729261851E+02  0.55390653596E+02  0.00000000000E+00 0.  1.
         11    1    1    2    0    0 -0.77709686495E+01 -0.68191558769E+01 -0.40136380983E+02  0.41446567035E+02  0.00000000000E+00 0. -1.
</event>
<event>
 7    1  0.2612213E-009  0.2704129E+03  0.7561462E-02  0.1101044E+00
         -3   -1    0    0    0  501 -0.00000000000E+00  0.00000000000E+00  0.26960683571E+03  0.26960683571E+03  0.00000000000E+00 0.  1.
          3   -1    0    0  501    0  0.00000000000E+00 -0.00000000000E+00 -0.42573203966E+03  0.42573203966E+03  0.00000000000E+00 0. -1.
         25    2    1    2    0    0 -0.10369764555E+03 -0.24915738881E+03  0.98371253640E+02  0.31330804514E+03  0.12510963799E+03 0.  0.
          5    1    3    3  502    0 -0.66441327926E+02 -0.18522048648E+03  0.87585842105E+01  0.19701589750E+03  0.41800000000E+01 0.  1.
         -5    1    3    3    0  502 -0.37256317622E+02 -0.63936902325E+02  0.89612669430E+02  0.11629214765E+03  0.41800000000E+01 0.  1.
        -11    1    1    2    0    0  0.36268306801E+02  0.84040752392E+02 -0.32204763693E+02  0.97032906508E+02  0.00000000000E+00 0.  1.
         11    1    1    2    0    0  0.67429338746E+02  0.16511663641E+03 -0.22229169390E+03  0.28499792371E+03  0.00000000000E+00 0. -1.
</event>
<event>
 7    1  0.2612213E-009  0.1797646E+03  0.7561462E-02  0.1168031E+00
          2   -1    0    0  501    0  0.00000000000E+00  0.00000000000E+00  0.40979255479E+03  0.40979255479E+03  0.00000000000E+00 0. -1.
         -2   -1    0    0    0  501 -0.00000000000E+00 -0.00000000000E+00 -0.11148756687E+03  0.11148756687E+03  0.00000000000E+00 0.  1.
         25    2    1    2    0    0  0.14702475146E+03  0.72472796535E+02  0.25762941250E+03  0.32998298501E+03  0.12508905799E+03 0.  0.
          5    1    3    3  502    0 -0.10450912633E+02 -0.46352717658E+01 -0.58185194983E+01  0.13492030550E+02  0.41800000000E+01 0.  1.
         -5    1    3    3    0  502  0.15747566409E+03  0.77108068301E+02  0.26344793200E+03  0.31649095446E+03  0.41800000000E+01 0.  1.
        -11    1    1    2    0    0 -0.25845035861E+02 -0.38040411696E+02  0.46215149887E+02  0.65198764404E+02  0.00000000000E+00 0. -1.
         11    1    1    2    0    0 -0.12117971560E+03 -0.34432384839E+02 -0.55395744664E+01  0.12609837225E+03  0.00000000000E+00 0.  1.
</event>
<event>
 7    1  0.2612213E-009  0.1684897E+03  0.7561462E-02  0.1179432E+00
          1   -1    0    0  501    0  0.00000000000E+00  0.00000000000E+00  0.96188380940E+03  0.96188380940E+03  0.00000000000E+00 0. -1.
         -1   -1    0    0    0  501 -0.00000000000E+00 -0.00000000000E+00 -0.33578835084E+02  0.33578835084E+02  0.00000000000E+00 0.  1.
         25    2    1    2    0    0 -0.99612764389E+02 -0.95134226828E+02  0.58541380837E+03  0.61427189963E+03  0.12508963068E+03 0.  0.
          5    1    3    3  502    0 -0.63254083298E+02  0.63667682277E+01  0.34390279458E+03  0.34975451293E+03  0.41800000000E+01 0. -1.
         -5    1    3    3    0  502 -0.36358681091E+02 -0.10150099506E+03  0.24151101379E+03  0.26451738671E+03  0.41800000000E+01 0. -1.
        -11    1    1    2    0    0  0.66999064623E+02  0.23704399386E+01  0.16149963304E+03  0.17486173143E+03  0.00000000000E+00 0. -1.
         11    1    1    2    0    0  0.32613699766E+02  0.92763786889E+02  0.18139153290E+03  0.20632901342E+03  0.00000000000E+00 0.  1.
</event>
<event>
 7    1  0.2612213E-009  0.1053578E+03  0.7561462E-02  0.1269416E+00
          1   -1    0    0  501    0  0.00000000000E+00  0.00000000000E+00  0.16799546656E+03  0.16799546656E+03  0.00000000000E+00 0. -1.
         -1   -1    0    0    0  501 -0.00000000000E+00 -0.00000000000E+00 -0.10159202245E+03  0.10159202245E+03  0.00000000000E+00 0.  1.
         25    2    1    2    0    0 -0.58924239178E+02  0.18067882019E+01 -0.11514673342E+02  0.13874072993E+03  0.12506427145E+03 0.  0.
          5    1    3    3  502    0  0.18471184828E+02 -0.19402541275E+02  0.36243294708E+02  0.45262479916E+02  0.41800000000E+01 0. -1.
         -5    1    3    3    0  502 -0.77395424006E+02  0.21209329477E+02 -0.47757968050E+02  0.93478250017E+02  0.41800000000E+01 0. -1.
        -11    1    1    2    0    0  0.74142717813E+02 -0.22569687451E+02  0.68500441698E+02  0.10343521600E+03  0.00000000000E+00 0.  1.
         11    1    1    2    0    0 -0.15218478635E+02  0.20762899249E+02  0.94176757548E+01  0.27411543077E+02  0.00000000000E+00 0. -1.
</event>
<event>
 7    1  0.2612213E-009  0.2534203E+03  0.7561462E-02  0.1111162E+00
          3   -1    0    0  501    0  0.00000000000E+00  0.00000000000E+00  0.20597902723E+03  0.20597902723E+03  0.00000000000E+00 0. -1.
         -3   -1    0    0    0  501 -0.00000000000E+00 -0.00000000000E+00 -0.33770058845E+03  0.33770058845E+03  0.00000000000E+00 0.  1.
         25    2    1    2    0    0  0.19169107397E+03 -0.13255591848E+03 -0.12655593456E+03  0.29322521247E+03  0.12509229109E+03 0.  0.
          5    1    3    3  502    0  0.94441690186E+02 -0.17450544071E+01 -0.15173189234E+02  0.95759992333E+02  0.41800000000E+01 0.  1.
         -5    1    3    3    0  502  0.97249383787E+02 -0.13081086407E+03 -0.11138274533E+03  0.19746522014E+03  0.41800000000E+01 0.  1.
        -11    1    1    2    0    0 -0.84658738604E+02  0.11175700652E+03  0.90649371540E+01  0.14049520851E+03  0.00000000000E+00 0. -1.
         11    1    1    2    0    0 -0.10703233537E+03  0.20798911956E+02 -0.14230563817E+02  0.10995919470E+03  0.00000000000E+00 0.  1.
</event>
<event>
 7    1  0.2612213E-009  0.1136233E+03  0.7561462E-02  0.1254004E+00
          1   -1    0    0  501    0  0.00000000000E+00  0.00000000000E+00  0.51008493907E+03  0.51008493907E+03  0.00000000000E+00 0. -1.
         -1   -1    0    0    0  501 -0.00000000000E+00 -0.00000000000E+00 -0.47340296615E+02  0.47340296615E+02  0.00000000000E+00 0.  1.
         25    2    1    2    0    0  0.12084693617E+02  0.10280693875E+03  0.31778356050E+03  0.35686105378E+03  0.12509242147E+03 0.  0.
          5    1    3    3  502    0 -0.16280227897E+02  0.11918905717E+02  0.21765400343E+03  0.21862717979E+03  0.41800000000E+01 0. -1.
         -5    1    3    3    0  502  0.28364921514E+02  0.90888033028E+02  0.10012955707E+03  0.13823387399E+03  0.41800000000E+01 0. -1.
        -11    1    1    2    0    0  0.76951772983E+00 -0.97383724341E+02  0.15522380039E+03  0.18324467286E+03  0.00000000000E+00 0. -1.
         11    1    1    2    0    0 -0.12854211347E+02 -0.54232144044E+01 -0.10262718433E+02  0.17319509042E+02  0.00000000000E+00 0.  1.
</event>
<event>
 6    1  0.2612213E-009  0.1441998E+03  0.7561462E-02  0.1207787E+00
         -2   -1    0    0    0  501 -0.00000000000E+00  0.00000000000E+00  0.84612515245E+02  0.84612515245E+02  0.00000000000E+00 0.  1.
          2   -1    0    0  501    0  0.00000000000E+00 -0.00000000000E+00 -0.30562304245E+03  0.30562304245E+03  0.00000000000E+00 0. -1.
          5    1    1    2  502    0 -0.11924045712E+02 -0.96377810187E+02 -0.91238227526E+02  0.13331448430E+03  0.41800000000E+01 0. -1.
         -5    1    1    2    0  502  0.56185259987E+02  0.78853939741E+01 -0.10605125799E+03  0.12034660195E+03  0.41800000000E+01 0. -1.
        -11    1    1    2    0    0 -0.52719537615E+02  0.79424555924E+01 -0.58594844563E+01  0.53635490166E+02  0.00000000000E+00 0.  1.
         11    1    1    2    0    0  0.84583233408E+01  0.80549960620E+02 -0.17861557232E+02  0.82938981284E+02  0.00000000000E+00 0. -1.
</event>
<event>
 7    1  0.2612213E-009  0.9998272E+02  0.7561462E-02  0.1280332E+00
          1   -1    0    0  501    0  0.00000000000E+00  0.00000000000E+00  0.16376699220E+03  0.16376699220E+03  0.00000000000E+00 0.  1.
         -1   -1    0    0    0  501 -0.00000000000E+00 -0.00000000000E+00 -0.15228012808E+03  0.15228012808E+03  0.00000000000E+00 0. -1.
         25    2    1    2    0    0 -0.16130980518E+02  0.51871899003E+02 -0.96352973744E+02  0.16697962488E+03  0.12508955646E+03 0.  0.
          5    1    3    3  502    0 -0.30895788872E+02 -0.12347073551E+02  0.15617351385E+02  0.36991540379E+02  0.41800000000E+01 0. -1.
         -5    1    3    3    0  502  0.14764808354E+02  0.64218972554E+02 -0.11197032513E+03  0.12998808450E+03  0.41800000000E+01 0. -1.
        -11    1    1    2    0    0  0.41250480178E+02 -0.61034588229E+02  0.92469204360E+02  0.11822595667E+03  0.00000000000E+00 0.  1.
         11    1    1    2    0    0 -0.25119499660E+02  0.91626892264E+01  0.15370633508E+02  0.30841538734E+02  0.00000000000E+00 0. -1.
</event>
<event>
 7    1  0.2612213E-009  0.1029388E+03  0.7561462E-02  0.1274235E+00
         -2   -1    0    0    0  501 -0.00000000000E+00  0.00000000000E+00  0.82023627026E+02  0.82023627026E+02  0.00000000000E+00 0.  1.
          2   -1    0    0  501    0  0.00000000000E+00 -0.00000000000E+00 -0.25416537154E+03  0.25416537154E+03  0.00000000000E+00 0. -1.
         25    2    1    2    0    0 -0.11577634869E+02  0.87278068029E+02 -0.49286402281E+02  0.16071057428E+03  0.12508891417E+03 0.  0.
          5    1    3    3  502    0 -0.12526270178E+02  0.72917701544E+02 -0.90434829869E+02  0.11691804607E+03  0.41800000000E+01 0. -1.
         -5    1    3    3    0  502  0.94863530937E+00  0.14360366484E+02  0.41148427588E+02  0.43792528215E+02  0.41800000000E+01 0. -1.
        -11    1    1    2    0    0  0.20004939433E+02 -0.99749417383E+02 -0.78090421624E+02  0.12825076148E+03  0.00000000000E+00 0.  1.
         11    1    1    2    0    0 -0.84273045640E+01  0.12471349354E+02 -0.44764920614E+02  0.47227662810E+02  0.00000000000E+00 0. -1.
</event>
<event>
 7    1  0.2612213E-009  0.1060065E+03  0.7561462E-02  0.1268149E+00
         -1   -1    0    0    0  501 -0.00000000000E+00  0.00000000000E+00  0.14933781084E+02  0.14933781084E+02  0.00000000000E+00 0.  1.
          1   -1    0    0  501    0  0.00000000000E+00 -0.00000000000E+00 -0.98135415285E+03  0.98135415285E+03  0.00000000000E+00 0. -1.
         25    2    1    2    0    0 -0.32288009044E+02 -0.36707946843E+02 -0.67076081514E+03  0.68407395412E+03  0.12508842747E+03 0.  0.
          5    1    3    3  502    0 -0.53682741853E+02  0.16115734875E+02 -0.14995127818E+03  0.16013872709E+03  0.41800000000E+01 0. -1.
         -5    1    3    3    0  502  0.21394732809E+02 -0.52823681718E+02 -0.52080953696E+03  0.52393522704E+03  0.41800000000E+01 0. -1.
        -11    1    1    2    0    0  0.61906997368E+02  0.26405859603E+02 -0.17358928739E+03  0.18617998400E+03  0.00000000000E+00 0.  1.
         11    1    1    2    0    0 -0.29618988325E+02  0.10302087240E+02 -0.12207026923E+03  0.12603399582E+03  0.00000000000E+00 0. -1.
</event>
<event>
 7    1  0.2612213E-009  0.1004010E+03  0.7561462E-02  0.1279455E+00
          4   -1    0    0  501    0  0.00000000000E+00  0.00000000000E+00  0.10717765147E+03  0.10717765147E+03  0.00000000000E+00 0. -1.
         -4   -1    0    0    0  501 -0.00000000000E+00 -0.00000000000E+00 -0.14807255583E+03  0.14807255583E+03  0.00000000000E+00 0.  1.
         25    2    1    2    0    0  0.40439100931E+02  0.19835779576E+01 -0.76297067141E+02  0.15200707847E+03  0.12508258866E+03 0.  0.
          5    1    3    3  502    0 -0.31387707780E+02 -0.44922497955E+01 -0.72993403658E+02  0.79692395406E+02  0.41800000000E+01 0.  1.
         -5    1    3    3    0  502  0.71826808711E+02  0.64758277532E+01 -0.33036634830E+01  0.72314683067E+02  0.41800000000E+01 0.  1.
        -11    1    1    2    0    0 -0.45133775176E+02 -0.38768117636E+02  0.17203451932E+02  0.61935315976E+02  0.00000000000E+00 0. -1.
         11    1    1    2    0    0  0.46946742453E+01  0.36784539679E+02  0.18198710848E+02  0.41307812846E+02  0.00000000000E+00 0.  1.
</event>
<event>
 7    1  0.2612213E-009  0.1379436E+03  0.7561462E-02  0.1216123E+00
          2   -1    0    0  501    0  0.00000000000E+00  0.00000000000E+00  0.40372544121E+03  0.40372544121E+03  0.00000000000E+00 0. -1.
         -2   -1    0    0    0  501 -0.00000000000E+00 -0.00000000000E+00 -0.87724684623E+02  0.87724684623E+02  0.00000000000E+00 0.  1.
         25    2    1    2    0    0  0.60451490438E+02  0.67849493887E+02  0.53666439367E+01  0.15470574633E+03  0.12508849093E+03 0.  0.
          5    1    3    3  502    0 -0.22820308781E+01  0.81449985237E+02 -0.22451167442E+02  0.84621717540E+02  0.41800000000E+01 0. -1.
         -5    1    3    3    0  502  0.62733521316E+02 -0.13600491350E+02  0.27817811379E+02  0.70084028791E+02  0.41800000000E+01 0. -1.
        -11    1    1    2    0    0  0.20542174647E+02 -0.38842585679E+02  0.10905569323E+03  0.11757496174E+03  0.00000000000E+00 0.  1.
         11    1    1    2    0    0 -0.80993665085E+02 -0.29006908207E+02  0.20157841942E+03  0.21916941776E+03  0.00000000000E+00 0. -1.
</event>
<event>
 7    1  0.3288580E-009  0.9146947E+02  0.7561462E-02  0.1299332E+00
          2   -1    0    0  501    0  0.00000000000E+00  0.00000000000E+00  0.59489958449E+03  0.59489958449E+03  0.00000000000E+00 0. -1.
         -2   -1    0    0    0  501 -0.00000000000E+00 -0.00000000000E+00 -0.26259206562E+02  0.26259206562E+02  0.00000000000E+00 0.  1.
         25    2    1    2    0    0 -0.26650730724E+02 -0.62390664920E+01  0.45595323466E+03  0.47359289694E+03  0.12509073680E+03 0.  0.
          5    1    3    3  502    0 -0.65189070306E+02  0.31213596951E+02  0.22183452809E+03  0.23334938135E+03  0.41800000000E+01 0. -1.
         -5    1    3    3    0  502  0.38538339582E+02 -0.37452663443E+02  0.23411870657E+03  0.24024351559E+03  0.41800000000E+01 0. -1.
        -11    1    1    2    0    0 -0.41553000044E+01  0.21754244243E+02  0.11083236283E+03  0.11302356529E+03  0.00000000000E+00 0. -1.
         11    1    1    2    0    0  0.30806030729E+02 -0.15515177751E+02  0.18547804339E+01  0.34542328821E+02  0.00000000000E+00 0.  1.
</event>
<event>
 7    1  0.2612213E-009  0.1255508E+03  0.7561462E-02  0.1234211E+00
         -2   -1    0    0    0  501 -0.00000000000E+00  0.00000000000E+00  0.32494610816E+02  0.32494610816E+02  0.00000000000E+00 0.  1.
          2   -1    0    0  501    0  0.00000000000E+00 -0.00000000000E+00 -0.81149001888E+03  0.81149001888E+03  0.00000000000E+00 0. -1.
         25    2    1    2    0    0  0.74582775063E+02 -0.63786808768E+02 -0.22570840027E+03  0.27608411449E+03  0.12508720563E+03 0.  0.
          5    1    3    3  502    0  0.78136059845E+02 -0.14263533927E+02 -0.20885088604E+03  0.22348346079E+03  0.41800000000E+01 0. -1.
         -5    1    3    3    0  502 -0.35532847822E+01 -0.49523274841E+02 -0.16857514232E+02  0.52600653701E+02  0.41800000000E+01 0. -1.
        -11    1    1    2    0    0  0.10632558993E+02 -0.54436964221E+01 -0.18952847736E+02  0.22403026108E+02  0.00000000000E+00 0.  1.
         11    1    1    2    0    0 -0.85215334056E+02  0.69230505190E+02 -0.53433416006E+03  0.54549748910E+03  0.00000000000E+00 0. -1.
</event>
<event>
 7    1  0.2612213E-009  0.1126806E+03  0.7561462E-02  0.1255685E+00
          2   -1    0    0  501    0  0.00000000000E+00  0.00000000000E+00  0.41905090564E+03  0.41905090564E+03  0.00000000000E+00 0. -1.
         -2   -1    0    0    0  501 -0.00000000000E+00 -0.00000000000E+00 -0.34455136873E+02  0.34455136873E+02  0.00000000000E+00 0.  1.
         25    2    1    2    0    0 -0.63407491443E+02  0.15889957689E+00  0.23322328993E+03  0.27214398057E+03  0.12509479596E+03 0.  0.
          5    1    3    3  502    0 -0.94971611126E+02  0.19644155638E+02  0.12904180601E+03  0.16147680907E+03  0.41800000000E+01 0. -1.
         -5    1    3    3    0  502  0.31564119683E+02 -0.19485256061E+02  0.10418148393E+03  0.11066717150E+03  0.41800000000E+01 0. -1.
        -11    1    1    2    0    0  0.75567405350E+02  0.84836259779E+01  0.14750245536E+03  0.16594992919E+03  0.00000000000E+00 0. -1.
         11    1    1    2    0    0 -0.12159913907E+02 -0.86425255548E+01  0.38700234765E+01  0.15412132750E+02  0.00000000000E+00 0.  1.
</event>
<event>
 7    1  0.2612213E-009  0.1103783E+03  0.7561462E-02  0.1259871E+00
         -1   -1    0    0    0  501 -0.00000000000E+00  0.00000000000E+00  0.51405443052E+02  0.51405443052E+02  0.00000000000E+00 0.  1.
          1   -1    0    0  501    0  0.00000000000E+00 -0.00000000000E+00 -0.43253017211E+03  0.43253017211E+03  0.00000000000E+00 0. -1.
         25    2    1    2    0    0 -0.60792060764E+02  0.38682809258E+02 -0.32146682094E+03  0.35240211770E+03  0.12511714993E+03 0.  0.
          5    1    3    3  502    0 -0.87030112731E+02 -0.11217340678E+02 -0.19515308423E+03  0.21401464421E+03  0.41800000000E+01 0.  1.
         -5    1    3    3    0  502  0.26238051967E+02  0.49900149937E+02 -0.12631373672E+03  0.13838747349E+03  0.41800000000E+01 0.  1.
        -11    1    1    2    0    0  0.41512964777E+02 -0.11549970245E+02 -0.81172694048E+02  0.91900676365E+02  0.00000000000E+00 0. -1.
         11    1    1    2    0    0  0.19279095987E+02 -0.27132839013E+02  0.21514785929E+02  0.39632821103E+02  0.00000000000E+00 0.  1.
</event>
<event>
 7    1  0.2612213E-009  0.1339064E+03  0.7561462E-02  0.1221772E+00
         -2   -1    0    0    0  501 -0.00000000000E+00  0.00000000000E+00  0.25986476098E+02  0.25986476098E+02  0.00000000000E+00 0.  1.
          2   -1    0    0  501    0  0.00000000000E+00 -0.00000000000E+00 -0.88355081685E+03  0.88355081685E+03  0.00000000000E+00 0. -1.
         25    2    1    2    0    0 -0.27423631272E+02  0.10104785581E+03 -0.42352305643E+03  0.45385271169E+03  0.12509108627E+03 0.  0.
          5    1    3    3  502    0  0.83029831485E+01 -0.18978099935E+02 -0.13416400166E+02  0.25031580048E+02  0.41800000000E+01 0. -1.
         -5    1    3    3    0  502 -0.35726614420E+02  0.12002595574E+03 -0.41010665627E+03  0.42882113164E+03  0.41800000000E+01 0. -1.
        -11    1    1    2    0    0  0.32702401683E+01 -0.96801345643E+02 -0.41020740889E+03  0.42148702625E+03  0.00000000000E+00 0. -1.
         11    1    1    2    0    0  0.24153391104E+02 -0.42465101625E+01 -0.23833875428E+02  0.34197555004E+02  0.00000000000E+00 0.  1.
</event>
<event>
 7    1  0.2612213E-009  0.1081702E+03  0.7561462E-02  0.1263996E+00
          1   -1    0    0  501    0  0.00000000000E+00  0.00000000000E+00  0.10846804829E+04  0.10846804829E+04  0.00000000000E+00 0.  1.
         -1   -1    0    0    0  501 -0.00000000000E+00 -0.00000000000E+00 -0.15058953184E+02  0.15058953184E+02  0.00000000000E+00 0. -1.
         25    2    1    2    0    0 -0.86577740194E+01  0.66755383669E+02  0.62696437248E+03  0.64285833695E+03  0.12510507071E+03 0.  0.
          5    1    3    3  502    0 -0.52534402705E+02  0.27329280910E+02  0.49119339640E+03  0.49476780224E+03  0.41800000000E+01 0.  1.
         -5    1    3    3    0  502  0.43876628686E+02  0.39426102760E+02  0.13577097608E+03  0.14809053471E+03  0.41800000000E+01 0.  1.
        -11    1    1    2    0    0  0.34172723794E+02 -0.63508354337E+02  0.40440832814E+03  0.41078848814E+03  0.00000000000E+00 0.  1.
         11    1    1    2    0    0 -0.25514949774E+02 -0.32470293316E+01  0.38248829089E+02  0.46092610993E+02  0.00000000000E+00 0. -1.
</event>
<event>
 7    1  0.2612213E-009  0.1282300E+03  0.7561462E-02  0.1230106E+00
          1   -1    0    0  501    0  0.00000000000E+00  0.00000000000E+00  0.15431493679E+03  0.15431493679E+03  0.00000000000E+00 0. -1.
         -1   -1    0    0    0  501 -0.00000000000E+00 -0.00000000000E+00 -0.10924099248E+03  0.10924099248E+03  0.00000000000E+00 0.  1.
         25    2    1    2    0    0  0.33844337233E+02  0.63168839547E+02  0.27621215794E+02  0.14678655182E+03  0.12509044241E+03 0.  0.
          5    1    3    3  502    0 -0.46757204124E+02  0.20864472532E+02  0.20746831278E+02  0.55402759495E+02  0.41800000000E+01 0. -1.
         -5    1    3    3    0  502  0.80601541358E+02  0.42304367015E+02  0.68743845164E+01  0.91383792328E+02  0.41800000000E+01 0. -1.
        -11    1    1    2    0    0  0.23353515746E+02 -0.50123522037E+02  0.17833406149E+02  0.58101501994E+02  0.00000000000E+00 0. -1.
         11    1    1    2    0    0 -0.57197852980E+02 -0.13045317511E+02 -0.38067763983E+00  0.58667875451E+02  0.00000000000E+00 0.  1.
</event>
<event>
 7    1  0.2612213E-009  0.9085640E+02  0.7561462E-02  0.1300791E+00
          1   -1    0    0  501    0  0.00000000000E+00  0.00000000000E+00  0.13902440205E+03  0.13902440205E+03  0.00000000000E+00 0. -1.
         -1   -1    0    0    0  501 -0.00000000000E+00 -0.00000000000E+00 -0.91615791110E+02  0.91615791110E+02  0.00000000000E+00 0.  1.
         25    2    1    2    0    0  0.23544177167E+02 -0.23264097503E+02  0.23987543200E+02  0.13159972995E+03  0.12509012824E+03 0.  0.
          5    1    3    3  502    0  0.43589115140E+02 -0.67428845949E+02  0.19373039668E+02  0.82700950966E+02  0.41800000000E+01 0. -1.
         -5    1    3    3    0  502 -0.20044937973E+02  0.44164748446E+02  0.46145035327E+01  0.48898778988E+02  0.41800000000E+01 0. -1.
        -11    1    1    2    0    0 -0.83743932767E+01  0.33369916115E+02 -0.28079860263E+02  0.44409011660E+02  0.00000000000E+00 0.  1.
         11    1    1    2    0    0 -0.15169783890E+02 -0.10105818612E+02  0.51500928006E+02  0.54631451551E+02  0.00000000000E+00 0. -1.
</event>
<event>
 7    1  0.2612213E-009  0.1227285E+03  0.7561462E-02  0.1238663E+00
          1   -1    0    0  501    0  0.00000000000E+00  0.00000000000E+00  0.41978610677E+03  0.41978610677E+03  0.00000000000E+00 0. -1.
         -1   -1    0    0    0  501 -0.00000000000E+00 -0.00000000000E+00 -0.46829464324E+02  0.46829464324E+02  0.00000000000E+00 0.  1.
         25    2    1    2    0    0 -0.79541291615E+02  0.10572537846E+02  0.25589184708E+03  0.29591852420E+03  0.12509412429E+03 0.  0.
          5    1    3    3  502    0 -0.31865739853E+02 -0.51768727563E+02  0.63079644344E+02  0.87703708362E+02  0.41800000000E+01 0.  1.
         -5    1    3    3    0  502 -0.47675551762E+02  0.62341265409E+02  0.19281220274E+03  0.20821481583E+03  0.41800000000E+01 0.  1.
        -11    1    1    2    0    0  0.42023107541E+02 -0.40176921951E+02  0.18256806162E+02  0.60937981555E+02  0.00000000000E+00 0.  1.
         11    1    1    2    0    0  0.37518184074E+02  0.29604384105E+02  0.98807989200E+02  0.10975906534E+03  0.00000000000E+00 0. -1.
</event>
<event>
 7    1  0.2612213E-009  0.1747083E+03  0.7561462E-02  0.1173025E+00
         -2   -1    0    0    0  501 -0.00000000000E+00  0.00000000000E+00  0.55964994181E+02  0.55964994181E+02  0.00000000000E+00 0.  1.
          2   -1    0    0  501    0  0.00000000000E+00 -0.00000000000E+00 -0.92181372672E+03  0.92181372672E+03  0.00000000000E+00 0. -1.
         25    2    1    2    0    0 -0.15599302152E+03 -0.73134666636E+02 -0.66066932640E+03  0.69412799380E+03  0.12508881128E+03 0.  0.
          5    1    3    3  502    0 -0.67482602461E+02 -0.41045976214E+02 -0.51222442888E+03  0.51829529395E+03  0.41800000000E+01 0. -1.
         -5    1    3    3    0  502 -0.88510419055E+02 -0.32088690421E+02 -0.14844489752E+03  0.17583269984E+03  0.41800000000E+01 0. -1.
        -11    1    1    2    0    0  0.11155593513E+03  0.69635063013E+02 -0.19917670367E+03  0.23867368508E+03  0.00000000000E+00 0. -1.
         11    1    1    2    0    0  0.44437086389E+02  0.34996036226E+01 -0.60027024689E+01  0.44977042023E+02  0.00000000000E+00 0.  1.
</event>
<event>
 7    1  0.2612213E-009  0.1588318E+03  0.7561462E-02  0.1190022E+00
          1   -1    0    0  501    0  0.00000000000E+00  0.00000000000E+00  0.17146808960E+04  0.17146808960E+04  0.00000000000E+00 0. -1.
         -1   -1    0    0    0  501 -0.00000000000E+00 -0.00000000000E+00 -0.16757885010E+02  0.16757885010E+02  0.00000000000E+00 0.  1.
         25    2    1    2    0    0  0.88690696309E+02 -0.87490198009E+02  0.10932042821E+04  0.11073682193E+04  0.12509275038E+03 0.  0.
          5    1    3    3  502    0  0.12046271652E+03 -0.66459254863E+02  0.81622071577E+03  0.82774502589E+03  0.41800000000E+01 0. -1.
         -5    1    3    3    0  502 -0.31772020214E+02 -0.21030943145E+02  0.27698356637E+03  0.27962319338E+03  0.41800000000E+01 0. -1.
        -11    1    1    2    0    0 -0.12817526273E+02  0.59426588757E+02  0.14405194374E+03  0.15635463193E+03  0.00000000000E+00 0. -1.
         11    1    1    2    0    0 -0.75873170036E+02  0.28063609252E+02  0.46066678516E+03  0.46771592986E+03  0.00000000000E+00 0.  1.
</event>
<event>
 7    1  0.2612213E-009  0.1671360E+03  0.7561462E-02  0.1180868E+00
          2   -1    0    0  501    0  0.00000000000E+00  0.00000000000E+00  0.81023242723E+03  0.81023242723E+03  0.00000000000E+00 0. -1.
         -2   -1    0    0    0  501 -0.00000000000E+00 -0.00000000000E+00 -0.47286144829E+02  0.47286144829E+02  0.00000000000E+00 0.  1.
         25    2    1    2    0    0 -0.11044033771E+03 -0.85570047261E+02  0.21954693836E+03  0.28873347811E+03  0.12508741766E+03 0.  0.
          5    1    3    3  502    0  0.21838473088E+02  0.76428846903E+01  0.15027248870E+02  0.27903820559E+02  0.41800000000E+01 0. -1.
         -5    1    3    3    0  502 -0.13227881080E+03 -0.93212931951E+02  0.20451968949E+03  0.26082965755E+03  0.41800000000E+01 0. -1.
        -11    1    1    2    0    0  0.36531955024E+02  0.60808321927E+02  0.39337774566E+03  0.39972276209E+03  0.00000000000E+00 0. -1.
         11    1    1    2    0    0  0.73908382685E+02  0.24761725334E+02  0.15002159838E+03  0.16906233186E+03  0.00000000000E+00 0.  1.
</event>
<event>
 7    1  0.2612213E-009  0.1901780E+03  0.7561462E-02  0.1158301E+00
          1   -1    0    0  501    0  0.00000000000E+00  0.00000000000E+00  0.55881825157E+02  0.55881825157E+02  0.00000000000E+00 0. -1.
         -1   -1    0    0    0  501 -0.00000000000E+00 -0.00000000000E+00 -0.10526147220E+04  0.10526147220E+04  0.00000000000E+00 0.  1.
         25    2    1    2    0    0 -0.86809413219E+02  0.12928842440E+03 -0.85712949950E+03  0.88009690846E+03  0.12509283941E+03 0.  0.
          5    1    3    3  502    0 -0.49385695559E+02 -0.13981864406E+02 -0.23445070578E+03  0.24003967443E+03  0.41800000000E+01 0. -1.
         -5    1    3    3    0  502 -0.37423717660E+02  0.14327028881E+03 -0.62267879371E+03  0.64005723403E+03  0.41800000000E+01 0. -1.
        -11    1    1    2    0    0  0.55885474986E+02 -0.91018505964E+01 -0.46131544507E+02  0.73035261328E+02  0.00000000000E+00 0.  1.
         11    1    1    2    0    0  0.30923938234E+02 -0.12018657380E+03 -0.93471852824E+02  0.15536437735E+03  0.00000000000E+00 0. -1.
</event>
<event>
 7    1  0.2612213E-009  0.1957787E+03  0.7561462E-02  0.1153350E+00
          2   -1    0    0  501    0  0.00000000000E+00  0.00000000000E+00  0.92793672594E+03  0.92793672594E+03  0.00000000000E+00 0. -1.
         -2   -1    0    0    0  501 -0.00000000000E+00 -0.00000000000E+00 -0.69380700905E+02  0.69380700905E+02  0.00000000000E+00 0.  1.
         25    2    1    2    0    0  0.15797232074E+03 -0.67938292539E+02  0.73837479374E+03  0.76838549158E+03  0.12509221374E+03 0.  0.
          5    1    3    3  502    0  0.44034308830E+01  0.28309071577E+02  0.67475600359E+02  0.73424946584E+02  0.41800000000E+01 0.  1.
         -5    1    3    3    0  502  0.15356888986E+03 -0.96247364115E+02  0.67089919338E+03  0.69496054500E+03  0.41800000000E+01 0.  1.
        -11    1    1    2    0    0 -0.10518462569E+03  0.73380267008E+02  0.43002017922E+02  0.13526877915E+03  0.00000000000E+00 0.  1.
         11    1    1    2    0    0 -0.52787695051E+02 -0.54419744689E+01  0.77179213377E+02  0.93663156109E+02  0.00000000000E+00 0. -1.
</event>
<event>
 7    1  0.2612213E-009  0.9854010E+02  0.7561462E-02  0.1283396E+00
          1   -1    0    0  501    0  0.00000000000E+00  0.00000000000E+00  0.19051423424E+03  0.19051423424E+03  0.00000000000E+00 0. -1.
         -1   -1    0    0    0  501 -0.00000000000E+00 -0.00000000000E+00 -0.81308713894E+02  0.81308713894E+02  0.00000000000E+00 0.  1.
         25    2    1    2    0    0  0.19494724761E+00  0.45612700017E+02  0.10574060685E+03  0.17002794043E+03  0.12509143928E+03 0.  0.
          5    1    3    3  502    0  0.48065689039E+02  0.64898067235E+02  0.57178311621E+02  0.99039897584E+02  0.41800000000E+01 0.  1.
         -5    1    3    3    0  502 -0.47870741791E+02 -0.19285367218E+02  0.48562295230E+02  0.70988042841E+02  0.41800000000E+01 0.  1.
        -11    1    1    2    0    0 -0.11919643255E+02 -0.50384913588E+02  0.38514377855E+02  0.64529642135E+02  0.00000000000E+00 0. -1.
         11    1    1    2    0    0  0.11724696007E+02  0.47722135708E+01 -0.35049464364E+02  0.37265365569E+02  0.00000000000E+00 0.  1.
</event>
<event>
 7    1  0.2612213E-009  0.8808489E+02  0.7561462E-02  0.1307557E+00
          2   -1    0    0  501    0  0.00000000000E+00  0.00000000000E+00  0.26149951465E+03  0.26149951465E+03  0.00000000000E+00 0. -1.
         -2   -1    0    0    0  501 -0.00000000000E+00 -0.00000000000E+00 -0.46839110670E+02  0.46839110670E+02  0.00000000000E+00 0.  1.
         25    2    1    2    0    0 -0.19859824402E+02 -0.35467666974E+01  0.10123300732E+03  0.16217820930E+03  0.12508660048E+03 0.  0.
          5    1    3    3  502    0 -0.59614494637E+02 -0.35544042316E+02  0.33259351386E+02  0.77077388186E+02  0.41800000000E+01 0.  1.
         -5    1    3    3    0  502  0.39754670235E+02  0.31997275618E+02  0.67973655934E+02  0.85100821110E+02  0.41800000000E+01 0.  1.
        -11    1    1    2    0    0  0.27505027731E+02  0.22154338984E+02  0.11992720263E+03  0.12501949934E+03  0.00000000000E+00 0. -1.
         11    1    1    2    0    0 -0.76452033290E+01 -0.18607572287E+02 -0.64998059700E+01  0.21140916679E+02  0.00000000000E+00 0.  1.
</event>
<event>
 7    1  0.2612213E-009  0.1332598E+03  0.7561462E-02  0.1222697E+00
         -2   -1    0    0    0  501 -0.00000000000E+00  0.00000000000E+00  0.25959866226E+02  0.25959866226E+02  0.00000000000E+00 0.  1.
          2   -1    0    0  501    0  0.00000000000E+00 -0.00000000000E+00 -0.90213707502E+03  0.90213707502E+03  0.00000000000E+00 0. -1.
         25    2    1    2    0    0  0.58419870637E+02  0.84825734801E+02 -0.56104710243E+03  0.58397489778E+03  0.12507814969E+03 0.  0.
          5    1    3    3  502    0  0.14302433874E+01  0.81702254331E+02 -0.46521638842E+03  0.47235692481E+03  0.41800000000E+01 0.  1.
         -5    1    3    3    0  502  0.56989627249E+02  0.31234804701E+01 -0.95830714007E+02  0.11161797298E+03  0.41800000000E+01 0.  1.
        -11    1    1    2    0    0 -0.20994697419E+02 -0.87467266652E+02 -0.27429735500E+03  0.28866994823E+03  0.00000000000E+00 0. -1.
         11    1    1    2    0    0 -0.37425173218E+02  0.26415318510E+01 -0.40832751376E+02  0.55452095234E+02  0.00000000000E+00 0.  1.
</event>
<event>
 7    1  0.2612213E-009  0.7921423E+02  0.7561462E-02  0.1331296E+00
         -1   -1    0    0    0  501 -0.00000000000E+00  0.00000000000E+00  0.29717379514E+03  0.29717379514E+03  0.00000000000E+00 0.  1.
          1   -1    0    0  501    0  0.00000000000E+00 -0.00000000000E+00 -0.45690718657E+02  0.45690718657E+02  0.00000000000E+00 0. -1.
         25    2    1    2    0    0 -0.42886529200E+02 -0.16262923530E+02  0.15569199923E+03  0.20491767863E+03  0.12509004486E+03 0.  0.
          5    1    3    3  502    0 -0.12847628983E+01  0.41011032843E+02  0.11717248390E+03  0.12421923689E+03  0.41800000000E+01 0. -1.
         -5    1    3    3    0  502 -0.41601766301E+02 -0.57273956373E+02  0.38519515335E+02  0.80698441743E+02  0.41800000000E+01 0. -1.
        -11    1    1    2    0    0  0.21170999260E+02  0.47615230429E+01 -0.13745977242E+02  0.25687257575E+02  0.00000000000E+00 0. -1.
         11    1    1    2    0    0  0.21715529940E+02  0.11501400488E+02  0.10953705449E+03  0.11225957759E+03  0.00000000000E+00 0.  1.
</event>
<event>
 7    1  0.2612213E-009  0.1104652E+03  0.7561462E-02  0.1259711E+00
         -1   -1    0    0    0  501 -0.00000000000E+00  0.00000000000E+00  0.25486399965E+02  0.25486399965E+02  0.00000000000E+00 0.  1.
          1   -1    0    0  501    0  0.00000000000E+00 -0.00000000000E+00 -0.55453180755E+03  0.55453180755E+03  0.00000000000E+00 0. -1.
         25    2    1    2    0    0 -0.15955335901E+02  0.30858021576E+02 -0.21231232711E+03  0.24885954932E+03  0.12509101009E+03 0.  0.
          5    1    3    3  502    0  0.51994836062E+02  0.29381398531E+02 -0.78568416826E+02  0.98778530458E+02  0.41800000000E+01 0.  1.
         -5    1    3    3    0  502 -0.67950171963E+02  0.14766230442E+01 -0.13374391028E+03  0.15008101886E+03  0.41800000000E+01 0.  1.
        -11    1    1    2    0    0 -0.35219198055E+02 -0.48128172943E+01 -0.16814875883E+03  0.17186494762E+03  0.00000000000E+00 0. -1.
         11    1    1    2    0    0  0.51174533956E+02 -0.26045204281E+02 -0.14858432165E+03  0.15929371058E+03  0.00000000000E+00 0.  1.
</event>
<event>
 7    1  0.2612213E-009  0.1151524E+03  0.7561462E-02  0.1251315E+00
         -2   -1    0    0    0  501 -0.00000000000E+00  0.00000000000E+00  0.15098416416E+03  0.15098416416E+03  0.00000000000E+00 0.  1.
          2   -1    0    0  501    0  0.00000000000E+00 -0.00000000000E+00 -0.12208903068E+03  0.12208903068E+03  0.00000000000E+00 0. -1.
         25    2    1    2    0    0  0.46017876051E+02  0.62102005550E+02 -0.10075981492E+02  0.14739335698E+03  0.12509585233E+03 0.  0.
          5    1    3    3  502    0  0.70118901256E+02  0.23433077616E+02 -0.47761549607E+02  0.88115875191E+02  0.41800000000E+01 0.  1.
         -5    1    3    3    0  502 -0.24101025204E+02  0.38668927934E+02  0.37685568115E+02  0.59277481792E+02  0.41800000000E+01 0.  1.
        -11    1    1    2    0    0  0.43512759296E+01  0.16544058945E+02  0.26381092463E+02  0.31442034415E+02  0.00000000000E+00 0. -1.
         11    1    1    2    0    0 -0.50369151981E+02 -0.78646064494E+02  0.12590022502E+02  0.94237803446E+02  0.00000000000E+00 0.  1.
</event>
<event>
 7    1  0.2612213E-009  0.1217232E+03  0.7561462E-02  0.1240281E+00
         -1   -1    0    0    0  501 -0.00000000000E+00  0.00000000000E+00  0.20581650065E+03  0.20581650065E+03  0.00000000000E+00 0.  1.
          1   -1    0    0  501    0  0.00000000000E+00 -0.00000000000E+00 -0.12209192613E+03  0.12209192613E+03  0.00000000000E+00 0. -1.
         25    2    1    2    0    0 -0.11154245781E+03  0.20837861255E+02  0.54565249001E+02  0.17748463236E+03  0.12508993553E+03 0.  0.
          5    1    3    3  502    0 -0.26974806585E+02 -0.48358214450E+00 -0.40221234059E+02  0.48611666411E+02  0.41800000000E+01 0. -1.
         -5    1    3    3    0  502 -0.84567651225E+02  0.21321443400E+02  0.94786483060E+02  0.12887296595E+03  0.41800000000E+01 0. -1.
        -11    1    1    2    0    0  0.51146776922E+02 -0.40581272842E+02  0.51408353608E+02  0.83100248590E+02  0.00000000000E+00 0.  1.
         11    1    1    2    0    0  0.60395680888E+02  0.19743411587E+02 -0.22249028091E+02  0.67323545822E+02  0.00000000000E+00 0. -1.
</event>
<event>
 7    1  0.2612213E-009  0.9491216E+02  0.7561462E-02  0.1291374E+00
          2   -1    0    0  501    0  0.00000000000E+00  0.00000000000E+00  0.11731132449E+04  0.11731132449E+04  0.00000000000E+00 0. -1.
         -2   -1    0    0    0  501 -0.00000000000E+00 -0.00000000000E+00 -0.16148289048E+02  0.16148289048E+02  0.00000000000E+00 0.  1.
         25    2    1    2    0    0 -0.23250027467E+02  0.63832606640E+02  0.85396466772E+03  0.86574725459E+03  0.12508992636E+03 0.  0.
          5    1    3    3  502    0 -0.23949520669E+02  0.15437397139E+02  0.75453291359E+03  0.75508230204E+03  0.41800000000E+01 0. -1.
         -5    1    3    3    0  502  0.69949320146E+00  0.48395209502E+02  0.99431754128E+02  0.11066495255E+03  0.41800000000E+01 0. -1.
        -11    1    1    2    0    0  0.57881374897E+02 -0.41851653099E+02  0.17196354984E+03  0.18620761773E+03  0.00000000000E+00 0. -1.
         11    1    1    2    0    0 -0.34631347430E+02 -0.21980953542E+02  0.13103673825E+03  0.13730666158E+03  0.00000000000E+00 0.  1.
</event>
<event>
 7    1  0.2612213E-009  0.1609076E+03  0.7561462E-02  0.1187676E+00
          2   -1    0    0  501    0  0.00000000000E+00  0.00000000000E+00  0.24931428542E+03  0.24931428542E+03  0.00000000000E+00 0.  1.
         -2   -1    0    0    0  501 -0.00000000000E+00 -0.00000000000E+00 -0.13925202292E+03  0.13925202292E+03  0.00000000000E+00 0. -1.
         25    2    1    2    0    0 -0.91751372104E+02 -0.11894284239E+03  0.39404197401E+02  0.19941486148E+03  0.12509149518E+03 0.  0.
          5    1    3    3  502    0 -0.84467056664E+02 -0.79349493371E+02 -0.29357143779E+02  0.11962583354E+03  0.41800000000E+01 0. -1.
         -5    1    3    3    0  502 -0.72843154400E+01 -0.39593349017E+02  0.68761341180E+02  0.79789027934E+02  0.41800000000E+01 0. -1.
        -11    1    1    2    0    0  0.20285496073E+02  0.82875165278E+02  0.67917328467E+02  0.10905300490E+03  0.00000000000E+00 0.  1.
         11    1    1    2    0    0  0.71465876031E+02  0.36067677110E+02  0.27407366351E+01  0.80098441972E+02  0.00000000000E+00 0. -1.
</event>
<event>
 7    1  0.2612213E-009  0.7206176E+02  0.7561462E-02  0.1353219E+00
          1   -1    0    0  501    0  0.00000000000E+00  0.00000000000E+00  0.13140256210E+03  0.13140256210E+03  0.00000000000E+00 0. -1.
         -1   -1    0    0    0  501 -0.00000000000E+00 -0.00000000000E+00 -0.10131197519E+03  0.10131197519E+03  0.00000000000E+00 0.  1.
         25    2    1    2    0    0 -0.27041779836E+02 -0.10061486001E+01  0.48265034076E+02  0.13677658975E+03  0.12508417884E+03 0.  0.
          5    1    3    3  502    0 -0.19630875346E+02  0.52033030587E+02 -0.10941542403E+02  0.56833065104E+02  0.41800000000E+01 0.  1.
         -5    1    3    3    0  502 -0.74109044898E+01 -0.53039179187E+02  0.59206576479E+02  0.79943524645E+02  0.41800000000E+01 0.  1.
        -11    1    1    2    0    0  0.65855568409E+01 -0.95628640343E+01  0.35597690261E+02  0.37443470450E+02  0.00000000000E+00 0. -1.
         11    1    1    2    0    0  0.20456222995E+02  0.10569012634E+02 -0.53772137427E+02  0.58494477096E+02  0.00000000000E+00 0.  1.
</event>
<event>
 7    1  0.2612213E-009  0.1078107E+03  0.7561462E-02  0.1264679E+00
         -1   -1    0    0    0  501 -0.00000000000E+00  0.00000000000E+00  0.63719901645E+02  0.63719901645E+02  0.00000000000E+00 0.  1.
          1   -1    0    0  501    0  0.00000000000E+00 -0.00000000000E+00 -0.19951162783E+03  0.19951162783E+03  0.00000000000E+00 0. -1.
         25    2    1    2    0    0 -0.22133367723E+02 -0.46974982403E+01 -0.10633399076E+03  0.16572490945E+03  0.12508347439E+03 0.  0.
          5    1    3    3  502    0  0.29580758137E+02 -0.47502077786E+02 -0.28774742048E+02  0.63062879936E+02  0.41800000000E+01 0. -1.
         -5    1    3    3    0  502 -0.51714125860E+02  0.42804579545E+02 -0.77559248714E+02  0.10266202952E+03  0.41800000000E+01 0. -1.
        -11    1    1    2    0    0  0.14077828948E+02 -0.42290088317E+02 -0.82486017986E+01  0.45328537031E+02  0.00000000000E+00 0. -1.
         11    1    1    2    0    0  0.80555387750E+01  0.46987586558E+02 -0.21209133628E+02  0.52178082992E+02  0.00000000000E+00 0.  1.
</event>
<event>
 7    1  0.2612213E-009  0.8301192E+02  0.7561462E-02  0.1320715E+00
         -2   -1    0    0    0  501 -0.00000000000E+00  0.00000000000E+00  0.23204742162E+02  0.23204742162E+02  0.00000000000E+00 0.  1.
          2   -1    0    0  501    0  0.00000000000E+00 -0.00000000000E+00 -0.67364425084E+03  0.67364425084E+03  0.00000000000E+00 0. -1.
         25    2    1    2    0    0 -0.43418043514E+02  0.24627174191E+02 -0.46848629422E+03  0.48746207787E+03  0.12509294656E+03 0.  0.
          5    1    3    3  502    0 -0.38397468789E+02 -0.74610783086E+01 -0.44601609118E+03  0.44774753968E+03  0.41800000000E+01 0. -1.
         -5    1    3    3    0  502 -0.50205747247E+01  0.32088252500E+02 -0.22470203042E+02  0.39714538192E+02  0.41800000000E+01 0. -1.
        -11    1    1    2    0    0  0.27580012432E+02  0.27807089552E+02 -0.34880512843E+02  0.52445605072E+02  0.00000000000E+00 0.  1.
         11    1    1    2    0    0  0.15838031081E+02 -0.52434263743E+02 -0.14707270162E+03  0.15694131006E+03  0.00000000000E+00 0. -1.
</event>
<event>
 7    1  0.2612213E-009  0.1147483E+03  0.7561462E-02  0.1252021E+00
          1   -1    0    0  501    0  0.00000000000E+00  0.00000000000E+00  0.18722720159E+02  0.18722720159E+02  0.00000000000E+00 0. -1.
         -1   -1    0    0    0  501 -0.00000000000E+00 -0.00000000000E+00 -0.80648521906E+03  0.80648521906E+03  0.00000000000E+00 0.  1.
         25    2    1    2    0    0  0.43433206629E+02 -0.34245132052E+02 -0.49472930874E+03  0.51328704329E+03  0.12508927764E+03 0.  0.
          5    1    3    3  502    0  0.35276200043E+01 -0.72436495998E+02 -0.18704245609E+03  0.20065353931E+03  0.41800000000E+01 0.  1.
         -5    1    3    3    0  502  0.39905586625E+02  0.38191363946E+02 -0.30768685265E+03  0.31263350399E+03  0.41800000000E+01 0.  1.
        -11    1    1    2    0    0  0.24789823145E+02 -0.71646147714E+00 -0.12197442929E+03  0.12447011710E+03  0.00000000000E+00 0. -1.
         11    1    1    2    0    0 -0.68223029774E+02  0.34961593529E+02 -0.17105876087E+03  0.18745077883E+03  0.00000000000E+00 0.  1.
</event>
<event>
 7    1  0.2612213E-009  0.7681918E+02  0.7561462E-02  0.1338328E+00
          4   -1    0    0  501    0  0.00000000000E+00  0.00000000000E+00  0.21724542589E+02  0.21724542589E+02  0.00000000000E+00 0. -1.
         -4   -1    0    0    0  501 -0.00000000000E+00 -0.00000000000E+00 -0.56087168532E+03  0.56087168532E+03  0.00000000000E+00 0.  1.
         25    2    1    2    0    0 -0.12409373715E+02 -0.12721050530E+02 -0.36135747085E+03  0.38280882075E+03  0.12509018278E+03 0.  0.
          5    1    3    3  502    0  0.74517466952E+00  0.34992122280E+02 -0.30761832105E+03  0.30963124479E+03  0.41800000000E+01 0. -1.
         -5    1    3    3    0  502 -0.13154548384E+02 -0.47713172810E+02 -0.53739149798E+02  0.73177575962E+02  0.41800000000E+01 0. -1.
        -11    1    1    2    0    0 -0.58938880515E+01 -0.25590714207E+02 -0.14154963391E+03  0.14396500071E+03  0.00000000000E+00 0.  1.
         11    1    1    2    0    0  0.18303261766E+02  0.38311764737E+02 -0.36240037976E+02  0.55822406443E+02  0.00000000000E+00 0. -1.
</event>
<event>
 7    1  0.2612213E-009  0.1345330E+03  0.7561462E-02  0.1220880E+00
          3   -1    0    0  501    0  0.00000000000E+00  0.00000000000E+00  0.61149802671E+03  0.61149802671E+03  0.00000000000E+00 0. -1.
         -3   -1    0    0    0  501 -0.00000000000E+00 -0.00000000000E+00 -0.31671886227E+02  0.31671886227E+02  0.00000000000E+00 0.  1.
         25    2    1    2    0    0 -0.83972873926E+02 -0.79411126848E+01  0.26881904460E+03  0.30826424553E+03  0.12509461023E+03 0.  0.
          5    1    3    3  502    0 -0.32489961486E+02  0.57045385480E+02  0.14460585757E+03  0.15886503720E+03  0.41800000000E+01 0.  1.
         -5    1    3    3    0  502 -0.51482912440E+02 -0.64986498165E+02  0.12421318703E+03  0.14939920833E+03  0.41800000000E+01 0.  1.
        -11    1    1    2    0    0  0.48870508283E+02  0.46967159563E+02  0.21571488887E+03  0.22611314411E+03  0.00000000000E+00 0.  1.
         11    1    1    2    0    0  0.35102365643E+02 -0.39026046878E+02  0.95292207012E+02  0.10879252330E+03  0.00000000000E+00 0. -1.
</event>
<event>
 7    1  0.2612213E-009  0.7121536E+02  0.7561462E-02  0.1356008E+00
         -2   -1    0    0    0  501 -0.00000000000E+00  0.00000000000E+00  0.59428179251E+02  0.59428179251E+02  0.00000000000E+00 0.  1.
          2   -1    0    0  501    0  0.00000000000E+00 -0.00000000000E+00 -0.24162883840E+03  0.24162883840E+03  0.00000000000E+00 0. -1.
         25    2    1    2    0    0  0.45966624151E+02 -0.15471838603E+02 -0.73415252041E+02  0.15293657761E+03  0.12508992451E+03 0.  0.
          5    1    3    3  502    0  0.14640770208E+02  0.86395581361E+01  0.34087432886E+02  0.38319963437E+02  0.41800000000E+01 0. -1.
         -5    1    3    3    0  502  0.31325853943E+02 -0.24111396739E+02 -0.10750268493E+03  0.11461661417E+03  0.41800000000E+01 0. -1.
        -11    1    1    2    0    0 -0.78251479035E+01  0.39385534865E+02 -0.12872808963E+02  0.42168264215E+02  0.00000000000E+00 0.  1.
         11    1    1    2    0    0 -0.38141476247E+02 -0.23913696262E+02 -0.95912598142E+02  0.10595217582E+03  0.00000000000E+00 0. -1.
</event>
<event>
 7    1  0.2612213E-009  0.7350089E+02  0.7561462E-02  0.1348577E+00
         -4   -1    0    0    0  501 -0.00000000000E+00  0.00000000000E+00  0.17827158932E+03  0.17827158932E+03  0.00000000000E+00 0.  1.
          4   -1    0    0  501    0  0.00000000000E+00 -0.00000000000E+00 -0.73004327385E+02  0.73004327385E+02  0.00000000000E+00 0. -1.
         25    2    1    2    0    0  0.11772832595E+02 -0.18814780671E+02  0.27533990995E+02  0.12998579814E+03  0.12508233887E+03 0.  0.
          5    1    3    3  502    0 -0.23998654380E+02 -0.46056295087E+02  0.56091666291E+02  0.76556287505E+02  0.41800000000E+01 0.  1.
         -5    1    3    3    0  502  0.35771486974E+02  0.27241514416E+02 -0.28557675297E+02  0.53429510632E+02  0.41800000000E+01 0.  1.
        -11    1    1    2    0    0 -0.27502307535E+02  0.19944421155E+02  0.93201591657E+02  0.99200269870E+02  0.00000000000E+00 0.  1.
         11    1    1    2    0    0  0.15729474940E+02 -0.11296404838E+01 -0.15468320719E+02  0.22089848695E+02  0.00000000000E+00 0. -1.
</event>
<event>
 7    1  0.2612213E-009  0.1064406E+03  0.7561462E-02  0.1267307E+00
          2   -1    0    0  501    0  0.00000000000E+00  0.00000000000E+00  0.63069539548E+03  0.63069539548E+03  0.00000000000E+00 0. -1.
         -2   -1    0    0    0  501 -0.00000000000E+00 -0.00000000000E+00 -0.23990423695E+02  0.23990423695E+02  0.00000000000E+00 0.  1.
         25    2    1    2    0    0 -0.21778848713E+02  0.30801233095E+02  0.42449230021E+03  0.44414015185E+03  0.12507488694E+03 0.  0.
          5    1    3    3  502    0  0.57843324067E+01  0.76483070855E+02  0.23501709514E+03  0.24725215072E+03  0.41800000000E+01 0.  1.
         -5    1    3    3    0  502 -0.27563181120E+02 -0.45681837760E+02  0.18947520507E+03  0.19688800113E+03  0.41800000000E+01 0.  1.
        -11    1    1    2    0    0 -0.23879646976E+02  0.51583358412E+01  0.62270185321E+01  0.25211539583E+02  0.00000000000E+00 0.  1.
         11    1    1    2    0    0  0.45658495689E+02 -0.35959568936E+02  0.17598565305E+03  0.18533412774E+03  0.00000000000E+00 0. -1.
</event>
<event>
 7    1  0.2612213E-009  0.2062949E+03  0.7561462E-02  0.1144534E+00
         -2   -1    0    0    0  501 -0.00000000000E+00  0.00000000000E+00  0.45022209619E+02  0.45022209619E+02  0.00000000000E+00 0.  1.
          2   -1    0    0  501    0  0.00000000000E+00 -0.00000000000E+00 -0.10316486611E+04  0.10316486611E+04  0.00000000000E+00 0. -1.
         25    2    1    2    0    0 -0.15363582859E+03  0.10751652979E+03 -0.52656561353E+03  0.57278310271E+03  0.12508143503E+03 0.  0.
          5    1    3    3  502    0 -0.16477857002E+03  0.12180327232E+03 -0.45848834593E+03  0.50221215640E+03  0.41800000000E+01 0.  1.
         -5    1    3    3    0  502  0.11142741429E+02 -0.14286742524E+02 -0.68077267600E+02  0.70570946305E+02  0.41800000000E+01 0.  1.
        -11    1    1    2    0    0  0.84811630473E+02 -0.73701016212E+02 -0.36414969457E+03  0.38109034691E+03  0.00000000000E+00 0. -1.
         11    1    1    2    0    0  0.68824198122E+02 -0.33815513583E+02 -0.95911143423E+02  0.12279742114E+03  0.00000000000E+00 0.  1.
</event>
<event>
 7    1  0.2612213E-009  0.1097217E+03  0.7561462E-02  0.1261086E+00
          1   -1    0    0  501    0  0.00000000000E+00  0.00000000000E+00  0.17446574497E+03  0.17446574497E+03  0.00000000000E+00 0. -1.
         -1   -1    0    0    0  501 -0.00000000000E+00 -0.00000000000E+00 -0.88348377137E+02  0.88348377137E+02  0.00000000000E+00 0.  1.
         25    2    1    2    0    0  0.15378920801E+02 -0.52372343473E+02  0.96641895243E+02  0.16723042910E+03  0.12508791682E+03 0.  0.
          5    1    3    3  502    0 -0.24485242532E+02  0.32833376266E+02  0.19756525223E+02  0.45665636837E+02  0.41800000000E+01 0.  1.
         -5    1    3    3    0  502  0.39864163333E+02 -0.85205719738E+02  0.76885370020E+02  0.12156479226E+03  0.41800000000E+01 0.  1.
        -11    1    1    2    0    0 -0.35196276108E+02  0.88556484425E+01  0.17358967315E+02  0.40231009277E+02  0.00000000000E+00 0.  1.
         11    1    1    2    0    0  0.19817355306E+02  0.43516695030E+02 -0.27883494728E+02  0.55352683728E+02  0.00000000000E+00 0. -1.
</event>
<event>
 7    1  0.2612213E-009  0.1279083E+03  0.7561462E-02  0.1230593E+00
          1   -1    0    0  501    0  0.00000000000E+00  0.00000000000E+00  0.94209966953E+03  0.94209966953E+03  0.00000000000E+00 0. -1.
         -1   -1    0    0    0  501 -0.00000000000E+00 -0.00000000000E+00 -0.20810938395E+02  0.20810938395E+02  0.00000000000E+00 0.  1.
         25    2    1    2    0    0 -0.25436643154E+02 -0.80313673184E+02  0.57264759286E+03  0.59216863322E+03  0.12506444597E+03 0.  0.
          5    1    3    3  502    0  0.26207435671E+02  0.18611120489E+02  0.21680456416E+03  0.21921426717E+03  0.41800000000E+01 0. -1.
         -5    1    3    3    0  502 -0.51644078825E+02 -0.98924793673E+02  0.35584302870E+03  0.37295436605E+03  0.41800000000E+01 0. -1.
        -11    1    1    2    0    0  0.50967930268E+02  0.43959882778E+02  0.11786441826E+03  0.13572848743E+03  0.00000000000E+00 0. -1.
         11    1    1    2    0    0 -0.25531287113E+02  0.36353790407E+02  0.23077672002E+03  0.23501348728E+03  0.00000000000E+00 0.  1.
</event>
<event>
 7    1  0.2612213E-009  0.9827271E+02  0.7561462E-02  0.1283971E+00
          2   -1    0    0  501    0  0.00000000000E+00  0.00000000000E+00  0.15014944719E+03  0.15014944719E+03  0.00000000000E+00 0. -1.
         -2   -1    0    0    0  501 -0.00000000000E+00 -0.00000000000E+00 -0.11469902791E+03  0.11469902791E+03  0.00000000000E+00 0.  1.
         25    2    1    2    0    0  0.25958290829E+02  0.14210434204E+02 -0.48741885382E+02  0.13747740778E+03  0.12509395252E+03 0.  0.
          5    1    3    3  502    0  0.60996550611E+02  0.35023191544E+02 -0.62577295115E+02  0.94236900396E+02  0.41800000000E+01 0. -1.
         -5    1    3    3    0  502 -0.35038259782E+02 -0.20812757339E+02  0.13835409733E+02  0.43240507387E+02  0.41800000000E+01 0. -1.
        -11    1    1    2    0    0 -0.35591486446E+02  0.25803102863E+02  0.14240340961E+02  0.46209753684E+02  0.00000000000E+00 0.  1.
         11    1    1    2    0    0  0.96331956170E+01 -0.40013537067E+02  0.69951963701E+02  0.81161313642E+02  0.00000000000E+00 0. -1.
</event>
<event>
 7    1  0.2612213E-009  0.1177499E+03  0.7561462E-02  0.1246856E+00
          2   -1    0    0  501    0  0.00000000000E+00  0.00000000000E+00  0.17137337466E+02  0.17137337466E+02  0.00000000000E+00 0. -1.
         -2   -1    0    0    0  501 -0.00000000000E+00 -0.00000000000E+00 -0.12274033388E+04  0.12274033388E+04  0.00000000000E+00 0.  1.
         25    2    1    2    0    0 -0.95383763531E+02  0.15260267667E+02 -0.63997179050E+03  0.65919777614E+03  0.12508747863E+03 0.  0.
          5    1    3    3  502    0 -0.15077680044E+02 -0.13907536830E+02 -0.45415082889E+03  0.45463304301E+03  0.41800000000E+01 0.  1.
         -5    1    3    3    0  502 -0.80306083487E+02  0.29167804496E+02 -0.18582096162E+03  0.20456473313E+03  0.41800000000E+01 0.  1.
        -11    1    1    2    0    0  0.19801721362E+02  0.33617004732E+02 -0.12146163515E+03  0.12757405688E+03  0.00000000000E+00 0. -1.
         11    1    1    2    0    0  0.75582042169E+02 -0.48877272399E+02 -0.44883257566E+03  0.45776884323E+03  0.00000000000E+00 0.  1.
</event>
<event>
 7    1  0.2612213E-009  0.9215735E+02  0.7561462E-02  0.1297710E+00
         -1   -1    0    0    0  501 -0.00000000000E+00  0.00000000000E+00  0.35603693519E+03  0.35603693519E+03  0.00000000000E+00 0.  1.
          1   -1    0    0  501    0  0.00000000000E+00 -0.00000000000E+00 -0.52488324870E+02  0.52488324870E+02  0.00000000000E+00 0. -1.
         25    2    1    2    0    0 -0.95911110357E+01 -0.30715773479E+02  0.52773556129E+02  0.13952549706E+03  0.12508744122E+03 0.  0.
          5    1    3    3  502    0 -0.20331660213E+02  0.27210112137E+02  0.70072149993E+02  0.77982980285E+02  0.41800000000E+01 0. -1.
         -5    1    3    3    0  502  0.10740549177E+02 -0.57925885616E+02 -0.17298593864E+02  0.61542516773E+02  0.41800000000E+01 0. -1.
        -11    1    1    2    0    0 -0.18048972016E+02 -0.23822397545E+02  0.42651773114E+02  0.52081145969E+02  0.00000000000E+00 0. -1.
         11    1    1    2    0    0  0.27640083051E+02  0.54538171024E+02  0.20812328108E+03  0.21691861704E+03  0.00000000000E+00 0.  1.
</event>
<event>
 7    1  0.2612213E-009  0.1363843E+03  0.7561462E-02  0.1218279E+00
         -1   -1    0    0    0  501 -0.00000000000E+00  0.00000000000E+00  0.11894520952E+03  0.11894520952E+03  0.00000000000E+00 0.  1.
          1   -1    0    0  501    0  0.00000000000E+00 -0.00000000000E+00 -0.16147073942E+03  0.16147073942E+03  0.00000000000E+00 0. -1.
         25    2    1    2    0    0 -0.85141540319E+00 -0.84635957746E+02 -0.47009582231E+02  0.15818103162E+03  0.12508943877E+03 0.  0.
          5    1    3    3  502    0 -0.47168646268E+02  0.73605331635E+01 -0.13477870183E+02  0.49781362214E+02  0.41800000000E+01 0.  1.
         -5    1    3    3    0  502  0.46317230865E+02 -0.91996490910E+02 -0.33531712048E+02  0.10839966941E+03  0.41800000000E+01 0.  1.
        -11    1    1    2    0    0  0.42855211218E+02  0.57665508126E+02 -0.21527953423E+01  0.71878470238E+02  0.00000000000E+00 0. -1.
         11    1    1    2    0    0 -0.42003795815E+02  0.26970449620E+02  0.66368476683E+01  0.50356447080E+02  0.00000000000E+00 0.  1.
</event>
<event>
 7    1  0.2612213E-009  0.1497691E+03  0.7561462E-02  0.1200757E+00
         -1   -1    0    0    0  501 -0.00000000000E+00  0.00000000000E+00  0.20340114003E+03  0.20340114003E+03  0.00000000000E+00 0.  1.
          1   -1    0    0  501    0  0.00000000000E+00 -0.00000000000E+00 -0.14449623311E+03  0.14449623311E+03  0.00000000000E+00 0. -1.
         25    2    1    2    0    0 -0.96949872897E+02 -0.77060876014E+02  0.81744361987E+02  0.19408261908E+03  0.12509302877E+03 0.  0.
          5    1    3    3  502    0 -0.11350699724E+03 -0.92679993722E+02  0.86837112880E+02  0.17038654945E+03  0.41800000000E+01 0.  1.
         -5    1    3    3    0  502  0.16557124345E+02  0.15619117708E+02 -0.50927508927E+01  0.23696069636E+02  0.41800000000E+01 0.  1.
        -11    1    1    2    0    0  0.40650959853E+02  0.57044345351E+02 -0.52085854558E+02  0.87289713704E+02  0.00000000000E+00 0. -1.
         11    1    1    2    0    0  0.56298913044E+02  0.20016530663E+02  0.29246399495E+02  0.66525040347E+02  0.00000000000E+00 0.  1.
</event>
<event>
 7    1  0.2612213E-009  0.1072305E+03  0.7561462E-02  0.1265786E+00
          1   -1    0    0  501    0  0.00000000000E+00  0.00000000000E+00  0.68893970549E+03  0.68893970549E+03  0.00000000000E+00 0. -1.
         -1   -1    0    0    0  501 -0.00000000000E+00 -0.00000000000E+00 -0.24943643927E+02  0.24943643927E+02  0.00000000000E+00 0.  1.
         25    2    1    2    0    0  0.47887495035E+01  0.68438773956E+02  0.35870232145E+03  0.38603164332E+03  0.12508507635E+03 0.  0.
          5    1    3    3  502    0 -0.24092528808E+02  0.20302662047E+01  0.50937464539E+01  0.25059740186E+02  0.41800000000E+01 0.  1.
         -5    1    3    3    0  502  0.28881278312E+02  0.66408507751E+02  0.35360857500E+03  0.36097190313E+03  0.41800000000E+01 0.  1.
        -11    1    1    2    0    0 -0.46985193868E+02 -0.15051107002E+02  0.98792618934E+02  0.11042701581E+03  0.00000000000E+00 0. -1.
         11    1    1    2    0    0  0.42196444364E+02 -0.53387666954E+02  0.20650112117E+03  0.21742469028E+03  0.00000000000E+00 0.  1.
</event>
<event>
 7    1  0.2612213E-009  0.9502742E+02  0.7561462E-02  0.1291114E+00
         -2   -1    0    0    0  501 -0.00000000000E+00  0.00000000000E+00  0.52168077295E+02  0.52168077295E+02  0.00000000000E+00 0.  1.
          2   -1    0    0  501    0  0.00000000000E+00 -0.00000000000E+00 -0.25994129265E+03  0.25994129265E+03  0.00000000000E+00 0. -1.
         25    2    1    2    0    0 -0.93033637081E+01  0.15509326095E+02 -0.65218529790E+02  0.14222545103E+03  0.12509008961E+03 0.  0.
          5    1    3    3  502    0 -0.42871546345E+01  0.70630480389E+02 -0.36750216501E+02  0.79844193700E+02  0.41800000000E+01 0.  1.
         -5    1    3    3    0  502 -0.50162090737E+01 -0.55121154294E+02 -0.28468313289E+02  0.62381257327E+02  0.41800000000E+01 0.  1.
        -11    1    1    2    0    0  0.33455633119E+02  0.24821872599E+01 -0.13462309464E+03  0.13874011046E+03  0.00000000000E+00 0. -1.
         11    1    1    2    0    0 -0.24152269410E+02 -0.17991513355E+02 -0.79315909252E+01  0.31143808455E+02  0.00000000000E+00 0.  1.
</event>
<event>
 7    1  0.2612213E-009  0.1813782E+03  0.7561462E-02  0.1166476E+00
         -2   -1    0    0    0  501 -0.00000000000E+00  0.00000000000E+00  0.32096678647E+02  0.32096678647E+02  0.00000000000E+00 0.  1.
          2   -1    0    0  501    0  0.00000000000E+00 -0.00000000000E+00 -0.11565653776E+04  0.11565653776E+04  0.00000000000E+00 0. -1.
         25    2    1    2    0    0 -0.11796436622E+03 -0.10019495708E+03 -0.48220743808E+03  0.52165660848E+03  0.12508789993E+03 0.  0.
          5    1    3    3  502    0 -0.12348898978E+03 -0.47631371913E+02 -0.24397602902E+03  0.27759692599E+03  0.41800000000E+01 0. -1.
         -5    1    3    3    0  502  0.55246235561E+01 -0.52563585166E+02 -0.23823140906E+03  0.24405968248E+03  0.41800000000E+01 0. -1.
        -11    1    1    2    0    0  0.13116499047E+03  0.81476833159E+02 -0.51315531799E+03  0.53588348496E+03  0.00000000000E+00 0.  1.
         11    1    1    2    0    0 -0.13200624250E+02  0.18718123919E+02 -0.12910594286E+03  0.13112196279E+03  0.00000000000E+00 0. -1.
</event>
<event>
 7    1  0.2612213E-009  0.1496232E+03  0.7561462E-02  0.1200937E+00
         -3   -1    0    0    0  501 -0.00000000000E+00  0.00000000000E+00  0.12894731629E+03  0.12894731629E+03  0.00000000000E+00 0. -1.
          3   -1    0    0  501    0  0.00000000000E+00 -0.00000000000E+00 -0.21744586957E+03  0.21744586957E+03  0.00000000000E+00 0.  1.
         25    2    1    2    0    0  0.12155701044E+03 -0.35378771867E+02 -0.49709738204E+02  0.18478716774E+03  0.12508986771E+03 0.  0.
          5    1    3    3  502    0  0.41542997762E+02  0.19587739371E+02 -0.71618117666E+02  0.85182905414E+02  0.41800000000E+01 0.  1.
         -5    1    3    3    0  502  0.80014012679E+02 -0.54966511239E+02  0.21908379462E+02  0.99604262325E+02  0.41800000000E+01 0.  1.
        -11    1    1    2    0    0 -0.12518625208E+03  0.49145357138E+01 -0.37990002472E+02  0.13091596793E+03  0.00000000000E+00 0.  1.
         11    1    1    2    0    0  0.36292416438E+01  0.30464236153E+02 -0.79881260237E+00  0.30690050194E+02  0.00000000000E+00 0. -1.
</event>
<event>
 7    1  0.2612213E-009  0.8514804E+02  0.7561462E-02  0.1315046E+00
          1   -1    0    0  501    0  0.00000000000E+00  0.00000000000E+00  0.20941518549E+03  0.20941518549E+03  0.00000000000E+00 0. -1.
         -1   -1    0    0    0  501 -0.00000000000E+00 -0.00000000000E+00 -0.58055172695E+02  0.58055172695E+02  0.00000000000E+00 0.  1.
         25    2    1    2    0    0  0.20348826121E+02 -0.18553249975E+01  0.87757407619E+02  0.15416321880E+03  0.12508964180E+03 0.  0.
          5    1    3    3  502    0  0.51355192895E+02  0.20665557141E+01 -0.90459690403E+01  0.52353877084E+02  0.41800000000E+01 0. -1.
         -5    1    3    3    0  502 -0.31006366774E+02 -0.39218807117E+01  0.96803376659E+02  0.10180934172E+03  0.41800000000E+01 0. -1.
        -11    1    1    2    0    0 -0.50901038612E+02 -0.13979782109E+02  0.17160483298E+02  0.55505245037E+02  0.00000000000E+00 0.  1.
         11    1    1    2    0    0  0.30552212491E+02  0.15835107107E+02  0.46442121876E+02  0.57801894342E+02  0.00000000000E+00 0. -1.
</event>
<event>
 7    1  0.2612213E-009  0.8843142E+02  0.7561462E-02  0.1306695E+00
         -2   -1    0    0    0  501 -0.00000000000E+00  0.00000000000E+00  0.13628687181E+03  0.13628687181E+03  0.00000000000E+00 0.  1.
          2   -1    0    0  501    0  0.00000000000E+00 -0.00000000000E+00 -0.10582444868E+03  0.10582444868E+03  0.00000000000E+00 0. -1.
         25    2    1    2    0    0 -0.17927154278E+02 -0.24610746904E+02  0.56180999919E+02  0.14045971850E+03  0.12508219716E+03 0.  0.
          5    1    3    3  502    0 -0.42259229526E+02 -0.54022126873E+02  0.71454777938E+02  0.99133699428E+02  0.41800000000E+01 0.  1.
         -5    1    3    3    0  502  0.24332075248E+02  0.29411379969E+02 -0.15273778019E+02  0.41326019075E+02  0.41800000000E+01 0.  1.
        -11    1    1    2    0    0  0.33263958437E+02  0.37202195534E+02 -0.49763313346E+02  0.70476106863E+02  0.00000000000E+00 0. -1.
         11    1    1    2    0    0 -0.15336804159E+02 -0.12591448630E+02  0.24044736553E+02  0.31175495125E+02  0.00000000000E+00 0.  1.
</event>
<event>
 7    1  0.2612213E-009  0.1272134E+03  0.7561462E-02  0.1231650E+00
         -1   -1    0    0    0  501 -0.00000000000E+00  0.00000000000E+00  0.12252940642E+03  0.12252940642E+03  0.00000000000E+00 0. -1.
          1   -1    0    0  501    0  0.00000000000E+00 -0.00000000000E+00 -0.21795123781E+03  0.21795123781E+03  0.00000000000E+00 0.  1.
         25    2    1    2    0    0  0.96884569483E+02 -0.70648341469E+02 -0.24812089701E+02  0.17504480059E+03  0.12508890623E+03 0.  0.
          5    1    3    3  502    0  0.62583749913E+02 -0.17008168749E+02  0.46079746072E+02  0.79666925104E+02  0.41800000000E+01 0. -1.
         -5    1    3    3    0  502  0.34300819570E+02 -0.53640172720E+02 -0.70891835773E+02  0.95377875484E+02  0.41800000000E+01 0. -1.
        -11    1    1    2    0    0 -0.77476331521E+02  0.34941101976E+02 -0.86990853542E+02  0.12161772549E+03  0.00000000000E+00 0.  1.
         11    1    1    2    0    0 -0.19408237962E+02  0.35707239493E+02  0.16381111848E+02  0.43818118152E+02  0.00000000000E+00 0. -1.
</event>
<event>
 7    1  0.2612213E-009  0.9763908E+02  0.7561462E-02  0.1285340E+00
          2   -1    0    0  501    0  0.00000000000E+00  0.00000000000E+00  0.10032838843E+03  0.10032838843E+03  0.00000000000E+00 0. -1.
         -2   -1    0    0    0  501 -0.00000000000E+00 -0.00000000000E+00 -0.19403553260E+03  0.19403553260E+03  0.00000000000E+00 0.  1.
         25    2    1    2    0    0  0.38496162628E+02  0.34591762052E+02  0.24796512803E+02  0.13762462747E+03  0.12508847469E+03 0.  0.
          5    1    3    3  502    0 -0.25608516610E+02  0.60691737761E+02  0.13446753647E+02  0.67361492999E+02  0.41800000000E+01 0.  1.
         -5    1    3    3    0  502  0.64104679238E+02 -0.26099975709E+02  0.11349759156E+02  0.70263134467E+02  0.41800000000E+01 0.  1.
        -11    1    1    2    0    0 -0.42345326759E+02 -0.24024957141E+02 -0.13110291574E+03  0.13985099134E+03  0.00000000000E+00 0.  1.
         11    1    1    2    0    0  0.38491641310E+01 -0.10566804911E+02  0.12599258762E+02  0.16888302220E+02  0.00000000000E+00 0. -1.
</event>
<event>
 7    1  0.2612213E-009  0.9707688E+02  0.7561462E-02  0.1286566E+00
         -4   -1    0    0    0  501 -0.00000000000E+00  0.00000000000E+00  0.51621847727E+02  0.51621847727E+02  0.00000000000E+00 0.  1.
          4   -1    0    0  501    0  0.00000000000E+00 -0.00000000000E+00 -0.24920938579E+03  0.24920938579E+03  0.00000000000E+00 0. -1.
         25    2    1    2    0    0  0.13846156497E+02 -0.19175412654E+02 -0.14280446332E+03  0.19131286038E+03  0.12509229913E+03 0.  0.
          5    1    3    3  502    0  0.55810766399E+02 -0.33106982548E+02 -0.12956591622E+03  0.14496797228E+03  0.41800000000E+01 0. -1.
         -5    1    3    3    0  502 -0.41964609902E+02  0.13931569894E+02 -0.13238547094E+02  0.46344888101E+02  0.41800000000E+01 0. -1.
        -11    1    1    2    0    0  0.25272146790E+02 -0.17779926681E+02  0.24030704138E+01  0.30993256421E+02  0.00000000000E+00 0.  1.
         11    1    1    2    0    0 -0.39118303287E+02  0.36955339335E+02 -0.57186145160E+02  0.78525116718E+02  0.00000000000E+00 0. -1.
</event>
<event>
 7    1  0.2612213E-009  0.1129133E+03  0.7561462E-02  0.1255268E+00
         -3   -1    0    0    0  501 -0.00000000000E+00  0.00000000000E+00  0.58755855476E+02  0.58755855476E+02  0.00000000000E+00 0.  1.
          3   -1    0    0  501    0  0.00000000000E+00 -0.00000000000E+00 -0.34188734351E+03  0.34188734351E+03  0.00000000000E+00 0. -1.
         25    2    1    2    0    0 -0.22045250237E+02 -0.68686616592E+02 -0.73237409287E+02  0.16191078162E+03  0.12509012243E+03 0.  0.
          5    1    3    3  502    0 -0.40912781715E+02 -0.97975175629E+02 -0.68694835583E+02  0.12652842994E+03  0.41800000000E+01 0. -1.
         -5    1    3    3    0  502  0.18867531479E+02  0.29288559036E+02 -0.45425737032E+01  0.35382351679E+02  0.41800000000E+01 0. -1.
        -11    1    1    2    0    0  0.25440893534E+02  0.12779178961E+02 -0.85253228678E+01  0.29719145492E+02  0.00000000000E+00 0.  1.
         11    1    1    2    0    0 -0.33956432978E+01  0.55907437631E+02 -0.20136875587E+03  0.20901327187E+03  0.00000000000E+00 0. -1.
</event>
<event>
 7    1  0.2612213E-009  0.2414038E+03  0.7561462E-02  0.1118861E+00
          2   -1    0    0  501    0  0.00000000000E+00  0.00000000000E+00  0.32148241197E+03  0.32148241197E+03  0.00000000000E+00 0. -1.
         -2   -1    0    0    0  501 -0.00000000000E+00 -0.00000000000E+00 -0.21007730610E+03  0.21007730610E+03  0.00000000000E+00 0.  1.
         25    2    1    2    0    0  0.18250872586E+03 -0.14926494665E+03  0.46741163258E+02  0.27096300951E+03  0.12508699719E+03 0.  0.
          5    1    3    3  502    0  0.14652257835E+03 -0.95967402153E+02 -0.22185537486E+02  0.17660203486E+03  0.41800000000E+01 0. -1.
         -5    1    3    3    0  502  0.35986147509E+02 -0.53297544495E+02  0.68926700743E+02  0.94360974652E+02  0.41800000000E+01 0. -1.
        -11    1    1    2    0    0 -0.11987778160E+03  0.59838360890E+02  0.70238085122E+02  0.15127690028E+03  0.00000000000E+00 0.  1.
         11    1    1    2    0    0 -0.62630944262E+02  0.89426585758E+02 -0.55741425129E+01  0.10931980829E+03  0.00000000000E+00 0. -1.
</event>
<event>
 7    1  0.2834098E-009  0.9624399E+02  0.7561462E-02  0.1288399E+00
         -1   -1    0    0    0  501 -0.00000000000E+00  0.00000000000E+00  0.60819393361E+02  0.60819393361E+02  0.00000000000E+00 0.  1.
          1   -1    0    0  501    0  0.00000000000E+00 -0.00000000000E+00 -0.37522949063E+03  0.37522949063E+03  0.00000000000E+00 0. -1.
         25    2    1    2    0    0  0.75028187691E+02  0.61729141819E+01 -0.64477001429E+02  0.15959983758E+03  0.12508993014E+03 0.  0.
          5    1    3    3  502    0  0.82250104103E+02  0.20482428977E+02  0.80118498299E+01  0.85242428751E+02  0.41800000000E+01 0.  1.
         -5    1    3    3    0  502 -0.72219164116E+01 -0.14309514795E+02 -0.72488851259E+02  0.74357408825E+02  0.41800000000E+01 0.  1.
        -11    1    1    2    0    0 -0.83470125600E+00  0.14115936676E+02  0.81969222886E+00  0.14164331604E+02  0.00000000000E+00 0.  1.
         11    1    1    2    0    0 -0.74193486435E+02 -0.20288850858E+02 -0.25075278807E+03  0.26228471481E+03  0.00000000000E+00 0. -1.
</event>
<event>
 7    1  0.2612213E-009  0.9181780E+02  0.7561462E-02  0.1298508E+00
          1   -1    0    0  501    0  0.00000000000E+00  0.00000000000E+00  0.29354981395E+02  0.29354981395E+02  0.00000000000E+00 0. -1.
         -1   -1    0    0    0  501 -0.00000000000E+00 -0.00000000000E+00 -0.52364071279E+03  0.52364071279E+03  0.00000000000E+00 0.  1.
         25    2    1    2    0    0 -0.57257337048E+02  0.26602837018E+01 -0.32060896440E+03  0.34888675766E+03  0.12508549821E+03 0.  0.
          5    1    3    3  502    0 -0.63794574474E+02  0.48089543300E+02 -0.12882813318E+03  0.15164600953E+03  0.41800000000E+01 0.  1.
         -5    1    3    3    0  502  0.65372374267E+01 -0.45429259598E+02 -0.19178083122E+03  0.19724074814E+03  0.41800000000E+01 0.  1.
        -11    1    1    2    0    0  0.41292128490E+02 -0.42256646806E+01 -0.18155332944E+03  0.18623777154E+03  0.00000000000E+00 0.  1.
         11    1    1    2    0    0  0.15965208557E+02  0.15653809788E+01  0.78765624456E+01  0.17871164983E+02  0.00000000000E+00 0. -1.
</event>
<event>
 7    1  0.2612213E-009  0.2606018E+03  0.7561462E-02  0.1106782E+00
          1   -1    0    0  501    0  0.00000000000E+00  0.00000000000E+00  0.33784987587E+02  0.33784987587E+02  0.00000000000E+00 0. -1.
         -1   -1    0    0    0  501 -0.00000000000E+00 -0.00000000000E+00 -0.20346220051E+04  0.20346220051E+04  0.00000000000E+00 0.  1.
         25    2    1    2    0    0  0.21236157130E+03 -0.10504773982E+03 -0.92732567623E+03  0.96525247078E+03  0.12508780096E+03 0.  0.
          5    1    3    3  502    0  0.17710118402E+03 -0.23907394304E+02 -0.64956933429E+03  0.67371669516E+03  0.41800000000E+01 0.  1.
         -5    1    3    3    0  502  0.35260387280E+02 -0.81140345514E+02 -0.27775634194E+03  0.29153577562E+03  0.41800000000E+01 0.  1.
        -11    1    1    2    0    0 -0.32996654261E+02  0.60735834490E+02 -0.27643286151E+03  0.28494341141E+03  0.00000000000E+00 0.  1.
         11    1    1    2    0    0 -0.17936491704E+03  0.44311905328E+02 -0.79707847977E+03  0.81821111049E+03  0.00000000000E+00 0. -1.
</event>
<event>
 7    1  0.2612213E-009  0.9674824E+02  0.7561462E-02  0.1287286E+00
          4   -1    0    0  501    0  0.00000000000E+00  0.00000000000E+00  0.29677480461E+02  0.29677480461E+02  0.00000000000E+00 0. -1.
         -4   -1    0    0    0  501 -0.00000000000E+00 -0.00000000000E+00 -0.52035292044E+03  0.52035292044E+03  0.00000000000E+00 0.  1.
         25    2    1    2    0    0 -0.93001126974E+01 -0.20999037429E+02 -0.39964912828E+03  0.41939689307E+03  0.12508747544E+03 0.  0.
          5    1    3    3  502    0 -0.40568731105E+02 -0.61116129471E+02 -0.27640588231E+03  0.28600469822E+03  0.41800000000E+01 0.  1.
         -5    1    3    3    0  502  0.31268618408E+02  0.40117092043E+02 -0.12324324596E+03  0.13339219485E+03  0.41800000000E+01 0.  1.
        -11    1    1    2    0    0  0.57979835700E+01  0.44676931539E+02 -0.96127093216E+02  0.10616055235E+03  0.00000000000E+00 0.  1.
         11    1    1    2    0    0  0.35021291274E+01 -0.23677894110E+02  0.51007815162E+01  0.24472955481E+02  0.00000000000E+00 0. -1.
</event>
<event>
 7    1  0.2612213E-009  0.1220774E+03  0.7561462E-02  0.1239709E+00
         -2   -1    0    0    0  501 -0.00000000000E+00  0.00000000000E+00  0.89738079087E+03  0.89738079087E+03  0.00000000000E+00 0.  1.
          2   -1    0    0  501    0  0.00000000000E+00 -0.00000000000E+00 -0.25205394828E+02  0.25205394828E+02  0.00000000000E+00 0. -1.
         25    2    1    2    0    0 -0.15141529008E+02  0.61016859187E+02  0.72536206258E+03  0.73874886493E+03  0.12508973024E+03 0.  0.
          5    1    3    3  502    0  0.24459753821E+02 -0.27144032863E+02  0.11413302805E+03  0.11991204514E+03  0.41800000000E+01 0.  1.
         -5    1    3    3    0  502 -0.39601282829E+02  0.88160892050E+02  0.61122903452E+03  0.61883681980E+03  0.41800000000E+01 0.  1.
        -11    1    1    2    0    0  0.46546736666E+02 -0.63952878254E+02  0.10434925808E+03  0.13094020388E+03  0.00000000000E+00 0. -1.
         11    1    1    2    0    0 -0.31405207658E+02  0.29360190679E+01  0.42464075388E+02  0.52897116884E+02  0.00000000000E+00 0.  1.
</event>
<event>
 7    1  0.2612213E-009  0.1138178E+03  0.7561462E-02  0.1253659E+00
          1   -1    0    0  501    0  0.00000000000E+00  0.00000000000E+00  0.55767385851E+02  0.55767385851E+02  0.00000000000E+00 0. -1.
         -1   -1    0    0    0  501 -0.00000000000E+00 -0.00000000000E+00 -0.29681621976E+03  0.29681621976E+03  0.00000000000E+00 0.  1.
         25    2    1    2    0    0  0.27438945120E+02 -0.55925746594E+02 -0.95005164723E+02  0.16897850475E+03  0.12508864418E+03 0.  0.
          5    1    3    3  502    0  0.34262277650E+02 -0.84750076839E+02 -0.28158606585E+02  0.95743713729E+02  0.41800000000E+01 0. -1.
         -5    1    3    3    0  502 -0.68233325301E+01  0.28824330245E+02 -0.66846558139E+02  0.73234791021E+02  0.41800000000E+01 0. -1.
        -11    1    1    2    0    0  0.22812870328E+02 -0.86409031560E+01 -0.60502916415E+02  0.65235689271E+02  0.00000000000E+00 0.  1.
         11    1    1    2    0    0 -0.50251815448E+02  0.64566649750E+02 -0.85540752776E+02  0.11836941159E+03  0.00000000000E+00 0. -1.
</event>
<event>
 7    1  0.2612213E-009  0.1897093E+03  0.7561462E-02  0.1158724E+00
         -2   -1    0    0    0  501 -0.00000000000E+00  0.00000000000E+00  0.11078206520E+03  0.11078206520E+03  0.00000000000E+00 0.  1.
          2   -1    0    0  501    0  0.00000000000E+00 -0.00000000000E+00 -0.49867868663E+03  0.49867868663E+03  0.00000000000E+00 0. -1.
         25    2    1    2    0    0 -0.33530211745E+02 -0.16590635582E+03 -0.35609904793E+03  0.41364665439E+03  0.12509128169E+03 0.  0.
          5    1    3    3  502    0 -0.67615779441E+02 -0.15324670876E+03 -0.32487420880E+03  0.36553682622E+03  0.41800000000E+01 0. -1.
         -5    1    3    3    0  502  0.34085567697E+02 -0.12659647052E+02 -0.31224839129E+02  0.48109828178E+02  0.41800000000E+01 0. -1.
        -11    1    1    2    0    0  0.40680659505E+02  0.87056014126E+02  0.23890228878E+02  0.99017214105E+02  0.00000000000E+00 0.  1.
         11    1    1    2    0    0 -0.71504477601E+01  0.78850341690E+02 -0.55687802383E+02  0.96796883328E+02  0.00000000000E+00 0. -1.
</event>
<event>
 7    1  0.4122817E-009  0.2181915E+03  0.7561462E-02  0.1135239E+00
         -1   -1    0    0    0  501 -0.00000000000E+00  0.00000000000E+00  0.75399487582E+02  0.75399487582E+02  0.00000000000E+00 0.  1.
          1   -1    0    0  501    0  0.00000000000E+00 -0.00000000000E+00 -0.65561335105E+03  0.65561335105E+03  0.00000000000E+00 0. -1.
         25    2    1    2    0    0  0.54658432841E+02 -0.18575846408E+03 -0.30209039793E+03  0.37999946829E+03  0.12508891288E+03 0.  0.
          5    1    3    3  502    0  0.92962657528E+02 -0.10171389364E+03 -0.17286717422E+03  0.22110699712E+03  0.41800000000E+01 0.  1.
         -5    1    3    3    0  502 -0.38304224687E+02 -0.84044570449E+02 -0.12922322370E+03  0.15889247117E+03  0.41800000000E+01 0.  1.
        -11    1    1    2    0    0  0.10708412462E+02  0.86867036297E+02 -0.72435325551E+02  0.11361086427E+03  0.00000000000E+00 0.  1.
         11    1    1    2    0    0 -0.65366845304E+02  0.98891427788E+02 -0.20568814000E+03  0.23740250607E+03  0.00000000000E+00 0. -1.
</event>
<event>
 7    1  0.2612213E-009  0.1504739E+03  0.7561462E-02  0.1199892E+00
          2   -1    0    0  501    0  0.00000000000E+00  0.00000000000E+00  0.23361767738E+03  0.23361767738E+03  0.00000000000E+00 0. -1.
         -2   -1    0    0    0  501 -0.00000000000E+00 -0.00000000000E+00 -0.11357959935E+03  0.11357959935E+03  0.00000000000E+00 0.  1.
         25    2    1    2    0    0  0.11511440789E+03  0.28914024068E+02  0.90824040192E+02  0.19489493530E+03  0.12509069444E+03 0.  0.
          5    1    3    3  502    0  0.13605965355E+03  0.20584092300E+02  0.10004642415E+03  0.17018429295E+03  0.41800000000E+01 0.  1.
         -5    1    3    3    0  502 -0.20945245667E+02  0.83299317678E+01 -0.92223839597E+01  0.24710642347E+02  0.41800000000E+01 0.  1.
        -11    1    1    2    0    0 -0.69969396536E+02  0.20997083234E+02  0.41312170840E+02  0.83924307655E+02  0.00000000000E+00 0.  1.
         11    1    1    2    0    0 -0.45145011350E+02 -0.49911107302E+02 -0.12098133007E+02  0.68378033784E+02  0.00000000000E+00 0. -1.
</event>
<event>
 7    1  0.2612213E-009  0.1220497E+03  0.7561462E-02  0.1239754E+00
          1   -1    0    0  501    0  0.00000000000E+00  0.00000000000E+00  0.39883875946E+03  0.39883875946E+03  0.00000000000E+00 0. -1.
         -1   -1    0    0    0  501 -0.00000000000E+00 -0.00000000000E+00 -0.57853317086E+02  0.57853317086E+02  0.00000000000E+00 0.  1.
         25    2    1    2    0    0 -0.95042826940E+02 -0.45612989638E+02  0.16090657657E+03  0.22946241782E+03  0.12509352914E+03 0.  0.
          5    1    3    3  502    0 -0.10903719884E+02 -0.13139212617E+02 -0.20394574031E+02  0.26924729626E+02  0.41800000000E+01 0.  1.
         -5    1    3    3    0  502 -0.84139107056E+02 -0.32473777020E+02  0.18130115060E+03  0.20253768820E+03  0.41800000000E+01 0.  1.
        -11    1    1    2    0    0  0.10610767313E+02  0.50557521301E+02  0.89235717651E+02  0.10310996386E+03  0.00000000000E+00 0.  1.
         11    1    1    2    0    0  0.84432059626E+02 -0.49445316638E+01  0.90843148151E+02  0.12411969486E+03  0.00000000000E+00 0. -1.
</event>
<event>
 7    1  0.2612213E-009  0.1225252E+03  0.7561462E-02  0.1238988E+00
          2   -1    0    0  501    0  0.00000000000E+00  0.00000000000E+00  0.33405654999E+02  0.33405654999E+02  0.00000000000E+00 0. -1.
         -2   -1    0    0    0  501 -0.00000000000E+00 -0.00000000000E+00 -0.60961517074E+03  0.60961517074E+03  0.00000000000E+00 0.  1.
         25    2    1    2    0    0 -0.48935862585E+02  0.57176688174E+02 -0.44057506763E+03  0.46413384321E+03  0.12509972771E+03 0.  0.
          5    1    3    3  502    0 -0.38838744739E+02 -0.25199853597E+02 -0.27472629844E+03  0.27863146299E+03  0.41800000000E+01 0. -1.
         -5    1    3    3    0  502 -0.10097117847E+02  0.82376541771E+02 -0.16584876919E+03  0.18550238022E+03  0.41800000000E+01 0. -1.
        -11    1    1    2    0    0  0.11789195518E+02 -0.73824306923E+02 -0.75335610647E+02  0.10613419645E+03  0.00000000000E+00 0.  1.
         11    1    1    2    0    0  0.37146667067E+02  0.16647618748E+02 -0.60298837462E+02  0.72752786087E+02  0.00000000000E+00 0. -1.
</event>
<event>
 7    1  0.2612213E-009  0.1063159E+03  0.7561462E-02  0.1267549E+00
         -2   -1    0    0    0  501 -0.00000000000E+00  0.00000000000E+00  0.53171126154E+02  0.53171126154E+02  0.00000000000E+00 0.  1.
          2   -1    0    0  501    0  0.00000000000E+00 -0.00000000000E+00 -0.29920985625E+03  0.29920985625E+03  0.00000000000E+00 0. -1.
         25    2    1    2    0    0  0.10524976044E+01  0.58215172705E+02 -0.17653214713E+03  0.22405577717E+03  0.12508908116E+03 0.  0.
          5    1    3    3  502    0 -0.46734376295E+02  0.25680498924E+02 -0.15196282003E+03  0.16110171019E+03  0.41800000000E+01 0. -1.
         -5    1    3    3    0  502  0.47786873899E+02  0.32534673781E+02 -0.24569327101E+02  0.62954066980E+02  0.41800000000E+01 0. -1.
        -11    1    1    2    0    0  0.40717901338E+02 -0.32806433704E+02 -0.58013566640E+02  0.78101110722E+02  0.00000000000E+00 0. -1.
         11    1    1    2    0    0 -0.41770398942E+02 -0.25408739001E+02 -0.11493016318E+02  0.50224094512E+02  0.00000000000E+00 0.  1.
</event>
<event>
 7    1  0.2612213E-009  0.1799875E+03  0.7561462E-02  0.1167815E+00
          1   -1    0    0  501    0  0.00000000000E+00  0.00000000000E+00  0.42273407311E+03  0.42273407311E+03  0.00000000000E+00 0. -1.
         -1   -1    0    0    0  501 -0.00000000000E+00 -0.00000000000E+00 -0.10048247595E+03  0.10048247595E+03  0.00000000000E+00 0.  1.
         25    2    1    2    0    0 -0.12515619208E+03 -0.11193226811E+03  0.22735828339E+03  0.30908190409E+03  0.12508768663E+03 0.  0.
          5    1    3    3  502    0 -0.83612325518E+02 -0.57434254007E+02  0.39268361091E+02  0.10885398980E+03  0.41800000000E+01 0.  1.
         -5    1    3    3    0  502 -0.41543866566E+02 -0.54498014107E+02  0.18808992230E+03  0.20022791429E+03  0.41800000000E+01 0.  1.
        -11    1    1    2    0    0  0.55147464408E+02  0.10606163431E+03  0.74986002498E+02  0.14111418665E+03  0.00000000000E+00 0.  1.
         11    1    1    2    0    0  0.70008727676E+02  0.58706338087E+01  0.19907311269E+02  0.73020458325E+02  0.00000000000E+00 0. -1.
</event>
<event>
 7    1  0.2612213E-009  0.5899867E+02  0.7561462E-02  0.1402083E+00
          2   -1    0    0  501    0  0.00000000000E+00  0.00000000000E+00  0.67407928979E+02  0.67407928979E+02  0.00000000000E+00 0. -1.
         -2   -1    0    0    0  501 -0.00000000000E+00 -0.00000000000E+00 -0.24819539101E+03  0.24819539101E+03  0.00000000000E+00 0.  1.
         25    2    1    2    0    0  0.48213125397E+02  0.19617815567E+02 -0.42510912481E+02  0.14199821504E+03  0.12508777417E+03 0.  0.
          5    1    3    3  502    0  0.11180627246E+02  0.10586725992E+02 -0.84000318425E+02  0.85502111601E+02  0.41800000000E+01 0.  1.
         -5    1    3    3    0  502  0.37032498151E+02  0.90310895756E+01  0.41489405944E+02  0.56496103439E+02  0.41800000000E+01 0.  1.
        -11    1    1    2    0    0 -0.11298598178E+02 -0.23995982742E+02 -0.13351994418E+03  0.13612876625E+03  0.00000000000E+00 0.  1.
         11    1    1    2    0    0 -0.36914527219E+02  0.43781671751E+01 -0.47566053758E+01  0.37476338699E+02  0.00000000000E+00 0. -1.
</event>
<event>
 7    1  0.2612213E-009  0.1103909E+03  0.7561462E-02  0.1259848E+00
         -2   -1    0    0    0  501 -0.00000000000E+00  0.00000000000E+00  0.19422109255E+03  0.19422109255E+03  0.00000000000E+00 0.  1.
          2   -1    0    0  501    0  0.00000000000E+00 -0.00000000000E+00 -0.73763982463E+02  0.73763982463E+02  0.00000000000E+00 0. -1.
         25    2    1    2    0    0  0.51937352689E+02 -0.55136975643E+01  0.63143826618E+02  0.14954036416E+03  0.12508912106E+03 0.  0.
          5    1    3    3  502    0  0.90218138920E+02  0.13599981533E+02  0.52121433079E+02  0.10515887159E+03  0.41800000000E+01 0. -1.
         -5    1    3    3    0  502 -0.38280786231E+02 -0.19113679097E+02  0.11022393539E+02  0.44381492567E+02  0.41800000000E+01 0. -1.
        -11    1    1    2    0    0 -0.94109727600E+01 -0.29755964401E+02 -0.86647734444E+01  0.32389228527E+02  0.00000000000E+00 0. -1.
         11    1    1    2    0    0 -0.42526379929E+02  0.35269661965E+02  0.65978056918E+02  0.86055482334E+02  0.00000000000E+00 0.  1.
</event>
<event>
 7    1  0.2612213E-009  0.1520404E+03  0.7561462E-02  0.1197988E+00
         -2   -1    0    0    0  501 -0.00000000000E+00  0.00000000000E+00  0.15357040962E+03  0.15357040962E+03  0.00000000000E+00 0.  1.
          2   -1    0    0  501    0  0.00000000000E+00 -0.00000000000E+00 -0.21128734852E+03  0.21128734852E+03  0.00000000000E+00 0. -1.
         25    2    1    2    0    0  0.87321899172E+02  0.11126926942E+03 -0.44125420872E+01  0.18887382957E+03  0.12509152080E+03 0.  0.
          5    1    3    3  502    0  0.32549997949E+02  0.52027522439E+02  0.59712007006E+02  0.85728417916E+02  0.41800000000E+01 0.  1.
         -5    1    3    3    0  502  0.54771901222E+02  0.59241746980E+02 -0.64124549093E+02  0.10314541165E+03  0.41800000000E+01 0.  1.
        -11    1    1    2    0    0 -0.47645076217E+02 -0.11240393400E+03 -0.19066370987E+02  0.12356465582E+03  0.00000000000E+00 0. -1.
         11    1    1    2    0    0 -0.39676822955E+02  0.11346645805E+01 -0.34238025825E+02  0.52419272753E+02  0.00000000000E+00 0.  1.
</event>
<event>
 7    1  0.2612213E-009  0.1784555E+03  0.7561462E-02  0.1169306E+00
         -2   -1    0    0    0  501 -0.00000000000E+00  0.00000000000E+00  0.50454364863E+02  0.50454364863E+02  0.00000000000E+00 0.  1.
          2   -1    0    0  501    0  0.00000000000E+00 -0.00000000000E+00 -0.66562015896E+03  0.66562015896E+03  0.00000000000E+00 0. -1.
         25    2    1    2    0    0  0.41497398543E+02 -0.14036038012E+03 -0.30012828104E+03  0.35657267600E+03  0.12507604805E+03 0.  0.
          5    1    3    3  502    0  0.28567912964E+01  0.23003718110E+02 -0.25847993762E+02  0.34970322917E+02  0.41800000000E+01 0.  1.
         -5    1    3    3    0  502  0.38640607247E+02 -0.16336409823E+03 -0.27428028728E+03  0.32160235308E+03  0.41800000000E+01 0.  1.
        -11    1    1    2    0    0 -0.20929917647E+02  0.14315461844E+03 -0.30233180515E+03  0.33516537208E+03  0.00000000000E+00 0. -1.
         11    1    1    2    0    0 -0.20567480896E+02 -0.27942383199E+01 -0.12705707899E+02  0.24336475740E+02  0.00000000000E+00 0.  1.
</event>
<event>
 7    1  0.2612213E-009  0.9225034E+02  0.7561462E-02  0.1297492E+00
          2   -1    0    0  501    0  0.00000000000E+00  0.00000000000E+00  0.27703018171E+03  0.27703018171E+03  0.00000000000E+00 0.  1.
         -2   -1    0    0    0  501 -0.00000000000E+00 -0.00000000000E+00 -0.61361168013E+02  0.61361168013E+02  0.00000000000E+00 0. -1.
         25    2    1    2    0    0 -0.16716590551E+02 -0.42619894153E+02  0.19250912905E+03  0.23410048342E+03  0.12508945516E+03 0.  0.
          5    1    3    3  502    0 -0.49545692654E+02 -0.34498277726E+02  0.29052969211E+02  0.67130129201E+02  0.41800000000E+01 0.  1.
         -5    1    3    3    0  502  0.32829102102E+02 -0.81216164267E+01  0.16345615984E+03  0.16697035422E+03  0.41800000000E+01 0.  1.
        -11    1    1    2    0    0 -0.11559718420E+02  0.57016590144E+02 -0.92808922197E+01  0.58912253411E+02  0.00000000000E+00 0. -1.
         11    1    1    2    0    0  0.28276308971E+02 -0.14396695991E+02  0.32440776872E+02  0.45378612898E+02  0.00000000000E+00 0.  1.
</event>
<event>
 7    1  0.2612213E-009  0.1022464E+03  0.7561462E-02  0.1275642E+00
         -1   -1    0    0    0  501 -0.00000000000E+00  0.00000000000E+00  0.37562285316E+02  0.37562285316E+02  0.00000000000E+00 0. -1.
          1   -1    0    0  501    0  0.00000000000E+00 -0.00000000000E+00 -0.46614631540E+03  0.46614631540E+03  0.00000000000E+00 0.  1.
         25    2    1    2    0    0  0.37096360106E+02 -0.25555159703E+02 -0.11906735619E+03  0.17847916364E+03  0.12509424617E+03 0.  0.
          5    1    3    3  502    0 -0.32880137573E+02 -0.79438961020E+01 -0.97141254633E+02  0.10294709653E+03  0.41800000000E+01 0. -1.
         -5    1    3    3    0  502  0.69976497680E+02 -0.17611263601E+02 -0.21926101556E+02  0.75532067114E+02  0.41800000000E+01 0. -1.
        -11    1    1    2    0    0 -0.65711024242E+02  0.13522262667E+02 -0.18147219313E+03  0.19347596020E+03  0.00000000000E+00 0. -1.
         11    1    1    2    0    0  0.28614664136E+02  0.12032897036E+02 -0.12804448076E+03  0.13175347687E+03  0.00000000000E+00 0.  1.
</event>
<event>
 7    1  0.2612213E-009  0.1925160E+03  0.7561462E-02  0.1156211E+00
          1   -1    0    0  501    0  0.00000000000E+00  0.00000000000E+00  0.30743420209E+03  0.30743420209E+03  0.00000000000E+00 0. -1.
         -1   -1    0    0    0  501 -0.00000000000E+00 -0.00000000000E+00 -0.14022404171E+03  0.14022404171E+03  0.00000000000E+00 0.  1.
         25    2    1    2    0    0 -0.14368559329E+03 -0.98745903875E+02  0.58133521474E+02  0.22230004301E+03  0.12506598081E+03 0.  0.
          5    1    3    3  502    0  0.88767790389E+01  0.10994332377E+02  0.28386023228E+02  0.31982983995E+02  0.41800000000E+01 0. -1.
         -5    1    3    3    0  502 -0.15256237232E+03 -0.10974023625E+03  0.29747498246E+02  0.19031705902E+03  0.41800000000E+01 0. -1.
        -11    1    1    2    0    0  0.97838396052E+02  0.35238232102E+02  0.10367916619E+03  0.14684500075E+03  0.00000000000E+00 0.  1.
         11    1    1    2    0    0  0.45847197233E+02  0.63507671773E+02  0.53974727219E+01  0.78513200036E+02  0.00000000000E+00 0. -1.
</event>
<event>
 7    1  0.3339226E-009  0.1557270E+03  0.7561462E-02  0.1193607E+00
          2   -1    0    0  501    0  0.00000000000E+00  0.00000000000E+00  0.49006937231E+03  0.49006937231E+03  0.00000000000E+00 0.  1.
         -2   -1    0    0    0  501 -0.00000000000E+00 -0.00000000000E+00 -0.62537566483E+02  0.62537566483E+02  0.00000000000E+00 0. -1.
         25    2    1    2    0    0 -0.70169265103E+02  0.11446818685E+03  0.18467675809E+03  0.26034596438E+03  0.12509126518E+03 0.  0.
          5    1    3    3  502    0  0.66591552166E+01  0.96931913646E+02  0.64928024094E+02  0.11693271973E+03  0.41800000000E+01 0.  1.
         -5    1    3    3    0  502 -0.76828420320E+02  0.17536273202E+02  0.11974873400E+03  0.14341324465E+03  0.41800000000E+01 0.  1.
        -11    1    1    2    0    0  0.34033202047E+02 -0.40023694333E+02  0.23005635977E+02  0.57353415210E+02  0.00000000000E+00 0. -1.
         11    1    1    2    0    0  0.36136063057E+02 -0.74444492515E+02  0.21984941176E+03  0.23490755920E+03  0.00000000000E+00 0.  1.
</event>
<event>
 7    1  0.2612213E-009  0.1049848E+03  0.7561462E-02  0.1270149E+00
          2   -1    0    0  501    0  0.00000000000E+00  0.00000000000E+00  0.88577082284E+02  0.88577082284E+02  0.00000000000E+00 0. -1.
         -2   -1    0    0    0  501 -0.00000000000E+00 -0.00000000000E+00 -0.19530167959E+03  0.19530167959E+03  0.00000000000E+00 0.  1.
         25    2    1    2    0    0  0.39176950595E+02 -0.55469713771E+02 -0.93265440189E+02  0.17016917959E+03  0.12508950693E+03 0.  0.
          5    1    3    3  502    0  0.44674985224E+02  0.31404271918E+02 -0.29708655911E+02  0.62306975818E+02  0.41800000000E+01 0.  1.
         -5    1    3    3    0  502 -0.54980346299E+01 -0.86873985688E+02 -0.63556784277E+02  0.10786220377E+03  0.41800000000E+01 0.  1.
        -11    1    1    2    0    0 -0.27881421929E+02  0.35867769208E+02 -0.51981135175E+02  0.69035563088E+02  0.00000000000E+00 0. -1.
         11    1    1    2    0    0 -0.11295528665E+02  0.19601944562E+02  0.38521978055E+02  0.44674019203E+02  0.00000000000E+00 0.  1.
</event>
<event>
 7    1  0.2612213E-009  0.1496268E+03  0.7561462E-02  0.1200932E+00
          2   -1    0    0  501    0  0.00000000000E+00  0.00000000000E+00  0.10994986581E+04  0.10994986581E+04  0.00000000000E+00 0. -1.
         -2   -1    0    0    0  501 -0.00000000000E+00 -0.00000000000E+00 -0.32111298705E+02  0.32111298705E+02  0.00000000000E+00 0.  1.
         25    2    1    2    0    0  0.12505621630E+03 -0.25870359332E+02  0.81525514923E+03  0.83462168837E+03  0.12507626322E+03 0.  0.
          5    1    3    3  502    0  0.28587358275E+02 -0.49063263298E+02  0.12623080172E+03  0.13847789918E+03  0.41800000000E+01 0. -1.
         -5    1    3    3    0  502  0.96468858023E+02  0.23192903966E+02  0.68902434751E+03  0.69614378919E+03  0.41800000000E+01 0. -1.
        -11    1    1    2    0    0 -0.46839499245E+02  0.42269987667E+02  0.52935708726E+02  0.82358240664E+02  0.00000000000E+00 0.  1.
         11    1    1    2    0    0 -0.78216717053E+02 -0.16399628336E+02  0.19919650143E+03  0.21463002776E+03  0.00000000000E+00 0. -1.
</event>
<event>
 7    1  0.2612213E-009  0.9472444E+02  0.7561462E-02  0.1291798E+00
         -1   -1    0    0    0  501 -0.00000000000E+00  0.00000000000E+00  0.27201725752E+02  0.27201725752E+02  0.00000000000E+00 0.  1.
          1   -1    0    0  501    0  0.00000000000E+00 -0.00000000000E+00 -0.53628403194E+03  0.53628403194E+03  0.00000000000E+00 0. -1.
         25    2    1    2    0    0  0.10671768569E+02  0.20991794874E+02 -0.40055304546E+03  0.42029280581E+03  0.12509499708E+03 0.  0.
          5    1    3    3  502    0  0.57156777082E+02  0.19604018347E+02 -0.33115499473E+03  0.33664865608E+03  0.41800000000E+01 0.  1.
         -5    1    3    3    0  502 -0.46485008513E+02  0.13877765264E+01 -0.69398050723E+02  0.83644149731E+02  0.41800000000E+01 0.  1.
        -11    1    1    2    0    0 -0.34348052397E+02 -0.39345546084E+02 -0.98695444844E+02  0.11166311626E+03  0.00000000000E+00 0. -1.
         11    1    1    2    0    0  0.23676283828E+02  0.18353751210E+02 -0.98338158852E+01  0.31529835621E+02  0.00000000000E+00 0.  1.
</event>
<event>
 7    1  0.2612213E-009  0.3384399E+03  0.7561462E-02  0.1067462E+00
          2   -1    0    0  501    0  0.00000000000E+00  0.00000000000E+00  0.15112427743E+04  0.15112427743E+04  0.00000000000E+00 0.  1.
         -2   -1    0    0    0  501 -0.00000000000E+00 -0.00000000000E+00 -0.15342302087E+03  0.15342302087E+03  0.00000000000E+00 0. -1.
         25    2    1    2    0    0 -0.13290628186E+03  0.30362270609E+03  0.11057549092E+03  0.37111330071E+03  0.12508922957E+03 0.  0.
          5    1    3    3  502    0 -0.92939397142E+02  0.95126810892E+02  0.83433556951E+02  0.15705245148E+03  0.41800000000E+01 0.  1.
         -5    1    3    3    0  502 -0.39966884716E+02  0.20849589520E+03  0.27141933971E+02  0.21406084922E+03  0.41800000000E+01 0.  1.
        -11    1    1    2    0    0  0.65402012687E+02 -0.14213641080E+03  0.75701765426E+03  0.77301740692E+03  0.00000000000E+00 0.  1.
         11    1    1    2    0    0  0.67504269172E+02 -0.16148629529E+03  0.49022660820E+03  0.52053508750E+03  0.00000000000E+00 0. -1.
</event>
<event>
 7    1  0.2612213E-009  0.1789938E+03  0.7561462E-02  0.1168780E+00
         -2   -1    0    0    0  501 -0.00000000000E+00  0.00000000000E+00  0.95984351471E+03  0.95984351471E+03  0.00000000000E+00 0. -1.
          2   -1    0    0  501    0  0.00000000000E+00 -0.00000000000E+00 -0.42982775423E+02  0.42982775423E+02  0.00000000000E+00 0.  1.
         25    2    1    2    0    0  0.11642062666E+03 -0.12362742876E+03  0.57393704853E+03  0.61146472506E+03  0.12509145000E+03 0.  0.
          5    1    3    3  502    0 -0.56082223058E+01 -0.25993236323E+02  0.14460844451E+02  0.30556323637E+02  0.41800000000E+01 0.  1.
         -5    1    3    3    0  502  0.12202884897E+03 -0.97634192437E+02  0.55947620408E+03  0.58090840143E+03  0.41800000000E+01 0.  1.
        -11    1    1    2    0    0 -0.87485344964E+02  0.63804956917E+02  0.27848919202E+03  0.29879924395E+03  0.00000000000E+00 0. -1.
         11    1    1    2    0    0 -0.28935281699E+02  0.59822471843E+02  0.64434498728E+02  0.92562321118E+02  0.00000000000E+00 0.  1.
</event>
<event>
 7    1  0.2612213E-009  0.1009268E+03  0.7561462E-02  0.1278359E+00
         -1   -1    0    0    0  501 -0.00000000000E+00  0.00000000000E+00  0.26467577882E+02  0.26467577882E+02  0.00000000000E+00 0.  1.
          1   -1    0    0  501    0  0.00000000000E+00 -0.00000000000E+00 -0.72711096553E+03  0.72711096553E+03  0.00000000000E+00 0. -1.
         25    2    1    2    0    0 -0.44038015334E+02 -0.34083626749E+01 -0.58556854849E+03  0.60040660550E+03  0.12508638299E+03 0.  0.
          5    1    3    3  502    0 -0.15090742465E+02  0.53755041138E+02 -0.40309754345E+03  0.40696736588E+03  0.41800000000E+01 0. -1.
         -5    1    3    3    0  502 -0.28947272870E+02 -0.57163403813E+02 -0.18247100505E+03  0.19343923962E+03  0.41800000000E+01 0. -1.
        -11    1    1    2    0    0 -0.14548891735E+02 -0.14348828029E+02 -0.80102824597E+02  0.82668141535E+02  0.00000000000E+00 0. -1.
         11    1    1    2    0    0  0.58586907070E+02  0.17757190704E+02 -0.34972014557E+02  0.70503796379E+02  0.00000000000E+00 0.  1.
</event>
<event>
 7    1  0.2612213E-009  0.1059456E+03  0.7561462E-02  0.1268268E+00
          3   -1    0    0  501    0  0.00000000000E+00  0.00000000000E+00  0.20629657480E+02  0.20629657480E+02  0.00000000000E+00 0. -1.
         -3   -1    0    0    0  501 -0.00000000000E+00 -0.00000000000E+00 -0.10502493904E+04  0.10502493904E+04  0.00000000000E+00 0.  1.
         25    2    1    2    0    0  0.24943194025E+02  0.11888745274E+02 -0.90639962063E+03  0.91540781849E+03  0.12509075383E+03 0.  0.
          5    1    3    3  502    0  0.75269809932E+02 -0.16584221143E+00 -0.48544507123E+03  0.49126363734E+03  0.41800000000E+01 0. -1.
         -5    1    3    3    0  502 -0.50326615907E+02  0.12054587486E+02 -0.42095454940E+03  0.42414418116E+03  0.41800000000E+01 0. -1.
        -11    1    1    2    0    0  0.28365624248E+02 -0.13143829386E+02 -0.82962478170E+02  0.88657440038E+02  0.00000000000E+00 0.  1.
         11    1    1    2    0    0 -0.53308818273E+02  0.12550841115E+01 -0.40257634120E+02  0.66813789346E+02  0.00000000000E+00 0. -1.
</event>
<event>
 7    1  0.2612213E-009  0.3065512E+03  0.7561462E-02  0.1082011E+00
         -1   -1    0    0    0  501 -0.00000000000E+00  0.00000000000E+00  0.81942982165E+02  0.81942982165E+02  0.00000000000E+00 0.  1.
          1   -1    0    0  501    0  0.00000000000E+00 -0.00000000000E+00 -0.12900681760E+04  0.12900681760E+04  0.00000000000E+00 0. -1.
         25    2    1    2    0    0 -0.11587591583E+02 -0.30021841198E+03 -0.49453152103E+03  0.59200850683E+03  0.12508908706E+03 0.  0.
          5    1    3    3  502    0 -0.27976207430E+02 -0.14712084030E+03 -0.13824992244E+03  0.20385711488E+03  0.41800000000E+01 0. -1.
         -5    1    3    3    0  502  0.16388615847E+02 -0.15309757168E+03 -0.35628159859E+03  0.38815139195E+03  0.41800000000E+01 0. -1.
        -11    1    1    2    0    0 -0.18411858129E+02  0.25060098650E+03 -0.63006073872E+03  0.67831879336E+03  0.00000000000E+00 0. -1.
         11    1    1    2    0    0  0.29999449711E+02  0.49617425476E+02 -0.83532934081E+02  0.10168385796E+03  0.00000000000E+00 0.  1.
</event>
<event>
 7    1  0.2612213E-009  0.1987312E+03  0.7561462E-02  0.1150814E+00
         -2   -1    0    0    0  501 -0.00000000000E+00  0.00000000000E+00  0.53411041912E+02  0.53411041912E+02  0.00000000000E+00 0.  1.
          2   -1    0    0  501    0  0.00000000000E+00 -0.00000000000E+00 -0.10540930922E+04  0.10540930922E+04  0.00000000000E+00 0. -1.
         25    2    1    2    0    0  0.18920135892E+03  0.34179807513E+02 -0.71361376937E+03  0.74957208686E+03  0.12509311779E+03 0.  0.
          5    1    3    3  502    0  0.10481047860E+03  0.41010027623E+02 -0.20462075745E+03  0.23356837450E+03  0.41800000000E+01 0. -1.
         -5    1    3    3    0  502  0.84390880320E+02 -0.68302201092E+01 -0.50899301192E+03  0.51600371236E+03  0.41800000000E+01 0. -1.
        -11    1    1    2    0    0 -0.16483916134E+03 -0.48476567860E+02 -0.28048415788E+03  0.32892748375E+03  0.00000000000E+00 0. -1.
         11    1    1    2    0    0 -0.24362197577E+02  0.14296760347E+02 -0.65841230293E+01  0.29004563490E+02  0.00000000000E+00 0.  1.
</event>
<event>
 7    1  0.2612213E-009  0.1152722E+03  0.7561462E-02  0.1251107E+00
         -2   -1    0    0    0  501 -0.00000000000E+00  0.00000000000E+00  0.59793766750E+02  0.59793766750E+02  0.00000000000E+00 0.  1.
          2   -1    0    0  501    0  0.00000000000E+00 -0.00000000000E+00 -0.27209313539E+03  0.27209313539E+03  0.00000000000E+00 0. -1.
         25    2    1    2    0    0  0.32243847926E+02  0.49755815413E+02 -0.73109686482E+02  0.15654232508E+03  0.12508063953E+03 0.  0.
          5    1    3    3  502    0 -0.33176288403E+02  0.62287882384E+02 -0.28276158864E+02  0.76141053080E+02  0.41800000000E+01 0.  1.
         -5    1    3    3    0  502  0.65420136329E+02 -0.12532066971E+02 -0.44833527618E+02  0.80401271996E+02  0.41800000000E+01 0.  1.
        -11    1    1    2    0    0  0.12695425542E+02 -0.46330197684E+02 -0.11401219582E+03  0.12371920563E+03  0.00000000000E+00 0. -1.
         11    1    1    2    0    0 -0.44939273468E+02 -0.34256177284E+01 -0.25177486334E+02  0.51625371425E+02  0.00000000000E+00 0.  1.
</event>
<event>
 7    1  0.2612213E-009  0.1205089E+03  0.7561462E-02  0.1242260E+00
         -2   -1    0    0    0  501 -0.00000000000E+00  0.00000000000E+00  0.78997321962E+02  0.78997321962E+02  0.00000000000E+00 0.  1.
          2   -1    0    0  501    0  0.00000000000E+00 -0.00000000000E+00 -0.21091961681E+03  0.21091961681E+03  0.00000000000E+00 0. -1.
         25    2    1    2    0    0  0.57120453189E+02  0.37597310967E+02 -0.56089665429E+02  0.15318920008E+03  0.12507828144E+03 0.  0.
          5    1    3    3  502    0 -0.25259100576E+02  0.49588079253E+02 -0.64597429534E+01  0.56180071600E+02  0.41800000000E+01 0. -1.
         -5    1    3    3    0  502  0.82379553765E+02 -0.11990768287E+02 -0.49629922475E+02  0.97009128475E+02  0.41800000000E+01 0. -1.
        -11    1    1    2    0    0 -0.66116577554E+02 -0.52516882665E+02 -0.82522821427E+02  0.11806540920E+03  0.00000000000E+00 0. -1.
         11    1    1    2    0    0  0.89961243648E+01  0.14919571698E+02  0.66901920085E+01  0.18662329500E+02  0.00000000000E+00 0.  1.
</event>
<event>
 7    1  0.2612213E-009  0.1177109E+03  0.7561462E-02  0.1246922E+00
          2   -1    0    0  501    0  0.00000000000E+00  0.00000000000E+00  0.39361941777E+03  0.39361941777E+03  0.00000000000E+00 0. -1.
         -2   -1    0    0    0  501 -0.00000000000E+00 -0.00000000000E+00 -0.55218545703E+02  0.55218545703E+02  0.00000000000E+00 0.  1.
         25    2    1    2    0    0  0.71843778441E+01 -0.66699262009E+02  0.29608057871E+03  0.32833067725E+03  0.12504766169E+03 0.  0.
          5    1    3    3  502    0  0.17253727145E+02 -0.97608579457E+02  0.15921510839E+03  0.18759543977E+03  0.41800000000E+01 0.  1.
         -5    1    3    3    0  502 -0.10069349301E+02  0.30909317448E+02  0.13686547032E+03  0.14073523748E+03  0.41800000000E+01 0.  1.
        -11    1    1    2    0    0  0.35936859206E+02  0.30484893440E+02 -0.44110250886E+01  0.47331212957E+02  0.00000000000E+00 0.  1.
         11    1    1    2    0    0 -0.43121237050E+02  0.36214368569E+02  0.46731318443E+02  0.73176073268E+02  0.00000000000E+00 0. -1.
</event>
<event>
 7    1  0.2612213E-009  0.8969178E+02  0.7561462E-02  0.1303600E+00
         -2   -1    0    0    0  501 -0.00000000000E+00  0.00000000000E+00  0.24141227137E+02  0.24141227137E+02  0.00000000000E+00 0.  1.
          2   -1    0    0  501    0  0.00000000000E+00 -0.00000000000E+00 -0.54506464199E+03  0.54506464199E+03  0.00000000000E+00 0. -1.
         25    2    1    2    0    0 -0.15020026615E+02  0.27456084525E+02 -0.31486495752E+03  0.34024033364E+03  0.12507639820E+03 0.  0.
          5    1    3    3  502    0  0.46004437292E+01 -0.31365796397E+02 -0.17502012682E+02  0.36452299159E+02  0.41800000000E+01 0. -1.
         -5    1    3    3    0  502 -0.19620470344E+02  0.58821880922E+02 -0.29736294484E+03  0.30378803448E+03  0.41800000000E+01 0. -1.
        -11    1    1    2    0    0  0.47442919847E+02 -0.10187633780E+02 -0.54291625137E+02  0.72816200709E+02  0.00000000000E+00 0.  1.
         11    1    1    2    0    0 -0.32422893232E+02 -0.17268450745E+02 -0.15176683220E+03  0.15614933478E+03  0.00000000000E+00 0. -1.
</event>
<event>
 7    1  0.2612213E-009  0.7607372E+02  0.7561462E-02  0.1340578E+00
          1   -1    0    0  501    0  0.00000000000E+00  0.00000000000E+00  0.16225445752E+03  0.16225445752E+03  0.00000000000E+00 0. -1.
         -1   -1    0    0    0  501 -0.00000000000E+00 -0.00000000000E+00 -0.90985545554E+02  0.90985545554E+02  0.00000000000E+00 0.  1.
         25    2    1    2    0    0  0.47242214279E+02  0.16149529712E+02  0.22093767682E+02  0.13648556542E+03  0.12509013102E+03 0.  0.
          5    1    3    3  502    0 -0.13388531212E+02  0.15017741829E+02 -0.42856571801E+02  0.47528344009E+02  0.41800000000E+01 0.  1.
         -5    1    3    3    0  502  0.60630745492E+02  0.11317878829E+01  0.64950339483E+02  0.88957221414E+02  0.41800000000E+01 0.  1.
        -11    1    1    2    0    0 -0.56955211272E+02 -0.68489242710E+01  0.70902015382E+02  0.91202519921E+02  0.00000000000E+00 0. -1.
         11    1    1    2    0    0  0.97129969927E+01 -0.93006054414E+01 -0.21726871097E+02  0.25551917732E+02  0.00000000000E+00 0.  1.
</event>
<event>
 7    1  0.2612213E-009  0.1678679E+03  0.7561462E-02  0.1180090E+00
          1   -1    0    0  501    0  0.00000000000E+00  0.00000000000E+00  0.21519461222E+03  0.21519461222E+03  0.00000000000E+00 0. -1.
         -1   -1    0    0    0  501 -0.00000000000E+00 -0.00000000000E+00 -0.26626588841E+03  0.26626588841E+03  0.00000000000E+00 0.  1.
         25    2    1    2    0    0  0.10192328923E+03 -0.87151915040E+02 -0.19275886405E+03  0.26605822917E+03  0.12508872235E+03 0.  0.
          5    1    3    3  502    0  0.56638980050E+01 -0.85163224522E+02 -0.10799300180E+03  0.13771280039E+03  0.41800000000E+01 0. -1.
         -5    1    3    3    0  502  0.96259391222E+02 -0.19886905181E+01 -0.84765862247E+02  0.12834542879E+03  0.41800000000E+01 0. -1.
        -11    1    1    2    0    0 -0.15574758305E+02  0.62069492741E+02  0.93737044790E+02  0.11349814356E+03  0.00000000000E+00 0. -1.
         11    1    1    2    0    0 -0.86348530922E+02  0.25082422299E+02  0.47950543075E+02  0.10190412789E+03  0.00000000000E+00 0.  1.
</event>
<event>
 7    1  0.2612213E-009  0.1974049E+03  0.7561462E-02  0.1151947E+00
          1   -1    0    0  501    0  0.00000000000E+00  0.00000000000E+00  0.10900704864E+04  0.10900704864E+04  0.00000000000E+00 0. -1.
         -1   -1    0    0    0  501 -0.00000000000E+00 -0.00000000000E+00 -0.65627318289E+02  0.65627318289E+02  0.00000000000E+00 0.  1.
         25    2    1    2    0    0 -0.17017405129E+03  0.20369359135E+02  0.90080901061E+03  0.92546207426E+03  0.12509619814E+03 0.  0.
          5    1    3    3  502    0 -0.16430668888E+03 -0.17176135720E+02  0.81403567737E+03  0.83064027358E+03  0.41800000000E+01 0. -1.
         -5    1    3    3    0  502 -0.58673624078E+01  0.37545494855E+02  0.86773333233E+02  0.94821800689E+02  0.41800000000E+01 0. -1.
        -11    1    1    2    0    0  0.14748957434E+03  0.16110457344E+02  0.78219952035E+02  0.16772323116E+03  0.00000000000E+00 0. -1.
         11    1    1    2    0    0  0.22684476956E+02 -0.36479816479E+02  0.45414205447E+02  0.62512499242E+02  0.00000000000E+00 0.  1.
</event>
<event>
 7    1  0.2612213E-009  0.1021520E+03  0.7561462E-02  0.1275835E+00
         -1   -1    0    0    0  501 -0.00000000000E+00  0.00000000000E+00  0.10294255858E+03  0.10294255858E+03  0.00000000000E+00 0.  1.
          1   -1    0    0  501    0  0.00000000000E+00 -0.00000000000E+00 -0.13550690644E+03  0.13550690644E+03  0.00000000000E+00 0. -1.
         25    2    1    2    0    0  0.40553837555E+02 -0.12939832815E+02 -0.41287452448E+02  0.13844466352E+03  0.12510083179E+03 0.  0.
          5    1    3    3  502    0  0.64170779725E+02  0.33310750540E+02 -0.46531157595E+02  0.86082031221E+02  0.41800000000E+01 0.  1.
         -5    1    3    3    0  502 -0.23616942170E+02 -0.46250583354E+02  0.52437051470E+01  0.52362632304E+02  0.41800000000E+01 0.  1.
        -11    1    1    2    0    0  0.37973181767E+01 -0.22619565439E+02  0.31330017314E+02  0.38828267421E+02  0.00000000000E+00 0. -1.
         11    1    1    2    0    0 -0.44351155732E+02  0.35559398254E+02 -0.22606912729E+02  0.61176534080E+02  0.00000000000E+00 0.  1.
</event>
<event>
 7    1  0.2612213E-009  0.1292360E+03  0.7561462E-02  0.1228594E+00
          2   -1    0    0  501    0  0.00000000000E+00  0.00000000000E+00  0.39624687862E+03  0.39624687862E+03  0.00000000000E+00 0. -1.
         -2   -1    0    0    0  501 -0.00000000000E+00 -0.00000000000E+00 -0.48678456797E+02  0.48678456797E+02  0.00000000000E+00 0.  1.
         25    2    1    2    0    0 -0.33752693555E+02  0.78975410976E+02  0.17484430501E+03  0.23151749307E+03  0.12511378318E+03 0.  0.
          5    1    3    3  502    0 -0.70252785850E+02  0.86134840594E+02  0.10874224623E+03  0.15555389162E+03  0.41800000000E+01 0. -1.
         -5    1    3    3    0  502  0.36500092296E+02 -0.71594296181E+01  0.66102058778E+02  0.75963601447E+02  0.41800000000E+01 0. -1.
        -11    1    1    2    0    0  0.30835899089E+02 -0.53030897898E-01  0.98076929251E+01  0.32358095206E+02  0.00000000000E+00 0.  1.
         11    1    1    2    0    0  0.29167944662E+01 -0.78922380078E+02  0.16291642389E+03  0.18104974714E+03  0.00000000000E+00 0. -1.
</event>
<event>
 7    1  0.2612213E-009  0.6771555E+02  0.7561462E-02  0.1368038E+00
         -2   -1    0    0    0  501 -0.00000000000E+00  0.00000000000E+00  0.14857994042E+03  0.14857994042E+03  0.00000000000E+00 0.  1.
          2   -1    0    0  501    0  0.00000000000E+00 -0.00000000000E+00 -0.12279575638E+03  0.12279575638E+03  0.00000000000E+00 0. -1.
         25    2    1    2    0    0 -0.16671958396E+02 -0.29608789931E+02  0.87115504379E+02  0.15618861808E+03  0.12510451102E+03 0.  0.
          5    1    3    3  502    0  0.14276625153E+02  0.30059975263E+02 -0.12627484925E+02  0.35837827977E+02  0.41800000000E+01 0.  1.
         -5    1    3    3    0  502 -0.30948583550E+02 -0.59668765194E+02  0.99742989305E+02  0.12035079011E+03  0.41800000000E+01 0.  1.
        -11    1    1    2    0    0  0.78419519826E+01  0.80065494548E+01  0.24125221044E+02  0.26601265675E+02  0.00000000000E+00 0.  1.
         11    1    1    2    0    0  0.88300064135E+01  0.21602240477E+02 -0.85456541380E+02  0.88585813037E+02  0.00000000000E+00 0. -1.
</event>
<event>
 7    1  0.2612213E-009  0.1204852E+03  0.7561462E-02  0.1242299E+00
          1   -1    0    0  501    0  0.00000000000E+00  0.00000000000E+00  0.28384072616E+03  0.28384072616E+03  0.00000000000E+00 0. -1.
         -1   -1    0    0    0  501 -0.00000000000E+00 -0.00000000000E+00 -0.64057371494E+02  0.64057371494E+02  0.00000000000E+00 0.  1.
         25    2    1    2    0    0 -0.76734038102E+02 -0.20808383562E+02  0.10190666929E+03  0.17987171152E+03  0.12509101458E+03 0.  0.
          5    1    3    3  502    0  0.69499160216E+01 -0.56486688530E+02  0.42232445883E+02  0.70993656048E+02  0.41800000000E+01 0. -1.
         -5    1    3    3    0  502 -0.83683954123E+02  0.35678304967E+02  0.59674223410E+02  0.10887805547E+03  0.41800000000E+01 0. -1.
        -11    1    1    2    0    0  0.36462269009E+02 -0.14537282604E+02  0.78995341269E+00  0.39261350884E+02  0.00000000000E+00 0.  1.
         11    1    1    2    0    0  0.40271769092E+02  0.35345666167E+02  0.11708673196E+03  0.12876503525E+03  0.00000000000E+00 0. -1.
</event>
<event>
 7    1  0.2612213E-009  0.2767177E+03  0.7561462E-02  0.1097495E+00
          1   -1    0    0  501    0  0.00000000000E+00  0.00000000000E+00  0.41156365033E+03  0.41156365033E+03  0.00000000000E+00 0. -1.
         -1   -1    0    0    0  501 -0.00000000000E+00 -0.00000000000E+00 -0.24104981891E+03  0.24104981891E+03  0.00000000000E+00 0.  1.
         25    2    1    2    0    0 -0.22044097151E+03  0.14566830299E+03 -0.49527108803E+02  0.29650243565E+03  0.12508910194E+03 0.  0.
          5    1    3    3  502    0 -0.22719539617E+03  0.12295244014E+03 -0.66823481771E+02  0.26686682202E+03  0.41800000000E+01 0.  1.
         -5    1    3    3    0  502  0.67544246636E+01  0.22715862848E+02  0.17296372968E+02  0.29635613631E+02  0.41800000000E+01 0.  1.
        -11    1    1    2    0    0  0.12871210160E+03 -0.11946033646E+03  0.18340407513E+03  0.25391855359E+03  0.00000000000E+00 0. -1.
         11    1    1    2    0    0  0.91728869908E+02 -0.26207966527E+02  0.36636865102E+02  0.10219248000E+03  0.00000000000E+00 0.  1.
</event>
<event>
 7    1  0.2612213E-009  0.1490074E+03  0.7561462E-02  0.1201698E+00
         -4   -1    0    0    0  501 -0.00000000000E+00  0.00000000000E+00  0.25529466300E+03  0.25529466300E+03  0.00000000000E+00 0.  1.
          4   -1    0    0  501    0  0.00000000000E+00 -0.00000000000E+00 -0.10427390031E+03  0.10427390031E+03  0.00000000000E+00 0. -1.
         25    2    1    2    0    0 -0.93022292208E+01  0.11715226803E+03  0.12463367179E+03  0.21211337547E+03  0.12508935421E+03 0.  0.
          5    1    3    3  502    0  0.76898941199E+01  0.13785236692E+03  0.12300401509E+03  0.18495910268E+03  0.41800000000E+01 0. -1.
         -5    1    3    3    0  502 -0.16992123341E+02 -0.20700098891E+02  0.16296567011E+01  0.27154272789E+02  0.41800000000E+01 0. -1.
        -11    1    1    2    0    0 -0.18700536291E+02 -0.84369462362E+01  0.28566561693E+02  0.35170165855E+02  0.00000000000E+00 0.  1.
         11    1    1    2    0    0  0.28002765512E+02 -0.10871532179E+03 -0.21794708044E+01  0.11228502198E+03  0.00000000000E+00 0. -1.
</event>
<event>
 7    1  0.2612213E-009  0.2313363E+03  0.7561462E-02  0.1125703E+00
         -2   -1    0    0    0  501 -0.00000000000E+00  0.00000000000E+00  0.11033815756E+03  0.11033815756E+03  0.00000000000E+00 0. -1.
          2   -1    0    0  501    0  0.00000000000E+00 -0.00000000000E+00 -0.82684595512E+03  0.82684595512E+03  0.00000000000E+00 0.  1.
         25    2    1    2    0    0  0.22774195491E+03  0.26935196372E+02 -0.62117361765E+03  0.67386655299E+03  0.12509022799E+03 0.  0.
          5    1    3    3  502    0  0.77940402644E+02  0.26443698066E+02 -0.90325691918E+02  0.12227092276E+03  0.41800000000E+01 0. -1.
         -5    1    3    3    0  502  0.14980155227E+03  0.49149830591E+00 -0.53084792573E+03  0.55159563023E+03  0.41800000000E+01 0. -1.
        -11    1    1    2    0    0 -0.76096129341E+02 -0.19594089636E+02 -0.77642613733E+02  0.11046684895E+03  0.00000000000E+00 0.  1.
         11    1    1    2    0    0 -0.15164582557E+03 -0.73411067363E+01 -0.17691566178E+02  0.15285071075E+03  0.00000000000E+00 0. -1.
</event>
<event>
 7    1  0.2612213E-009  0.7887161E+02  0.7561462E-02  0.1332284E+00
          1   -1    0    0  501    0  0.00000000000E+00  0.00000000000E+00  0.41557006639E+03  0.41557006639E+03  0.00000000000E+00 0. -1.
         -1   -1    0    0    0  501 -0.00000000000E+00 -0.00000000000E+00 -0.34141213117E+02  0.34141213117E+02  0.00000000000E+00 0.  1.
         25    2    1    2    0    0 -0.76749647868E+01 -0.40690171857E+02  0.16466044658E+03  0.21089159420E+03  0.12509039398E+03 0.  0.
          5    1    3    3  502    0  0.82034489933E+01  0.99473419607E+01 -0.16913874599E+02  0.21674818141E+02  0.41800000000E+01 0. -1.
         -5    1    3    3    0  502 -0.15878413780E+02 -0.50637513818E+02  0.18157432118E+03  0.18921677606E+03  0.41800000000E+01 0. -1.
        -11    1    1    2    0    0  0.44373446057E+02  0.25976450487E+02  0.16985604660E+03  0.17746789924E+03  0.00000000000E+00 0. -1.
         11    1    1    2    0    0 -0.36698481270E+02  0.14713721370E+02  0.46912360091E+02  0.61351786066E+02  0.00000000000E+00 0.  1.
</event>
<event>
 7    1  0.2612213E-009  0.1300934E+03  0.7561462E-02  0.1227317E+00
         -1   -1    0    0    0  501 -0.00000000000E+00  0.00000000000E+00  0.49743574419E+02  0.49743574419E+02  0.00000000000E+00 0.  1.
          1   -1    0    0  501    0  0.00000000000E+00 -0.00000000000E+00 -0.48786240882E+03  0.48786240882E+03  0.00000000000E+00 0. -1.
         25    2    1    2    0    0 -0.26230221449E+02 -0.92220050352E+02 -0.13838331657E+03  0.20974842573E+03  0.12510754409E+03 0.  0.
          5    1    3    3  502    0 -0.26022556574E+02  0.11046316201E+02  0.88012153660E+01  0.29901978934E+02  0.41800000000E+01 0.  1.
         -5    1    3    3    0  502 -0.20766487462E+00 -0.10326636655E+03 -0.14718453193E+03  0.17984644680E+03  0.41800000000E+01 0.  1.
        -11    1    1    2    0    0  0.39919822560E+02  0.53039398871E+01 -0.58022935952E+02  0.70628500678E+02  0.00000000000E+00 0.  1.
         11    1    1    2    0    0 -0.13689601112E+02  0.86916110465E+02 -0.24171258188E+03  0.25722905683E+03  0.00000000000E+00 0. -1.
</event>
<event>
 7    1  0.2612213E-009  0.1453365E+03  0.7561462E-02  0.1206323E+00
         -2   -1    0    0    0  501 -0.00000000000E+00  0.00000000000E+00  0.13329800980E+03  0.13329800980E+03  0.00000000000E+00 0.  1.
          2   -1    0    0  501    0  0.00000000000E+00 -0.00000000000E+00 -0.17891180164E+03  0.17891180164E+03  0.00000000000E+00 0. -1.
         25    2    1    2    0    0 -0.77399944776E+02 -0.77089817052E+02 -0.13288765628E+02  0.16660863873E+03  0.12509298887E+03 0.  0.
          5    1    3    3  502    0  0.22730807765E+02 -0.56201393685E+02 -0.20112053778E+02  0.64009791290E+02  0.41800000000E+01 0.  1.
         -5    1    3    3    0  502 -0.10013075254E+03 -0.20888423368E+02  0.68232881506E+01  0.10259884744E+03  0.41800000000E+01 0.  1.
        -11    1    1    2    0    0  0.67120027043E+02  0.89210289332E+02 -0.49569246751E+02  0.12215025164E+03  0.00000000000E+00 0. -1.
         11    1    1    2    0    0  0.10279917733E+02 -0.12120472280E+02  0.17244220536E+02  0.23450921065E+02  0.00000000000E+00 0.  1.
</event>
<event>
 7    1  0.2612213E-009  0.9856021E+02  0.7561462E-02  0.1283353E+00
         -1   -1    0    0    0  501 -0.00000000000E+00  0.00000000000E+00  0.24770889981E+02  0.24770889981E+02  0.00000000000E+00 0.  1.
          1   -1    0    0  501    0  0.00000000000E+00 -0.00000000000E+00 -0.55773476778E+03  0.55773476778E+03  0.00000000000E+00 0. -1.
         25    2    1    2    0    0  0.17439478772E+02  0.25916221982E+01 -0.41017421632E+03  0.42918700699E+03  0.12509095614E+03 0.  0.
          5    1    3    3  502    0  0.97331847409E+01  0.53128920134E+02 -0.32708619490E+03  0.33154225724E+03  0.41800000000E+01 0. -1.
         -5    1    3    3    0  502  0.77062940313E+01 -0.50537297936E+02 -0.83088021418E+02  0.97644749749E+02  0.41800000000E+01 0. -1.
        -11    1    1    2    0    0 -0.40399543528E+02  0.31029553822E+02 -0.63761307775E+02  0.81611645596E+02  0.00000000000E+00 0.  1.
         11    1    1    2    0    0  0.22960064756E+02 -0.33621176020E+02 -0.59028353702E+02  0.71707005176E+02  0.00000000000E+00 0. -1.
</event>
<event>
 7    1  0.2612213E-009  0.3147851E+03  0.7561462E-02  0.1078075E+00
         -1   -1    0    0    0  501 -0.00000000000E+00  0.00000000000E+00  0.74823192203E+03  0.74823192203E+03  0.00000000000E+00 0. -1.
          1   -1    0    0  501    0  0.00000000000E+00 -0.00000000000E+00 -0.13672585654E+03  0.13672585654E+03  0.00000000000E+00 0.  1.
         25    2    1    2    0    0 -0.29332501457E+03  0.47290349364E+02  0.37565853577E+03  0.49501779588E+03  0.12508933379E+03 0.  0.
          5    1    3    3  502    0 -0.28025104084E+03  0.11149031662E+02  0.35036570959E+03  0.44881906116E+03  0.41800000000E+01 0. -1.
         -5    1    3    3    0  502 -0.13073973737E+02  0.36141317702E+02  0.25292826173E+02  0.46198734727E+02  0.41800000000E+01 0. -1.
        -11    1    1    2    0    0  0.11932206796E+03 -0.64351916218E+02  0.10848469409E+03  0.17363137354E+03  0.00000000000E+00 0.  1.
         11    1    1    2    0    0  0.17400294661E+03  0.17061566854E+02  0.12736283563E+03  0.21630860915E+03  0.00000000000E+00 0. -1.
</event>
<event>
 7    1  0.2612213E-009  0.2514301E+03  0.7561462E-02  0.1112404E+00
          1   -1    0    0  501    0  0.00000000000E+00  0.00000000000E+00  0.20770171106E+03  0.20770171106E+03  0.00000000000E+00 0. -1.
         -1   -1    0    0    0  501 -0.00000000000E+00 -0.00000000000E+00 -0.32536298915E+03  0.32536298915E+03  0.00000000000E+00 0.  1.
         25    2    1    2    0    0 -0.22988126272E+03  0.53449545959E+02 -0.50435373795E+02  0.27183276393E+03  0.12508827164E+03 0.  0.
          5    1    3    3  502    0 -0.41560630340E+02 -0.38883233369E+02 -0.15791653616E+02  0.59211827834E+02  0.41800000000E+01 0. -1.
         -5    1    3    3    0  502 -0.18832063238E+03  0.92332779328E+02 -0.34643720179E+02  0.21262093609E+03  0.41800000000E+01 0. -1.
        -11    1    1    2    0    0  0.13423028126E+03 -0.31353441291E+02 -0.84315409024E+02  0.16158556521E+03  0.00000000000E+00 0.  1.
         11    1    1    2    0    0  0.95650981461E+02 -0.22096104668E+02  0.17089504733E+02  0.99646371072E+02  0.00000000000E+00 0. -1.
</event>
<event>
 7    1  0.3192375E-009  0.2118562E+03  0.7561462E-02  0.1140104E+00
          2   -1    0    0  501    0  0.00000000000E+00  0.00000000000E+00  0.91848106636E+03  0.91848106636E+03  0.00000000000E+00 0. -1.
         -2   -1    0    0    0  501 -0.00000000000E+00 -0.00000000000E+00 -0.55720077813E+02  0.55720077813E+02  0.00000000000E+00 0.  1.
         25    2    1    2    0    0 -0.81219633287E+02  0.17516295657E+03  0.34984674322E+03  0.41870795944E+03  0.12507966011E+03 0.  0.
          5    1    3    3  502    0 -0.39143350364E+02  0.16856213372E+03  0.20831101195E+03  0.27084376474E+03  0.41800000000E+01 0.  1.
         -5    1    3    3    0  502 -0.42076282922E+02  0.66008228488E+01  0.14153573127E+03  0.14786419469E+03  0.41800000000E+01 0.  1.
        -11    1    1    2    0    0  0.87686544157E+02 -0.10258742413E+03  0.38898797995E+03  0.41173384384E+03  0.00000000000E+00 0. -1.
         11    1    1    2    0    0 -0.64669108704E+01 -0.72575532439E+02  0.12392626538E+03  0.14375934090E+03  0.00000000000E+00 0.  1.
</event>
<event>
 7    1  0.2612213E-009  0.1467923E+03  0.7561462E-02  0.1204471E+00
          1   -1    0    0  501    0  0.00000000000E+00  0.00000000000E+00  0.52656938696E+03  0.52656938696E+03  0.00000000000E+00 0. -1.
         -1   -1    0    0    0  501 -0.00000000000E+00 -0.00000000000E+00 -0.58905413226E+02  0.58905413226E+02  0.00000000000E+00 0.  1.
         25    2    1    2    0    0  0.11762970286E+03 -0.13146255676E+02  0.12949890078E+03  0.21547052667E+03  0.12509201224E+03 0.  0.
          5    1    3    3  502    0 -0.19147887445E+02  0.23316565264E+02  0.19693367539E+02  0.36271268717E+02  0.41800000000E+01 0. -1.
         -5    1    3    3    0  502  0.13677759030E+03 -0.36462820940E+02  0.10980553324E+03  0.17919925795E+03  0.41800000000E+01 0. -1.
        -11    1    1    2    0    0 -0.55866052035E+02 -0.75415023702E+01  0.26960555499E+03  0.27543610023E+03  0.00000000000E+00 0. -1.
         11    1    1    2    0    0 -0.61763650822E+02  0.20687758046E+02  0.68559517957E+02  0.94568173284E+02  0.00000000000E+00 0.  1.
</event>
<event>
 7    1  0.2612213E-009  0.1501795E+03  0.7561462E-02  0.1200253E+00
         -3   -1    0    0    0  501 -0.00000000000E+00  0.00000000000E+00  0.22966934111E+03  0.22966934111E+03  0.00000000000E+00 0.  1.
          3   -1    0    0  501    0  0.00000000000E+00 -0.00000000000E+00 -0.15194350993E+03  0.15194350993E+03  0.00000000000E+00 0. -1.
         25    2    1    2    0    0 -0.76524892269E+02 -0.92981983742E+02 -0.53079444413E+02  0.18156626539E+03  0.12508866004E+03 0.  0.
          5    1    3    3  502    0 -0.88417109458E+02 -0.14244828635E+02 -0.81115792925E+01  0.90020944821E+02  0.41800000000E+01 0. -1.
         -5    1    3    3    0  502  0.11892217189E+02 -0.78737155107E+02 -0.44967865120E+02  0.91545320566E+02  0.41800000000E+01 0. -1.
        -11    1    1    2    0    0  0.25749300524E+02  0.71201812202E+02  0.12273534381E+03  0.14421057229E+03  0.00000000000E+00 0.  1.
         11    1    1    2    0    0  0.50775591746E+02  0.21780171541E+02  0.80699317845E+01  0.55836013365E+02  0.00000000000E+00 0. -1.
</event>
<event>
 7    1  0.2612213E-009  0.1140100E+03  0.7561462E-02  0.1253319E+00
          1   -1    0    0  501    0  0.00000000000E+00  0.00000000000E+00  0.18330584193E+03  0.18330584193E+03  0.00000000000E+00 0. -1.
         -1   -1    0    0    0  501 -0.00000000000E+00 -0.00000000000E+00 -0.81535908038E+02  0.81535908038E+02  0.00000000000E+00 0.  1.
         25    2    1    2    0    0 -0.37974617208E+02 -0.57891206264E+01  0.99866497168E+02  0.16460909279E+03  0.12508897115E+03 0.  0.
          5    1    3    3  502    0 -0.21483289707E+02 -0.63966856410E+02  0.68951045474E+02  0.96566088911E+02  0.41800000000E+01 0. -1.
         -5    1    3    3    0  502 -0.16491327501E+02  0.58177735783E+02  0.30915451694E+02  0.68043003880E+02  0.41800000000E+01 0. -1.
        -11    1    1    2    0    0  0.75109068450E+01  0.47531824880E+02 -0.36417546015E+01  0.48259200933E+02  0.00000000000E+00 0.  1.
         11    1    1    2    0    0  0.30463710363E+02 -0.41742704254E+02  0.55451913293E+01  0.51973456249E+02  0.00000000000E+00 0. -1.
</event>
<event>
 7    1  0.2612213E-009  0.2078642E+03  0.7561462E-02  0.1143269E+00
          2   -1    0    0  501    0  0.00000000000E+00  0.00000000000E+00  0.27392722236E+03  0.27392722236E+03  0.00000000000E+00 0. -1.
         -2   -1    0    0    0  501 -0.00000000000E+00 -0.00000000000E+00 -0.17204856725E+03  0.17204856725E+03  0.00000000000E+00 0.  1.
         25    2    1    2    0    0 -0.13671570177E+03 -0.11553596637E+03 -0.54875987405E+01  0.21844311319E+03  0.12509011682E+03 0.  0.
          5    1    3    3  502    0 -0.66628102072E+02  0.14833326092E+02  0.11679504459E+02  0.69377336163E+02  0.41800000000E+01 0.  1.
         -5    1    3    3    0  502 -0.70087599696E+02 -0.13036929246E+03 -0.17167103199E+02  0.14906577703E+03  0.41800000000E+01 0.  1.
        -11    1    1    2    0    0  0.13075660255E+03  0.60787960986E+02  0.65609344980E+02  0.15842048939E+03  0.00000000000E+00 0.  1.
         11    1    1    2    0    0  0.59590992183E+01  0.54748005384E+02  0.41756908871E+02  0.69112187026E+02  0.00000000000E+00 0. -1.
</event>
<event>
 7    1  0.2612213E-009  0.1331504E+03  0.7561462E-02  0.1222855E+00
         -2   -1    0    0    0  501 -0.00000000000E+00  0.00000000000E+00  0.26611019878E+03  0.26611019878E+03  0.00000000000E+00 0.  1.
          2   -1    0    0  501    0  0.00000000000E+00 -0.00000000000E+00 -0.87134159435E+02  0.87134159435E+02  0.00000000000E+00 0. -1.
         25    2    1    2    0    0 -0.88203795016E+02 -0.50246335024E+02  0.13361913775E+03  0.20929738340E+03  0.12508683819E+03 0.  0.
          5    1    3    3  502    0  0.17376834815E+02  0.22808185319E+02  0.90463883921E+01  0.30355843732E+02  0.41800000000E+01 0.  1.
         -5    1    3    3    0  502 -0.10558062983E+03 -0.73054520343E+02  0.12457274936E+03  0.17894153967E+03  0.41800000000E+01 0.  1.
        -11    1    1    2    0    0  0.39412023466E+02  0.44958574552E+02  0.67443316176E+02  0.90128696409E+02  0.00000000000E+00 0.  1.
         11    1    1    2    0    0  0.48791771549E+02  0.52877604712E+01 -0.22086414576E+02  0.53818278406E+02  0.00000000000E+00 0. -1.
</event>
<event>
 7    1  0.2612213E-009  0.2052856E+03  0.7561462E-02  0.1145355E+00
         -1   -1    0    0    0  501 -0.00000000000E+00  0.00000000000E+00  0.20518413745E+03  0.20518413745E+03  0.00000000000E+00 0.  1.
          1   -1    0    0  501    0  0.00000000000E+00 -0.00000000000E+00 -0.22359188950E+03  0.22359188950E+03  0.00000000000E+00 0. -1.
         25    2    1    2    0    0 -0.15176350984E+03 -0.94067452566E+02 -0.57337017878E+02  0.22542330167E+03  0.12508909930E+03 0.  0.
          5    1    3    3  502    0 -0.16716421535E+03 -0.56366044846E+02 -0.39845951491E+02  0.18090378148E+03  0.41800000000E+01 0.  1.
         -5    1    3    3    0  502  0.15400705504E+02 -0.37701407720E+02 -0.17491066387E+02  0.44519520184E+02  0.41800000000E+01 0.  1.
        -11    1    1    2    0    0  0.12502098500E+03  0.37376277368E+02  0.49925728740E+02  0.13971331787E+03  0.00000000000E+00 0. -1.
         11    1    1    2    0    0  0.26742524846E+02  0.56691175198E+02 -0.10996462909E+02  0.63639407422E+02  0.00000000000E+00 0.  1.
</event>
<event>
 7    1  0.2612213E-009  0.1334107E+03  0.7561462E-02  0.1222481E+00
          1   -1    0    0  501    0  0.00000000000E+00  0.00000000000E+00  0.14045849347E+04  0.14045849347E+04  0.00000000000E+00 0. -1.
         -1   -1    0    0    0  501 -0.00000000000E+00 -0.00000000000E+00 -0.16751059815E+02  0.16751059815E+02  0.00000000000E+00 0.  1.
         25    2    1    2    0    0  0.10029904581E+03 -0.37669749628E+02  0.66157825742E+03  0.68177363616E+03  0.12510232468E+03 0.  0.
          5    1    3    3  502    0  0.44651234548E+02  0.18039888679E+02  0.70628912404E+02  0.85586716245E+02  0.41800000000E+01 0.  1.
         -5    1    3    3    0  502  0.55647811258E+02 -0.55709638307E+02  0.59094934502E+03  0.59618691991E+03  0.41800000000E+01 0.  1.
        -11    1    1    2    0    0 -0.66186230041E+02  0.67339003680E+02  0.48374995581E+03  0.49287846190E+03  0.00000000000E+00 0.  1.
         11    1    1    2    0    0 -0.34112815765E+02 -0.29669254052E+02  0.24250566165E+03  0.24668389645E+03  0.00000000000E+00 0. -1.
</event>
<event>
 7    1  0.2612213E-009  0.2136473E+03  0.7561462E-02  0.1138710E+00
          2   -1    0    0  501    0  0.00000000000E+00  0.00000000000E+00  0.93879969399E+03  0.93879969399E+03  0.00000000000E+00 0. -1.
         -2   -1    0    0    0  501 -0.00000000000E+00 -0.00000000000E+00 -0.52360344942E+02  0.52360344942E+02  0.00000000000E+00 0.  1.
         25    2    1    2    0    0 -0.13093002258E+03 -0.13023692189E+03  0.59013835842E+03  0.63088461088E+03  0.12509110093E+03 0.  0.
          5    1    3    3  502    0 -0.15510955119E+03 -0.12021575195E+03  0.50952998207E+03  0.54603028754E+03  0.41800000000E+01 0. -1.
         -5    1    3    3    0  502  0.24179528613E+02 -0.10021169936E+02  0.80608376352E+02  0.84854323337E+02  0.41800000000E+01 0. -1.
        -11    1    1    2    0    0  0.14119444680E+03  0.10123104386E+03  0.24275718977E+03  0.29852076851E+03  0.00000000000E+00 0. -1.
         11    1    1    2    0    0 -0.10264424216E+02  0.29005878028E+02  0.53543800860E+02  0.61754659542E+02  0.00000000000E+00 0.  1.
</event>
<event>
 7    1  0.2612213E-009  0.9347903E+02  0.7561462E-02  0.1294639E+00
          4   -1    0    0  501    0  0.00000000000E+00  0.00000000000E+00  0.37277913035E+03  0.37277913035E+03  0.00000000000E+00 0. -1.
         -4   -1    0    0    0  501 -0.00000000000E+00 -0.00000000000E+00 -0.34379379083E+02  0.34379379083E+02  0.00000000000E+00 0.  1.
         25    2    1    2    0    0  0.13689118980E+02  0.27549560243E+02  0.17616050005E+03  0.21823399403E+03  0.12508870502E+03 0.  0.
          5    1    3    3  502    0 -0.37914077185E+02  0.57420447870E+02  0.89858015194E+02  0.11325422896E+03  0.41800000000E+01 0. -1.
         -5    1    3    3    0  502  0.51603196165E+02 -0.29870887628E+02  0.86302484853E+02  0.10497976507E+03  0.41800000000E+01 0. -1.
        -11    1    1    2    0    0 -0.57393929291E+01 -0.41661146464E+02  0.16686280230E+03  0.17208075589E+03  0.00000000000E+00 0. -1.
         11    1    1    2    0    0 -0.79497260505E+01  0.14111586222E+02 -0.46235510818E+01  0.16843759514E+02  0.00000000000E+00 0.  1.
</event>
<event>
 7    1  0.3110427E-009  0.1301064E+03  0.7561462E-02  0.1227298E+00
          1   -1    0    0  501    0  0.00000000000E+00  0.00000000000E+00  0.12637697283E+04  0.12637697283E+04  0.00000000000E+00 0. -1.
         -1   -1    0    0    0  501 -0.00000000000E+00 -0.00000000000E+00 -0.13606623870E+02  0.13606623870E+02  0.00000000000E+00 0.  1.
         25    2    1    2    0    0  0.72497967657E+02 -0.82154660170E+01  0.65273849866E+03  0.66860949146E+03  0.12509058814E+03 0.  0.
          5    1    3    3  502    0  0.94000687513E+02 -0.43033081636E+02  0.45033235257E+03  0.46206566150E+03  0.41800000000E+01 0.  1.
         -5    1    3    3    0  502 -0.21502719856E+02  0.34817615619E+02  0.20240614609E+03  0.20654382996E+03  0.41800000000E+01 0.  1.
        -11    1    1    2    0    0 -0.49730917597E+02  0.48418542032E+02  0.40257240842E+03  0.40851201133E+03  0.00000000000E+00 0. -1.
         11    1    1    2    0    0 -0.22767050060E+02 -0.40203076015E+02  0.19485219736E+03  0.20025484940E+03  0.00000000000E+00 0.  1.
</event>
<event>
 7    1  0.2612213E-009  0.1044314E+03  0.7561462E-02  0.1271244E+00
          1   -1    0    0  501    0  0.00000000000E+00  0.00000000000E+00  0.55686293883E+02  0.55686293883E+02  0.00000000000E+00 0. -1.
         -1   -1    0    0    0  501 -0.00000000000E+00 -0.00000000000E+00 -0.33008916800E+03  0.33008916800E+03  0.00000000000E+00 0.  1.
         25    2    1    2    0    0 -0.19405079914E+02  0.57981781310E+02 -0.74121978281E+02  0.15771926738E+03  0.12507140180E+03 0.  0.
          5    1    3    3  502    0  0.57251725531E+01 -0.21401014119E+02 -0.70778043143E+02  0.74281793175E+02  0.41800000000E+01 0.  1.
         -5    1    3    3    0  502 -0.25130252467E+02  0.79382795429E+02 -0.33439351377E+01  0.83437474203E+02  0.41800000000E+01 0.  1.
        -11    1    1    2    0    0 -0.45338932150E+01  0.20448749112E+02 -0.16011560407E+02  0.26364324277E+02  0.00000000000E+00 0. -1.
         11    1    1    2    0    0  0.23938973129E+02 -0.78430530422E+02 -0.18426933543E+03  0.20169187023E+03  0.00000000000E+00 0.  1.
</event>
<event>
 7    1  0.2612213E-009  0.1528884E+03  0.7561462E-02  0.1196968E+00
          1   -1    0    0  501    0  0.00000000000E+00  0.00000000000E+00  0.23442160198E+03  0.23442160198E+03  0.00000000000E+00 0. -1.
         -1   -1    0    0    0  501 -0.00000000000E+00 -0.00000000000E+00 -0.14381280721E+03  0.14381280721E+03  0.00000000000E+00 0.  1.
         25    2    1    2    0    0 -0.96429891057E+02 -0.82435654811E+02 -0.30632353647E+02  0.18077559228E+03  0.12508841913E+03 0.  0.
          5    1    3    3  502    0 -0.82235876713E+02 -0.98328838458E+02  0.16085636979E+02  0.12925757234E+03  0.41800000000E+01 0. -1.
         -5    1    3    3    0  502 -0.14194014344E+02  0.15893183647E+02 -0.46717990627E+02  0.51518019933E+02  0.41800000000E+01 0. -1.
        -11    1    1    2    0    0 -0.36379221677E+01  0.50698943182E+02  0.41791180657E+02  0.65803648061E+02  0.00000000000E+00 0.  1.
         11    1    1    2    0    0  0.10006781322E+03  0.31736711629E+02  0.79449967761E+02  0.13165516885E+03  0.00000000000E+00 0. -1.
</event>
<event>
 7    1  0.2612213E-009  0.1137313E+03  0.7561462E-02  0.1253812E+00
          2   -1    0    0  501    0  0.00000000000E+00  0.00000000000E+00  0.11713022930E+04  0.11713022930E+04  0.00000000000E+00 0. -1.
         -2   -1    0    0    0  501 -0.00000000000E+00 -0.00000000000E+00 -0.14083796499E+02  0.14083796499E+02  0.00000000000E+00 0.  1.
         25    2    1    2    0    0 -0.46209427588E+02  0.33680806517E+02  0.81427912161E+03  0.82581325796E+03  0.12508933291E+03 0.  0.
          5    1    3    3  502    0 -0.71669767770E+02  0.63719467206E+02  0.63490113403E+03  0.64211653811E+03  0.41800000000E+01 0. -1.
         -5    1    3    3    0  502  0.25460340182E+02 -0.30038660689E+02  0.17937798758E+03  0.18369671986E+03  0.41800000000E+01 0. -1.
        -11    1    1    2    0    0  0.41483906574E+02  0.14134299243E+02  0.71115308182E+02  0.83534902751E+02  0.00000000000E+00 0.  1.
         11    1    1    2    0    0  0.47255210148E+01 -0.47815105761E+02  0.27182406670E+03  0.27603792878E+03  0.00000000000E+00 0. -1.
</event>
<event>
 6    1  0.2612213E-009  0.1100510E+03  0.7561462E-02  0.1260475E+00
         -1   -1    0    0    0  501 -0.00000000000E+00  0.00000000000E+00  0.18063724258E+03  0.18063724258E+03  0.00000000000E+00 0.  1.
          1   -1    0    0  501    0  0.00000000000E+00 -0.00000000000E+00 -0.11611986467E+03  0.11611986467E+03  0.00000000000E+00 0. -1.
          5    1    1    2  502    0  0.34504186674E+01  0.25900652527E+02 -0.44742116257E+02  0.51981521308E+02  0.41800000000E+01 0.  1.
         -5    1    1    2    0  502  0.79340623734E+02  0.21166433833E+02  0.68251970154E+02  0.10685858096E+03  0.41800000000E+01 0.  1.
        -11    1    1    2    0    0 -0.58424552953E+02 -0.72233005540E-02  0.57940809185E+02  0.82283447965E+02  0.00000000000E+00 0.  1.
         11    1    1    2    0    0 -0.24366489448E+02 -0.47059863060E+02 -0.16933285171E+02  0.55633557013E+02  0.00000000000E+00 0. -1.
</event>
<event>
 7    1  0.2612213E-009  0.1321870E+03  0.7561462E-02  0.1224246E+00
         -2   -1    0    0    0  501 -0.00000000000E+00  0.00000000000E+00  0.67535177295E+03  0.67535177295E+03  0.00000000000E+00 0.  1.
          2   -1    0    0  501    0  0.00000000000E+00 -0.00000000000E+00 -0.29667035346E+02  0.29667035346E+02  0.00000000000E+00 0. -1.
         25    2    1    2    0    0 -0.74877501257E+02  0.42820470480E+02  0.27215560050E+03  0.31169885630E+03  0.12508906129E+03 0.  0.
          5    1    3    3  502    0 -0.36121160950E+02 -0.43788405878E+02  0.98096632717E+02  0.11341333479E+03  0.41800000000E+01 0.  1.
         -5    1    3    3    0  502 -0.38756340306E+02  0.86608876358E+02  0.17405896778E+03  0.19828552151E+03  0.41800000000E+01 0.  1.
        -11    1    1    2    0    0  0.44511454935E+02  0.15164893076E+02  0.24056502594E+03  0.24511788043E+03  0.00000000000E+00 0.  1.
         11    1    1    2    0    0  0.30366046322E+02 -0.57985363556E+02  0.13296411117E+03  0.14820207156E+03  0.00000000000E+00 0. -1.
</event>
<event>
 7    1  0.2612213E-009  0.1054153E+03  0.7561462E-02  0.1269304E+00
          1   -1    0    0  501    0  0.00000000000E+00  0.00000000000E+00  0.67555595109E+02  0.67555595109E+02  0.00000000000E+00 0. -1.
         -1   -1    0    0    0  501 -0.00000000000E+00 -0.00000000000E+00 -0.18672312347E+03  0.18672312347E+03  0.00000000000E+00 0.  1.
         25    2    1    2    0    0 -0.18202306323E+02 -0.12288768164E+02 -0.39557909704E+02  0.13301919657E+03  0.12508773185E+03 0.  0.
          5    1    3    3  502    0  0.14916333129E+01 -0.67333563673E+02 -0.13220329403E+02  0.68762513598E+02  0.41800000000E+01 0.  1.
         -5    1    3    3    0  502 -0.19693939636E+02  0.55044795508E+02 -0.26337580301E+02  0.64256682976E+02  0.41800000000E+01 0.  1.
        -11    1    1    2    0    0  0.59451481012E+01 -0.35198091861E+02 -0.57000892626E+02  0.67255871244E+02  0.00000000000E+00 0.  1.
         11    1    1    2    0    0  0.12257158222E+02  0.47486860025E+02 -0.22608726030E+02  0.54003650761E+02  0.00000000000E+00 0. -1.
</event>
<event>
 7    1  0.2612213E-009  0.1088949E+03  0.7561462E-02  0.1262630E+00
         -2   -1    0    0    0  501 -0.00000000000E+00  0.00000000000E+00  0.22417348105E+02  0.22417348105E+02  0.00000000000E+00 0.  1.
          2   -1    0    0  501    0  0.00000000000E+00 -0.00000000000E+00 -0.59310548801E+03  0.59310548801E+03  0.00000000000E+00 0. -1.
         25    2    1    2    0    0 -0.23678563229E+02  0.26921791872E+02 -0.28892343786E+03  0.31687470342E+03  0.12508943796E+03 0.  0.
          5    1    3    3  502    0  0.51005504531E+01 -0.45357679794E+02 -0.63104378968E+02  0.77993395722E+02  0.41800000000E+01 0. -1.
         -5    1    3    3    0  502 -0.28779113682E+02  0.72279471666E+02 -0.22581905890E+03  0.23888130770E+03  0.41800000000E+01 0. -1.
        -11    1    1    2    0    0 -0.29852192180E+02  0.70119054469E+01 -0.14064452777E+03  0.14394861371E+03  0.00000000000E+00 0. -1.
         11    1    1    2    0    0  0.53530755409E+02 -0.33933697319E+02 -0.14112017427E+03  0.15469951899E+03  0.00000000000E+00 0.  1.
</event>
<event>
 7    1  0.2612213E-009  0.9723120E+02  0.7561462E-02  0.1286228E+00
         -2   -1    0    0    0  501 -0.00000000000E+00  0.00000000000E+00  0.11976443198E+04  0.11976443198E+04  0.00000000000E+00 0.  1.
          2   -1    0    0  501    0  0.00000000000E+00 -0.00000000000E+00 -0.15447229708E+02  0.15447229708E+02  0.00000000000E+00 0. -1.
         25    2    1    2    0    0  0.26337478301E+02 -0.38609285444E+02  0.92573027922E+03  0.93531291343E+03  0.12509738800E+03 0.  0.
          5    1    3    3  502    0 -0.25709173696E+02 -0.19716022871E+02  0.75651499031E+03  0.75721997209E+03  0.41800000000E+01 0. -1.
         -5    1    3    3    0  502  0.52046651997E+02 -0.18893262573E+02  0.16921528890E+03  0.17809294134E+03  0.41800000000E+01 0. -1.
        -11    1    1    2    0    0 -0.62066540063E+02  0.16393253038E+02  0.14243643565E+03  0.15623422270E+03  0.00000000000E+00 0.  1.
         11    1    1    2    0    0  0.35729061762E+02  0.22216032406E+02  0.11403037520E+03  0.12154441336E+03  0.00000000000E+00 0. -1.
</event>
<event>
 7    1  0.2612213E-009  0.1188566E+03  0.7561462E-02  0.1244995E+00
          1   -1    0    0  501    0  0.00000000000E+00  0.00000000000E+00  0.46579674714E+03  0.46579674714E+03  0.00000000000E+00 0. -1.
         -1   -1    0    0    0  501 -0.00000000000E+00 -0.00000000000E+00 -0.39386902017E+02  0.39386902017E+02  0.00000000000E+00 0.  1.
         25    2    1    2    0    0  0.78345451663E+02 -0.75074845054E+01  0.19979153685E+03  0.24851355655E+03  0.12509179618E+03 0.  0.
          5    1    3    3  502    0 -0.10330242032E+02  0.22242190125E+02 -0.30915302882E+01  0.25069082183E+02  0.41800000000E+01 0.  1.
         -5    1    3    3    0  502  0.88675693694E+02 -0.29749674630E+02  0.20288306714E+03  0.22344447436E+03  0.41800000000E+01 0.  1.
        -11    1    1    2    0    0 -0.11980879237E+02 -0.37271895428E+02  0.92979434937E+02  0.10088563316E+03  0.00000000000E+00 0. -1.
         11    1    1    2    0    0 -0.66364572425E+02  0.44779379933E+02  0.13363887334E+03  0.15578445945E+03  0.00000000000E+00 0.  1.
</event>
<event>
 7    1  0.2612213E-009  0.1181843E+03  0.7561462E-02  0.1246123E+00
         -2   -1    0    0    0  501 -0.00000000000E+00  0.00000000000E+00  0.20132683360E+02  0.20132683360E+02  0.00000000000E+00 0. -1.
          2   -1    0    0  501    0  0.00000000000E+00 -0.00000000000E+00 -0.80175697606E+03  0.80175697606E+03  0.00000000000E+00 0.  1.
         25    2    1    2    0    0  0.15408582849E+02  0.56240497568E+02 -0.53354370993E+03  0.55110557612E+03  0.12509215653E+03 0.  0.
          5    1    3    3  502    0 -0.21064140668E+02  0.86363897671E+02 -0.38517827284E+03  0.39532542937E+03  0.41800000000E+01 0. -1.
         -5    1    3    3    0  502  0.36472723517E+02 -0.30123400103E+02 -0.14836543710E+03  0.15578014674E+03  0.41800000000E+01 0. -1.
        -11    1    1    2    0    0 -0.48887383024E+02 -0.30096462373E+02 -0.87283255559E+02  0.10447076130E+03  0.00000000000E+00 0. -1.
         11    1    1    2    0    0  0.33478800175E+02 -0.26144035195E+02 -0.16079732721E+03  0.16631332200E+03  0.00000000000E+00 0.  1.
</event>
<event>
 7    1  0.2612213E-009  0.1384920E+03  0.7561462E-02  0.1215373E+00
         -2   -1    0    0    0  501 -0.00000000000E+00  0.00000000000E+00  0.27151877858E+02  0.27151877858E+02  0.00000000000E+00 0.  1.
          2   -1    0    0  501    0  0.00000000000E+00 -0.00000000000E+00 -0.92622988695E+03  0.92622988695E+03  0.00000000000E+00 0. -1.
         25    2    1    2    0    0  0.79801825426E+02  0.77564084067E+02 -0.53659527931E+03  0.56211222097E+03  0.12510450314E+03 0.  0.
          5    1    3    3  502    0  0.89605805458E+02  0.53113652716E+02 -0.21022174309E+03  0.23465062144E+03  0.41800000000E+01 0.  1.
         -5    1    3    3    0  502 -0.98039800321E+01  0.24450431351E+02 -0.32637353622E+03  0.32746159953E+03  0.41800000000E+01 0.  1.
        -11    1    1    2    0    0 -0.92811716824E+02 -0.31210918746E+02 -0.21813257313E+03  0.23910239583E+03  0.00000000000E+00 0.  1.
         11    1    1    2    0    0  0.13009891398E+02 -0.46353165322E+02 -0.14435015666E+03  0.15216714802E+03  0.00000000000E+00 0. -1.
</event>
<event>
 7    1  0.2612213E-009  0.1386918E+03  0.7561462E-02  0.1215100E+00
         -2   -1    0    0    0  501 -0.00000000000E+00  0.00000000000E+00  0.65051218739E+03  0.65051218739E+03  0.00000000000E+00 0.  1.
          2   -1    0    0  501    0  0.00000000000E+00 -0.00000000000E+00 -0.37264747908E+02  0.37264747908E+02  0.00000000000E+00 0. -1.
         25    2    1    2    0    0  0.20316855249E+02  0.10636767153E+03  0.27424059922E+03  0.32028682390E+03  0.12509551210E+03 0.  0.
          5    1    3    3  502    0 -0.29955272603E+02  0.62219092892E+02  0.22947844896E+03  0.23967971298E+03  0.41800000000E+01 0.  1.
         -5    1    3    3    0  502  0.50272127852E+02  0.44148578639E+02  0.44762150260E+02  0.80607110918E+02  0.41800000000E+01 0.  1.
        -11    1    1    2    0    0  0.19448043239E+02 -0.98789711197E+02  0.25748711515E+03  0.27647287008E+03  0.00000000000E+00 0.  1.
         11    1    1    2    0    0 -0.39764898488E+02 -0.75779603335E+01  0.81519725108E+02  0.91017241313E+02  0.00000000000E+00 0. -1.
</event>
<event>
 7    1  0.2612213E-009  0.1382201E+03  0.7561462E-02  0.1215744E+00
          3   -1    0    0  501    0  0.00000000000E+00  0.00000000000E+00  0.44975547332E+03  0.44975547332E+03  0.00000000000E+00 0. -1.
         -3   -1    0    0    0  501 -0.00000000000E+00 -0.00000000000E+00 -0.65966615855E+02  0.65966615855E+02  0.00000000000E+00 0.  1.
         25    2    1    2    0    0 -0.10950687971E+03 -0.45566672437E+02  0.29597184568E+03  0.34251217994E+03  0.12508869507E+03 0.  0.
          5    1    3    3  502    0 -0.11665294204E+03 -0.64184339821E+02  0.29307940446E+03  0.32193252101E+03  0.41800000000E+01 0. -1.
         -5    1    3    3    0  502  0.71460623360E+01  0.18617667384E+02  0.28924412250E+01  0.20579658937E+02  0.41800000000E+01 0. -1.
        -11    1    1    2    0    0  0.92903162952E+02  0.50223958920E+02  0.10495863017E+03  0.14889512344E+03  0.00000000000E+00 0. -1.
         11    1    1    2    0    0  0.16603716755E+02 -0.46572864830E+01 -0.17141618385E+02  0.24314785796E+02  0.00000000000E+00 0.  1.
</event>
<event>
 7    1  0.2612213E-009  0.1179104E+03  0.7561462E-02  0.1246585E+00
          1   -1    0    0  501    0  0.00000000000E+00  0.00000000000E+00  0.17458642516E+03  0.17458642516E+03  0.00000000000E+00 0. -1.
         -1   -1    0    0    0  501 -0.00000000000E+00 -0.00000000000E+00 -0.11683889872E+03  0.11683889872E+03  0.00000000000E+00 0.  1.
         25    2    1    2    0    0  0.52710249151E+02  0.70270201463E+02  0.59484319629E+02  0.16401846395E+03  0.12508957053E+03 0.  0.
          5    1    3    3  502    0  0.13677236451E+02 -0.11091989806E+02 -0.31166295027E+02  0.36040385410E+02  0.41800000000E+01 0.  1.
         -5    1    3    3    0  502  0.39033012699E+02  0.81362191268E+02  0.90650614656E+02  0.12797807854E+03  0.41800000000E+01 0.  1.
        -11    1    1    2    0    0 -0.79265531226E+02 -0.57456337759E+02 -0.64170148026E+00  0.97901312402E+02  0.00000000000E+00 0. -1.
         11    1    1    2    0    0  0.26555282075E+02 -0.12813863704E+02 -0.10950917080E+01  0.29505547529E+02  0.00000000000E+00 0.  1.
</event>
<event>
 7    1  0.2612213E-009  0.1270885E+03  0.7561462E-02  0.1231841E+00
          2   -1    0    0  501    0  0.00000000000E+00  0.00000000000E+00  0.75652749460E+03  0.75652749460E+03  0.00000000000E+00 0. -1.
         -2   -1    0    0    0  501 -0.00000000000E+00 -0.00000000000E+00 -0.24659575186E+02  0.24659575186E+02  0.00000000000E+00 0.  1.
         25    2    1    2    0    0 -0.66160309629E+02 -0.19212944266E+02  0.52923339127E+03  0.54816191472E+03  0.12508868259E+03 0.  0.
          5    1    3    3  502    0  0.37092344682E+02 -0.38793166034E+01  0.11554641250E+03  0.12148801164E+03  0.41800000000E+01 0. -1.
         -5    1    3    3    0  502 -0.10325265431E+03 -0.15333627663E+02  0.41368697877E+03  0.42667390308E+03  0.41800000000E+01 0. -1.
        -11    1    1    2    0    0  0.87750694844E+02  0.21847853057E+02  0.18107613008E+03  0.20240078561E+03  0.00000000000E+00 0. -1.
         11    1    1    2    0    0 -0.21590385215E+02 -0.26349087905E+01  0.21558398061E+02  0.30624369464E+02  0.00000000000E+00 0.  1.
</event>
<event>
 7    1  0.2612213E-009  0.1139813E+03  0.7561462E-02  0.1253370E+00
         -1   -1    0    0    0  501 -0.00000000000E+00  0.00000000000E+00  0.11294250567E+03  0.11294250567E+03  0.00000000000E+00 0.  1.
          1   -1    0    0  501    0  0.00000000000E+00 -0.00000000000E+00 -0.13375384281E+03  0.13375384281E+03  0.00000000000E+00 0. -1.
         25    2    1    2    0    0  0.40610806818E+02 -0.36530495041E+02 -0.54649737495E+01  0.13660733335E+03  0.12509189777E+03 0.  0.
          5    1    3    3  502    0  0.30776823212E+02 -0.80745915226E+02 -0.20109317412E+02  0.88819889211E+02  0.41800000000E+01 0.  1.
         -5    1    3    3    0  502  0.98339836060E+01  0.44215420185E+02  0.14644343663E+02  0.47787444135E+02  0.41800000000E+01 0.  1.
        -11    1    1    2    0    0 -0.61413123488E+02  0.99595653894E+01  0.15774521403E+02  0.64184111778E+02  0.00000000000E+00 0.  1.
         11    1    1    2    0    0  0.20802316670E+02  0.26570929652E+02 -0.31120884800E+02  0.45904903356E+02  0.00000000000E+00 0. -1.
</event>
<event>
 7    1  0.2612213E-009  0.1494238E+03  0.7561462E-02  0.1201183E+00
          2   -1    0    0  501    0  0.00000000000E+00  0.00000000000E+00  0.14146061510E+04  0.14146061510E+04  0.00000000000E+00 0.  1.
         -2   -1    0    0    0  501 -0.00000000000E+00 -0.00000000000E+00 -0.24447199218E+02  0.24447199218E+02  0.00000000000E+00 0. -1.
         25    2    1    2    0    0 -0.68088967211E+02 -0.95964607564E+02  0.10949831799E+04  0.11083682325E+04  0.12508661447E+03 0.  0.
          5    1    3    3  502    0  0.36371319226E+02 -0.23971255931E+02  0.33713138012E+03  0.33995960618E+03  0.41800000000E+01 0.  1.
         -5    1    3    3    0  502 -0.10446028644E+03 -0.71993351632E+02  0.75785179982E+03  0.76840862633E+03  0.41800000000E+01 0.  1.
        -11    1    1    2    0    0  0.37884809998E+02  0.13314700069E+02  0.18687963766E+03  0.19114533486E+03  0.00000000000E+00 0.  1.
         11    1    1    2    0    0  0.30204157213E+02  0.82649907494E+02  0.10829613421E+03  0.13953978288E+03  0.00000000000E+00 0. -1.
</event>
<event>
 7    1  0.2612213E-009  0.1123331E+03  0.7561462E-02  0.1256309E+00
          1   -1    0    0  501    0  0.00000000000E+00  0.00000000000E+00  0.25278015700E+03  0.25278015700E+03  0.00000000000E+00 0. -1.
         -1   -1    0    0    0  501 -0.00000000000E+00 -0.00000000000E+00 -0.85851909309E+02  0.85851909309E+02  0.00000000000E+00 0.  1.
         25    2    1    2    0    0  0.46089138768E+02  0.43816654632E+02  0.17468618853E+03  0.22406542053E+03  0.12508373306E+03 0.  0.
          5    1    3    3  502    0 -0.34487684832E+02  0.34369945281E+01  0.10050739542E+02  0.36327718092E+02  0.41800000000E+01 0. -1.
         -5    1    3    3    0  502  0.80576823600E+02  0.40379660104E+02  0.16463544899E+03  0.18773770244E+03  0.41800000000E+01 0. -1.
        -11    1    1    2    0    0 -0.49393383132E+02  0.58643869977E+01  0.24289175837E+02  0.55353964582E+02  0.00000000000E+00 0. -1.
         11    1    1    2    0    0  0.33042443641E+01 -0.49681041629E+02 -0.32047116674E+02  0.59212681203E+02  0.00000000000E+00 0.  1.
</event>
<event>
 7    1  0.2612213E-009  0.1690977E+03  0.7561462E-02  0.1178792E+00
          3   -1    0    0  501    0  0.00000000000E+00  0.00000000000E+00  0.72360550009E+03  0.72360550009E+03  0.00000000000E+00 0. -1.
         -3   -1    0    0    0  501 -0.00000000000E+00 -0.00000000000E+00 -0.53856110919E+02  0.53856110919E+02  0.00000000000E+00 0.  1.
         25    2    1    2    0    0  0.14176342327E+03 -0.61877973867E+02  0.46063623376E+03  0.50175663377E+03  0.12509287689E+03 0.  0.
          5    1    3    3  502    0 -0.36231427319E+01 -0.26149552030E+02  0.19486979563E+03  0.19669427008E+03  0.41800000000E+01 0.  1.
         -5    1    3    3    0  502  0.14538656600E+03 -0.35728421837E+02  0.26576643813E+03  0.30506236368E+03  0.41800000000E+01 0.  1.
        -11    1    1    2    0    0 -0.11154340804E+03  0.68311876265E+02  0.20683650466E+03  0.24472389335E+03  0.00000000000E+00 0. -1.
         11    1    1    2    0    0 -0.30220015229E+02 -0.64339023975E+01  0.22766507483E+01  0.30981083892E+02  0.00000000000E+00 0.  1.
</event>
<event>
 7    1  0.2612213E-009  0.2458100E+03  0.7561462E-02  0.1115982E+00
          1   -1    0    0  501    0  0.00000000000E+00  0.00000000000E+00  0.17535903301E+04  0.17535903301E+04  0.00000000000E+00 0. -1.
         -1   -1    0    0    0  501 -0.00000000000E+00 -0.00000000000E+00 -0.35236878348E+02  0.35236878348E+02  0.00000000000E+00 0.  1.
         25    2    1    2    0    0  0.88035610612E+02  0.20518902781E+03  0.90999658435E+03  0.94530137022E+03  0.12509233049E+03 0.  0.
          5    1    3    3  502    0  0.55261997801E+02  0.82142826902E+01  0.18504897364E+03  0.19334414366E+03  0.41800000000E+01 0.  1.
         -5    1    3    3    0  502  0.32773612811E+02  0.19697474512E+03  0.72494761070E+03  0.75195722656E+03  0.41800000000E+01 0.  1.
        -11    1    1    2    0    0 -0.23618801258E+02 -0.14755148654E+03  0.42375390671E+03  0.44932912482E+03  0.00000000000E+00 0.  1.
         11    1    1    2    0    0 -0.64416809354E+02 -0.57637541267E+02  0.38460296066E+03  0.39419671338E+03  0.00000000000E+00 0. -1.
</event>
<event>
 7    1  0.2612213E-009  0.5995414E+02  0.7561462E-02  0.1398024E+00
          1   -1    0    0  501    0  0.00000000000E+00  0.00000000000E+00  0.20393789468E+03  0.20393789468E+03  0.00000000000E+00 0. -1.
         -1   -1    0    0    0  501 -0.00000000000E+00 -0.00000000000E+00 -0.60930278449E+02  0.60930278449E+02  0.00000000000E+00 0.  1.
         25    2    1    2    0    0 -0.11484777841E+02  0.19689873790E+01  0.57033173176E+02  0.13796966218E+03  0.12508824008E+03 0.  0.
          5    1    3    3  502    0  0.16005457260E+02 -0.13298281196E+02  0.89852653035E+02  0.92325460206E+02  0.41800000000E+01 0.  1.
         -5    1    3    3    0  502 -0.27490235101E+02  0.15267268575E+02 -0.32819479859E+02  0.45644201974E+02  0.41800000000E+01 0.  1.
        -11    1    1    2    0    0  0.36118075210E+02 -0.14982355867E+02  0.90581246241E+02  0.98660774955E+02  0.00000000000E+00 0. -1.
         11    1    1    2    0    0 -0.24633297368E+02  0.13013368488E+02 -0.46068031833E+01  0.28237735996E+02  0.00000000000E+00 0.  1.
</event>
<event>
 7    1  0.2612213E-009  0.9401352E+02  0.7561462E-02  0.1293413E+00
          1   -1    0    0  501    0  0.00000000000E+00  0.00000000000E+00  0.19414154886E+03  0.19414154886E+03  0.00000000000E+00 0. -1.
         -1   -1    0    0    0  501 -0.00000000000E+00 -0.00000000000E+00 -0.13956980646E+03  0.13956980646E+03  0.00000000000E+00 0.  1.
         25    2    1    2    0    0  0.17806273611E+02 -0.72385363305E+02  0.12797549387E+03  0.19386107891E+03  0.12509071382E+03 0.  0.
          5    1    3    3  502    0 -0.74809986385E+01 -0.60206626171E+02 -0.19778683869E+01  0.60845604104E+02  0.41800000000E+01 0.  1.
         -5    1    3    3    0  502  0.25287272249E+02 -0.12178737134E+02  0.12995336226E+03  0.13301547481E+03  0.41800000000E+01 0.  1.
        -11    1    1    2    0    0  0.23758096804E+02  0.15434173982E+02  0.10537465880E+02  0.30227455689E+02  0.00000000000E+00 0. -1.
         11    1    1    2    0    0 -0.41564370414E+02  0.56951189323E+02 -0.83941217343E+02  0.10962282072E+03  0.00000000000E+00 0.  1.
</event>
<event>
 7    1  0.2612213E-009  0.1650303E+03  0.7561462E-02  0.1183132E+00
          1   -1    0    0  501    0  0.00000000000E+00  0.00000000000E+00  0.15813960097E+04  0.15813960097E+04  0.00000000000E+00 0. -1.
         -1   -1    0    0    0  501 -0.00000000000E+00 -0.00000000000E+00 -0.20378776247E+02  0.20378776247E+02  0.00000000000E+00 0.  1.
         25    2    1    2    0    0 -0.85582482681E+02  0.10001639431E+03  0.72153454041E+03  0.74403291831E+03  0.12508097395E+03 0.  0.
          5    1    3    3  502    0  0.72929251489E+01 -0.13453173840E+02  0.13108494386E+02  0.20578621642E+02  0.41800000000E+01 0. -1.
         -5    1    3    3    0  502 -0.92875407830E+02  0.11346956815E+03  0.70842604603E+03  0.72345429667E+03  0.41800000000E+01 0. -1.
        -11    1    1    2    0    0 -0.12241419190E+02  0.13117884626E+02  0.33524984347E+02  0.38024410795E+02  0.00000000000E+00 0.  1.
         11    1    1    2    0    0  0.97823901872E+02 -0.11313427894E+03  0.80595770864E+03  0.81971745679E+03  0.00000000000E+00 0. -1.
</event>
<event>
 7    1  0.3170265E-009  0.1002001E+03  0.7561462E-02  0.1279876E+00
          2   -1    0    0  501    0  0.00000000000E+00  0.00000000000E+00  0.70906366626E+03  0.70906366626E+03  0.00000000000E+00 0. -1.
         -2   -1    0    0    0  501 -0.00000000000E+00 -0.00000000000E+00 -0.28425680975E+02  0.28425680975E+02  0.00000000000E+00 0.  1.
         25    2    1    2    0    0 -0.66869906085E+02 -0.42833264625E+02  0.25342637670E+03  0.29356217180E+03  0.12509015712E+03 0.  0.
          5    1    3    3  502    0 -0.49018921019E+02 -0.24644073546E+02  0.19747377407E+02  0.58460382253E+02  0.41800000000E+01 0. -1.
         -5    1    3    3    0  502 -0.17850985066E+02 -0.18189191079E+02  0.23367899929E+03  0.23510178955E+03  0.41800000000E+01 0. -1.
        -11    1    1    2    0    0  0.42879461436E+02  0.70757188115E+02  0.26622181709E+03  0.27878178524E+03  0.00000000000E+00 0. -1.
         11    1    1    2    0    0  0.23990444649E+02 -0.27923923490E+02  0.16098979150E+03  0.16514539020E+03  0.00000000000E+00 0.  1.
</event>
<event>
 7    1  0.2612213E-009  0.1493718E+03  0.7561462E-02  0.1201247E+00
          1   -1    0    0  501    0  0.00000000000E+00  0.00000000000E+00  0.10435461125E+03  0.10435461125E+03  0.00000000000E+00 0. -1.
         -1   -1    0    0    0  501 -0.00000000000E+00 -0.00000000000E+00 -0.25792442497E+03  0.25792442497E+03  0.00000000000E+00 0.  1.
         25    2    1    2    0    0  0.77393053094E+02 -0.94217713151E+02 -0.99287983038E+02  0.20093511563E+03  0.12510057945E+03 0.  0.
          5    1    3    3  502    0 -0.93135520895E+01 -0.76573014891E+02 -0.15067768953E+02  0.78706282616E+02  0.41800000000E+01 0. -1.
         -5    1    3    3    0  502  0.86706605184E+02 -0.17644698261E+02 -0.84220214085E+02  0.12222883301E+03  0.41800000000E+01 0. -1.
        -11    1    1    2    0    0 -0.85517428047E+02  0.84192013761E+02 -0.71602885348E+02  0.13974440551E+03  0.00000000000E+00 0.  1.
         11    1    1    2    0    0  0.81243749524E+01  0.10025699391E+02  0.17321054674E+02  0.21599515079E+02  0.00000000000E+00 0. -1.
</event>
<event>
 7    1  0.2612213E-009  0.1313579E+03  0.7561462E-02  0.1225455E+00
          4   -1    0    0  501    0  0.00000000000E+00  0.00000000000E+00  0.20900282683E+03  0.20900282683E+03  0.00000000000E+00 0. -1.
         -4   -1    0    0    0  501 -0.00000000000E+00 -0.00000000000E+00 -0.10092836881E+03  0.10092836881E+03  0.00000000000E+00 0.  1.
         25    2    1    2    0    0 -0.72230580648E+02  0.65641764247E+02  0.44922014465E+02  0.16490053317E+03  0.12509236772E+03 0.  0.
          5    1    3    3  502    0 -0.24634754539E+02 -0.21377674043E+02 -0.26806152002E+02  0.42425443590E+02  0.41800000000E+01 0. -1.
         -5    1    3    3    0  502 -0.47595826109E+02  0.87019438290E+02  0.71728166467E+02  0.12247508958E+03  0.41800000000E+01 0. -1.
        -11    1    1    2    0    0 -0.11828694062E+02 -0.41424538198E+02  0.21037598917E+02  0.47942579575E+02  0.00000000000E+00 0. -1.
         11    1    1    2    0    0  0.84059274710E+02 -0.24217226049E+02  0.42114844635E+02  0.97088082898E+02  0.00000000000E+00 0.  1.
</event>
<event>
 7    1  0.2612213E-009  0.1296189E+03  0.7561462E-02  0.1228022E+00
         -2   -1    0    0    0  501 -0.00000000000E+00  0.00000000000E+00  0.18180590033E+02  0.18180590033E+02  0.00000000000E+00 0.  1.
          2   -1    0    0  501    0  0.00000000000E+00 -0.00000000000E+00 -0.10512279857E+04  0.10512279857E+04  0.00000000000E+00 0. -1.
         25    2    1    2    0    0  0.66650327815E+02 -0.51458020099E+02 -0.55774987620E+03  0.57777403479E+03  0.12509083438E+03 0.  0.
          5    1    3    3  502    0  0.39689946949E+02 -0.92922758199E+02 -0.36914482747E+03  0.38274705346E+03  0.41800000000E+01 0. -1.
         -5    1    3    3    0  502  0.26960380865E+02  0.41464738100E+02 -0.18860504873E+03  0.19502698133E+03  0.41800000000E+01 0. -1.
        -11    1    1    2    0    0 -0.67099397376E+02  0.10980459872E+02 -0.40370236091E+03  0.40938795272E+03  0.00000000000E+00 0. -1.
         11    1    1    2    0    0  0.44906956186E+00  0.40477560227E+02 -0.71595158534E+02  0.82246588202E+02  0.00000000000E+00 0.  1.
</event>
<event>
 7    1  0.2612213E-009  0.1134425E+03  0.7561462E-02  0.1254325E+00
         -1   -1    0    0    0  501 -0.00000000000E+00  0.00000000000E+00  0.26316920753E+03  0.26316920753E+03  0.00000000000E+00 0.  1.
          1   -1    0    0  501    0  0.00000000000E+00 -0.00000000000E+00 -0.70759978796E+02  0.70759978796E+02  0.00000000000E+00 0. -1.
         25    2    1    2    0    0  0.42173504469E+02  0.69130730797E+02  0.12210169832E+03  0.19264854687E+03  0.12508787095E+03 0.  0.
          5    1    3    3  502    0 -0.12298802344E+02 -0.14254692574E+02 -0.14080192934E+02  0.23878463781E+02  0.41800000000E+01 0. -1.
         -5    1    3    3    0  502  0.54472306813E+02  0.83385423370E+02  0.13618189126E+03  0.16877008309E+03  0.41800000000E+01 0. -1.
        -11    1    1    2    0    0  0.22029538226E+01  0.13735150944E+02  0.40259067360E+02  0.42594599208E+02  0.00000000000E+00 0.  1.
         11    1    1    2    0    0 -0.44376458291E+02 -0.82865881741E+02  0.30048463046E+02  0.98686040242E+02  0.00000000000E+00 0. -1.
</event>
<event>
 7    1  0.2612213E-009  0.1226770E+03  0.7561462E-02  0.1238745E+00
         -1   -1    0    0    0  501 -0.00000000000E+00  0.00000000000E+00  0.61846606337E+02  0.61846606337E+02  0.00000000000E+00 0.  1.
          1   -1    0    0  501    0  0.00000000000E+00 -0.00000000000E+00 -0.27483017997E+03  0.27483017997E+03  0.00000000000E+00 0. -1.
         25    2    1    2    0    0  0.73987767215E+02  0.87587945379E+01 -0.11862570305E+03  0.18781000439E+03  0.12509849778E+03 0.  0.
          5    1    3    3  502    0  0.87819371006E+02 -0.26867318986E+02 -0.39937894001E+02  0.10023274181E+03  0.41800000000E+01 0. -1.
         -5    1    3    3    0  502 -0.13831603791E+02  0.35626113524E+02 -0.78687809047E+02  0.87577262579E+02  0.41800000000E+01 0. -1.
        -11    1    1    2    0    0  0.18402884582E+02  0.96355204456E+01 -0.14054736823E+02  0.25080770370E+02  0.00000000000E+00 0.  1.
         11    1    1    2    0    0 -0.92390651797E+02 -0.18394314983E+02 -0.80303133763E+02  0.12378601155E+03  0.00000000000E+00 0. -1.
</event>
<event>
 7    1  0.2612213E-009  0.1190956E+03  0.7561462E-02  0.1244596E+00
          1   -1    0    0  501    0  0.00000000000E+00  0.00000000000E+00  0.18792502284E+03  0.18792502284E+03  0.00000000000E+00 0. -1.
         -1   -1    0    0    0  501 -0.00000000000E+00 -0.00000000000E+00 -0.13423056408E+03  0.13423056408E+03  0.00000000000E+00 0.  1.
         25    2    1    2    0    0  0.76161424366E+02 -0.11240092359E+02  0.11615104287E+03  0.18725913772E+03  0.12509203677E+03 0.  0.
          5    1    3    3  502    0  0.17768137465E+02  0.38660545939E+02 -0.57278168130E+01  0.43134960377E+02  0.41800000000E+01 0. -1.
         -5    1    3    3    0  502  0.58393286900E+02 -0.49900638298E+02  0.12187885969E+03  0.14412417735E+03  0.41800000000E+01 0. -1.
        -11    1    1    2    0    0  0.15141854841E+02 -0.17170025303E+02 -0.53121383030E+01  0.23501156361E+02  0.00000000000E+00 0. -1.
         11    1    1    2    0    0 -0.91303279207E+02  0.28410117662E+02 -0.57144445804E+02  0.11139529284E+03  0.00000000000E+00 0.  1.
</event>
<event>
 7    1  0.2612213E-009  0.1098026E+03  0.7561462E-02  0.1260936E+00
          2   -1    0    0  501    0  0.00000000000E+00  0.00000000000E+00  0.41723641594E+03  0.41723641594E+03  0.00000000000E+00 0. -1.
         -2   -1    0    0    0  501 -0.00000000000E+00 -0.00000000000E+00 -0.41492163576E+02  0.41492163576E+02  0.00000000000E+00 0.  1.
         25    2    1    2    0    0  0.48152340233E+02  0.62189876246E+02  0.23110151431E+03  0.27430268018E+03  0.12509125412E+03 0.  0.
          5    1    3    3  502    0 -0.19822487131E+02 -0.22036331405E+02  0.17156151501E+02  0.34501258415E+02  0.41800000000E+01 0.  1.
         -5    1    3    3    0  502  0.67974827364E+02  0.84226207651E+02  0.21394536281E+03  0.23980142176E+03  0.41800000000E+01 0.  1.
        -11    1    1    2    0    0 -0.33510154362E+02 -0.56415563433E+02  0.15309205158E+03  0.16656176783E+03  0.00000000000E+00 0. -1.
         11    1    1    2    0    0 -0.14642185871E+02 -0.57743128130E+01 -0.84493135333E+01  0.17864131513E+02  0.00000000000E+00 0.  1.
</event>
<event>
 7    1  0.2612213E-009  0.1031054E+03  0.7561462E-02  0.1273898E+00
          3   -1    0    0  501    0  0.00000000000E+00  0.00000000000E+00  0.18551893700E+03  0.18551893700E+03  0.00000000000E+00 0. -1.
         -3   -1    0    0    0  501 -0.00000000000E+00 -0.00000000000E+00 -0.78176732618E+02  0.78176732618E+02  0.00000000000E+00 0.  1.
         25    2    1    2    0    0 -0.21621530311E+02  0.24693028774E+02  0.17150977097E+02  0.13046436164E+03  0.12509819103E+03 0.  0.
          5    1    3    3  502    0 -0.16996780544E+02  0.65042120431E+02 -0.24940028581E+02  0.71825102886E+02  0.41800000000E+01 0.  1.
         -5    1    3    3    0  502 -0.46247497672E+01 -0.40349091657E+02  0.42091005678E+02  0.58639258752E+02  0.41800000000E+01 0.  1.
        -11    1    1    2    0    0  0.56838171775E+02 -0.26608506673E+02  0.59439803999E+02  0.86438884176E+02  0.00000000000E+00 0.  1.
         11    1    1    2    0    0 -0.35216641464E+02  0.19154778987E+01  0.30751423290E+02  0.46792423809E+02  0.00000000000E+00 0. -1.
</event>
<event>
 7    1  0.2612213E-009  0.8185111E+02  0.7561462E-02  0.1323879E+00
          2   -1    0    0  501    0  0.00000000000E+00  0.00000000000E+00  0.15797859784E+03  0.15797859784E+03  0.00000000000E+00 0. -1.
         -2   -1    0    0    0  501 -0.00000000000E+00 -0.00000000000E+00 -0.16166735267E+03  0.16166735267E+03  0.00000000000E+00 0.  1.
         25    2    1    2    0    0  0.91084931594E+01 -0.11652327281E+02  0.11393502380E+03  0.16984854621E+03  0.12509435489E+03 0.  0.
          5    1    3    3  502    0 -0.75435020666E+01 -0.42128788457E+02 -0.73446682523E+01  0.43625173834E+02  0.41800000000E+01 0.  1.
         -5    1    3    3    0  502  0.16651995226E+02  0.30476461176E+02  0.12127969205E+03  0.12622337238E+03  0.41800000000E+01 0.  1.
        -11    1    1    2    0    0  0.81480437741E+01 -0.35022271893E+02 -0.79020855851E+02  0.86817312821E+02  0.00000000000E+00 0.  1.
         11    1    1    2    0    0 -0.17256536934E+02  0.46674599175E+02 -0.38602922781E+02  0.62980091476E+02  0.00000000000E+00 0. -1.
</event>
<event>
 7    1  0.2612213E-009  0.9581062E+02  0.7561462E-02  0.1289361E+00
         -3   -1    0    0    0  501 -0.00000000000E+00  0.00000000000E+00  0.11300977291E+03  0.11300977291E+03  0.00000000000E+00 0.  1.
          3   -1    0    0  501    0  0.00000000000E+00 -0.00000000000E+00 -0.85925478740E+02  0.85925478740E+02  0.00000000000E+00 0. -1.
         25    2    1    2    0    0 -0.22100196991E+02  0.40414577831E+02  0.55606562228E+01  0.13341738620E+03  0.12509005250E+03 0.  0.
          5    1    3    3  502    0 -0.20176505068E+02  0.85506403640E+02  0.48030278904E+01  0.88085060579E+02  0.41800000000E+01 0. -1.
         -5    1    3    3    0  502 -0.19236919226E+01 -0.45091825809E+02  0.75762833234E+00  0.45332325620E+02  0.41800000000E+01 0. -1.
        -11    1    1    2    0    0  0.16705922300E+02  0.84811994055E+00  0.16680806488E+02  0.23623218502E+02  0.00000000000E+00 0.  1.
         11    1    1    2    0    0  0.53942746911E+01 -0.41262697772E+02  0.48428314638E+01  0.41894646955E+02  0.00000000000E+00 0. -1.
</event>
<event>
 7    1  0.2612213E-009  0.2082345E+03  0.7561462E-02  0.1142972E+00
         -1   -1    0    0    0  501 -0.00000000000E+00  0.00000000000E+00  0.41810058807E+03  0.41810058807E+03  0.00000000000E+00 0.  1.
          1   -1    0    0  501    0  0.00000000000E+00 -0.00000000000E+00 -0.12435112749E+03  0.12435112749E+03  0.00000000000E+00 0. -1.
         25    2    1    2    0    0  0.10250429277E+03 -0.15956674965E+03  0.74879471727E+02  0.23921582537E+03  0.12509435714E+03 0.  0.
          5    1    3    3  502    0 -0.21692626858E+02 -0.39691683495E+02  0.45085757497E+02  0.64001544729E+02  0.41800000000E+01 0.  1.
         -5    1    3    3    0  502  0.12419691963E+03 -0.11987506615E+03  0.29793714230E+02  0.17521428064E+03  0.41800000000E+01 0.  1.
        -11    1    1    2    0    0 -0.10983581257E+03  0.14341061066E+03  0.15851726125E+03  0.24032942201E+03  0.00000000000E+00 0. -1.
         11    1    1    2    0    0  0.73315197916E+01  0.16156138990E+02  0.60352727602E+02  0.62906468178E+02  0.00000000000E+00 0.  1.
</event>
<event>
 6    1  0.2612213E-009  0.1195609E+03  0.7561462E-02  0.1243823E+00
          2   -1    0    0  501    0  0.00000000000E+00  0.00000000000E+00  0.73879301355E+03  0.73879301355E+03  0.00000000000E+00 0. -1.
         -2   -1    0    0    0  501 -0.00000000000E+00 -0.00000000000E+00 -0.23249870440E+02  0.23249870440E+02  0.00000000000E+00 0.  1.
          5    1    1    2  502    0 -0.47181295287E+02 -0.43669821598E+02  0.90839672221E+02  0.11136627134E+03  0.41800000000E+01 0.  1.
         -5    1    1    2    0  502  0.56204762528E+02 -0.25799842872E+02  0.28003853162E+03  0.28681642006E+03  0.41800000000E+01 0.  1.
        -11    1    1    2    0    0 -0.40048975184E+02  0.39815539508E+01  0.81430341533E+02  0.90833219184E+02  0.00000000000E+00 0.  1.
         11    1    1    2    0    0  0.31025507942E+02  0.65488110519E+02  0.26323459773E+03  0.27302697340E+03  0.00000000000E+00 0. -1.
</event>
<event>
 7    1  0.2612213E-009  0.1056175E+03  0.7561462E-02  0.1268908E+00
          2   -1    0    0  501    0  0.00000000000E+00  0.00000000000E+00  0.25906458781E+03  0.25906458781E+03  0.00000000000E+00 0. -1.
         -2   -1    0    0    0  501 -0.00000000000E+00 -0.00000000000E+00 -0.69988784885E+02  0.69988784885E+02  0.00000000000E+00 0.  1.
         25    2    1    2    0    0 -0.33299579882E+02 -0.49424076556E+02  0.16804893011E+03  0.21780501894E+03  0.12508789710E+03 0.  0.
          5    1    3    3  502    0 -0.74533278215E+02 -0.56394677236E+02  0.93769908761E+02  0.13246070123E+03  0.41800000000E+01 0.  1.
         -5    1    3    3    0  502  0.41233698333E+02  0.69706006792E+01  0.74279021350E+02  0.85344317706E+02  0.41800000000E+01 0.  1.
        -11    1    1    2    0    0  0.45283635428E+02  0.39506070318E+02 -0.23160328965E+02  0.64402935239E+02  0.00000000000E+00 0.  1.
         11    1    1    2    0    0 -0.11984055546E+02  0.99180062384E+01  0.44187201784E+02  0.46845418523E+02  0.00000000000E+00 0. -1.
</event>
<event>
 7    1  0.2612213E-009  0.1479868E+03  0.7561462E-02  0.1202969E+00
          2   -1    0    0  501    0  0.00000000000E+00  0.00000000000E+00  0.69662381094E+03  0.69662381094E+03  0.00000000000E+00 0. -1.
         -2   -1    0    0    0  501 -0.00000000000E+00 -0.00000000000E+00 -0.32697485322E+02  0.32697485322E+02  0.00000000000E+00 0.  1.
         25    2    1    2    0    0  0.35784143738E+02  0.95600164039E+02  0.31297735204E+03  0.35216769871E+03  0.12508944327E+03 0.  0.
          5    1    3    3  502    0  0.29427168958E+02  0.12465166258E+03  0.22162911105E+03  0.25600962974E+03  0.41800000000E+01 0.  1.
         -5    1    3    3    0  502  0.63569747800E+01 -0.29051498539E+02  0.91348240995E+02  0.96158068973E+02  0.41800000000E+01 0.  1.
        -11    1    1    2    0    0  0.27183373969E+02 -0.59007995747E+02  0.15244921819E+03  0.16571554999E+03  0.00000000000E+00 0.  1.
         11    1    1    2    0    0 -0.62967517707E+02 -0.36592168293E+02  0.19849975539E+03  0.21143804756E+03  0.00000000000E+00 0. -1.
</event>
<event>
 7    1  0.2612213E-009  0.1444909E+03  0.7561462E-02  0.1207411E+00
         -2   -1    0    0    0  501 -0.00000000000E+00  0.00000000000E+00  0.52940191590E+02  0.52940191590E+02  0.00000000000E+00 0.  1.
          2   -1    0    0  501    0  0.00000000000E+00 -0.00000000000E+00 -0.41101182039E+03  0.41101182039E+03  0.00000000000E+00 0. -1.
         25    2    1    2    0    0 -0.52199072074E+01  0.87318951395E+02 -0.15260446112E+03  0.21584043866E+03  0.12508847550E+03 0.  0.
          5    1    3    3  502    0 -0.28147733587E+02  0.11375632976E+03 -0.12109451197E+03  0.16856497470E+03  0.41800000000E+01 0.  1.
         -5    1    3    3    0  502  0.22927826379E+02 -0.26437378363E+02 -0.31509949151E+02  0.47275463960E+02  0.41800000000E+01 0.  1.
        -11    1    1    2    0    0 -0.49750273523E+02 -0.45334098584E+02 -0.12525988622E+03  0.14219813398E+03  0.00000000000E+00 0. -1.
         11    1    1    2    0    0  0.54970180731E+02 -0.41984852811E+02 -0.80207281456E+02  0.10591343934E+03  0.00000000000E+00 0.  1.
</event>
<event>
 7    1  0.2612213E-009  0.1007901E+03  0.7561462E-02  0.1278643E+00
          1   -1    0    0  501    0  0.00000000000E+00  0.00000000000E+00  0.51501446913E+02  0.51501446913E+02  0.00000000000E+00 0. -1.
         -1   -1    0    0    0  501 -0.00000000000E+00 -0.00000000000E+00 -0.28674801040E+03  0.28674801040E+03  0.00000000000E+00 0.  1.
         25    2    1    2    0    0 -0.52054257494E+02  0.31871137310E+02 -0.16287539419E+03  0.21424545470E+03  0.12508919101E+03 0.  0.
          5    1    3    3  502    0 -0.88009220785E+01  0.71085410308E+02 -0.12620359092E+03  0.14517372541E+03  0.41800000000E+01 0.  1.
         -5    1    3    3    0  502 -0.43253335415E+02 -0.39214272998E+02 -0.36671803274E+02  0.69071729287E+02  0.41800000000E+01 0.  1.
        -11    1    1    2    0    0  0.32407538659E+02 -0.38718917398E+02 -0.85576186150E+02  0.99361394729E+02  0.00000000000E+00 0.  1.
         11    1    1    2    0    0  0.19646718834E+02  0.68477800883E+01  0.13205016860E+02  0.24642607885E+02  0.00000000000E+00 0. -1.
</event>
<event>
 7    1  0.2612213E-009  0.1205649E+03  0.7561462E-02  0.1242168E+00
          2   -1    0    0  501    0  0.00000000000E+00  0.00000000000E+00  0.10867666236E+04  0.10867666236E+04  0.00000000000E+00 0. -1.
         -2   -1    0    0    0  501 -0.00000000000E+00 -0.00000000000E+00 -0.14237528015E+02  0.14237528015E+02  0.00000000000E+00 0.  1.
         25    2    1    2    0    0  0.37931151040E+02  0.46170937195E+02  0.53959917671E+03  0.55712221360E+03  0.12508941491E+03 0.  0.
          5    1    3    3  502    0  0.66298391205E+02  0.69277272079E+02  0.30784482491E+03  0.32246042506E+03  0.41800000000E+01 0. -1.
         -5    1    3    3    0  502 -0.28367240165E+02 -0.23106334884E+02  0.23175435179E+03  0.23466178854E+03  0.41800000000E+01 0. -1.
        -11    1    1    2    0    0 -0.25849576823E+02 -0.73785462927E+02  0.40131570642E+03  0.40886035682E+03  0.00000000000E+00 0.  1.
         11    1    1    2    0    0 -0.12081574217E+02  0.27614525732E+02  0.13161421248E+03  0.13502158122E+03  0.00000000000E+00 0. -1.
</event>
<event>
 7    1  0.2612213E-009  0.2349357E+03  0.7561462E-02  0.1123213E+00
         -2   -1    0    0    0  501 -0.00000000000E+00  0.00000000000E+00  0.34486148858E+02  0.34486148858E+02  0.00000000000E+00 0.  1.
          2   -1    0    0  501    0  0.00000000000E+00 -0.00000000000E+00 -0.18679748555E+04  0.18679748555E+04  0.00000000000E+00 0. -1.
         25    2    1    2    0    0  0.22687104510E+03 -0.51534230180E+01 -0.10849962728E+04  0.11155101157E+04  0.12509547239E+03 0.  0.
          5    1    3    3  502    0  0.79305898250E+02  0.38913501879E+02 -0.60409153382E+03  0.61053070337E+03  0.41800000000E+01 0.  1.
         -5    1    3    3    0  502  0.14756514685E+03 -0.44066924897E+02 -0.48090473903E+03  0.50497941231E+03  0.41800000000E+01 0.  1.
        -11    1    1    2    0    0 -0.11940820123E+03  0.97997307340E+01 -0.53055813741E+03  0.54391754009E+03  0.00000000000E+00 0. -1.
         11    1    1    2    0    0 -0.10746284387E+03 -0.46463077160E+01 -0.21793429638E+03  0.24303334859E+03  0.00000000000E+00 0.  1.
</event>
<event>
 7    1  0.2612213E-009  0.1267967E+03  0.7561462E-02  0.1232288E+00
          1   -1    0    0  501    0  0.00000000000E+00  0.00000000000E+00  0.11038949170E+04  0.11038949170E+04  0.00000000000E+00 0. -1.
         -1   -1    0    0    0  501 -0.00000000000E+00 -0.00000000000E+00 -0.18892923966E+02  0.18892923966E+02  0.00000000000E+00 0.  1.
         25    2    1    2    0    0  0.30692264845E+02  0.13705788549E+02  0.65342991833E+03  0.66614453004E+03  0.12509201802E+03 0.  0.
          5    1    3    3  502    0  0.52396806659E+02 -0.29113401321E+02  0.53384410414E+03  0.53721505509E+03  0.41800000000E+01 0. -1.
         -5    1    3    3    0  502 -0.21704541815E+02  0.42819189870E+02  0.11958581418E+03  0.12892947495E+03  0.41800000000E+01 0. -1.
        -11    1    1    2    0    0 -0.37118993191E+02 -0.75002914928E+02  0.19549690216E+03  0.21265534476E+03  0.00000000000E+00 0.  1.
         11    1    1    2    0    0  0.64267283460E+01  0.61297126379E+02  0.23607517255E+03  0.24398796617E+03  0.00000000000E+00 0. -1.
</event>
<event>
 7    1  0.2612213E-009  0.9202646E+02  0.7561462E-02  0.1298017E+00
          1   -1    0    0  501    0  0.00000000000E+00  0.00000000000E+00  0.52578141352E+02  0.52578141352E+02  0.00000000000E+00 0. -1.
         -1   -1    0    0    0  501 -0.00000000000E+00 -0.00000000000E+00 -0.31414591544E+03  0.31414591544E+03  0.00000000000E+00 0.  1.
         25    2    1    2    0    0 -0.29903894184E+02 -0.55448681281E+02 -0.10381110147E+03  0.17432902326E+03  0.12508023193E+03 0.  0.
          5    1    3    3  502    0 -0.80860217677E+01 -0.52767567020E+02 -0.12957595297E+03  0.14020413640E+03  0.41800000000E+01 0. -1.
         -5    1    3    3    0  502 -0.21817872416E+02 -0.26811142610E+01  0.25764851495E+02  0.34124886857E+02  0.41800000000E+01 0. -1.
        -11    1    1    2    0    0  0.35592268425E+02 -0.14148183408E+02 -0.74194177059E+02  0.83497045306E+02  0.00000000000E+00 0.  1.
         11    1    1    2    0    0 -0.56883742412E+01  0.69596864688E+02 -0.83562495559E+02  0.10889798823E+03  0.00000000000E+00 0. -1.
</event>
<event>
 7    1  0.2612213E-009  0.8409313E+02  0.7561462E-02  0.1317821E+00
          1   -1    0    0  501    0  0.00000000000E+00  0.00000000000E+00  0.69572328637E+03  0.69572328637E+03  0.00000000000E+00 0. -1.
         -1   -1    0    0    0  501 -0.00000000000E+00 -0.00000000000E+00 -0.22898442706E+02  0.22898442706E+02  0.00000000000E+00 0.  1.
         25    2    1    2    0    0 -0.34653217434E+02  0.57064562700E+02  0.44101025312E+03  0.46324402390E+03  0.12509105696E+03 0.  0.
          5    1    3    3  502    0 -0.19934459999E+02 -0.31959784926E+01  0.29894411111E+01  0.20832813832E+02  0.41800000000E+01 0. -1.
         -5    1    3    3    0  502 -0.14718757434E+02  0.60260541193E+02  0.43802081201E+03  0.44241121007E+03  0.41800000000E+01 0. -1.
        -11    1    1    2    0    0  0.44605098953E+02 -0.23559809073E+02  0.52959420338E+02  0.73139453503E+02  0.00000000000E+00 0.  1.
         11    1    1    2    0    0 -0.99518815190E+01 -0.33504753627E+02  0.17885517020E+03  0.18223825166E+03  0.00000000000E+00 0. -1.
</event>
<event>
 7    1  0.2612213E-009  0.1080326E+03  0.7561462E-02  0.1264257E+00
         -2   -1    0    0    0  501 -0.00000000000E+00  0.00000000000E+00  0.33445448125E+02  0.33445448125E+02  0.00000000000E+00 0.  1.
          2   -1    0    0  501    0  0.00000000000E+00 -0.00000000000E+00 -0.57701265374E+03  0.57701265374E+03  0.00000000000E+00 0. -1.
         25    2    1    2    0    0  0.14213145178E+02 -0.80788569260E+02 -0.24641436862E+03  0.28826457837E+03  0.12509044593E+03 0.  0.
          5    1    3    3  502    0 -0.24439769222E+02 -0.73696870838E+02 -0.61397332075E+02  0.99073890995E+02  0.41800000000E+01 0.  1.
         -5    1    3    3    0  502  0.38652914400E+02 -0.70916984224E+01 -0.18501703654E+03  0.18919068738E+03  0.41800000000E+01 0.  1.
        -11    1    1    2    0    0 -0.20027621835E+02  0.23833295971E+01 -0.66455013736E+01  0.21235550025E+02  0.00000000000E+00 0.  1.
         11    1    1    2    0    0  0.58144766569E+01  0.78405239663E+02 -0.29050733562E+03  0.30095797347E+03  0.00000000000E+00 0. -1.
</event>
<event>
 7    1  0.2612213E-009  0.1478846E+03  0.7561462E-02  0.1203097E+00
          1   -1    0    0  501    0  0.00000000000E+00  0.00000000000E+00  0.65690794147E+03  0.65690794147E+03  0.00000000000E+00 0. -1.
         -1   -1    0    0    0  501 -0.00000000000E+00 -0.00000000000E+00 -0.43704514447E+02  0.43704514447E+02  0.00000000000E+00 0.  1.
         25    2    1    2    0    0  0.11849743629E+03  0.20054654347E+02  0.42960712992E+03  0.46330663720E+03  0.12508765896E+03 0.  0.
          5    1    3    3  502    0  0.50357009357E+02 -0.45031846476E+02  0.10217752360E+03  0.12256187955E+03  0.41800000000E+01 0.  1.
         -5    1    3    3    0  502  0.68140426934E+02  0.65086500823E+02  0.32742960632E+03  0.34074475765E+03  0.41800000000E+01 0.  1.
        -11    1    1    2    0    0 -0.47877404144E+02 -0.37737097884E+02  0.13938318591E+03  0.15213154472E+03  0.00000000000E+00 0. -1.
         11    1    1    2    0    0 -0.70620032147E+02  0.17682443537E+02  0.44213111189E+02  0.85174273997E+02  0.00000000000E+00 0.  1.
</event>
<event>
 7    1  0.2612213E-009  0.9529013E+02  0.7561462E-02  0.1290524E+00
          1   -1    0    0  501    0  0.00000000000E+00  0.00000000000E+00  0.38482225206E+03  0.38482225206E+03  0.00000000000E+00 0. -1.
         -1   -1    0    0    0  501 -0.00000000000E+00 -0.00000000000E+00 -0.37288203222E+02  0.37288203222E+02  0.00000000000E+00 0.  1.
         25    2    1    2    0    0  0.14949157595E+02 -0.16353358834E+02  0.28065736322E+03  0.30806891608E+03  0.12508793653E+03 0.  0.
          5    1    3    3  502    0  0.52807965620E+02  0.12541210316E+02  0.54933836801E+02  0.77337972658E+02  0.41800000000E+01 0.  1.
         -5    1    3    3    0  502 -0.37858808025E+02 -0.28894569150E+02  0.22572352642E+03  0.23073094342E+03  0.41800000000E+01 0.  1.
        -11    1    1    2    0    0  0.35889611995E+02  0.49148827443E+01  0.11509610023E+02  0.38009096864E+02  0.00000000000E+00 0.  1.
         11    1    1    2    0    0 -0.50838769590E+02  0.11438476090E+02  0.55367075592E+02  0.76032442340E+02  0.00000000000E+00 0. -1.
</event>
<event>
 7    1  0.2612213E-009  0.4009922E+03  0.7561462E-02  0.1043437E+00
          1   -1    0    0  501    0  0.00000000000E+00  0.00000000000E+00  0.15020711733E+04  0.15020711733E+04  0.00000000000E+00 0. -1.
         -1   -1    0    0    0  501 -0.00000000000E+00 -0.00000000000E+00 -0.11015091840E+03  0.11015091840E+03  0.00000000000E+00 0.  1.
         25    2    1    2    0    0  0.36250958195E+03  0.13705375071E+03  0.57392359067E+03  0.70372251472E+03  0.12506063409E+03 0.  0.
          5    1    3    3  502    0  0.28816132556E+03  0.50292608432E+02  0.39935039535E+03  0.49503990413E+03  0.41800000000E+01 0. -1.
         -5    1    3    3    0  502  0.74348256394E+02  0.86761142277E+02  0.17457319532E+03  0.20868261059E+03  0.41800000000E+01 0. -1.
        -11    1    1    2    0    0  0.59342472532E+00 -0.10589378667E+02  0.26853119969E+02  0.28871736102E+02  0.00000000000E+00 0.  1.
         11    1    1    2    0    0 -0.36310300668E+03 -0.12646437204E+03  0.79114354430E+03  0.87962784093E+03  0.00000000000E+00 0. -1.
</event>
<event>
 7    1  0.2612213E-009  0.7017642E+02  0.7561462E-02  0.1359494E+00
         -2   -1    0    0    0  501 -0.00000000000E+00  0.00000000000E+00  0.47884220466E+02  0.47884220466E+02  0.00000000000E+00 0.  1.
          2   -1    0    0  501    0  0.00000000000E+00 -0.00000000000E+00 -0.29372275721E+03  0.29372275721E+03  0.00000000000E+00 0. -1.
         25    2    1    2    0    0  0.11315412550E+02  0.11091620378E+02 -0.20215589344E+03  0.23825535338E+03  0.12509014972E+03 0.  0.
          5    1    3    3  502    0  0.51759730546E+02 -0.14752770499E+01 -0.28079538697E+02  0.59052341545E+02  0.41800000000E+01 0. -1.
         -5    1    3    3    0  502 -0.40444317996E+02  0.12566897428E+02 -0.17407635475E+03  0.17920301184E+03  0.41800000000E+01 0. -1.
        -11    1    1    2    0    0  0.14777610407E+02  0.45026108861E+01 -0.64620012210E+02  0.66440930548E+02  0.00000000000E+00 0. -1.
         11    1    1    2    0    0 -0.26093022956E+02 -0.15594231264E+02  0.20937368911E+02  0.36910693744E+02  0.00000000000E+00 0.  1.
</event>
<event>
 7    1  0.2612213E-009  0.9195032E+02  0.7561462E-02  0.1298196E+00
          2   -1    0    0  501    0  0.00000000000E+00  0.00000000000E+00  0.39501190165E+02  0.39501190165E+02  0.00000000000E+00 0. -1.
         -2   -1    0    0    0  501 -0.00000000000E+00 -0.00000000000E+00 -0.35048193261E+03  0.35048193261E+03  0.00000000000E+00 0.  1.
         25    2    1    2    0    0 -0.46365112941E+02 -0.22150188729E-01 -0.18890706452E+03  0.23126183936E+03  0.12508571113E+03 0.  0.
          5    1    3    3  502    0 -0.59231534169E+02 -0.26323020021E+02 -0.19087181330E+03  0.20162042936E+03  0.41800000000E+01 0.  1.
         -5    1    3    3    0  502  0.12866421228E+02  0.26300869833E+02  0.19647487723E+01  0.29641410002E+02  0.41800000000E+01 0.  1.
        -11    1    1    2    0    0  0.67854588353E+02 -0.94717563839E+00 -0.52211574184E+02  0.85622373134E+02  0.00000000000E+00 0. -1.
         11    1    1    2    0    0 -0.21489475412E+02  0.96932582712E+00 -0.69862103741E+02  0.73098910287E+02  0.00000000000E+00 0.  1.
</event>
<event>
 7    1  0.2772446E-009  0.2307675E+03  0.7561462E-02  0.1126101E+00
          2   -1    0    0  501    0  0.00000000000E+00  0.00000000000E+00  0.54953132652E+03  0.54953132652E+03  0.00000000000E+00 0. -1.
         -2   -1    0    0    0  501 -0.00000000000E+00 -0.00000000000E+00 -0.11034524355E+03  0.11034524355E+03  0.00000000000E+00 0.  1.
         25    2    1    2    0    0 -0.17001551077E+03  0.13992641992E+03  0.23809844965E+03  0.34759576254E+03  0.12508903035E+03 0.  0.
          5    1    3    3  502    0 -0.10346470823E+03  0.35458128142E+02  0.45424963564E+02  0.11850368946E+03  0.41800000000E+01 0. -1.
         -5    1    3    3    0  502 -0.66550802540E+02  0.10446829178E+03  0.19267348609E+03  0.22909207308E+03  0.41800000000E+01 0. -1.
        -11    1    1    2    0    0  0.53974947125E+02 -0.82719769564E+02  0.42269208013E+02  0.10743621894E+03  0.00000000000E+00 0. -1.
         11    1    1    2    0    0  0.11604056365E+03 -0.57206650357E+02  0.15881842531E+03  0.20484458859E+03  0.00000000000E+00 0.  1.
</event>
<event>
 7    1  0.2612213E-009  0.1032034E+03  0.7561462E-02  0.1273700E+00
         -2   -1    0    0    0  501 -0.00000000000E+00  0.00000000000E+00  0.13127757844E+03  0.13127757844E+03  0.00000000000E+00 0.  1.
          2   -1    0    0  501    0  0.00000000000E+00 -0.00000000000E+00 -0.91625347291E+02  0.91625347291E+02  0.00000000000E+00 0. -1.
         25    2    1    2    0    0 -0.11748818141E+02 -0.19814644881E+02  0.23118458366E+02  0.12927635957E+03  0.12508900490E+03 0.  0.
          5    1    3    3  502    0 -0.59116986274E+02 -0.37438050912E+02 -0.67463580580E+01  0.70423089036E+02  0.41800000000E+01 0.  1.
         -5    1    3    3    0  502  0.47368168133E+02  0.17623406031E+02  0.29864816424E+02  0.58853270534E+02  0.41800000000E+01 0.  1.
        -11    1    1    2    0    0  0.40738908640E+02 -0.12081514680E+02 -0.91303574949E+01  0.43462456236E+02  0.00000000000E+00 0.  1.
         11    1    1    2    0    0 -0.28990090498E+02  0.31896159560E+02  0.25664130277E+02  0.50164109926E+02  0.00000000000E+00 0. -1.
</event>
<event>
 7    1  0.2612213E-009  0.1488216E+03  0.7561462E-02  0.1201929E+00
          1   -1    0    0  501    0  0.00000000000E+00  0.00000000000E+00  0.67133391204E+02  0.67133391204E+02  0.00000000000E+00 0. -1.
         -1   -1    0    0    0  501 -0.00000000000E+00 -0.00000000000E+00 -0.43986968103E+03  0.43986968103E+03  0.00000000000E+00 0.  1.
         25    2    1    2    0    0  0.43560479680E+02 -0.12401494401E+03 -0.22778637452E+03  0.29122427829E+03  0.12509087145E+03 0.  0.
          5    1    3    3  502    0  0.74123102885E+01 -0.11436504828E+03 -0.22612186322E+03  0.25354067926E+03  0.41800000000E+01 0. -1.
         -5    1    3    3    0  502  0.36148169392E+02 -0.96498957339E+01 -0.16645112955E+01  0.37683599030E+02  0.41800000000E+01 0. -1.
        -11    1    1    2    0    0 -0.14328420113E+02 -0.32865848982E+01 -0.55641088764E+02  0.57550291243E+02  0.00000000000E+00 0.  1.
         11    1    1    2    0    0 -0.29232059567E+02  0.12730152891E+03 -0.89308826543E+02  0.15822850270E+03  0.00000000000E+00 0. -1.
</event>
<event>
 7    1  0.2612213E-009  0.3561852E+03  0.7561462E-02  0.1060105E+00
          2   -1    0    0  501    0  0.00000000000E+00  0.00000000000E+00  0.25917212105E+04  0.25917212105E+04  0.00000000000E+00 0. -1.
         -2   -1    0    0    0  501 -0.00000000000E+00 -0.00000000000E+00 -0.76874110037E+02  0.76874110037E+02  0.00000000000E+00 0.  1.
         25    2    1    2    0    0 -0.25784276653E+03  0.22327408776E+03  0.47263338701E+03  0.59612409876E+03  0.12508961619E+03 0.  0.
          5    1    3    3  502    0 -0.13428295691E+03  0.42033834385E+02  0.14749092793E+03  0.20388673810E+03  0.41800000000E+01 0. -1.
         -5    1    3    3    0  502 -0.12355980962E+03  0.18124025338E+03  0.32514245908E+03  0.39223736066E+03  0.41800000000E+01 0. -1.
        -11    1    1    2    0    0  0.10190385153E+03 -0.35010652089E+02  0.56883684086E+03  0.57895206385E+03  0.00000000000E+00 0. -1.
         11    1    1    2    0    0  0.15593891500E+03 -0.18826343567E+03  0.14733768725E+04  0.14935191579E+04  0.00000000000E+00 0.  1.
</event>
<event>
 7    1  0.2612213E-009  0.1151283E+03  0.7561462E-02  0.1251357E+00
          2   -1    0    0  501    0  0.00000000000E+00  0.00000000000E+00  0.60064846733E+03  0.60064846733E+03  0.00000000000E+00 0. -1.
         -2   -1    0    0    0  501 -0.00000000000E+00 -0.00000000000E+00 -0.38462620052E+02  0.38462620052E+02  0.00000000000E+00 0.  1.
         25    2    1    2    0    0 -0.81498097995E+02 -0.57379477190E+02  0.22856669754E+03  0.27897045497E+03  0.12508970837E+03 0.  0.
          5    1    3    3  502    0 -0.35972274306E+02 -0.26192393936E+02  0.93014451187E+00  0.44703283858E+02  0.41800000000E+01 0.  1.
         -5    1    3    3    0  502 -0.45525823689E+02 -0.31187083254E+02  0.22763655303E+03  0.23426717111E+03  0.41800000000E+01 0.  1.
        -11    1    1    2    0    0 -0.10087615980E+02 -0.11741388445E+02  0.15266321013E+02  0.21741222505E+02  0.00000000000E+00 0.  1.
         11    1    1    2    0    0  0.91585713976E+02  0.69120865634E+02  0.31835282872E+03  0.33839940990E+03  0.00000000000E+00 0. -1.
</event>
<event>
 7    1  0.2612213E-009  0.1881955E+03  0.7561462E-02  0.1160099E+00
         -1   -1    0    0    0  501 -0.00000000000E+00  0.00000000000E+00  0.74699396993E+02  0.74699396993E+02  0.00000000000E+00 0.  1.
          1   -1    0    0  501    0  0.00000000000E+00 -0.00000000000E+00 -0.48756471507E+03  0.48756471507E+03  0.00000000000E+00 0. -1.
         25    2    1    2    0    0  0.54353730465E+02  0.14597595977E+03 -0.24478103353E+03  0.31595647239E+03  0.12508968472E+03 0.  0.
          5    1    3    3  502    0 -0.37401950720E+02  0.74228957064E+02 -0.10244306250E+03  0.13198824735E+03  0.41800000000E+01 0.  1.
         -5    1    3    3    0  502  0.91755681185E+02  0.71747002706E+02 -0.14233797103E+03  0.18396822504E+03  0.41800000000E+01 0.  1.
        -11    1    1    2    0    0 -0.63062484136E+02 -0.50628863355E+02 -0.10106354171E+03  0.12943723642E+03  0.00000000000E+00 0. -1.
         11    1    1    2    0    0  0.87087536708E+01 -0.95347096415E+02 -0.67020742838E+02  0.11687040325E+03  0.00000000000E+00 0.  1.
</event>
<event>
 7    1  0.2612213E-009  0.1359391E+03  0.7561462E-02  0.1218900E+00
         -2   -1    0    0    0  501 -0.00000000000E+00  0.00000000000E+00  0.10614849785E+03  0.10614849785E+03  0.00000000000E+00 0.  1.
          2   -1    0    0  501    0  0.00000000000E+00 -0.00000000000E+00 -0.21949092897E+03  0.21949092897E+03  0.00000000000E+00 0. -1.
         25    2    1    2    0    0  0.10617362356E+03  0.15331780716E+01 -0.55078694644E+02  0.17307873788E+03  0.12508955963E+03 0.  0.
          5    1    3    3  502    0  0.13174481141E+03 -0.69028376392E+01 -0.60660529011E+02  0.14526361100E+03  0.41800000000E+01 0. -1.
         -5    1    3    3    0  502 -0.25571187844E+02  0.84360157108E+01  0.55818343662E+01  0.27815126886E+02  0.41800000000E+01 0. -1.
        -11    1    1    2    0    0 -0.67927405336E+02 -0.19082537737E+02  0.11105915813E+02  0.71425604710E+02  0.00000000000E+00 0.  1.
         11    1    1    2    0    0 -0.38246218228E+02  0.17549359666E+02 -0.69369652288E+02  0.81135084223E+02  0.00000000000E+00 0. -1.
</event>
<event>
 7    1  0.2612213E-009  0.9547759E+02  0.7561462E-02  0.1290104E+00
          2   -1    0    0  501    0  0.00000000000E+00  0.00000000000E+00  0.58870949204E+03  0.58870949204E+03  0.00000000000E+00 0.  1.
         -2   -1    0    0    0  501 -0.00000000000E+00 -0.00000000000E+00 -0.23591314047E+02  0.23591314047E+02  0.00000000000E+00 0. -1.
         25    2    1    2    0    0 -0.20137729578E+02  0.27924112915E+02  0.38265659451E+03  0.40405500844E+03  0.12509634803E+03 0.  0.
          5    1    3    3  502    0 -0.38052125603E+02 -0.22045251711E+02  0.48178995105E+02  0.65365475255E+02  0.41800000000E+01 0.  1.
         -5    1    3    3    0  502  0.17914396025E+02  0.49969364626E+02  0.33447759940E+03  0.33868953319E+03  0.41800000000E+01 0.  1.
        -11    1    1    2    0    0 -0.76191254077E+01  0.29116426725E+02  0.98620239647E+02  0.10311047010E+03  0.00000000000E+00 0.  1.
         11    1    1    2    0    0  0.27756854986E+02 -0.57040539640E+02  0.83841343835E+02  0.10513532754E+03  0.00000000000E+00 0. -1.
</event>
<event>
 7    1  0.2888843E-009  0.1125098E+03  0.7561462E-02  0.1255991E+00
          1   -1    0    0  501    0  0.00000000000E+00  0.00000000000E+00  0.35017947476E+03  0.35017947476E+03  0.00000000000E+00 0. -1.
         -1   -1    0    0    0  501 -0.00000000000E+00 -0.00000000000E+00 -0.51644895545E+02  0.51644895545E+02  0.00000000000E+00 0.  1.
         25    2    1    2    0    0 -0.59121276279E+02  0.16589224875E+02  0.88940893486E+02  0.16531241331E+03  0.12508870360E+03 0.  0.
          5    1    3    3  502    0 -0.35962193479E+01  0.51150611698E+02  0.85376726584E+02  0.99679364529E+02  0.41800000000E+01 0. -1.
         -5    1    3    3    0  502 -0.55525056931E+02 -0.34561386824E+02  0.35641669021E+01  0.65633048780E+02  0.41800000000E+01 0. -1.
        -11    1    1    2    0    0  0.19697601950E+02  0.36757870094E+02  0.10086388002E+03  0.10914512737E+03  0.00000000000E+00 0. -1.
         11    1    1    2    0    0  0.39423674329E+02 -0.53347094969E+02  0.10872980572E+03  0.12736682963E+03  0.00000000000E+00 0.  1.
</event>
<event>
 7    1  0.2612213E-009  0.1339639E+03  0.7561462E-02  0.1221690E+00
          2   -1    0    0  501    0  0.00000000000E+00  0.00000000000E+00  0.21582855693E+03  0.21582855693E+03  0.00000000000E+00 0. -1.
         -2   -1    0    0    0  501 -0.00000000000E+00 -0.00000000000E+00 -0.13410534130E+03  0.13410534130E+03  0.00000000000E+00 0.  1.
         25    2    1    2    0    0 -0.68723529538E+02 -0.10368552321E+03  0.66848555748E+01  0.17653503050E+03  0.12508524479E+03 0.  0.
          5    1    3    3  502    0  0.12931290895E+02 -0.31865752977E+01 -0.37211586504E+02  0.39743516660E+02  0.41800000000E+01 0.  1.
         -5    1    3    3    0  502 -0.81654820433E+02 -0.10049894791E+03  0.43896442079E+02  0.13679151384E+03  0.41800000000E+01 0.  1.
        -11    1    1    2    0    0  0.77152444002E+01  0.10434592430E+02 -0.22061026270E+02  0.25594815792E+02  0.00000000000E+00 0.  1.
         11    1    1    2    0    0  0.61008285137E+02  0.93250930779E+02  0.97099386325E+02  0.14780405194E+03  0.00000000000E+00 0. -1.
</event>
<event>
 6    1  0.2612213E-009  0.1042415E+03  0.7561462E-02  0.1271621E+00
         -1   -1    0    0    0  501 -0.00000000000E+00  0.00000000000E+00  0.47955078829E+03  0.47955078829E+03  0.00000000000E+00 0.  1.
          1   -1    0    0  501    0  0.00000000000E+00 -0.00000000000E+00 -0.31529224383E+02  0.31529224383E+02  0.00000000000E+00 0. -1.
          5    1    1    2  502    0  0.78598688267E+02  0.32958376789E+02  0.16005884062E+03  0.18138443500E+03  0.41800000000E+01 0.  1.
         -5    1    1    2    0  502 -0.47085431328E+02  0.73867796321E+01  0.13114728674E+03  0.13960188242E+03  0.41800000000E+01 0.  1.
        -11    1    1    2    0    0  0.15781631683E+02 -0.14395004541E+02  0.12634254370E+03  0.12813553138E+03  0.00000000000E+00 0.  1.
         11    1    1    2    0    0 -0.47294888622E+02 -0.25950151880E+02  0.30472892854E+02  0.61958163879E+02  0.00000000000E+00 0. -1.
</event>
<event>
 7    1  0.2612213E-009  0.1041539E+03  0.7561462E-02  0.1271796E+00
         -1   -1    0    0    0  501 -0.00000000000E+00  0.00000000000E+00  0.31145751095E+02  0.31145751095E+02  0.00000000000E+00 0.  1.
          1   -1    0    0  501    0  0.00000000000E+00 -0.00000000000E+00 -0.39371991824E+03  0.39371991824E+03  0.00000000000E+00 0. -1.
         25    2    1    2    0    0 -0.24399371394E+02  0.18667658145E+01 -0.20294218629E+03  0.23965261167E+03  0.12509607973E+03 0.  0.
          5    1    3    3  502    0  0.67326239567E+01  0.58176467088E+02 -0.66295063683E+02  0.88556972718E+02  0.41800000000E+01 0. -1.
         -5    1    3    3    0  502 -0.31131995350E+02 -0.56309701274E+02 -0.13664712261E+03  0.15109563895E+03  0.41800000000E+01 0. -1.
        -11    1    1    2    0    0  0.13640481596E+02 -0.41689967012E+02 -0.12096647672E+03  0.12867402448E+03  0.00000000000E+00 0. -1.
         11    1    1    2    0    0  0.10758889798E+02  0.39823201197E+02 -0.38665504137E+02  0.56539033185E+02  0.00000000000E+00 0.  1.
</event>
<event>
 7    1  0.2612213E-009  0.8904538E+02  0.7561462E-02  0.1305180E+00
          1   -1    0    0  501    0  0.00000000000E+00  0.00000000000E+00  0.23925250418E+03  0.23925250418E+03  0.00000000000E+00 0.  1.
         -1   -1    0    0    0  501 -0.00000000000E+00 -0.00000000000E+00 -0.81355582800E+02  0.81355582800E+02  0.00000000000E+00 0. -1.
         25    2    1    2    0    0  0.66615275285E+02 -0.78801862340E+01  0.22375096745E+02  0.14369774709E+03  0.12509478538E+03 0.  0.
          5    1    3    3  502    0  0.54376312509E+02 -0.18651938465E+02 -0.45709862281E+02  0.73563184273E+02  0.41800000000E+01 0. -1.
         -5    1    3    3    0  502  0.12238962775E+02  0.10771752231E+02  0.68084959026E+02  0.70134562817E+02  0.41800000000E+01 0. -1.
        -11    1    1    2    0    0 -0.83906229758E+02 -0.15608817161E+01  0.13269892961E+03  0.15700859105E+03  0.00000000000E+00 0.  1.
         11    1    1    2    0    0  0.17290954473E+02  0.94410679501E+01  0.28228950290E+01  0.19901748842E+02  0.00000000000E+00 0. -1.
</event>
<event>
 7    1  0.2612213E-009  0.2077588E+03  0.7561462E-02  0.1143353E+00
         -2   -1    0    0    0  501 -0.00000000000E+00  0.00000000000E+00  0.45249073074E+02  0.45249073074E+02  0.00000000000E+00 0.  1.
          2   -1    0    0  501    0  0.00000000000E+00 -0.00000000000E+00 -0.10166269123E+04  0.10166269123E+04  0.00000000000E+00 0. -1.
         25    2    1    2    0    0 -0.16414836377E+03  0.79274789956E+02 -0.58169377616E+03  0.62228916637E+03  0.12508788794E+03 0.  0.
          5    1    3    3  502    0 -0.18044160964E+03  0.85155408216E+02 -0.55819483234E+03  0.59279807801E+03  0.41800000000E+01 0. -1.
         -5    1    3    3    0  502  0.16293245873E+02 -0.58806182603E+01 -0.23498943821E+02  0.29491088364E+02  0.41800000000E+01 0. -1.
        -11    1    1    2    0    0  0.98912948690E+02 -0.87899232089E+02 -0.20979625648E+03  0.24804135875E+03  0.00000000000E+00 0. -1.
         11    1    1    2    0    0  0.65235415082E+02  0.86244421335E+01 -0.17988780658E+03  0.19154546024E+03  0.00000000000E+00 0.  1.
</event>
<event>
 7    1  0.3443434E-009  0.1003117E+03  0.7561462E-02  0.1279642E+00
          2   -1    0    0  501    0  0.00000000000E+00  0.00000000000E+00  0.68972210789E+03  0.68972210789E+03  0.00000000000E+00 0.  1.
         -2   -1    0    0    0  501 -0.00000000000E+00 -0.00000000000E+00 -0.27164068595E+02  0.27164068595E+02  0.00000000000E+00 0. -1.
         25    2    1    2    0    0  0.78864703895E+02 -0.17192164264E+02  0.31583480238E+03  0.34916425025E+03  0.12509532055E+03 0.  0.
          5    1    3    3  502    0  0.24759265963E+02 -0.43185824069E+02  0.26710427448E+03  0.27173553779E+03  0.41800000000E+01 0. -1.
         -5    1    3    3    0  502  0.54105437932E+02  0.25993659806E+02  0.48730527903E+02  0.77428712462E+02  0.41800000000E+01 0. -1.
        -11    1    1    2    0    0 -0.63371664064E+02  0.30263294045E+02  0.33872863973E+03  0.34593196751E+03  0.00000000000E+00 0.  1.
         11    1    1    2    0    0 -0.15493039831E+02 -0.13071129782E+02  0.79945971807E+01  0.21789958721E+02  0.00000000000E+00 0. -1.
</event>
<event>
 6    1  0.2612213E-009  0.1133671E+03  0.7561462E-02  0.1254459E+00
         -1   -1    0    0    0  501 -0.00000000000E+00  0.00000000000E+00  0.88054456043E+02  0.88054456043E+02  0.00000000000E+00 0.  1.
          1   -1    0    0  501    0  0.00000000000E+00 -0.00000000000E+00 -0.18406455877E+03  0.18406455877E+03  0.00000000000E+00 0. -1.
          5    1    1    2  502    0  0.39180264138E+02  0.84079239400E+02  0.51564911937E+01  0.92997168760E+02  0.41800000000E+01 0.  1.
         -5    1    1    2    0  502 -0.15121726843E+00 -0.32728946378E+02 -0.40013205032E+02  0.51862662625E+02  0.41800000000E+01 0.  1.
        -11    1    1    2    0    0 -0.62890875193E+02 -0.39205675067E+02 -0.17660429523E+02  0.76185549226E+02  0.00000000000E+00 0.  1.
         11    1    1    2    0    0  0.23861828323E+02 -0.12144617956E+02 -0.43492959371E+02  0.51073634207E+02  0.00000000000E+00 0. -1.
</event>
<event>
 7    1  0.2612213E-009  0.1089999E+03  0.7561462E-02  0.1262433E+00
         -2   -1    0    0    0  501 -0.00000000000E+00  0.00000000000E+00  0.57818128275E+02  0.57818128275E+02  0.00000000000E+00 0.  1.
          2   -1    0    0  501    0  0.00000000000E+00 -0.00000000000E+00 -0.43221976651E+03  0.43221976651E+03  0.00000000000E+00 0. -1.
         25    2    1    2    0    0  0.18169518573E+02  0.76924228116E+02 -0.32850285840E+03  0.36029219465E+03  0.12509544066E+03 0.  0.
          5    1    3    3  502    0 -0.27167865578E+02  0.75170030728E+02 -0.10411001891E+03  0.13132019981E+03  0.41800000000E+01 0. -1.
         -5    1    3    3    0  502  0.45337384151E+02  0.17541973887E+01 -0.22439283949E+03  0.22897199485E+03  0.41800000000E+01 0. -1.
        -11    1    1    2    0    0  0.13051315706E+02 -0.48332094314E+02 -0.66034035148E+02  0.82866289771E+02  0.00000000000E+00 0. -1.
         11    1    1    2    0    0 -0.31220834279E+02 -0.28592133803E+02  0.20135255319E+02  0.46879410355E+02  0.00000000000E+00 0.  1.
</event>
<event>
 7    1  0.2612213E-009  0.1011699E+03  0.7561462E-02  0.1277855E+00
          1   -1    0    0  501    0  0.00000000000E+00  0.00000000000E+00  0.75516916444E+02  0.75516916444E+02  0.00000000000E+00 0. -1.
         -1   -1    0    0    0  501 -0.00000000000E+00 -0.00000000000E+00 -0.19353772732E+03  0.19353772732E+03  0.00000000000E+00 0.  1.
         25    2    1    2    0    0 -0.56503830176E+01  0.27877334314E+02 -0.11482349656E+03  0.17216622894E+03  0.12509077675E+03 0.  0.
          5    1    3    3  502    0  0.53342664379E+02 -0.67002446151E+01 -0.25645181637E+02  0.59711647625E+02  0.41800000000E+01 0. -1.
         -5    1    3    3    0  502 -0.58993047396E+02  0.34577578929E+02 -0.89178314927E+02  0.11245458132E+03  0.41800000000E+01 0. -1.
        -11    1    1    2    0    0 -0.32806441459E+02 -0.25182640362E+02  0.25715123899E+02  0.48700057228E+02  0.00000000000E+00 0. -1.
         11    1    1    2    0    0  0.38456824476E+02 -0.26946939512E+01 -0.28912438209E+02  0.48188357593E+02  0.00000000000E+00 0.  1.
</event>
<event>
 7    1  0.2612213E-009  0.1269091E+03  0.7561462E-02  0.1232115E+00
          1   -1    0    0  501    0  0.00000000000E+00  0.00000000000E+00  0.13873689243E+04  0.13873689243E+04  0.00000000000E+00 0. -1.
         -1   -1    0    0    0  501 -0.00000000000E+00 -0.00000000000E+00 -0.14764665211E+02  0.14764665211E+02  0.00000000000E+00 0.  1.
         25    2    1    2    0    0  0.78848697545E+02  0.23504682774E+02  0.95845009263E+03  0.97007446739E+03  0.12509318528E+03 0.  0.
          5    1    3    3  502    0  0.38212919663E+02 -0.45068615291E+02  0.59616863612E+03  0.59910426672E+03  0.41800000000E+01 0.  1.
         -5    1    3    3    0  502  0.40635777882E+02  0.68573298065E+02  0.36228145651E+03  0.37097020067E+03  0.41800000000E+01 0.  1.
        -11    1    1    2    0    0 -0.64565848401E+02 -0.51991553050E+02  0.35819703298E+03  0.36766422835E+03  0.00000000000E+00 0. -1.
         11    1    1    2    0    0 -0.14282849144E+02  0.28486870275E+02  0.55957133511E+02  0.64394893807E+02  0.00000000000E+00 0.  1.
</event>
<event>
 7    1  0.2612213E-009  0.1342130E+03  0.7561462E-02  0.1221335E+00
          2   -1    0    0  501    0  0.00000000000E+00  0.00000000000E+00  0.20712198918E+03  0.20712198918E+03  0.00000000000E+00 0. -1.
         -2   -1    0    0    0  501 -0.00000000000E+00 -0.00000000000E+00 -0.89821346717E+02  0.89821346717E+02  0.00000000000E+00 0.  1.
         25    2    1    2    0    0  0.59258516208E+02 -0.60488319441E+02  0.51222385674E+02  0.15950332751E+03  0.12508864921E+03 0.  0.
          5    1    3    3  502    0  0.54168219753E+02 -0.98061298818E+02  0.45246083852E+02  0.12089207940E+03  0.41800000000E+01 0.  1.
         -5    1    3    3    0  502  0.50902964548E+01  0.37572979377E+02  0.59763018225E+01  0.38611248112E+02  0.41800000000E+01 0.  1.
        -11    1    1    2    0    0 -0.47395662872E+01  0.63400702799E+02  0.48889069234E+02  0.80201332250E+02  0.00000000000E+00 0.  1.
         11    1    1    2    0    0 -0.54518949921E+02 -0.29123833585E+01  0.17189187555E+02  0.57238676139E+02  0.00000000000E+00 0. -1.
</event>
<event>
 7    1  0.2612213E-009  0.2448560E+03  0.7561462E-02  0.1116600E+00
          2   -1    0    0  501    0  0.00000000000E+00  0.00000000000E+00  0.68037143969E+03  0.68037143969E+03  0.00000000000E+00 0. -1.
         -2   -1    0    0    0  501 -0.00000000000E+00 -0.00000000000E+00 -0.92633801764E+02  0.92633801764E+02  0.00000000000E+00 0.  1.
         25    2    1    2    0    0  0.31904753532E+02 -0.21993172283E+03  0.22700192242E+03  0.34141699694E+03  0.12509123474E+03 0.  0.
          5    1    3    3  502    0  0.78783456434E+02 -0.13155149166E+03  0.15511863883E+03  0.21815566112E+03  0.41800000000E+01 0. -1.
         -5    1    3    3    0  502 -0.46878702902E+02 -0.88380231168E+02  0.71883283598E+02  0.12326133582E+03  0.41800000000E+01 0. -1.
        -11    1    1    2    0    0  0.26568875770E+02  0.86891186126E+02  0.15572460894E+03  0.18029458454E+03  0.00000000000E+00 0.  1.
         11    1    1    2    0    0 -0.58473629302E+02  0.13304053670E+03  0.20501110656E+03  0.25129365997E+03  0.00000000000E+00 0. -1.
</event>
<event>
 7    1  0.2612213E-009  0.1441034E+03  0.7561462E-02  0.1207912E+00
          3   -1    0    0  501    0  0.00000000000E+00  0.00000000000E+00  0.55338146520E+02  0.55338146520E+02  0.00000000000E+00 0. -1.
         -3   -1    0    0    0  501 -0.00000000000E+00 -0.00000000000E+00 -0.51568543649E+03  0.51568543649E+03  0.00000000000E+00 0.  1.
         25    2    1    2    0    0 -0.44378762450E+02  0.11696104612E+03 -0.19011715636E+03  0.25969492484E+03  0.12509020735E+03 0.  0.
          5    1    3    3  502    0 -0.58064397086E+02  0.89647729787E+02 -0.20045468999E+03  0.22717338049E+03  0.41800000000E+01 0.  1.
         -5    1    3    3    0  502  0.13685634636E+02  0.27313316338E+02  0.10337533631E+02  0.32521544341E+02  0.41800000000E+01 0.  1.
        -11    1    1    2    0    0  0.67655630823E+02 -0.10332422243E+03 -0.18934679935E+03  0.22606501221E+03  0.00000000000E+00 0. -1.
         11    1    1    2    0    0 -0.23276868373E+02 -0.13636823695E+02 -0.80883334266E+02  0.85263645968E+02  0.00000000000E+00 0.  1.
</event>
<event>
 7    1  0.2612213E-009  0.2439149E+03  0.7561462E-02  0.1117212E+00
         -1   -1    0    0    0  501 -0.00000000000E+00  0.00000000000E+00  0.65734131881E+02  0.65734131881E+02  0.00000000000E+00 0.  1.
          1   -1    0    0  501    0  0.00000000000E+00 -0.00000000000E+00 -0.10325114338E+04  0.10325114338E+04  0.00000000000E+00 0. -1.
         25    2    1    2    0    0 -0.23380156212E+03 -0.22485700956E+02 -0.43895533377E+03  0.51332470803E+03  0.12510672899E+03 0.  0.
          5    1    3    3  502    0 -0.13166952534E+03 -0.33848940608E+01 -0.35817560298E+03  0.38164847226E+03  0.41800000000E+01 0.  1.
         -5    1    3    3    0  502 -0.10213203678E+03 -0.19100806895E+02 -0.80779730790E+02  0.13167623577E+03  0.41800000000E+01 0.  1.
        -11    1    1    2    0    0  0.67332956730E+02 -0.35079461693E+02 -0.15840623784E+03  0.17566112798E+03  0.00000000000E+00 0.  1.
         11    1    1    2    0    0  0.16646860539E+03  0.57565162649E+02 -0.36941573031E+03  0.40925972967E+03  0.00000000000E+00 0. -1.
</event>
<event>
 7    1  0.2700611E-009  0.3113476E+03  0.7561462E-02  0.1079702E+00
          2   -1    0    0  501    0  0.00000000000E+00  0.00000000000E+00  0.59875170881E+03  0.59875170881E+03  0.00000000000E+00 0. -1.
         -2   -1    0    0    0  501 -0.00000000000E+00 -0.00000000000E+00 -0.17727819769E+03  0.17727819769E+03  0.00000000000E+00 0.  1.
         25    2    1    2    0    0 -0.17991209004E+02  0.30403770916E+03  0.16870718581E+03  0.36997442641E+03  0.12512533500E+03 0.  0.
          5    1    3    3  502    0 -0.21611341880E+02  0.15536153716E+03  0.17567707692E+02  0.15789348967E+03  0.41800000000E+01 0. -1.
         -5    1    3    3    0  502  0.36201328764E+01  0.14867617200E+03  0.15113947812E+03  0.21208093674E+03  0.41800000000E+01 0. -1.
        -11    1    1    2    0    0  0.52174937004E+02 -0.13916803456E+03  0.13279600936E+03  0.19931067708E+03  0.00000000000E+00 0.  1.
         11    1    1    2    0    0 -0.34183728000E+02 -0.16486967460E+03  0.11997031595E+03  0.20674480301E+03  0.00000000000E+00 0. -1.
</event>
<event>
 7    1  0.2612213E-009  0.2111338E+03  0.7561462E-02  0.1140671E+00
         -2   -1    0    0    0  501 -0.00000000000E+00  0.00000000000E+00  0.75322787612E+02  0.75322787612E+02  0.00000000000E+00 0.  1.
          2   -1    0    0  501    0  0.00000000000E+00 -0.00000000000E+00 -0.82057278096E+03  0.82057278096E+03  0.00000000000E+00 0. -1.
         25    2    1    2    0    0 -0.14684537530E+03 -0.13150177587E+03 -0.55113128988E+03  0.59854106337E+03  0.12509766004E+03 0.  0.
          5    1    3    3  502    0 -0.43334670367E+02 -0.65064689252E+02 -0.37863152520E+03  0.38664015792E+03  0.41800000000E+01 0.  1.
         -5    1    3    3    0  502 -0.10351070493E+03 -0.66437086621E+02 -0.17249976469E+03  0.21190090545E+03  0.41800000000E+01 0.  1.
        -11    1    1    2    0    0  0.11378118243E+03  0.35213393502E+02 -0.13332026410E+03  0.17877481192E+03  0.00000000000E+00 0. -1.
         11    1    1    2    0    0  0.33064192871E+02  0.96288382371E+02 -0.60798439362E+02  0.11857969328E+03  0.00000000000E+00 0.  1.
</event>
<event>
 7    1  0.2612213E-009  0.1449511E+03  0.7561462E-02  0.1206818E+00
         -1   -1    0    0    0  501 -0.00000000000E+00  0.00000000000E+00  0.32356014847E+03  0.32356014847E+03  0.00000000000E+00 0.  1.
          1   -1    0    0  501    0  0.00000000000E+00 -0.00000000000E+00 -0.94313492584E+02  0.94313492584E+02  0.00000000000E+00 0. -1.
         25    2    1    2    0    0  0.11260125108E+03  0.34715343185E+02  0.21874832802E+03  0.27817623753E+03  0.12508793434E+03 0.  0.
          5    1    3    3  502    0  0.12033524637E+03 -0.10609782803E+02  0.18499690885E+03  0.22098522053E+03  0.41800000000E+01 0.  1.
         -5    1    3    3    0  502 -0.77339952942E+01  0.45325125989E+02  0.33751419171E+02  0.57191016997E+02  0.41800000000E+01 0.  1.
        -11    1    1    2    0    0 -0.98312848596E+02 -0.41895055335E+02  0.33221230600E+02  0.11191184934E+03  0.00000000000E+00 0.  1.
         11    1    1    2    0    0 -0.14288402481E+02  0.71797121496E+01 -0.22722902740E+02  0.27785554177E+02  0.00000000000E+00 0. -1.
</event>
<event>
 7    1  0.2612213E-009  0.1188646E+03  0.7561462E-02  0.1244982E+00
         -2   -1    0    0    0  501 -0.00000000000E+00  0.00000000000E+00  0.79170911504E+02  0.79170911504E+02  0.00000000000E+00 0.  1.
          2   -1    0    0  501    0  0.00000000000E+00 -0.00000000000E+00 -0.20400488821E+03  0.20400488821E+03  0.00000000000E+00 0. -1.
         25    2    1    2    0    0  0.60205117295E+02  0.22268031472E+02 -0.55872795364E+02  0.15129245637E+03  0.12508843559E+03 0.  0.
          5    1    3    3  502    0  0.14034461387E+02  0.71187849410E+02 -0.35490279163E+02  0.80880827921E+02  0.41800000000E+01 0.  1.
         -5    1    3    3    0  502  0.46170655908E+02 -0.48919817938E+02 -0.20382516201E+02  0.70411628448E+02  0.41800000000E+01 0.  1.
        -11    1    1    2    0    0 -0.55944938004E+02 -0.46686765965E+02 -0.76818747725E+02  0.10588016909E+03  0.00000000000E+00 0.  1.
         11    1    1    2    0    0 -0.42601792906E+01  0.24418734493E+02  0.78575663842E+01  0.26003174254E+02  0.00000000000E+00 0. -1.
</event>
<event>
 7    1  0.2612213E-009  0.1704396E+03  0.7561462E-02  0.1177390E+00
          2   -1    0    0  501    0  0.00000000000E+00  0.00000000000E+00  0.68424643433E+03  0.68424643433E+03  0.00000000000E+00 0. -1.
         -2   -1    0    0    0  501 -0.00000000000E+00 -0.00000000000E+00 -0.97044214819E+02  0.97044214819E+02  0.00000000000E+00 0.  1.
         25    2    1    2    0    0 -0.12276121917E+03 -0.10078524572E+03  0.55943349804E+03  0.59484563921E+03  0.12509001989E+03 0.  0.
          5    1    3    3  502    0 -0.32649179963E+02 -0.40844238775E+02  0.39160910848E+03  0.39510680459E+03  0.41800000000E+01 0. -1.
         -5    1    3    3    0  502 -0.90112039208E+02 -0.59941006941E+02  0.16782438956E+03  0.19973883462E+03  0.41800000000E+01 0. -1.
        -11    1    1    2    0    0 -0.93861827588E+01  0.27389303504E+02  0.19795002404E+02  0.35073016600E+02  0.00000000000E+00 0. -1.
         11    1    1    2    0    0  0.13214740193E+03  0.73395942212E+02  0.79737190644E+01  0.15137199333E+03  0.00000000000E+00 0.  1.
</event>
<event>
 7    1  0.2612213E-009  0.2408413E+03  0.7561462E-02  0.1119234E+00
          2   -1    0    0  501    0  0.00000000000E+00  0.00000000000E+00  0.35235528458E+04  0.35235528458E+04  0.00000000000E+00 0. -1.
         -2   -1    0    0    0  501 -0.00000000000E+00 -0.00000000000E+00 -0.41494427667E+02  0.41494427667E+02  0.00000000000E+00 0.  1.
         25    2    1    2    0    0  0.17144929958E+03 -0.14966003368E+03  0.31002767654E+04  0.31111342479E+04  0.12508916213E+03 0.  0.
          5    1    3    3  502    0  0.18926012585E+02 -0.59427137776E+02  0.38170196348E+03  0.38678629756E+03  0.41800000000E+01 0. -1.
         -5    1    3    3    0  502  0.15252328699E+03 -0.90232895901E+02  0.27185748019E+04  0.27243479504E+04  0.41800000000E+01 0. -1.
        -11    1    1    2    0    0 -0.52260855310E+02  0.99914608174E+02  0.13964307325E+03  0.17948346395E+03  0.00000000000E+00 0. -1.
         11    1    1    2    0    0 -0.11918844427E+03  0.49745425503E+02  0.24213857948E+03  0.27442956159E+03  0.00000000000E+00 0.  1.
</event>
<event>
 7    1  0.2612213E-009  0.1183490E+03  0.7561462E-02  0.1245846E+00
          3   -1    0    0  501    0  0.00000000000E+00  0.00000000000E+00  0.20887709473E+03  0.20887709473E+03  0.00000000000E+00 0. -1.
         -3   -1    0    0    0  501 -0.00000000000E+00 -0.00000000000E+00 -0.82701940119E+02  0.82701940119E+02  0.00000000000E+00 0.  1.
         25    2    1    2    0    0 -0.40793587034E+02 -0.57805062136E+02  0.46810040699E+02  0.15114390583E+03  0.12509100050E+03 0.  0.
          5    1    3    3  502    0  0.39613702756E+02 -0.39308466098E+02 -0.45617366318E+00  0.55965001987E+02  0.41800000000E+01 0.  1.
         -5    1    3    3    0  502 -0.80407289789E+02 -0.18496596037E+02  0.47266214362E+02  0.95178903841E+02  0.41800000000E+01 0.  1.
        -11    1    1    2    0    0  0.46913080287E+02  0.70122262196E+02  0.89766796635E+02  0.12319109763E+03  0.00000000000E+00 0. -1.
         11    1    1    2    0    0 -0.61194932536E+01 -0.12317200060E+02 -0.10401682725E+02  0.17244031388E+02  0.00000000000E+00 0.  1.
</event>
<event>
 7    1  0.2665964E-009  0.1276375E+03  0.7561462E-02  0.1231004E+00
          2   -1    0    0  501    0  0.00000000000E+00  0.00000000000E+00  0.13239652884E+04  0.13239652884E+04  0.00000000000E+00 0.  1.
         -2   -1    0    0    0  501 -0.00000000000E+00 -0.00000000000E+00 -0.18695652098E+02  0.18695652098E+02  0.00000000000E+00 0. -1.
         25    2    1    2    0    0  0.11081071040E+03  0.90177586690E+01  0.80064688460E+03  0.81795057724E+03  0.12508948586E+03 0.  0.
          5    1    3    3  502    0  0.10939282620E+03  0.10772041649E+02  0.34150256938E+03  0.35878169491E+03  0.41800000000E+01 0. -1.
         -5    1    3    3    0  502  0.14178842027E+01 -0.17542829805E+01  0.45914431522E+03  0.45916888233E+03  0.41800000000E+01 0. -1.
        -11    1    1    2    0    0 -0.99389357121E+02 -0.40279388644E+02  0.33141876229E+03  0.34833757974E+03  0.00000000000E+00 0. -1.
         11    1    1    2    0    0 -0.11421353282E+02  0.31261629975E+02  0.17320398939E+03  0.17637278350E+03  0.00000000000E+00 0.  1.
</event>
<event>
 7    1  0.2612213E-009  0.1889991E+03  0.7561462E-02  0.1159367E+00
         -2   -1    0    0    0  501 -0.00000000000E+00  0.00000000000E+00  0.74942417972E+02  0.74942417972E+02  0.00000000000E+00 0.  1.
          2   -1    0    0  501    0  0.00000000000E+00 -0.00000000000E+00 -0.63334620145E+03  0.63334620145E+03  0.00000000000E+00 0. -1.
         25    2    1    2    0    0 -0.93001222414E+02 -0.14881567587E+03 -0.18208818461E+03  0.28213471670E+03  0.12509419905E+03 0.  0.
          5    1    3    3  502    0 -0.27135152363E+02 -0.19007623410E+02  0.15391583110E+02  0.36769273478E+02  0.41800000000E+01 0.  1.
         -5    1    3    3    0  502 -0.65866070051E+02 -0.12980805246E+03 -0.19747976772E+03  0.24536544322E+03  0.41800000000E+01 0.  1.
        -11    1    1    2    0    0  0.58001759763E+02  0.15310319114E+03 -0.32473919656E+03  0.36367614309E+03  0.00000000000E+00 0. -1.
         11    1    1    2    0    0  0.34999462651E+02 -0.42875152695E+01 -0.51576402310E+02  0.62477759630E+02  0.00000000000E+00 0.  1.
</event>
<event>
 7    1  0.2612213E-009  0.9866271E+02  0.7561462E-02  0.1283133E+00
          1   -1    0    0  501    0  0.00000000000E+00  0.00000000000E+00  0.33507019694E+02  0.33507019694E+02  0.00000000000E+00 0. -1.
         -1   -1    0    0    0  501 -0.00000000000E+00 -0.00000000000E+00 -0.37004559423E+03  0.37004559423E+03  0.00000000000E+00 0.  1.
         25    2    1    2    0    0 -0.23932215305E+02 -0.16115031392E+02 -0.20466200153E+03  0.24159509734E+03  0.12509680660E+03 0.  0.
          5    1    3    3  502    0 -0.63179365692E+02 -0.46483007796E+02 -0.12256507030E+03  0.14557462389E+03  0.41800000000E+01 0.  1.
         -5    1    3    3    0  502  0.39247150386E+02  0.30367976404E+02 -0.82096931230E+02  0.96020473451E+02  0.41800000000E+01 0.  1.
        -11    1    1    2    0    0  0.23520722453E+02 -0.21197293487E+02 -0.11795456110E+03  0.12213037346E+03  0.00000000000E+00 0.  1.
         11    1    1    2    0    0  0.41149285226E+00  0.37312324879E+02 -0.13922011904E+02  0.39827143127E+02  0.00000000000E+00 0. -1.
</event>
<event>
 7    1  0.2612213E-009  0.1779802E+03  0.7561462E-02  0.1169772E+00
          2   -1    0    0  501    0  0.00000000000E+00  0.00000000000E+00  0.52010876945E+03  0.52010876945E+03  0.00000000000E+00 0. -1.
         -2   -1    0    0    0  501 -0.00000000000E+00 -0.00000000000E+00 -0.96415707052E+02  0.96415707052E+02  0.00000000000E+00 0.  1.
         25    2    1    2    0    0 -0.16796704535E+03  0.19033089686E+02  0.38026060427E+03  0.43453499740E+03  0.12508936797E+03 0.  0.
          5    1    3    3  502    0 -0.13487453799E+03 -0.10636695639E+02  0.15898574443E+03  0.20880186690E+03  0.41800000000E+01 0.  1.
         -5    1    3    3    0  502 -0.33092507362E+02  0.29669785325E+02  0.22127485985E+03  0.22573313050E+03  0.41800000000E+01 0.  1.
        -11    1    1    2    0    0  0.13802301675E+03 -0.34483736986E+02  0.28303455283E+02  0.14505366886E+03  0.00000000000E+00 0.  1.
         11    1    1    2    0    0  0.29944028601E+02  0.15450647300E+02  0.15129002838E+02  0.36935810235E+02  0.00000000000E+00 0. -1.
</event>
<event>
 7    1  0.3207518E-009  0.1277092E+03  0.7561462E-02  0.1230895E+00
         -1   -1    0    0    0  501 -0.00000000000E+00  0.00000000000E+00  0.20845043681E+02  0.20845043681E+02  0.00000000000E+00 0.  1.
          1   -1    0    0  501    0  0.00000000000E+00 -0.00000000000E+00 -0.81714033341E+03  0.81714033341E+03  0.00000000000E+00 0. -1.
         25    2    1    2    0    0  0.55682348695E+02 -0.42512488362E+02 -0.50120325398E+03  0.52130577016E+03  0.12508864290E+03 0.  0.
          5    1    3    3  502    0 -0.39969439714E+02 -0.16736971692E+02 -0.17730132512E+03  0.18256756180E+03  0.41800000000E+01 0.  1.
         -5    1    3    3    0  502  0.95651788409E+02 -0.25775516669E+02 -0.32390192886E+03  0.33873820836E+03  0.41800000000E+01 0.  1.
        -11    1    1    2    0    0 -0.54036278330E+02 -0.14300234255E+02 -0.11561795398E+03  0.12842089923E+03  0.00000000000E+00 0.  1.
         11    1    1    2    0    0 -0.16460703655E+01  0.56812722616E+02 -0.17947408177E+03  0.18825870770E+03  0.00000000000E+00 0. -1.
</event>
<event>
 7    1  0.2612213E-009  0.2746404E+03  0.7561462E-02  0.1098653E+00
          1   -1    0    0  501    0  0.00000000000E+00  0.00000000000E+00  0.80027351367E+03  0.80027351367E+03  0.00000000000E+00 0. -1.
         -1   -1    0    0    0  501 -0.00000000000E+00 -0.00000000000E+00 -0.99608320643E+02  0.99608320643E+02  0.00000000000E+00 0.  1.
         25    2    1    2    0    0 -0.12659637028E+03  0.22137047665E+03  0.27730172889E+03  0.39695562416E+03  0.12508393107E+03 0.  0.
          5    1    3    3  502    0  0.87533762948E+01  0.10288390892E+03  0.11537286905E+03  0.15488735140E+03  0.41800000000E+01 0. -1.
         -5    1    3    3    0  502 -0.13534974658E+03  0.11848656773E+03  0.16192885984E+03  0.24206827276E+03  0.41800000000E+01 0. -1.
        -11    1    1    2    0    0  0.95445705135E+01 -0.88165306862E+02  0.19141063932E+03  0.21095557116E+03  0.00000000000E+00 0. -1.
         11    1    1    2    0    0  0.11705179977E+03 -0.13320516979E+03  0.23195282482E+03  0.29197063898E+03  0.00000000000E+00 0.  1.
</event>
<event>
 7    1  0.2612213E-009  0.1194781E+03  0.7561462E-02  0.1243961E+00
          1   -1    0    0  501    0  0.00000000000E+00  0.00000000000E+00  0.12294705239E+03  0.12294705239E+03  0.00000000000E+00 0. -1.
         -1   -1    0    0    0  501 -0.00000000000E+00 -0.00000000000E+00 -0.14358028210E+03  0.14358028210E+03  0.00000000000E+00 0.  1.
         25    2    1    2    0    0  0.46600930659E+02  0.40247690624E+02 -0.57714336031E+02  0.15089992534E+03  0.12509324341E+03 0.  0.
          5    1    3    3  502    0  0.24085754427E+02  0.83995253631E+02 -0.50462984237E+02  0.10099164013E+03  0.41800000000E+01 0.  1.
         -5    1    3    3    0  502  0.22515176232E+02 -0.43747563007E+02 -0.72513517931E+01  0.49908285210E+02  0.41800000000E+01 0.  1.
        -11    1    1    2    0    0 -0.16395603710E+02 -0.62477849689E+02  0.43087568777E+02  0.77645580080E+02  0.00000000000E+00 0.  1.
         11    1    1    2    0    0 -0.30205326949E+02  0.22230159066E+02 -0.60064624476E+01  0.37981829067E+02  0.00000000000E+00 0. -1.
</event>
<event>
 7    1  0.2612213E-009  0.1965747E+03  0.7561462E-02  0.1152662E+00
         -2   -1    0    0    0  501 -0.00000000000E+00  0.00000000000E+00  0.79203765389E+02  0.79203765389E+02  0.00000000000E+00 0. -1.
          2   -1    0    0  501    0  0.00000000000E+00 -0.00000000000E+00 -0.55123606468E+03  0.55123606468E+03  0.00000000000E+00 0.  1.
         25    2    1    2    0    0 -0.11257407327E+02 -0.16680070923E+03 -0.15533976451E+03  0.26024297385E+03  0.12508699846E+03 0.  0.
          5    1    3    3  502    0  0.50764888822E+02 -0.79614248970E+02 -0.10698133836E+03  0.14275146841E+03  0.41800000000E+01 0.  1.
         -5    1    3    3    0  502 -0.62022296148E+02 -0.87186460259E+02 -0.48358426152E+02  0.11749150545E+03  0.41800000000E+01 0.  1.
        -11    1    1    2    0    0  0.45478511468E+02  0.14251107388E+03 -0.24111502885E+03  0.28375016884E+03  0.00000000000E+00 0.  1.
         11    1    1    2    0    0 -0.34221104142E+02  0.24289635353E+02 -0.75577505941E+02  0.86446687377E+02  0.00000000000E+00 0. -1.
</event>
<event>
 7    1  0.2612213E-009  0.9009370E+02  0.7561462E-02  0.1302625E+00
          1   -1    0    0  501    0  0.00000000000E+00  0.00000000000E+00  0.38136690864E+03  0.38136690864E+03  0.00000000000E+00 0. -1.
         -1   -1    0    0    0  501 -0.00000000000E+00 -0.00000000000E+00 -0.48560063562E+02  0.48560063562E+02  0.00000000000E+00 0.  1.
         25    2    1    2    0    0  0.65003488072E+02  0.11484551056E+02  0.25981298527E+03  0.29581680875E+03  0.12508976235E+03 0.  0.
          5    1    3    3  502    0 -0.20060334205E+02 -0.79239496116E+01  0.27269362909E+00  0.21971635071E+02  0.41800000000E+01 0.  1.
         -5    1    3    3    0  502  0.85063822277E+02  0.19408500668E+02  0.25954029164E+03  0.27384517367E+03  0.41800000000E+01 0.  1.
        -11    1    1    2    0    0 -0.54755744841E+02  0.93773639574E+00 -0.45116992262E+01  0.54949307299E+02  0.00000000000E+00 0.  1.
         11    1    1    2    0    0 -0.10247743230E+02 -0.12422287452E+02  0.77505559029E+02  0.79160856155E+02  0.00000000000E+00 0. -1.
</event>
<event>
 7    1  0.2612213E-009  0.7903631E+02  0.7561462E-02  0.1331809E+00
         -2   -1    0    0    0  501 -0.00000000000E+00  0.00000000000E+00  0.42522967476E+02  0.42522967476E+02  0.00000000000E+00 0.  1.
          2   -1    0    0  501    0  0.00000000000E+00 -0.00000000000E+00 -0.97669930395E+03  0.97669930395E+03  0.00000000000E+00 0. -1.
         25    2    1    2    0    0 -0.15710235452E+02  0.55080989718E+02 -0.89906686840E+03  0.90953275029E+03  0.12509141885E+03 0.  0.
          5    1    3    3  502    0 -0.73293985996E+01  0.57453033765E+02 -0.15686914026E+03  0.16727214574E+03  0.41800000000E+01 0.  1.
         -5    1    3    3    0  502 -0.83808368524E+01 -0.23720440470E+01 -0.74219772814E+03  0.74226060455E+03  0.41800000000E+01 0.  1.
        -11    1    1    2    0    0 -0.23972504610E+02 -0.19834492715E+01  0.13412042339E+02  0.27540841090E+02  0.00000000000E+00 0.  1.
         11    1    1    2    0    0  0.39682740062E+02 -0.53097540447E+02 -0.48521510410E+02  0.82148680043E+02  0.00000000000E+00 0. -1.
</event>
<event>
 7    1  0.2612213E-009  0.1042278E+03  0.7561462E-02  0.1271649E+00
          1   -1    0    0  501    0  0.00000000000E+00  0.00000000000E+00  0.16905318272E+02  0.16905318272E+02  0.00000000000E+00 0. -1.
         -1   -1    0    0    0  501 -0.00000000000E+00 -0.00000000000E+00 -0.76751020947E+03  0.76751020947E+03  0.00000000000E+00 0.  1.
         25    2    1    2    0    0  0.36485089144E+02  0.92294012456E+01 -0.47676032944E+03  0.49433203042E+03  0.12508957191E+03 0.  0.
          5    1    3    3  502    0 -0.37762932631E+02  0.34944726611E+00 -0.29948507555E+03  0.30188564734E+03  0.41800000000E+01 0.  1.
         -5    1    3    3    0  502  0.74248021774E+02  0.88799539795E+01 -0.17727525388E+03  0.19244638308E+03  0.41800000000E+01 0.  1.
        -11    1    1    2    0    0 -0.21005816202E+01  0.37495060603E+02 -0.11503716186E+03  0.12101173754E+03  0.00000000000E+00 0.  1.
         11    1    1    2    0    0 -0.34384507523E+02 -0.46724461848E+02 -0.15880739990E+03  0.16907175979E+03  0.00000000000E+00 0. -1.
</event>
<event>
 7    1  0.2612213E-009  0.8452346E+02  0.7561462E-02  0.1316683E+00
         -1   -1    0    0    0  501 -0.00000000000E+00  0.00000000000E+00  0.95453901451E+02  0.95453901451E+02  0.00000000000E+00 0.  1.
          1   -1    0    0  501    0  0.00000000000E+00 -0.00000000000E+00 -0.15726560364E+03  0.15726560364E+03  0.00000000000E+00 0. -1.
         25    2    1    2    0    0 -0.98948192841E+01  0.23775704626E+02  0.17396628941E+02  0.12891112699E+03  0.12510893008E+03 0.  0.
          5    1    3    3  502    0 -0.19882591116E+02 -0.21328185018E+02  0.59420130196E+02  0.66320684392E+02  0.41800000000E+01 0. -1.
         -5    1    3    3    0  502  0.99877718322E+01  0.45103889644E+02 -0.42023501255E+02  0.62590442600E+02  0.41800000000E+01 0. -1.
        -11    1    1    2    0    0 -0.19594372224E+02 -0.50025047063E+02 -0.57739962984E+02  0.78869183348E+02  0.00000000000E+00 0.  1.
         11    1    1    2    0    0  0.29489191508E+02  0.26249342437E+02 -0.21468368147E+02  0.44939194753E+02  0.00000000000E+00 0. -1.
</event>
<event>
 7    1  0.2612213E-009  0.8243327E+02  0.7561462E-02  0.1322285E+00
          1   -1    0    0  501    0  0.00000000000E+00  0.00000000000E+00  0.46829047154E+03  0.46829047154E+03  0.00000000000E+00 0. -1.
         -1   -1    0    0    0  501 -0.00000000000E+00 -0.00000000000E+00 -0.27489925911E+02  0.27489925911E+02  0.00000000000E+00 0.  1.
         25    2    1    2    0    0 -0.19707144046E+02  0.34680171416E+01  0.18825092267E+03  0.22688676959E+03  0.12505517845E+03 0.  0.
          5    1    3    3  502    0 -0.13625778107E+02  0.36278586245E+02  0.18926933649E+03  0.19324117517E+03  0.41800000000E+01 0. -1.
         -5    1    3    3    0  502 -0.60813659395E+01 -0.32810569103E+02 -0.10184138150E+01  0.33645594411E+02  0.41800000000E+01 0. -1.
        -11    1    1    2    0    0 -0.36242836478E+02 -0.15153404888E+01  0.94649944874E+02  0.10136296916E+03  0.00000000000E+00 0.  1.
         11    1    1    2    0    0  0.55949980525E+02 -0.19526766528E+01  0.15789967808E+03  0.16753065870E+03  0.00000000000E+00 0. -1.
</event>
<event>
 7    1  0.2612213E-009  0.1132892E+03  0.7561462E-02  0.1254597E+00
          4   -1    0    0  501    0  0.00000000000E+00  0.00000000000E+00  0.51029223808E+02  0.51029223808E+02  0.00000000000E+00 0. -1.
         -4   -1    0    0    0  501 -0.00000000000E+00 -0.00000000000E+00 -0.27489233978E+03  0.27489233978E+03  0.00000000000E+00 0.  1.
         25    2    1    2    0    0 -0.35449698633E+02  0.81059551453E+01 -0.16337935979E+03  0.20895361985E+03  0.12508562028E+03 0.  0.
          5    1    3    3  502    0 -0.80582480993E+02  0.11535570079E+02 -0.81281552299E+02  0.11511198358E+03  0.41800000000E+01 0. -1.
         -5    1    3    3    0  502  0.45132782361E+02 -0.34296149339E+01 -0.82097807493E+02  0.93841636268E+02  0.41800000000E+01 0. -1.
        -11    1    1    2    0    0 -0.29884546815E+02  0.10507099811E+02 -0.24810062628E+02  0.40237103430E+02  0.00000000000E+00 0. -1.
         11    1    1    2    0    0  0.65334245448E+02 -0.18613054956E+02 -0.35673693554E+02  0.76730840311E+02  0.00000000000E+00 0.  1.
</event>
<event>
 7    1  0.2612213E-009  0.1601838E+03  0.7561462E-02  0.1188489E+00
         -2   -1    0    0    0  501 -0.00000000000E+00  0.00000000000E+00  0.22413955935E+02  0.22413955935E+02  0.00000000000E+00 0.  1.
          2   -1    0    0  501    0  0.00000000000E+00 -0.00000000000E+00 -0.13578541864E+04  0.13578541864E+04  0.00000000000E+00 0. -1.
         25    2    1    2    0    0 -0.12960189168E+03 -0.40828150752E+02 -0.69404529994E+03  0.71820274240E+03  0.12511080131E+03 0.  0.
          5    1    3    3  502    0 -0.11921423011E+03 -0.55297615617E+01 -0.30727210351E+03  0.32966077856E+03  0.41800000000E+01 0. -1.
         -5    1    3    3    0  502 -0.10387661571E+02 -0.35298389190E+02 -0.38677319642E+03  0.38854196384E+03  0.41800000000E+01 0. -1.
        -11    1    1    2    0    0  0.79170020608E+02 -0.23121672799E+02 -0.33998055591E+03  0.34984179612E+03  0.00000000000E+00 0.  1.
         11    1    1    2    0    0  0.50431871073E+02  0.63949823551E+02 -0.30141437461E+03  0.31222360381E+03  0.00000000000E+00 0. -1.
</event>
<event>
 7    1  0.2612213E-009  0.1122802E+03  0.7561462E-02  0.1256405E+00
          2   -1    0    0  501    0  0.00000000000E+00  0.00000000000E+00  0.44691275912E+03  0.44691275912E+03  0.00000000000E+00 0. -1.
         -2   -1    0    0    0  501 -0.00000000000E+00 -0.00000000000E+00 -0.33466251323E+02  0.33466251323E+02  0.00000000000E+00 0.  1.
         25    2    1    2    0    0  0.92485738798E+01  0.41277427346E+02  0.15458179327E+03  0.20330460029E+03  0.12509143680E+03 0.  0.
          5    1    3    3  502    0 -0.40911338930E+02  0.63846505041E+02  0.10134654515E+03  0.12664402265E+03  0.41800000000E+01 0. -1.
         -5    1    3    3    0  502  0.50159912810E+02 -0.22569077695E+02  0.53235248123E+02  0.76660577638E+02  0.41800000000E+01 0. -1.
        -11    1    1    2    0    0 -0.46434760520E+02 -0.26292252790E+02  0.10137370679E+03  0.11456045553E+03  0.00000000000E+00 0.  1.
         11    1    1    2    0    0  0.37186186640E+02 -0.14985174556E+02  0.15749100773E+03  0.16251395463E+03  0.00000000000E+00 0. -1.
</event>
<event>
 7    1  0.2612213E-009  0.9184892E+02  0.7561462E-02  0.1298435E+00
          1   -1    0    0  501    0  0.00000000000E+00  0.00000000000E+00  0.15814690610E+03  0.15814690610E+03  0.00000000000E+00 0. -1.
         -1   -1    0    0    0  501 -0.00000000000E+00 -0.00000000000E+00 -0.90268838533E+02  0.90268838533E+02  0.00000000000E+00 0.  1.
         25    2    1    2    0    0  0.23053594052E+02  0.33609323125E+02  0.71185586185E+02  0.14958372937E+03  0.12508736792E+03 0.  0.
          5    1    3    3  502    0 -0.18796564548E+02 -0.23957026912E+02 -0.17833015735E+02  0.35535036618E+02  0.41800000000E+01 0. -1.
         -5    1    3    3    0  502  0.41850158600E+02  0.57566350037E+02  0.89018601920E+02  0.11404869276E+03  0.41800000000E+01 0. -1.
        -11    1    1    2    0    0  0.16026720534E+02  0.13147521813E+02  0.24292421966E+02  0.31934853466E+02  0.00000000000E+00 0. -1.
         11    1    1    2    0    0 -0.39080314586E+02 -0.46756844938E+02 -0.27599940580E+02  0.66897161798E+02  0.00000000000E+00 0.  1.
</event>
<event>
 7    1  0.2754280E-009  0.1970136E+03  0.7561462E-02  0.1152283E+00
         -2   -1    0    0    0  501 -0.00000000000E+00  0.00000000000E+00  0.36961890059E+02  0.36961890059E+02  0.00000000000E+00 0.  1.
          2   -1    0    0  501    0  0.00000000000E+00 -0.00000000000E+00 -0.14731166007E+04  0.14731166007E+04  0.00000000000E+00 0. -1.
         25    2    1    2    0    0  0.12823456245E+03 -0.13087151448E+03 -0.10496171622E+04  0.10728071606E+04  0.12509020862E+03 0.  0.
          5    1    3    3  502    0  0.12255319945E+03 -0.14378171884E+03 -0.10348517214E+04  0.10519638906E+04  0.41800000000E+01 0.  1.
         -5    1    3    3    0  502  0.56813630086E+01  0.12910204358E+02 -0.14765440742E+02  0.20843269957E+02  0.41800000000E+01 0.  1.
        -11    1    1    2    0    0 -0.11516208966E+03  0.86337547516E+02 -0.20899532086E+03  0.25376273002E+03  0.00000000000E+00 0.  1.
         11    1    1    2    0    0 -0.13072472796E+02  0.44533966969E+02 -0.17754222763E+03  0.18350860021E+03  0.00000000000E+00 0. -1.
</event>
<event>
 7    1  0.2612213E-009  0.1046274E+03  0.7561462E-02  0.1270855E+00
          4   -1    0    0  501    0  0.00000000000E+00  0.00000000000E+00  0.72282913035E+02  0.72282913035E+02  0.00000000000E+00 0. -1.
         -4   -1    0    0    0  501 -0.00000000000E+00 -0.00000000000E+00 -0.23042090428E+03  0.23042090428E+03  0.00000000000E+00 0.  1.
         25    2    1    2    0    0  0.27329540865E+02 -0.58335968978E+02 -0.11962290476E+03  0.18468117484E+03  0.12508999927E+03 0.  0.
          5    1    3    3  502    0  0.19718303981E+02 -0.94177089147E+02 -0.56736946050E+02  0.11177964519E+03  0.41800000000E+01 0. -1.
         -5    1    3    3    0  502  0.76112368837E+01  0.35841120169E+02 -0.62885958714E+02  0.72901529650E+02  0.41800000000E+01 0. -1.
        -11    1    1    2    0    0 -0.36155582380E+02  0.31970101350E+02  0.20769292146E+02  0.52542145120E+02  0.00000000000E+00 0. -1.
         11    1    1    2    0    0  0.88260415151E+01  0.26365867627E+02 -0.59284378626E+02  0.65480497353E+02  0.00000000000E+00 0.  1.
</event>
<event>
 7    1  0.2612213E-009  0.1128400E+03  0.7561462E-02  0.1255399E+00
         -1   -1    0    0    0  501 -0.00000000000E+00  0.00000000000E+00  0.35097802638E+02  0.35097802638E+02  0.00000000000E+00 0.  1.
          1   -1    0    0  501    0  0.00000000000E+00 -0.00000000000E+00 -0.50195655832E+03  0.50195655832E+03  0.00000000000E+00 0. -1.
         25    2    1    2    0    0 -0.42375333103E+02 -0.46415865244E+02 -0.34753871348E+03  0.37467364590E+03  0.12508829749E+03 0.  0.
          5    1    3    3  502    0 -0.52656296162E+02 -0.84683050065E+02 -0.25979767502E+03  0.27830955578E+03  0.41800000000E+01 0. -1.
         -5    1    3    3    0  502  0.10280963059E+02  0.38267184822E+02 -0.87741038460E+02  0.96364090125E+02  0.41800000000E+01 0. -1.
        -11    1    1    2    0    0  0.20165131643E+02  0.57696181431E+02 -0.27103200191E+02  0.66858547296E+02  0.00000000000E+00 0.  1.
         11    1    1    2    0    0  0.22210201460E+02 -0.11280316188E+02 -0.92216842011E+02  0.95522167755E+02  0.00000000000E+00 0. -1.
</event>
<event>
 7    1  0.2612213E-009  0.1192856E+03  0.7561462E-02  0.1244280E+00
          1   -1    0    0  501    0  0.00000000000E+00  0.00000000000E+00  0.34426195970E+03  0.34426195970E+03  0.00000000000E+00 0. -1.
         -1   -1    0    0    0  501 -0.00000000000E+00 -0.00000000000E+00 -0.58659499524E+02  0.58659499524E+02  0.00000000000E+00 0.  1.
         25    2    1    2    0    0  0.60246857274E+02 -0.12297478326E+02  0.26112821766E+03  0.29600179050E+03  0.12509277410E+03 0.  0.
          5    1    3    3  502    0  0.85652737471E+02 -0.42677662562E+02  0.21290799184E+03  0.23346318705E+03  0.41800000000E+01 0. -1.
         -5    1    3    3    0  502 -0.25405880196E+02  0.30380184236E+02  0.48220225820E+02  0.62538603445E+02  0.41800000000E+01 0. -1.
        -11    1    1    2    0    0  0.11725709045E+02 -0.20695234776E+02  0.12418126663E+02  0.26832720042E+02  0.00000000000E+00 0.  1.
         11    1    1    2    0    0 -0.71972566319E+02  0.32992713102E+02  0.12056115851E+02  0.80086948686E+02  0.00000000000E+00 0. -1.
</event>
<event>
 7    1  0.2612213E-009  0.6739168E+02  0.7561462E-02  0.1369194E+00
          1   -1    0    0  501    0  0.00000000000E+00  0.00000000000E+00  0.10678114929E+03  0.10678114929E+03  0.00000000000E+00 0. -1.
         -1   -1    0    0    0  501 -0.00000000000E+00 -0.00000000000E+00 -0.11659147402E+03  0.11659147402E+03  0.00000000000E+00 0.  1.
         25    2    1    2    0    0  0.16443659153E+02 -0.14638289419E+02  0.21684675420E+01  0.12703211421E+03  0.12509109619E+03 0.  0.
          5    1    3    3  502    0  0.26748703374E+02 -0.43355572369E+02 -0.46722575799E+02  0.69250778168E+02  0.41800000000E+01 0.  1.
         -5    1    3    3    0  502 -0.10305044221E+02  0.28717282950E+02  0.48891043341E+02  0.57781336047E+02  0.41800000000E+01 0.  1.
        -11    1    1    2    0    0  0.49612141097E+01  0.27471995766E+02 -0.46203610016E+02  0.53982383935E+02  0.00000000000E+00 0.  1.
         11    1    1    2    0    0 -0.21404873263E+02 -0.12833706347E+02  0.34224817739E+02  0.42358125162E+02  0.00000000000E+00 0. -1.
</event>
<event>
 7    1  0.2612213E-009  0.9252960E+02  0.7561462E-02  0.1296839E+00
          2   -1    0    0  501    0  0.00000000000E+00  0.00000000000E+00  0.57441512082E+02  0.57441512082E+02  0.00000000000E+00 0. -1.
         -2   -1    0    0    0  501 -0.00000000000E+00 -0.00000000000E+00 -0.37112931073E+03  0.37112931073E+03  0.00000000000E+00 0.  1.
         25    2    1    2    0    0 -0.50442108059E+02 -0.69896352785E+02 -0.23561138563E+03  0.28033866644E+03  0.12508851451E+03 0.  0.
          5    1    3    3  502    0 -0.44652740494E+02 -0.72522323423E+02 -0.59297215106E+02  0.10386041954E+03  0.41800000000E+01 0. -1.
         -5    1    3    3    0  502 -0.57893675648E+01  0.26259706382E+01 -0.17631417053E+03  0.17647824690E+03  0.41800000000E+01 0. -1.
        -11    1    1    2    0    0 -0.11781112565E+01  0.21150269488E+02 -0.74159321433E+02  0.77125396602E+02  0.00000000000E+00 0.  1.
         11    1    1    2    0    0  0.51620219316E+02  0.48746083298E+02 -0.39170915836E+01  0.71106759774E+02  0.00000000000E+00 0. -1.
</event>
<event>
 7    1  0.2612213E-009  0.8663794E+02  0.7561462E-02  0.1311204E+00
         -1   -1    0    0    0  501 -0.00000000000E+00  0.00000000000E+00  0.16802463074E+03  0.16802463074E+03  0.00000000000E+00 0.  1.
          1   -1    0    0  501    0  0.00000000000E+00 -0.00000000000E+00 -0.90448952659E+02  0.90448952659E+02  0.00000000000E+00 0. -1.
         25    2    1    2    0    0  0.15696930430E+02 -0.19523395563E+02  0.98852396285E+02  0.16139080618E+03  0.12509052509E+03 0.  0.
          5    1    3    3  502    0  0.82192159194E+01  0.53344341024E+02  0.44606380551E+02  0.70145390551E+02  0.41800000000E+01 0. -1.
         -5    1    3    3    0  502  0.74777145109E+01 -0.72867736587E+02  0.54246015734E+02  0.91245415625E+02  0.41800000000E+01 0. -1.
        -11    1    1    2    0    0  0.56791246547E+01  0.23371141447E+02  0.31720442561E+02  0.39807652351E+02  0.00000000000E+00 0.  1.
         11    1    1    2    0    0 -0.21376055085E+02 -0.38477458842E+01 -0.52997160768E+02  0.57275124870E+02  0.00000000000E+00 0. -1.
</event>
<event>
 7    1  0.2612213E-009  0.1890939E+03  0.7561462E-02  0.1159281E+00
          2   -1    0    0  501    0  0.00000000000E+00  0.00000000000E+00  0.27361352810E+03  0.27361352810E+03  0.00000000000E+00 0. -1.
         -2   -1    0    0    0  501 -0.00000000000E+00 -0.00000000000E+00 -0.15605361388E+03  0.15605361388E+03  0.00000000000E+00 0.  1.
         25    2    1    2    0    0  0.17252843221E+03  0.35724131838E+02  0.59827000370E+02  0.22420558422E+03  0.12508637219E+03 0.  0.
          5    1    3    3  502    0  0.10995498184E+03  0.56955544800E+02  0.88287160585E+02  0.15213851333E+03  0.41800000000E+01 0. -1.
         -5    1    3    3    0  502  0.62573450363E+02 -0.21231412961E+02 -0.28460160214E+02  0.72067070886E+02  0.41800000000E+01 0. -1.
        -11    1    1    2    0    0 -0.12811566602E+03 -0.55300663080E+02  0.14198185515E+02  0.14026181123E+03  0.00000000000E+00 0.  1.
         11    1    1    2    0    0 -0.44412766185E+02  0.19576531242E+02  0.43534728342E+02  0.65199746530E+02  0.00000000000E+00 0. -1.
</event>
<event>
 7    1  0.2612213E-009  0.1105395E+03  0.7561462E-02  0.1259574E+00
          1   -1    0    0  501    0  0.00000000000E+00  0.00000000000E+00  0.23449343984E+03  0.23449343984E+03  0.00000000000E+00 0. -1.
         -1   -1    0    0    0  501 -0.00000000000E+00 -0.00000000000E+00 -0.62559066628E+02  0.62559066628E+02  0.00000000000E+00 0.  1.
         25    2    1    2    0    0 -0.47250417569E+02 -0.14318096990E+02  0.67156770137E+02  0.15030027011E+03  0.12507009858E+03 0.  0.
          5    1    3    3  502    0  0.16422672907E+02 -0.45079717757E+02  0.63056112625E+02  0.79343751347E+02  0.41800000000E+01 0. -1.
         -5    1    3    3    0  502 -0.63673090476E+02  0.30761620767E+02  0.41006575113E+01  0.70956518763E+02  0.41800000000E+01 0. -1.
        -11    1    1    2    0    0  0.58603868574E+02 -0.23089736164E+02  0.72630501992E+02  0.96139165523E+02  0.00000000000E+00 0. -1.
         11    1    1    2    0    0 -0.11353451005E+02  0.37407833154E+02  0.32147101080E+02  0.50613070830E+02  0.00000000000E+00 0.  1.
</event>
<event>
 7    1  0.2612213E-009  0.9608229E+02  0.7561462E-02  0.1288757E+00
          2   -1    0    0  501    0  0.00000000000E+00  0.00000000000E+00  0.51314093935E+02  0.51314093935E+02  0.00000000000E+00 0. -1.
         -2   -1    0    0    0  501 -0.00000000000E+00 -0.00000000000E+00 -0.23902966117E+03  0.23902966117E+03  0.00000000000E+00 0.  1.
         25    2    1    2    0    0 -0.15305639323E+02 -0.17005797547E+02 -0.12709136631E+03  0.17978610076E+03  0.12508943557E+03 0.  0.
          5    1    3    3  502    0  0.11669149485E+02  0.46816623171E+02 -0.20510833644E+02  0.52594029619E+02  0.41800000000E+01 0. -1.
         -5    1    3    3    0  502 -0.26974788807E+02 -0.63822420717E+02 -0.10658053266E+03  0.12719207114E+03  0.41800000000E+01 0. -1.
        -11    1    1    2    0    0  0.11581069791E+02 -0.27405944911E+02  0.60483567744E+01  0.30360988351E+02  0.00000000000E+00 0. -1.
         11    1    1    2    0    0  0.37245695320E+01  0.44411742458E+02 -0.66672557700E+02  0.80196665994E+02  0.00000000000E+00 0.  1.
</event>
<event>
 7    1  0.2612213E-009  0.1263031E+03  0.7561462E-02  0.1233047E+00
         -1   -1    0    0    0  501 -0.00000000000E+00  0.00000000000E+00  0.15678896397E+02  0.15678896397E+02  0.00000000000E+00 0.  1.
          1   -1    0    0  501    0  0.00000000000E+00 -0.00000000000E+00 -0.11342190598E+04  0.11342190598E+04  0.00000000000E+00 0. -1.
         25    2    1    2    0    0  0.84933590626E+01 -0.70017268677E+02 -0.54655623718E+03  0.56510514994E+03  0.12508219309E+03 0.  0.
          5    1    3    3  502    0  0.41530420385E+02 -0.85178248078E+02 -0.47875218307E+03  0.48805863885E+03  0.41800000000E+01 0. -1.
         -5    1    3    3    0  502 -0.33037061322E+02  0.15160979401E+02 -0.67804054108E+02  0.77046511087E+02  0.41800000000E+01 0. -1.
        -11    1    1    2    0    0  0.24070453252E+02 -0.16190033172E+02 -0.16235675735E+03  0.16492792532E+03  0.00000000000E+00 0.  1.
         11    1    1    2    0    0 -0.32563812315E+02  0.86207301848E+02 -0.40962716890E+03  0.41986488096E+03  0.00000000000E+00 0. -1.
</event>
<event>
 7    1  0.2612213E-009  0.8889047E+02  0.7561462E-02  0.1305561E+00
         -1   -1    0    0    0  501 -0.00000000000E+00  0.00000000000E+00  0.71959575782E+03  0.71959575782E+03  0.00000000000E+00 0.  1.
          1   -1    0    0  501    0  0.00000000000E+00 -0.00000000000E+00 -0.23710326499E+02  0.23710326499E+02  0.00000000000E+00 0. -1.
         25    2    1    2    0    0 -0.20712924884E+02 -0.31998390689E+02  0.56052333447E+03  0.57558834795E+03  0.12515037177E+03 0.  0.
          5    1    3    3  502    0 -0.31199149064E+02  0.13403043490E+02  0.48854794550E+03  0.48974441899E+03  0.41800000000E+01 0.  1.
         -5    1    3    3    0  502  0.10486224180E+02 -0.45401434179E+02  0.71975388960E+02  0.85843928958E+02  0.41800000000E+01 0.  1.
        -11    1    1    2    0    0  0.52764284399E+02  0.18724565241E+01  0.91240774586E+02  0.10541562858E+03  0.00000000000E+00 0. -1.
         11    1    1    2    0    0 -0.32051359514E+02  0.30125934164E+02  0.44121322268E+02  0.62302107786E+02  0.00000000000E+00 0.  1.
</event>
<event>
 7    1  0.2612213E-009  0.1257664E+03  0.7561462E-02  0.1233876E+00
          1   -1    0    0  501    0  0.00000000000E+00  0.00000000000E+00  0.98799862242E+02  0.98799862242E+02  0.00000000000E+00 0. -1.
         -1   -1    0    0    0  501 -0.00000000000E+00 -0.00000000000E+00 -0.19255610632E+03  0.19255610632E+03  0.00000000000E+00 0.  1.
         25    2    1    2    0    0 -0.79159417263E+02 -0.54285915892E+01 -0.80375016185E+02  0.16853517139E+03  0.12509307663E+03 0.  0.
          5    1    3    3  502    0 -0.48384983439E+02  0.49784037652E+02 -0.45032386460E+01  0.69694394220E+02  0.41800000000E+01 0. -1.
         -5    1    3    3    0  502 -0.30774433823E+02 -0.55212629241E+02 -0.75871777539E+02  0.98840777171E+02  0.41800000000E+01 0. -1.
        -11    1    1    2    0    0  0.84008960696E+02  0.33283517312E+02  0.24910335598E+01  0.90396367461E+02  0.00000000000E+00 0.  1.
         11    1    1    2    0    0 -0.48495434336E+01 -0.27854925723E+02 -0.15872261456E+02  0.32424429714E+02  0.00000000000E+00 0. -1.
</event>
<event>
 7    1  0.2612213E-009  0.1115110E+03  0.7561462E-02  0.1257797E+00
         -2   -1    0    0    0  501 -0.00000000000E+00  0.00000000000E+00  0.32528675463E+02  0.32528675463E+02  0.00000000000E+00 0.  1.
          2   -1    0    0  501    0  0.00000000000E+00 -0.00000000000E+00 -0.68377150794E+03  0.68377150794E+03  0.00000000000E+00 0. -1.
         25    2    1    2    0    0  0.84864816568E+02 -0.33249897917E+01 -0.23015192575E+03  0.27537190437E+03  0.12508670649E+03 0.  0.
          5    1    3    3  502    0  0.79738100798E+02 -0.43080767738E+02 -0.21310123160E+03  0.23161114951E+03  0.41800000000E+01 0. -1.
         -5    1    3    3    0  502  0.51267157701E+01  0.39755777947E+02 -0.17050694147E+02  0.43760754856E+02  0.41800000000E+01 0. -1.
        -11    1    1    2    0    0 -0.79691831536E+02 -0.74498738839E+01 -0.42143775992E+03  0.42897094787E+03  0.00000000000E+00 0. -1.
         11    1    1    2    0    0 -0.51729850320E+01  0.10774863676E+02  0.34685319044E+00  0.11957331161E+02  0.00000000000E+00 0.  1.
</event>
<event>
 7    1  0.3073347E-009  0.1634014E+03  0.7561462E-02  0.1184909E+00
          1   -1    0    0  501    0  0.00000000000E+00  0.00000000000E+00  0.77754316301E+03  0.77754316301E+03  0.00000000000E+00 0. -1.
         -1   -1    0    0    0  501 -0.00000000000E+00 -0.00000000000E+00 -0.77026950222E+02  0.77026950222E+02  0.00000000000E+00 0.  1.
         25    2    1    2    0    0 -0.82576019580E+02  0.92444335068E+02  0.45765699411E+02  0.18195209691E+03  0.12508921709E+03 0.  0.
          5    1    3    3  502    0 -0.21484962591E+02  0.10864869865E+03  0.41918116769E+02  0.11849364645E+03  0.41800000000E+01 0.  1.
         -5    1    3    3    0  502 -0.61091056989E+02 -0.16204363581E+02  0.38475826420E+01  0.63458450464E+02  0.41800000000E+01 0.  1.
        -11    1    1    2    0    0  0.90152323113E+02 -0.38287947963E+02  0.37552155703E+03  0.38808484654E+03  0.00000000000E+00 0.  1.
         11    1    1    2    0    0 -0.75763035333E+01 -0.54156387105E+02  0.27922895635E+03  0.28453316978E+03  0.00000000000E+00 0. -1.
</event>
<event>
 7    1  0.2612213E-009  0.1169930E+03  0.7561462E-02  0.1248142E+00
         -4   -1    0    0    0  501 -0.00000000000E+00  0.00000000000E+00  0.89213811332E+02  0.89213811332E+02  0.00000000000E+00 0.  1.
          4   -1    0    0  501    0  0.00000000000E+00 -0.00000000000E+00 -0.26852885729E+03  0.26852885729E+03  0.00000000000E+00 0. -1.
         25    2    1    2    0    0 -0.75294252228E+02  0.23663554467E+02 -0.19213389360E+03  0.24248245255E+03  0.12511242342E+03 0.  0.
          5    1    3    3  502    0  0.31527088062E+02  0.22047354058E+01 -0.16864810090E+02  0.36065390047E+02  0.41800000000E+01 0. -1.
         -5    1    3    3    0  502 -0.10682134029E+03  0.21458819061E+02 -0.17526908351E+03  0.20641706250E+03  0.41800000000E+01 0. -1.
        -11    1    1    2    0    0  0.29773117279E+02 -0.35208004842E+02 -0.27222252663E+02  0.53545244023E+02  0.00000000000E+00 0. -1.
         11    1    1    2    0    0  0.45521134949E+02  0.11544450375E+02  0.40041100307E+02  0.61714972051E+02  0.00000000000E+00 0.  1.
</event>
<event>
 7    1  0.2612213E-009  0.8762116E+02  0.7561462E-02  0.1308717E+00
          1   -1    0    0  501    0  0.00000000000E+00  0.00000000000E+00  0.26894464369E+03  0.26894464369E+03  0.00000000000E+00 0. -1.
         -1   -1    0    0    0  501 -0.00000000000E+00 -0.00000000000E+00 -0.92895387151E+02  0.92895387151E+02  0.00000000000E+00 0.  1.
         25    2    1    2    0    0 -0.51167460768E+02  0.42488989781E+02 -0.12745368169E+02  0.14224363777E+03  0.12508950708E+03 0.  0.
          5    1    3    3  502    0 -0.46710407660E+01  0.83646440710E+01 -0.64075182934E+02  0.64922163860E+02  0.41800000000E+01 0. -1.
         -5    1    3    3    0  502 -0.46496420002E+02  0.34124345710E+02  0.51329814765E+02  0.77321473905E+02  0.41800000000E+01 0. -1.
        -11    1    1    2    0    0 -0.35849516448E+01  0.22043635179E+02  0.16931098240E+02  0.28025627876E+02  0.00000000000E+00 0. -1.
         11    1    1    2    0    0  0.54752412412E+02 -0.64532624960E+02  0.17186352647E+03  0.19157076520E+03  0.00000000000E+00 0.  1.
</event>
<event>
 7    1  0.2612213E-009  0.7908397E+02  0.7561462E-02  0.1331671E+00
          1   -1    0    0  501    0  0.00000000000E+00  0.00000000000E+00  0.40563199913E+02  0.40563199913E+02  0.00000000000E+00 0. -1.
         -1   -1    0    0    0  501 -0.00000000000E+00 -0.00000000000E+00 -0.30373662560E+03  0.30373662560E+03  0.00000000000E+00 0.  1.
         25    2    1    2    0    0 -0.18611032917E+02 -0.14930721598E+01 -0.15947254896E+03  0.20353397656E+03  0.12508391556E+03 0.  0.
          5    1    3    3  502    0 -0.41737197296E+02  0.37363520561E+02 -0.14558624257E+03  0.15604759765E+03  0.41800000000E+01 0.  1.
         -5    1    3    3    0  502  0.23126164379E+02 -0.38856592721E+02 -0.13886306389E+02  0.47486378909E+02  0.41800000000E+01 0.  1.
        -11    1    1    2    0    0  0.20511322899E+02  0.25373739608E+02 -0.11102117553E+03  0.11571621514E+03  0.00000000000E+00 0.  1.
         11    1    1    2    0    0 -0.19002899826E+01 -0.23880667449E+02  0.73202988053E+01  0.25049633818E+02  0.00000000000E+00 0. -1.
</event>
<event>
 7    1  0.2612213E-009  0.1169023E+03  0.7561462E-02  0.1248297E+00
         -1   -1    0    0    0  501 -0.00000000000E+00  0.00000000000E+00  0.31285575549E+02  0.31285575549E+02  0.00000000000E+00 0.  1.
          1   -1    0    0  501    0  0.00000000000E+00 -0.00000000000E+00 -0.99724812261E+03  0.99724812261E+03  0.00000000000E+00 0. -1.
         25    2    1    2    0    0  0.60954258519E+01 -0.92714915305E+02 -0.82197797390E+03  0.83661739986E+03  0.12509066483E+03 0.  0.
          5    1    3    3  502    0  0.16778901552E+02 -0.10730250518E+03 -0.80207192297E+03  0.80940237285E+03  0.41800000000E+01 0. -1.
         -5    1    3    3    0  502 -0.10683475700E+02  0.14587589874E+02 -0.19906050927E+02  0.27215027005E+02  0.41800000000E+01 0. -1.
        -11    1    1    2    0    0 -0.28575126591E+02  0.64020129583E+02 -0.37799368803E+02  0.79648648032E+02  0.00000000000E+00 0.  1.
         11    1    1    2    0    0  0.22479700739E+02  0.28694785722E+02 -0.10618520436E+03  0.11226765028E+03  0.00000000000E+00 0. -1.
</event>
<event>
 7    1  0.2612213E-009  0.1357112E+03  0.7561462E-02  0.1219219E+00
         -2   -1    0    0    0  501 -0.00000000000E+00  0.00000000000E+00  0.61669569847E+03  0.61669569847E+03  0.00000000000E+00 0.  1.
          2   -1    0    0  501    0  0.00000000000E+00 -0.00000000000E+00 -0.35518949609E+02  0.35518949609E+02  0.00000000000E+00 0. -1.
         25    2    1    2    0    0  0.21610430663E+02 -0.11014259491E+03  0.42977409981E+03  0.46146740826E+03  0.12509192656E+03 0.  0.
          5    1    3    3  502    0  0.33581455622E+02  0.11721859180E+02  0.17672135717E+03  0.18031368951E+03  0.41800000000E+01 0. -1.
         -5    1    3    3    0  502 -0.11971024959E+02 -0.12186445409E+03  0.25305274264E+03  0.28115371875E+03  0.41800000000E+01 0. -1.
        -11    1    1    2    0    0 -0.57112590791E+00  0.36324192705E+02  0.30000652981E+02  0.47114884482E+02  0.00000000000E+00 0. -1.
         11    1    1    2    0    0 -0.21039304755E+02  0.73818402209E+02  0.12140199607E+03  0.14363235534E+03  0.00000000000E+00 0.  1.
</event>
<event>
 7    1  0.2612213E-009  0.1081840E+03  0.7561462E-02  0.1263970E+00
         -1   -1    0    0    0  501 -0.00000000000E+00  0.00000000000E+00  0.23735701404E+03  0.23735701404E+03  0.00000000000E+00 0.  1.
          1   -1    0    0  501    0  0.00000000000E+00 -0.00000000000E+00 -0.10623502381E+03  0.10623502381E+03  0.00000000000E+00 0. -1.
         25    2    1    2    0    0 -0.18650205873E+02  0.77349899756E+02  0.16036716683E+03  0.21839426574E+03  0.12509032712E+03 0.  0.
          5    1    3    3  502    0  0.53245074649E+01  0.71819550763E+02  0.17512484931E+03  0.18940059001E+03  0.41800000000E+01 0. -1.
         -5    1    3    3    0  502 -0.23974713338E+02  0.55303489933E+01 -0.14757682482E+02  0.28993675722E+02  0.41800000000E+01 0. -1.
        -11    1    1    2    0    0 -0.29142959027E+02 -0.95304209221E+00  0.33914576213E+01  0.29355107475E+02  0.00000000000E+00 0.  1.
         11    1    1    2    0    0  0.47793164900E+02 -0.76396857664E+02 -0.32636634219E+02  0.95842664639E+02  0.00000000000E+00 0. -1.
</event>
<event>
 7    1  0.2612213E-009  0.1007585E+03  0.7561462E-02  0.1278709E+00
          1   -1    0    0  501    0  0.00000000000E+00  0.00000000000E+00  0.10180446925E+03  0.10180446925E+03  0.00000000000E+00 0. -1.
         -1   -1    0    0    0  501 -0.00000000000E+00 -0.00000000000E+00 -0.12297118746E+03  0.12297118746E+03  0.00000000000E+00 0.  1.
         25    2    1    2    0    0  0.12523617604E+02  0.24618402077E+02 -0.36946773474E+01  0.12815612684E+03  0.12508970976E+03 0.  0.
          5    1    3    3  502    0 -0.18725987181E+02  0.62108439101E+02  0.26956261410E+02  0.70372105501E+02  0.41800000000E+01 0.  1.
         -5    1    3    3    0  502  0.31249604786E+02 -0.37490037024E+02 -0.30650938757E+02  0.57784021338E+02  0.41800000000E+01 0.  1.
        -11    1    1    2    0    0  0.15552383201E+02 -0.48334852003E+02 -0.28527448817E+02  0.58240448808E+02  0.00000000000E+00 0.  1.
         11    1    1    2    0    0 -0.28076000805E+02  0.23716449926E+02  0.11055407960E+02  0.38379081066E+02  0.00000000000E+00 0. -1.
</event>
<event>
 7    1  0.2612213E-009  0.1087749E+03  0.7561462E-02  0.1262856E+00
          1   -1    0    0  501    0  0.00000000000E+00  0.00000000000E+00  0.16473457093E+03  0.16473457093E+03  0.00000000000E+00 0. -1.
         -1   -1    0    0    0  501 -0.00000000000E+00 -0.00000000000E+00 -0.87783224736E+02  0.87783224736E+02  0.00000000000E+00 0.  1.
         25    2    1    2    0    0 -0.46132266796E+02  0.21673614549E+02  0.50447641772E+02  0.14419086877E+03  0.12509240772E+03 0.  0.
          5    1    3    3  502    0  0.74576437501E+01 -0.43285179396E+02  0.39404652260E+02  0.59155914543E+02  0.41800000000E+01 0. -1.
         -5    1    3    3    0  502 -0.53589910546E+02  0.64958793945E+02  0.11042989512E+02  0.85034954227E+02  0.41800000000E+01 0. -1.
        -11    1    1    2    0    0  0.38461522924E+02  0.22311585116E+02 -0.15437769261E+02  0.47068251463E+02  0.00000000000E+00 0.  1.
         11    1    1    2    0    0  0.76707438713E+01 -0.43985199665E+02  0.41941473683E+02  0.61258675433E+02  0.00000000000E+00 0. -1.
</event>
<event>
 7    1  0.2612213E-009  0.1091775E+03  0.7561462E-02  0.1262101E+00
          2   -1    0    0  501    0  0.00000000000E+00  0.00000000000E+00  0.30822207193E+03  0.30822207193E+03  0.00000000000E+00 0. -1.
         -2   -1    0    0    0  501 -0.00000000000E+00 -0.00000000000E+00 -0.61419253697E+02  0.61419253697E+02  0.00000000000E+00 0.  1.
         25    2    1    2    0    0  0.35285988910E+02  0.23726686942E+02  0.23533416433E+03  0.26990075966E+03  0.12512471569E+03 0.  0.
          5    1    3    3  502    0 -0.36719661123E+02 -0.17968424729E+02  0.12542265169E+03  0.13198299799E+03  0.41800000000E+01 0.  1.
         -5    1    3    3    0  502  0.72005650033E+02  0.41695111670E+02  0.10991151264E+03  0.13791776167E+03  0.41800000000E+01 0.  1.
        -11    1    1    2    0    0 -0.32399142916E+02  0.27588542464E+02  0.21023047544E+02  0.47463677323E+02  0.00000000000E+00 0. -1.
         11    1    1    2    0    0 -0.28868459940E+01 -0.51315229405E+02 -0.95543936410E+01  0.52276888647E+02  0.00000000000E+00 0.  1.
</event>
<event>
 7    1  0.2612213E-009  0.2273375E+03  0.7561462E-02  0.1128528E+00
         -4   -1    0    0    0  501 -0.00000000000E+00  0.00000000000E+00  0.51045863416E+03  0.51045863416E+03  0.00000000000E+00 0. -1.
          4   -1    0    0  501    0  0.00000000000E+00 -0.00000000000E+00 -0.19594924516E+03  0.19594924516E+03  0.00000000000E+00 0.  1.
         25    2    1    2    0    0 -0.20798839539E+03 -0.85261963663E+02  0.37641024345E+03  0.45591922374E+03  0.12509553204E+03 0.  0.
          5    1    3    3  502    0 -0.11375607214E+03 -0.37025649586E+02  0.87720523019E+02  0.14840385856E+03  0.41800000000E+01 0. -1.
         -5    1    3    3    0  502 -0.94232323253E+02 -0.48236314078E+02  0.28868972044E+03  0.30751536519E+03  0.41800000000E+01 0. -1.
        -11    1    1    2    0    0  0.10647040949E+03  0.19970029782E+02 -0.70876434146E+02  0.12945354033E+03  0.00000000000E+00 0.  1.
         11    1    1    2    0    0  0.10151798590E+03  0.65291933882E+02  0.89755796862E+01  0.12103511524E+03  0.00000000000E+00 0. -1.
</event>
<event>
 7    1  0.2898529E-009  0.1281658E+03  0.7561462E-02  0.1230203E+00
          2   -1    0    0  501    0  0.00000000000E+00  0.00000000000E+00  0.57169315234E+03  0.57169315234E+03  0.00000000000E+00 0. -1.
         -2   -1    0    0    0  501 -0.00000000000E+00 -0.00000000000E+00 -0.41976975202E+02  0.41976975202E+02  0.00000000000E+00 0.  1.
         25    2    1    2    0    0 -0.75310716719E+02 -0.79594242194E+02  0.27576425991E+03  0.32202796211E+03  0.12509649832E+03 0.  0.
          5    1    3    3  502    0 -0.55214680671E+02 -0.10092723951E+03  0.26761112021E+03  0.29132139072E+03  0.41800000000E+01 0.  1.
         -5    1    3    3    0  502 -0.20096036048E+02  0.21332997312E+02  0.81531397084E+01  0.30706571386E+02  0.41800000000E+01 0.  1.
        -11    1    1    2    0    0  0.44633192532E+02  0.61507991382E+02  0.24266137600E+03  0.25428310656E+03  0.00000000000E+00 0. -1.
         11    1    1    2    0    0  0.30677524187E+02  0.18086250812E+02  0.11290541224E+02  0.37359058872E+02  0.00000000000E+00 0.  1.
</event>
<event>
 7    1  0.2612213E-009  0.1194578E+03  0.7561462E-02  0.1243994E+00
         -2   -1    0    0    0  501 -0.00000000000E+00  0.00000000000E+00  0.30528565363E+02  0.30528565363E+02  0.00000000000E+00 0. -1.
          2   -1    0    0  501    0  0.00000000000E+00 -0.00000000000E+00 -0.87222592399E+03  0.87222592399E+03  0.00000000000E+00 0.  1.
         25    2    1    2    0    0  0.56984824616E+02  0.47338628316E+02 -0.71985710941E+03  0.73439170473E+03  0.12509477224E+03 0.  0.
          5    1    3    3  502    0 -0.32407690784E+02  0.32053974364E+02 -0.37505727930E+03  0.37784011281E+03  0.41800000000E+01 0. -1.
         -5    1    3    3    0  502  0.89392515400E+02  0.15284653952E+02 -0.34479983012E+03  0.35655159192E+03  0.41800000000E+01 0. -1.
        -11    1    1    2    0    0 -0.12154227430E+02  0.18841354295E+02 -0.68975645468E+02  0.72528349932E+02  0.00000000000E+00 0.  1.
         11    1    1    2    0    0 -0.44830597186E+02 -0.66179982611E+02 -0.52864603743E+02  0.95834434684E+02  0.00000000000E+00 0. -1.
</event>
<event>
 7    1  0.2612213E-009  0.1043856E+03  0.7561462E-02  0.1271335E+00
          1   -1    0    0  501    0  0.00000000000E+00  0.00000000000E+00  0.36921473217E+03  0.36921473217E+03  0.00000000000E+00 0.  1.
         -1   -1    0    0    0  501 -0.00000000000E+00 -0.00000000000E+00 -0.35138763062E+02  0.35138763062E+02  0.00000000000E+00 0. -1.
         25    2    1    2    0    0 -0.13674284403E+02  0.63164388812E+01  0.24465888591E+03  0.27519424666E+03  0.12508804694E+03 0.  0.
          5    1    3    3  502    0 -0.62638609636E+02  0.19747534726E+02  0.84353970894E+02  0.10698890293E+03  0.41800000000E+01 0.  1.
         -5    1    3    3    0  502  0.48964325233E+02 -0.13431095845E+02  0.16030491502E+03  0.16820534373E+03  0.41800000000E+01 0.  1.
        -11    1    1    2    0    0 -0.37985995958E+02  0.70952420930E+01  0.47876079731E+02  0.61525582969E+02  0.00000000000E+00 0.  1.
         11    1    1    2    0    0  0.51660280361E+02 -0.13411680974E+02  0.41541003464E+02  0.67633665599E+02  0.00000000000E+00 0. -1.
</event>
<event>
 7    1  0.2612213E-009  0.7755441E+02  0.7561462E-02  0.1336138E+00
          1   -1    0    0  501    0  0.00000000000E+00  0.00000000000E+00  0.12527409395E+04  0.12527409395E+04  0.00000000000E+00 0. -1.
         -1   -1    0    0    0  501 -0.00000000000E+00 -0.00000000000E+00 -0.12399452851E+02  0.12399452851E+02  0.00000000000E+00 0.  1.
         25    2    1    2    0    0 -0.15286591255E+02 -0.38306866476E+02  0.88121821938E+03  0.89100789867E+03  0.12509368262E+03 0.  0.
          5    1    3    3  502    0  0.10212108471E+02 -0.15427369113E+02  0.82378028515E+03  0.82399861740E+03  0.41800000000E+01 0. -1.
         -5    1    3    3    0  502 -0.25498699726E+02 -0.22879497363E+02  0.57437934226E+02  0.67009281264E+02  0.41800000000E+01 0. -1.
        -11    1    1    2    0    0  0.37114080986E+02  0.60195028330E+02  0.28849716416E+03  0.29703789350E+03  0.00000000000E+00 0.  1.
         11    1    1    2    0    0 -0.21827489732E+02 -0.21888161854E+02  0.70626103068E+02  0.77094600147E+02  0.00000000000E+00 0. -1.
</event>
<event>
 7    1  0.2612213E-009  0.8666609E+02  0.7561462E-02  0.1311132E+00
          1   -1    0    0  501    0  0.00000000000E+00  0.00000000000E+00  0.77365874343E+03  0.77365874343E+03  0.00000000000E+00 0. -1.
         -1   -1    0    0    0  501 -0.00000000000E+00 -0.00000000000E+00 -0.21543938037E+02  0.21543938037E+02  0.00000000000E+00 0.  1.
         25    2    1    2    0    0  0.32258772272E+02 -0.30133503914E+02  0.57458002758E+03  0.58969328884E+03  0.12508920962E+03 0.  0.
          5    1    3    3  502    0  0.19923577660E+02 -0.49252234319E+02  0.55960277719E+03  0.56213474556E+03  0.41800000000E+01 0. -1.
         -5    1    3    3    0  502  0.12335194612E+02  0.19118730405E+02  0.14977250394E+02  0.27558543281E+02  0.41800000000E+01 0. -1.
        -11    1    1    2    0    0 -0.48547246155E+02  0.51014597879E+02  0.15675553995E+03  0.17184767560E+03  0.00000000000E+00 0. -1.
         11    1    1    2    0    0  0.16288473883E+02 -0.20881093966E+02  0.20779237866E+02  0.33661717023E+02  0.00000000000E+00 0.  1.
</event>
<event>
 7    1  0.2612213E-009  0.1645885E+03  0.7561462E-02  0.1183612E+00
         -2   -1    0    0    0  501 -0.00000000000E+00  0.00000000000E+00  0.13455205159E+03  0.13455205159E+03  0.00000000000E+00 0. -1.
          2   -1    0    0  501    0  0.00000000000E+00 -0.00000000000E+00 -0.21205854170E+03  0.21205854170E+03  0.00000000000E+00 0.  1.
         25    2    1    2    0    0 -0.79163817802E+02  0.10281932107E+03 -0.43472750122E+02  0.18539834304E+03  0.12507574811E+03 0.  0.
          5    1    3    3  502    0 -0.53364640023E+02  0.12912913169E+03 -0.48533536332E+02  0.14796990912E+03  0.41800000000E+01 0.  1.
         -5    1    3    3    0  502 -0.25799177779E+02 -0.26309810621E+02  0.50607862101E+01  0.37428433924E+02  0.41800000000E+01 0.  1.
        -11    1    1    2    0    0  0.13636517631E+02 -0.82620587346E+02 -0.39177212179E+02  0.92449824341E+02  0.00000000000E+00 0.  1.
         11    1    1    2    0    0  0.65527300171E+02 -0.20198733721E+02  0.51434721915E+01  0.68762425915E+02  0.00000000000E+00 0. -1.
</event>
<event>
 7    1  0.2612213E-009  0.1340861E+03  0.7561462E-02  0.1221516E+00
         -2   -1    0    0    0  501 -0.00000000000E+00  0.00000000000E+00  0.36731575814E+02  0.36731575814E+02  0.00000000000E+00 0.  1.
          2   -1    0    0  501    0  0.00000000000E+00 -0.00000000000E+00 -0.72598916706E+03  0.72598916706E+03  0.00000000000E+00 0. -1.
         25    2    1    2    0    0 -0.82821745775E+02 -0.80718426934E+02 -0.43577999745E+03  0.46789475627E+03  0.12508553375E+03 0.  0.
          5    1    3    3  502    0 -0.98362430314E+02 -0.76594126289E+02 -0.23172777221E+03  0.26316736252E+03  0.41800000000E+01 0. -1.
         -5    1    3    3    0  502  0.15540684539E+02 -0.41243006443E+01 -0.20405222523E+03  0.20472739376E+03  0.41800000000E+01 0. -1.
        -11    1    1    2    0    0  0.11623793273E+02  0.46308657828E+02 -0.18224810065E+03  0.18839844625E+03  0.00000000000E+00 0. -1.
         11    1    1    2    0    0  0.71197952502E+02  0.34409769106E+02 -0.71229493154E+02  0.10642754035E+03  0.00000000000E+00 0.  1.
</event>
<event>
 7    1  0.2612213E-009  0.9748479E+02  0.7561462E-02  0.1285676E+00
         -2   -1    0    0    0  501 -0.00000000000E+00  0.00000000000E+00  0.10336570641E+03  0.10336570641E+03  0.00000000000E+00 0.  1.
          2   -1    0    0  501    0  0.00000000000E+00 -0.00000000000E+00 -0.16294646421E+03  0.16294646421E+03  0.00000000000E+00 0. -1.
         25    2    1    2    0    0 -0.57453795696E+02  0.34437106554E+02 -0.64159273455E+02  0.15572642861E+03  0.12508978874E+03 0.  0.
          5    1    3    3  502    0 -0.49739360324E+02 -0.43399477663E+01 -0.93660227235E+02  0.10621934700E+03  0.41800000000E+01 0. -1.
         -5    1    3    3    0  502 -0.77144353718E+01  0.38777054320E+02  0.29500953780E+02  0.49507081602E+02  0.41800000000E+01 0. -1.
        -11    1    1    2    0    0 -0.11526278645E+02 -0.34240945801E+02 -0.14633480885E+02  0.38979946531E+02  0.00000000000E+00 0. -1.
         11    1    1    2    0    0  0.68980074341E+02 -0.19616075286E+00  0.19211996546E+02  0.71605795480E+02  0.00000000000E+00 0.  1.
</event>
<event>
 7    1  0.2612213E-009  0.1870746E+03  0.7561462E-02  0.1161127E+00
         -1   -1    0    0    0  501 -0.00000000000E+00  0.00000000000E+00  0.14034033901E+03  0.14034033901E+03  0.00000000000E+00 0.  1.
          1   -1    0    0  501    0  0.00000000000E+00 -0.00000000000E+00 -0.25617885500E+03  0.25617885500E+03  0.00000000000E+00 0. -1.
         25    2    1    2    0    0  0.66326977073E+02 -0.13852610335E+03 -0.34727681016E+02  0.20109791204E+03  0.12508240964E+03 0.  0.
          5    1    3    3  502    0  0.72602495887E+00 -0.13005818594E+03 -0.35255292347E+02  0.13481864441E+03  0.41800000000E+01 0. -1.
         -5    1    3    3    0  502  0.65600952114E+02 -0.84679174085E+01  0.52761133047E+00  0.66279267628E+02  0.41800000000E+01 0. -1.
        -11    1    1    2    0    0 -0.86652216142E+02  0.89027770872E+02 -0.54586006883E+02  0.13569886770E+03  0.00000000000E+00 0.  1.
         11    1    1    2    0    0  0.20325239069E+02  0.49498332476E+02 -0.26524828081E+02  0.59722414267E+02  0.00000000000E+00 0. -1.
</event>
<event>
 7    1  0.2612213E-009  0.2167704E+03  0.7561462E-02  0.1136314E+00
         -1   -1    0    0    0  501 -0.00000000000E+00  0.00000000000E+00  0.32650362362E+02  0.32650362362E+02  0.00000000000E+00 0.  1.
          1   -1    0    0  501    0  0.00000000000E+00 -0.00000000000E+00 -0.17717538163E+04  0.17717538163E+04  0.00000000000E+00 0. -1.
         25    2    1    2    0    0  0.18834547612E+03  0.98501732517E+01 -0.12807014773E+04  0.13005436107E+04  0.12508543094E+03 0.  0.
          5    1    3    3  502    0  0.13819860494E+02  0.44189198990E+02 -0.34010761667E+03  0.34327006448E+03  0.41800000000E+01 0. -1.
         -5    1    3    3    0  502  0.17452561562E+03 -0.34339025738E+02 -0.94059386066E+03  0.95727354623E+03  0.41800000000E+01 0. -1.
        -11    1    1    2    0    0 -0.99570409223E+02  0.40015488077E+02 -0.23202452855E+03  0.25563819654E+03  0.00000000000E+00 0.  1.
         11    1    1    2    0    0 -0.88775066894E+02 -0.49865661329E+02 -0.22637744802E+03  0.24822237138E+03  0.00000000000E+00 0. -1.
</event>
<event>
 7    1  0.2612213E-009  0.1553944E+03  0.7561462E-02  0.1193997E+00
         -2   -1    0    0    0  501 -0.00000000000E+00  0.00000000000E+00  0.28839439360E+02  0.28839439360E+02  0.00000000000E+00 0.  1.
          2   -1    0    0  501    0  0.00000000000E+00 -0.00000000000E+00 -0.11537394173E+04  0.11537394173E+04  0.00000000000E+00 0. -1.
         25    2    1    2    0    0 -0.10491021943E+03  0.75682653016E+02 -0.81200468923E+03  0.83170530650E+03  0.12509229960E+03 0.  0.
          5    1    3    3  502    0 -0.40703036422E+02  0.10182017922E+03 -0.53388439647E+03  0.54504505067E+03  0.41800000000E+01 0. -1.
         -5    1    3    3    0  502 -0.64207183004E+02 -0.26137526200E+02 -0.27812029276E+03  0.28666025583E+03  0.41800000000E+01 0. -1.
        -11    1    1    2    0    0  0.48322658412E+02 -0.20259724220E+02 -0.37819113476E+02  0.64620593355E+02  0.00000000000E+00 0.  1.
         11    1    1    2    0    0  0.56587561015E+02 -0.55422928797E+02 -0.27507617520E+03  0.28625295677E+03  0.00000000000E+00 0. -1.
</event>
<event>
 7    1  0.2612213E-009  0.1246687E+03  0.7561462E-02  0.1235588E+00
         -2   -1    0    0    0  501 -0.00000000000E+00  0.00000000000E+00  0.48177019417E+03  0.48177019417E+03  0.00000000000E+00 0. -1.
          2   -1    0    0  501    0  0.00000000000E+00 -0.00000000000E+00 -0.40905333299E+02  0.40905333299E+02  0.00000000000E+00 0.  1.
         25    2    1    2    0    0 -0.82478703113E+02  0.32038799400E+02  0.23262997699E+03  0.27856638033E+03  0.12511315246E+03 0.  0.
          5    1    3    3  502    0 -0.11051574996E+03  0.22519328262E+02  0.13243226316E+03  0.17400180418E+03  0.41800000000E+01 0. -1.
         -5    1    3    3    0  502  0.28037046843E+02  0.95194711379E+01  0.10019771384E+03  0.10456457615E+03  0.41800000000E+01 0. -1.
        -11    1    1    2    0    0  0.16607144801E+02 -0.36955843035E+02  0.21146768725E+02  0.45702488120E+02  0.00000000000E+00 0.  1.
         11    1    1    2    0    0  0.65871558312E+02  0.49170436349E+01  0.18708811515E+03  0.19840665902E+03  0.00000000000E+00 0. -1.
</event>
<event>
 7    1  0.2612213E-009  0.2539394E+03  0.7561462E-02  0.1110840E+00
          1   -1    0    0  501    0  0.00000000000E+00  0.00000000000E+00  0.40335264921E+03  0.40335264921E+03  0.00000000000E+00 0. -1.
         -1   -1    0    0    0  501 -0.00000000000E+00 -0.00000000000E+00 -0.19800877697E+03  0.19800877697E+03  0.00000000000E+00 0.  1.
         25    2    1    2    0    0  0.21591623093E+03  0.11429581788E+03  0.20109966988E+03  0.34025308034E+03  0.12509088172E+03 0.  0.
          5    1    3    3  502    0  0.12432740807E+03  0.10602965726E+03  0.18488783531E+03  0.24678042196E+03  0.41800000000E+01 0. -1.
         -5    1    3    3    0  502  0.91588822861E+02  0.82661606132E+01  0.16211834570E+02  0.93472658379E+02  0.41800000000E+01 0. -1.
        -11    1    1    2    0    0 -0.12224655079E+03 -0.28901218110E+02  0.35543885560E+02  0.13054833354E+03  0.00000000000E+00 0.  1.
         11    1    1    2    0    0 -0.93669680138E+02 -0.85394599768E+02 -0.31299683197E+02  0.13056001231E+03  0.00000000000E+00 0. -1.
</event>
<event>
 7    1  0.2612213E-009  0.7941282E+02  0.7561462E-02  0.1330726E+00
          1   -1    0    0  501    0  0.00000000000E+00  0.00000000000E+00  0.24120053517E+03  0.24120053517E+03  0.00000000000E+00 0. -1.
         -1   -1    0    0    0  501 -0.00000000000E+00 -0.00000000000E+00 -0.60907450610E+02  0.60907450610E+02  0.00000000000E+00 0.  1.
         25    2    1    2    0    0  0.94671181651E+01 -0.13190418660E+02  0.16733799001E+03  0.20955054008E+03  0.12508322221E+03 0.  0.
          5    1    3    3  502    0  0.26884951055E+02 -0.35744246880E+02  0.17423671534E+03  0.17993431343E+03  0.41800000000E+01 0.  1.
         -5    1    3    3    0  502 -0.17417832890E+02  0.22553828219E+02 -0.68987253278E+01  0.29616226652E+02  0.41800000000E+01 0.  1.
        -11    1    1    2    0    0  0.35778855957E+02  0.17163621973E+02 -0.11038515717E+02  0.41189383123E+02  0.00000000000E+00 0. -1.
         11    1    1    2    0    0 -0.45245974122E+02 -0.39732033131E+01  0.23993610265E+02  0.51368062571E+02  0.00000000000E+00 0.  1.
</event>
<event>
 7    1  0.2612213E-009  0.1462213E+03  0.7561462E-02  0.1205195E+00
          1   -1    0    0  501    0  0.00000000000E+00  0.00000000000E+00  0.47354863078E+03  0.47354863078E+03  0.00000000000E+00 0. -1.
         -1   -1    0    0    0  501 -0.00000000000E+00 -0.00000000000E+00 -0.63726767303E+02  0.63726767303E+02  0.00000000000E+00 0.  1.
         25    2    1    2    0    0 -0.39284785174E+02  0.10193339763E+03  0.90307687053E+02  0.18904074380E+03  0.12508881876E+03 0.  0.
          5    1    3    3  502    0  0.32103333759E+02 -0.14870044139E+01 -0.28810404322E+01  0.32536256923E+02  0.41800000000E+01 0. -1.
         -5    1    3    3    0  502 -0.71388118933E+02  0.10342040204E+03  0.93188727485E+02  0.15650448688E+03  0.41800000000E+01 0. -1.
        -11    1    1    2    0    0 -0.10032640634E+02 -0.79478691782E+02  0.14701633650E+03  0.16742556413E+03  0.00000000000E+00 0. -1.
         11    1    1    2    0    0  0.49317425809E+02 -0.22454705847E+02  0.17249783993E+03  0.18080909016E+03  0.00000000000E+00 0.  1.
</event>
<event>
 7    1  0.2612213E-009  0.9191597E+02  0.7561462E-02  0.1298277E+00
          2   -1    0    0  501    0  0.00000000000E+00  0.00000000000E+00  0.58823340195E+02  0.58823340195E+02  0.00000000000E+00 0. -1.
         -2   -1    0    0    0  501 -0.00000000000E+00 -0.00000000000E+00 -0.50442308596E+03  0.50442308596E+03  0.00000000000E+00 0.  1.
         25    2    1    2    0    0 -0.46829154794E+02  0.16665601822E+02 -0.37845454428E+02  0.13982303659E+03  0.12508993212E+03 0.  0.
          5    1    3    3  502    0 -0.21974937876E+02  0.33432431371E+02 -0.79048944250E+02  0.88695170946E+02  0.41800000000E+01 0. -1.
         -5    1    3    3    0  502 -0.24854216918E+02 -0.16766829549E+02  0.41203489821E+02  0.51127865643E+02  0.41800000000E+01 0. -1.
        -11    1    1    2    0    0  0.55026467866E+02  0.32221183991E+02 -0.20444488752E+03  0.21415842010E+03  0.00000000000E+00 0. -1.
         11    1    1    2    0    0 -0.81973130727E+01 -0.48886785813E+02 -0.20330940382E+03  0.20926496947E+03  0.00000000000E+00 0.  1.
</event>
<event>
 7    1  0.2612213E-009  0.9364258E+02  0.7561462E-02  0.1294263E+00
         -1   -1    0    0    0  501 -0.00000000000E+00  0.00000000000E+00  0.35427755833E+02  0.35427755833E+02  0.00000000000E+00 0.  1.
          1   -1    0    0  501    0  0.00000000000E+00 -0.00000000000E+00 -0.59731666006E+03  0.59731666006E+03  0.00000000000E+00 0. -1.
         25    2    1    2    0    0  0.49264277265E+02  0.75711071275E+02 -0.37277665740E+03  0.40344679745E+03  0.12509095387E+03 0.  0.
          5    1    3    3  502    0  0.26381974630E+02  0.12545678395E+02 -0.54574964365E+01  0.30010986307E+02  0.41800000000E+01 0.  1.
         -5    1    3    3    0  502  0.22882302635E+02  0.63165392880E+02 -0.36731916097E+03  0.37343581115E+03  0.41800000000E+01 0.  1.
        -11    1    1    2    0    0 -0.12737963646E+02 -0.23706514655E+02  0.28755598569E+01  0.27065169488E+02  0.00000000000E+00 0.  1.
         11    1    1    2    0    0 -0.36526313619E+02 -0.52004556620E+02 -0.19198780668E+03  0.20223244895E+03  0.00000000000E+00 0. -1.
</event>
<event>
 7    1  0.2612213E-009  0.1066863E+03  0.7561462E-02  0.1266832E+00
          4   -1    0    0  501    0  0.00000000000E+00  0.00000000000E+00  0.55943679334E+03  0.55943679334E+03  0.00000000000E+00 0. -1.
         -4   -1    0    0    0  501 -0.00000000000E+00 -0.00000000000E+00 -0.32640381056E+02  0.32640381056E+02  0.00000000000E+00 0.  1.
         25    2    1    2    0    0 -0.53600695420E+02  0.19274701646E+02  0.16680096280E+03  0.21613365960E+03  0.12508656582E+03 0.  0.
          5    1    3    3  502    0  0.26679950475E+01 -0.40520002412E+02  0.14984102421E+02  0.43485451802E+02  0.41800000000E+01 0.  1.
         -5    1    3    3    0  502 -0.56268690467E+02  0.59794704058E+02  0.15181686038E+03  0.17264820780E+03  0.41800000000E+01 0.  1.
        -11    1    1    2    0    0 -0.14513948342E+02 -0.16766860444E+02  0.22342863634E+02  0.31479927906E+02  0.00000000000E+00 0.  1.
         11    1    1    2    0    0  0.68114643761E+02 -0.25078412020E+01  0.33765258585E+03  0.34446358689E+03  0.00000000000E+00 0. -1.
</event>
<event>
 7    1  0.2612213E-009  0.1311931E+03  0.7561462E-02  0.1225696E+00
         -2   -1    0    0    0  501 -0.00000000000E+00  0.00000000000E+00  0.44638467610E+02  0.44638467610E+02  0.00000000000E+00 0.  1.
          2   -1    0    0  501    0  0.00000000000E+00 -0.00000000000E+00 -0.60311279571E+03  0.60311279571E+03  0.00000000000E+00 0. -1.
         25    2    1    2    0    0 -0.55858699954E+01  0.96223177988E+02 -0.15324844340E+03  0.22004905190E+03  0.12508556236E+03 0.  0.
          5    1    3    3  502    0  0.19201884579E+02  0.12096190793E+03 -0.11575164443E+03  0.16857167950E+03  0.41800000000E+01 0. -1.
         -5    1    3    3    0  502 -0.24787754574E+02 -0.24738729943E+02 -0.37496798970E+02  0.51477372398E+02  0.41800000000E+01 0. -1.
        -11    1    1    2    0    0  0.23258805986E+02 -0.55519354042E+02 -0.35750701132E+03  0.36253914806E+03  0.00000000000E+00 0. -1.
         11    1    1    2    0    0 -0.17672935991E+02 -0.40703823946E+02 -0.47718873374E+02  0.65163063360E+02  0.00000000000E+00 0.  1.
</event>
<event>
 7    1  0.2612213E-009  0.1218659E+03  0.7561462E-02  0.1240050E+00
         -1   -1    0    0    0  501 -0.00000000000E+00  0.00000000000E+00  0.62474541450E+02  0.62474541450E+02  0.00000000000E+00 0.  1.
          1   -1    0    0  501    0  0.00000000000E+00 -0.00000000000E+00 -0.29417228774E+03  0.29417228774E+03  0.00000000000E+00 0. -1.
         25    2    1    2    0    0  0.44775427541E+02 -0.70196354929E+02 -0.11285194010E+03  0.18792589147E+03  0.12509281812E+03 0.  0.
          5    1    3    3  502    0 -0.36638327499E+02 -0.31386817935E+01 -0.55796732945E+01  0.37427576990E+02  0.41800000000E+01 0. -1.
         -5    1    3    3    0  502  0.81413755040E+02 -0.67057673136E+02 -0.10727226680E+03  0.15049831448E+03  0.41800000000E+01 0. -1.
        -11    1    1    2    0    0  0.11921433921E+02  0.28175601963E+02 -0.10762518930E+00  0.30594063409E+02  0.00000000000E+00 0.  1.
         11    1    1    2    0    0 -0.56696861462E+02  0.42020752967E+02 -0.11873818101E+03  0.13812687431E+03  0.00000000000E+00 0. -1.
</event>
<event>
 7    1  0.2612213E-009  0.1513117E+03  0.7561462E-02  0.1198870E+00
          2   -1    0    0  501    0  0.00000000000E+00  0.00000000000E+00  0.46774972696E+03  0.46774972696E+03  0.00000000000E+00 0. -1.
         -2   -1    0    0    0  501 -0.00000000000E+00 -0.00000000000E+00 -0.66881277031E+02  0.66881277031E+02  0.00000000000E+00 0.  1.
         25    2    1    2    0    0 -0.76518600398E+02 -0.10106321666E+03  0.29822368865E+03  0.34735226462E+03  0.12508939721E+03 0.  0.
          5    1    3    3  502    0 -0.76458883828E+02 -0.19509329414E+01  0.10288012878E+03  0.12826363613E+03  0.41800000000E+01 0.  1.
         -5    1    3    3    0  502 -0.59716570404E-01 -0.99112283715E+02  0.19534355987E+03  0.21908862849E+03  0.41800000000E+01 0.  1.
        -11    1    1    2    0    0  0.54249950878E+02  0.74578147512E+02  0.15500521417E+02  0.93515899294E+02  0.00000000000E+00 0.  1.
         11    1    1    2    0    0  0.22268649521E+02  0.26485069145E+02  0.87144239864E+02  0.93762840083E+02  0.00000000000E+00 0. -1.
</event>
<event>
 7    1  0.2612213E-009  0.2117569E+03  0.7561462E-02  0.1140182E+00
         -3   -1    0    0    0  501 -0.00000000000E+00  0.00000000000E+00  0.24596138351E+02  0.24596138351E+02  0.00000000000E+00 0.  1.
          3   -1    0    0  501    0  0.00000000000E+00 -0.00000000000E+00 -0.21404369214E+04  0.21404369214E+04  0.00000000000E+00 0. -1.
         25    2    1    2    0    0 -0.71941315816E+02 -0.18782262363E+03 -0.11198076862E+04  0.11445831201E+04  0.12509346058E+03 0.  0.
          5    1    3    3  502    0 -0.28657762752E+02 -0.51851247765E+02 -0.11254239000E+03  0.12725203813E+03  0.41800000000E+01 0. -1.
         -5    1    3    3    0  502 -0.43283553064E+02 -0.13597137586E+03 -0.10072652962E+04  0.10173310819E+04  0.41800000000E+01 0. -1.
        -11    1    1    2    0    0 -0.22605497561E+02  0.37137673487E+02 -0.22496061735E+03  0.22912331760E+03  0.00000000000E+00 0. -1.
         11    1    1    2    0    0  0.94546813377E+02  0.15068495014E+03 -0.77107247956E+03  0.79132662210E+03  0.00000000000E+00 0.  1.
</event>
<event>
 7    1  0.2612213E-009  0.1088080E+03  0.7561462E-02  0.1262793E+00
         -3   -1    0    0    0  501 -0.00000000000E+00  0.00000000000E+00  0.16189828503E+03  0.16189828503E+03  0.00000000000E+00 0.  1.
          3   -1    0    0  501    0  0.00000000000E+00 -0.00000000000E+00 -0.80584600451E+02  0.80584600451E+02  0.00000000000E+00 0. -1.
         25    2    1    2    0    0  0.11998591932E+02  0.21365249347E+02  0.82789164062E+02  0.15199285310E+03  0.12508933455E+03 0.  0.
          5    1    3    3  502    0 -0.38992093451E+02  0.54027395274E+02  0.42478056030E+02  0.79127747573E+02  0.41800000000E+01 0. -1.
         -5    1    3    3    0  502  0.50990685383E+02 -0.32662145927E+02  0.40311108032E+02  0.72865105525E+02  0.41800000000E+01 0. -1.
        -11    1    1    2    0    0 -0.44577834745E+02 -0.33107152321E+02  0.27928761173E+01  0.55597365427E+02  0.00000000000E+00 0. -1.
         11    1    1    2    0    0  0.32579242813E+02  0.11741902975E+02 -0.42683556015E+01  0.34892666956E+02  0.00000000000E+00 0.  1.
</event>
<event>
 7    1  0.2612213E-009  0.1359044E+03  0.7561462E-02  0.1218949E+00
          2   -1    0    0  501    0  0.00000000000E+00  0.00000000000E+00  0.53710334853E+03  0.53710334853E+03  0.00000000000E+00 0. -1.
         -2   -1    0    0    0  501 -0.00000000000E+00 -0.00000000000E+00 -0.41330898630E+02  0.41330898630E+02  0.00000000000E+00 0.  1.
         25    2    1    2    0    0 -0.79157778662E+02  0.30455952563E+02  0.38073758247E+03  0.40963131074E+03  0.12507271911E+03 0.  0.
          5    1    3    3  502    0 -0.70312322056E+02 -0.39293576567E+02  0.19913609187E+03  0.21484986218E+03  0.41800000000E+01 0. -1.
         -5    1    3    3    0  502 -0.88454566052E+01  0.69749529130E+02  0.18160149060E+03  0.19478144856E+03  0.41800000000E+01 0. -1.
        -11    1    1    2    0    0  0.45156313850E+01 -0.44534526768E+02  0.60661627282E+02  0.75389309758E+02  0.00000000000E+00 0. -1.
         11    1    1    2    0    0  0.74642147277E+02  0.14078574205E+02  0.54373240148E+02  0.93413626661E+02  0.00000000000E+00 0.  1.
</event>
<event>
 7    1  0.2612213E-009  0.1405198E+03  0.7561462E-02  0.1212631E+00
         -3   -1    0    0    0  501 -0.00000000000E+00  0.00000000000E+00  0.14621842042E+03  0.14621842042E+03  0.00000000000E+00 0.  1.
          3   -1    0    0  501    0  0.00000000000E+00 -0.00000000000E+00 -0.23473813268E+03  0.23473813268E+03  0.00000000000E+00 0. -1.
         25    2    1    2    0    0 -0.13679944772E+03 -0.30104343038E+02  0.94383391541E+01  0.18800191366E+03  0.12504110096E+03 0.  0.
          5    1    3    3  502    0 -0.54552606482E+02 -0.64708437341E+01  0.65517899058E+02  0.85603307118E+02  0.41800000000E+01 0. -1.
         -5    1    3    3    0  502 -0.82246841236E+02 -0.23633499304E+02 -0.56079559904E+02  0.10239860654E+03  0.41800000000E+01 0. -1.
        -11    1    1    2    0    0  0.76111839931E+02  0.20514849924E+02 -0.18060960287E+01  0.78848799787E+02  0.00000000000E+00 0. -1.
         11    1    1    2    0    0  0.60687607787E+02  0.95894931146E+01 -0.96151955389E+02  0.11410583965E+03  0.00000000000E+00 0.  1.
</event>
<event>
 7    1  0.2612213E-009  0.1538020E+03  0.7561462E-02  0.1195877E+00
         -1   -1    0    0    0  501 -0.00000000000E+00  0.00000000000E+00  0.18705089480E+03  0.18705089480E+03  0.00000000000E+00 0.  1.
          1   -1    0    0  501    0  0.00000000000E+00 -0.00000000000E+00 -0.23025030740E+03  0.23025030740E+03  0.00000000000E+00 0. -1.
         25    2    1    2    0    0  0.13364711554E+03 -0.52986032829E+02  0.79715640895E+02  0.20656767397E+03  0.12508616774E+03 0.  0.
          5    1    3    3  502    0  0.38069237445E+02  0.18064813141E+02  0.76405026921E+02  0.87354478146E+02  0.41800000000E+01 0. -1.
         -5    1    3    3    0  502  0.95577878096E+02 -0.71050845969E+02  0.33106139745E+01  0.11921319583E+03  0.41800000000E+01 0. -1.
        -11    1    1    2    0    0 -0.11124414216E+03  0.32910442290E+02 -0.13527896548E+03  0.17820986190E+03  0.00000000000E+00 0.  1.
         11    1    1    2    0    0 -0.22402973382E+02  0.20075590539E+02  0.12363911982E+02  0.32523666327E+02  0.00000000000E+00 0. -1.
</event>
<event>
 7    1  0.2612213E-009  0.1067578E+03  0.7561462E-02  0.1266694E+00
          1   -1    0    0  501    0  0.00000000000E+00  0.00000000000E+00  0.12941741393E+03  0.12941741393E+03  0.00000000000E+00 0. -1.
         -1   -1    0    0    0  501 -0.00000000000E+00 -0.00000000000E+00 -0.13758731311E+03  0.13758731311E+03  0.00000000000E+00 0.  1.
         25    2    1    2    0    0 -0.63200128358E+02  0.42224729127E+02 -0.15359205127E+02  0.14716561261E+03  0.12507848887E+03 0.  0.
          5    1    3    3  502    0 -0.89984085145E+02  0.47786695051E+01 -0.35235777529E+02  0.96845256362E+02  0.41800000000E+01 0. -1.
         -5    1    3    3    0  502  0.26783956787E+02  0.37446059622E+02  0.19876572403E+02  0.50320356247E+02  0.41800000000E+01 0. -1.
        -11    1    1    2    0    0  0.55180567746E+02 -0.31024373255E+02 -0.37156451231E+02  0.73403056208E+02  0.00000000000E+00 0.  1.
         11    1    1    2    0    0  0.80195606124E+01 -0.11200355872E+02  0.44345757171E+02  0.46436058222E+02  0.00000000000E+00 0. -1.
</event>
<event>
 7    1  0.2612213E-009  0.2631153E+03  0.7561462E-02  0.1105286E+00
          2   -1    0    0  501    0  0.00000000000E+00  0.00000000000E+00  0.33499779364E+03  0.33499779364E+03  0.00000000000E+00 0. -1.
         -2   -1    0    0    0  501 -0.00000000000E+00 -0.00000000000E+00 -0.24110073948E+03  0.24110073948E+03  0.00000000000E+00 0.  1.
         25    2    1    2    0    0  0.11821921590E+03  0.22772432139E+03 -0.81378170138E+01  0.28556639349E+03  0.12509113265E+03 0.  0.
          5    1    3    3  502    0  0.49075929375E+02  0.14951158107E+03 -0.60575156398E+02  0.16866825928E+03  0.41800000000E+01 0.  1.
         -5    1    3    3    0  502  0.69143286522E+02  0.78212740318E+02  0.52437339384E+02  0.11689813421E+03  0.41800000000E+01 0.  1.
        -11    1    1    2    0    0 -0.13568161355E+02 -0.91783863255E+02  0.69482383030E+02  0.11591451207E+03  0.00000000000E+00 0. -1.
         11    1    1    2    0    0 -0.10465105454E+03 -0.13594045813E+03  0.32552488142E+02  0.17461762757E+03  0.00000000000E+00 0.  1.
</event>
<event>
 7    1  0.2612213E-009  0.7547810E+02  0.7561462E-02  0.1342397E+00
          3   -1    0    0  501    0  0.00000000000E+00  0.00000000000E+00  0.13229411644E+03  0.13229411644E+03  0.00000000000E+00 0. -1.
         -3   -1    0    0    0  501 -0.00000000000E+00 -0.00000000000E+00 -0.94454189359E+02  0.94454189359E+02  0.00000000000E+00 0.  1.
         25    2    1    2    0    0 -0.18419214370E+02 -0.13657051166E+02  0.40429936063E+02  0.13344639107E+03  0.12509027563E+03 0.  0.
          5    1    3    3  502    0  0.75017644577E+00  0.26467583454E+02  0.73262537281E+02  0.78012611208E+02  0.41800000000E+01 0. -1.
         -5    1    3    3    0  502 -0.19169390816E+02 -0.40124634619E+02 -0.32832601218E+02  0.55433779867E+02  0.41800000000E+01 0. -1.
        -11    1    1    2    0    0  0.48289629724E+02  0.60951772288E+01 -0.25459769594E+02  0.54929403712E+02  0.00000000000E+00 0.  1.
         11    1    1    2    0    0 -0.29870415354E+02  0.75618739369E+01  0.22869760608E+02  0.38372511009E+02  0.00000000000E+00 0. -1.
</event>
<event>
 7    1  0.2612213E-009  0.1516774E+03  0.7561462E-02  0.1198427E+00
         -2   -1    0    0    0  501 -0.00000000000E+00  0.00000000000E+00  0.47322926608E+03  0.47322926608E+03  0.00000000000E+00 0.  1.
          2   -1    0    0  501    0  0.00000000000E+00 -0.00000000000E+00 -0.64799171911E+02  0.64799171911E+02  0.00000000000E+00 0. -1.
         25    2    1    2    0    0  0.36423396132E+02 -0.12049007976E+03  0.29884567101E+03  0.34756533629E+03  0.12509358419E+03 0.  0.
          5    1    3    3  502    0  0.32260338013E+02  0.19107506567E+02  0.61785557389E+02  0.72393050204E+02  0.41800000000E+01 0. -1.
         -5    1    3    3    0  502  0.41630581186E+01 -0.13959758633E+03  0.23706011362E+03  0.27517228609E+03  0.41800000000E+01 0. -1.
        -11    1    1    2    0    0 -0.19186463497E+02  0.68254563380E+02  0.11509671735E+03  0.13518158214E+03  0.00000000000E+00 0.  1.
         11    1    1    2    0    0 -0.17236932635E+02  0.52235516383E+02 -0.55122941849E+01  0.55281519567E+02  0.00000000000E+00 0. -1.
</event>
<event>
 7    1  0.2774251E-009  0.9257642E+02  0.7561462E-02  0.1296730E+00
          2   -1    0    0  501    0  0.00000000000E+00  0.00000000000E+00  0.46832753799E+03  0.46832753799E+03  0.00000000000E+00 0. -1.
         -2   -1    0    0    0  501 -0.00000000000E+00 -0.00000000000E+00 -0.30322798396E+02  0.30322798396E+02  0.00000000000E+00 0.  1.
         25    2    1    2    0    0 -0.36488204347E+02 -0.19774743523E+02  0.30458454655E+03  0.33187794684E+03  0.12509514804E+03 0.  0.
          5    1    3    3  502    0 -0.60713667512E+02  0.29409119365E+02  0.10513265924E+03  0.12498557582E+03  0.41800000000E+01 0. -1.
         -5    1    3    3    0  502  0.24225463165E+02 -0.49183862888E+02  0.19945188731E+03  0.20689237102E+03  0.41800000000E+01 0. -1.
        -11    1    1    2    0    0  0.47886142485E+02  0.17282090852E+02  0.14292651982E+03  0.15172258690E+03  0.00000000000E+00 0. -1.
         11    1    1    2    0    0 -0.11397938138E+02  0.24926526710E+01 -0.95063267737E+01  0.15049802652E+02  0.00000000000E+00 0.  1.
</event>
<event>
 7    1  0.2612213E-009  0.1269644E+03  0.7561462E-02  0.1232031E+00
         -2   -1    0    0    0  501 -0.00000000000E+00  0.00000000000E+00  0.29876924912E+02  0.29876924912E+02  0.00000000000E+00 0.  1.
          2   -1    0    0  501    0  0.00000000000E+00 -0.00000000000E+00 -0.57801072557E+03  0.57801072557E+03  0.00000000000E+00 0. -1.
         25    2    1    2    0    0 -0.36058597457E+01 -0.72865363808E+02 -0.24671008215E+03  0.28607645747E+03  0.12510600074E+03 0.  0.
          5    1    3    3  502    0 -0.63759280080E+02 -0.46360542551E+02 -0.13252231506E+03  0.15425362910E+03  0.41800000000E+01 0.  1.
         -5    1    3    3    0  502  0.60153420335E+02 -0.26504821257E+02 -0.11418776709E+03  0.13182282837E+03  0.41800000000E+01 0.  1.
        -11    1    1    2    0    0  0.38555537020E+02  0.61089307479E+02 -0.23479442490E+03  0.24565596855E+03  0.00000000000E+00 0. -1.
         11    1    1    2    0    0 -0.34949677274E+02  0.11776056329E+02 -0.66629293617E+02  0.76155224457E+02  0.00000000000E+00 0.  1.
</event>
<event>
 7    1  0.2612213E-009  0.1419523E+03  0.7561462E-02  0.1210726E+00
         -2   -1    0    0    0  501 -0.00000000000E+00  0.00000000000E+00  0.20451476506E+03  0.20451476506E+03  0.00000000000E+00 0.  1.
          2   -1    0    0  501    0  0.00000000000E+00 -0.00000000000E+00 -0.13085166085E+03  0.13085166085E+03  0.00000000000E+00 0. -1.
         25    2    1    2    0    0 -0.50807007453E+02 -0.10894718851E+03  0.58440904451E+02  0.18306655161E+03  0.12508869299E+03 0.  0.
          5    1    3    3  502    0  0.30316269999E+02 -0.63191579634E+02 -0.48545186266E+01  0.70379618601E+02  0.41800000000E+01 0.  1.
         -5    1    3    3    0  502 -0.81123277452E+02 -0.45755608875E+02  0.63295423078E+02  0.11268693301E+03  0.41800000000E+01 0.  1.
        -11    1    1    2    0    0  0.38458985730E+02  0.89660119632E+02 -0.29611976021E+02  0.10195538122E+03  0.00000000000E+00 0. -1.
         11    1    1    2    0    0  0.12348021723E+02  0.19287068877E+02  0.44834175777E+02  0.50344493084E+02  0.00000000000E+00 0.  1.
</event>
<event>
 7    1  0.2612213E-009  0.1122778E+03  0.7561462E-02  0.1256409E+00
          3   -1    0    0  501    0  0.00000000000E+00  0.00000000000E+00  0.28611882191E+03  0.28611882191E+03  0.00000000000E+00 0. -1.
         -3   -1    0    0    0  501 -0.00000000000E+00 -0.00000000000E+00 -0.52506977555E+02  0.52506977555E+02  0.00000000000E+00 0.  1.
         25    2    1    2    0    0  0.14647409139E+01 -0.33403215851E+02  0.77792155116E+02  0.15105280949E+03  0.12508961413E+03 0.  0.
          5    1    3    3  502    0  0.47852816120E+02 -0.56422662574E+02  0.28367035097E+02  0.79344627687E+02  0.41800000000E+01 0.  1.
         -5    1    3    3    0  502 -0.46388075206E+02  0.23019446722E+02  0.49425120019E+02  0.71708181804E+02  0.41800000000E+01 0.  1.
        -11    1    1    2    0    0  0.43585557719E+02  0.30811209029E+02  0.52683850520E+02  0.74997463618E+02  0.00000000000E+00 0.  1.
         11    1    1    2    0    0 -0.45050298633E+02  0.25920068223E+01  0.10313583872E+03  0.11257552636E+03  0.00000000000E+00 0. -1.
</event>
<event>
 7    1  0.2612213E-009  0.1184999E+03  0.7561462E-02  0.1245592E+00
         -2   -1    0    0    0  501 -0.00000000000E+00  0.00000000000E+00  0.17493070317E+03  0.17493070317E+03  0.00000000000E+00 0.  1.
          2   -1    0    0  501    0  0.00000000000E+00 -0.00000000000E+00 -0.10738165643E+03  0.10738165643E+03  0.00000000000E+00 0. -1.
         25    2    1    2    0    0 -0.36888273991E+02  0.40229026491E+02 -0.29084855732E+02  0.13954977413E+03  0.12509632806E+03 0.  0.
          5    1    3    3  502    0 -0.27882185450E+02  0.85311142174E+02 -0.24682408081E+02  0.93177791953E+02  0.41800000000E+01 0. -1.
         -5    1    3    3    0  502 -0.90060885410E+01 -0.45082115683E+02 -0.44024476511E+01  0.46371982173E+02  0.41800000000E+01 0. -1.
        -11    1    1    2    0    0 -0.22212193563E+02 -0.35267733677E+02  0.59987162673E+02  0.73045562953E+02  0.00000000000E+00 0.  1.
         11    1    1    2    0    0  0.59100467554E+02 -0.49612928138E+01  0.36646739795E+02  0.69717022520E+02  0.00000000000E+00 0. -1.
</event>
<event>
 7    1  0.2612213E-009  0.9883413E+02  0.7561462E-02  0.1282767E+00
          2   -1    0    0  501    0  0.00000000000E+00  0.00000000000E+00  0.68201278942E+03  0.68201278942E+03  0.00000000000E+00 0. -1.
         -2   -1    0    0    0  501 -0.00000000000E+00 -0.00000000000E+00 -0.21417484320E+02  0.21417484320E+02  0.00000000000E+00 0.  1.
         25    2    1    2    0    0 -0.13502565181E+02 -0.51440413435E+02  0.39115053849E+03  0.41409657610E+03  0.12509514448E+03 0.  0.
          5    1    3    3  502    0  0.11090048303E+02 -0.80976890611E+02  0.34149901481E+03  0.35116847168E+03  0.41800000000E+01 0.  1.
         -5    1    3    3    0  502 -0.24592613483E+02  0.29536477177E+02  0.49651523676E+02  0.62928104415E+02  0.41800000000E+01 0.  1.
        -11    1    1    2    0    0 -0.96898640427E+01  0.53042183978E+02  0.25771350831E+03  0.26329378859E+03  0.00000000000E+00 0. -1.
         11    1    1    2    0    0  0.23192429223E+02 -0.16017705429E+01  0.11731258306E+02  0.26039909055E+02  0.00000000000E+00 0.  1.
</event>
<event>
 7    1  0.2612213E-009  0.2104098E+03  0.7561462E-02  0.1141242E+00
         -1   -1    0    0    0  501 -0.00000000000E+00  0.00000000000E+00  0.27073018264E+02  0.27073018264E+02  0.00000000000E+00 0.  1.
          1   -1    0    0  501    0  0.00000000000E+00 -0.00000000000E+00 -0.23734403522E+04  0.23734403522E+04  0.00000000000E+00 0. -1.
         25    2    1    2    0    0 -0.64376511983E+02  0.18929064701E+03 -0.15765271980E+04  0.15940702800E+04  0.12508703785E+03 0.  0.
          5    1    3    3  502    0 -0.40670804604E+02  0.16680259344E+03 -0.15110022025E+04  0.15207308598E+04  0.41800000000E+01 0. -1.
         -5    1    3    3    0  502 -0.23705707379E+02  0.22488053572E+02 -0.65524995531E+02  0.73339420199E+02  0.41800000000E+01 0. -1.
        -11    1    1    2    0    0 -0.17678463910E+02 -0.63779438388E+02 -0.99262490231E+02  0.11930375859E+03  0.00000000000E+00 0.  1.
         11    1    1    2    0    0  0.82054975893E+02 -0.12551120862E+03 -0.67057764573E+03  0.68713933195E+03  0.00000000000E+00 0. -1.
</event>
<event>
 7    1  0.2612213E-009  0.1251594E+03  0.7561462E-02  0.1234820E+00
          2   -1    0    0  501    0  0.00000000000E+00  0.00000000000E+00  0.15189085759E+04  0.15189085759E+04  0.00000000000E+00 0. -1.
         -2   -1    0    0    0  501 -0.00000000000E+00 -0.00000000000E+00 -0.14900158040E+02  0.14900158040E+02  0.00000000000E+00 0.  1.
         25    2    1    2    0    0 -0.61986106997E+02 -0.26348154796E+02  0.11649408377E+04  0.11735722756E+04  0.12509287831E+03 0.  0.
          5    1    3    3  502    0 -0.89873681799E+02 -0.38744613440E+02  0.10505288821E+04  0.10550861710E+04  0.41800000000E+01 0. -1.
         -5    1    3    3    0  502  0.27887574801E+02  0.12396458644E+02  0.11441195553E+03  0.11848610460E+03  0.41800000000E+01 0. -1.
        -11    1    1    2    0    0  0.67412003048E+02  0.58313587456E+02  0.24161540501E+03  0.25753224376E+03  0.00000000000E+00 0. -1.
         11    1    1    2    0    0 -0.54258960505E+01 -0.31965432659E+02  0.97452175173E+02  0.10270421451E+03  0.00000000000E+00 0.  1.
</event>
<event>
 7    1  0.2612213E-009  0.1529709E+03  0.7561462E-02  0.1196869E+00
          3   -1    0    0  501    0  0.00000000000E+00  0.00000000000E+00  0.41714507142E+02  0.41714507142E+02  0.00000000000E+00 0. -1.
         -3   -1    0    0    0  501 -0.00000000000E+00 -0.00000000000E+00 -0.63785933762E+03  0.63785933762E+03  0.00000000000E+00 0.  1.
         25    2    1    2    0    0  0.40469887128E+02 -0.11202350173E+03 -0.35918780985E+03  0.39855874172E+03  0.12508441611E+03 0.  0.
          5    1    3    3  502    0  0.60295381487E+01  0.25466317287E+02 -0.96136807518E+02  0.99722849970E+02  0.41800000000E+01 0.  1.
         -5    1    3    3    0  502  0.34440348979E+02 -0.13748981902E+03 -0.26305100233E+03  0.29883589175E+03  0.41800000000E+01 0.  1.
        -11    1    1    2    0    0  0.18173374510E+02  0.45296032712E+02 -0.34038210031E+02  0.59502956755E+02  0.00000000000E+00 0. -1.
         11    1    1    2    0    0 -0.58643261638E+02  0.66727469020E+02 -0.20291881060E+03  0.22151214629E+03  0.00000000000E+00 0.  1.
</event>
<event>
 7    1  0.2612213E-009  0.1186311E+03  0.7561462E-02  0.1245373E+00
          2   -1    0    0  501    0  0.00000000000E+00  0.00000000000E+00  0.39424077731E+03  0.39424077731E+03  0.00000000000E+00 0. -1.
         -2   -1    0    0    0  501 -0.00000000000E+00 -0.00000000000E+00 -0.44134285413E+02  0.44134285413E+02  0.00000000000E+00 0.  1.
         25    2    1    2    0    0  0.58295360793E+02 -0.47727866629E+02  0.18156221368E+03  0.23299624106E+03  0.12508442176E+03 0.  0.
          5    1    3    3  502    0  0.10519296158E+02 -0.77742391471E+02  0.59801243287E+02  0.98732953577E+02  0.41800000000E+01 0.  1.
         -5    1    3    3    0  502  0.47776064635E+02  0.30014524842E+02  0.12176097040E+03  0.13426328748E+03  0.41800000000E+01 0.  1.
        -11    1    1    2    0    0 -0.31594572295E+02 -0.14234492020E+02  0.15185656896E+02  0.37834401501E+02  0.00000000000E+00 0.  1.
         11    1    1    2    0    0 -0.26700788498E+02  0.61962358649E+02  0.15335862132E+03  0.16754442016E+03  0.00000000000E+00 0. -1.
</event>
<event>
 7    1  0.2612213E-009  0.9365969E+02  0.7561462E-02  0.1294224E+00
          2   -1    0    0  501    0  0.00000000000E+00  0.00000000000E+00  0.12783544273E+03  0.12783544273E+03  0.00000000000E+00 0. -1.
         -2   -1    0    0    0  501 -0.00000000000E+00 -0.00000000000E+00 -0.10972414795E+03  0.10972414795E+03  0.00000000000E+00 0.  1.
         25    2    1    2    0    0 -0.14427186871E+02  0.47270914281E+01 -0.36690997321E+02  0.13124150997E+03  0.12509042945E+03 0.  0.
          5    1    3    3  502    0 -0.15521104340E+02 -0.52902177410E+02 -0.46964612483E+02  0.72544415914E+02  0.41800000000E+01 0. -1.
         -5    1    3    3    0  502  0.10939174692E+01  0.57629268838E+02  0.10273615162E+02  0.58697094057E+02  0.41800000000E+01 0. -1.
        -11    1    1    2    0    0 -0.29763109485E+02  0.28474774924E+00  0.54206295681E+02  0.61840490449E+02  0.00000000000E+00 0. -1.
         11    1    1    2    0    0  0.44190296356E+02 -0.50118391774E+01  0.59599642029E+00  0.44477590264E+02  0.00000000000E+00 0.  1.
</event>
<event>
 7    1  0.2612213E-009  0.1056635E+03  0.7561462E-02  0.1268818E+00
         -1   -1    0    0    0  501 -0.00000000000E+00  0.00000000000E+00  0.17549909472E+03  0.17549909472E+03  0.00000000000E+00 0.  1.
          1   -1    0    0  501    0  0.00000000000E+00 -0.00000000000E+00 -0.80029097606E+02  0.80029097606E+02  0.00000000000E+00 0. -1.
         25    2    1    2    0    0  0.36113635992E+02 -0.49212115856E+01  0.82598251254E+02  0.15424104088E+03  0.12505764492E+03 0.  0.
          5    1    3    3  502    0 -0.24042311616E+02 -0.45353784010E+02  0.11805648408E+02  0.52837905013E+02  0.41800000000E+01 0.  1.
         -5    1    3    3    0  502  0.60155947608E+02  0.40432572424E+02  0.70792602846E+02  0.10140313586E+03  0.41800000000E+01 0.  1.
        -11    1    1    2    0    0 -0.60435045496E+02  0.12567839860E+02  0.31891026834E+02  0.69479370430E+02  0.00000000000E+00 0.  1.
         11    1    1    2    0    0  0.24321409504E+02 -0.76466282745E+01 -0.19019280976E+02  0.31807781015E+02  0.00000000000E+00 0. -1.
</event>
<event>
 7    1  0.2612213E-009  0.7015168E+02  0.7561462E-02  0.1359578E+00
          1   -1    0    0  501    0  0.00000000000E+00  0.00000000000E+00  0.19036780815E+03  0.19036780815E+03  0.00000000000E+00 0. -1.
         -1   -1    0    0    0  501 -0.00000000000E+00 -0.00000000000E+00 -0.84829826301E+02  0.84829826301E+02  0.00000000000E+00 0.  1.
         25    2    1    2    0    0 -0.38473383875E+02  0.23668724378E+02  0.11143846578E+03  0.17351305050E+03  0.12509131568E+03 0.  0.
          5    1    3    3  502    0 -0.21109216207E+01 -0.55196571695E+01 -0.26696611427E+02  0.27660514584E+02  0.41800000000E+01 0.  1.
         -5    1    3    3    0  502 -0.36362462255E+02  0.29188381548E+02  0.13813507721E+03  0.14585253592E+03  0.41800000000E+01 0.  1.
        -11    1    1    2    0    0  0.53132057277E+02  0.56890644788E+01 -0.29712719402E+02  0.61141039077E+02  0.00000000000E+00 0.  1.
         11    1    1    2    0    0 -0.14658673402E+02 -0.29357788857E+02  0.23812235463E+02  0.40543544865E+02  0.00000000000E+00 0. -1.
</event>
<event>
 7    1  0.2612213E-009  0.2582530E+03  0.7561462E-02  0.1108197E+00
         -2   -1    0    0    0  501 -0.00000000000E+00  0.00000000000E+00  0.13313543093E+03  0.13313543093E+03  0.00000000000E+00 0.  1.
          2   -1    0    0  501    0  0.00000000000E+00 -0.00000000000E+00 -0.50300873775E+03  0.50300873775E+03  0.00000000000E+00 0. -1.
         25    2    1    2    0    0  0.19256210707E+03 -0.13447237196E+03 -0.17741278285E+03  0.31982368980E+03  0.12509561600E+03 0.  0.
          5    1    3    3  502    0 -0.12607549184E+02 -0.36222874008E+02 -0.26374727452E+02  0.46734842955E+02  0.41800000000E+01 0.  1.
         -5    1    3    3    0  502  0.20516965625E+03 -0.98249497954E+02 -0.15103805539E+03  0.27308884685E+03  0.41800000000E+01 0.  1.
        -11    1    1    2    0    0 -0.13636175176E+03  0.42879029540E+02 -0.98732730008E+02  0.17372763307E+03  0.00000000000E+00 0.  1.
         11    1    1    2    0    0 -0.56200355307E+02  0.91593342422E+02 -0.93727793965E+02  0.14259284580E+03  0.00000000000E+00 0. -1.
</event>
<event>
 7    1  0.2612213E-009  0.1806227E+03  0.7561462E-02  0.1167202E+00
         -1   -1    0    0    0  501 -0.00000000000E+00  0.00000000000E+00  0.17807602431E+03  0.17807602431E+03  0.00000000000E+00 0.  1.
          1   -1    0    0  501    0  0.00000000000E+00 -0.00000000000E+00 -0.25609089280E+03  0.25609089280E+03  0.00000000000E+00 0. -1.
         25    2    1    2    0    0  0.31868060048E+02 -0.14790534244E+03  0.66308526958E+02  0.20721048527E+03  0.12509117030E+03 0.  0.
          5    1    3    3  502    0  0.55900939585E+02 -0.21608238475E+02  0.48786251162E+02  0.77391225077E+02  0.41800000000E+01 0. -1.
         -5    1    3    3    0  502 -0.24032879537E+02 -0.12629710397E+03  0.17522275796E+02  0.12981926020E+03  0.41800000000E+01 0. -1.
        -11    1    1    2    0    0 -0.54024544493E+02  0.55268225496E+02 -0.45419397838E+02  0.89644575169E+02  0.00000000000E+00 0.  1.
         11    1    1    2    0    0  0.22156484445E+02  0.92637116944E+02 -0.98903997614E+02  0.13731185667E+03  0.00000000000E+00 0. -1.
</event>
<event>
 7    1  0.2612213E-009  0.1830816E+03  0.7561462E-02  0.1164854E+00
         -2   -1    0    0    0  501 -0.00000000000E+00  0.00000000000E+00  0.36235000075E+02  0.36235000075E+02  0.00000000000E+00 0. -1.
          2   -1    0    0  501    0  0.00000000000E+00 -0.00000000000E+00 -0.10413437317E+04  0.10413437317E+04  0.00000000000E+00 0.  1.
         25    2    1    2    0    0 -0.51272200566E+02 -0.12810312510E+03 -0.66348830438E+03  0.68913227406E+03  0.12508921576E+03 0.  0.
          5    1    3    3  502    0 -0.70472318269E+02 -0.15958654945E+02 -0.25392710190E+03  0.26404066314E+03  0.41800000000E+01 0.  1.
         -5    1    3    3    0  502  0.19200117703E+02 -0.11214447016E+03 -0.40956120247E+03  0.42509161092E+03  0.41800000000E+01 0.  1.
        -11    1    1    2    0    0 -0.37529593340E+02  0.36502640400E+02 -0.14400873132E+03  0.15322998345E+03  0.00000000000E+00 0.  1.
         11    1    1    2    0    0  0.88801793906E+02  0.91600484704E+02 -0.19761169597E+03  0.23521647431E+03  0.00000000000E+00 0. -1.
</event>
<event>
 7    1  0.2612213E-009  0.8949613E+02  0.7561462E-02  0.1304076E+00
         -1   -1    0    0    0  501 -0.00000000000E+00  0.00000000000E+00  0.50787141523E+03  0.50787141523E+03  0.00000000000E+00 0.  1.
          1   -1    0    0  501    0  0.00000000000E+00 -0.00000000000E+00 -0.31027313562E+02  0.31027313562E+02  0.00000000000E+00 0. -1.
         25    2    1    2    0    0 -0.59993814724E+02 -0.69554151246E+01  0.23206616901E+03  0.27046107575E+03  0.12508737382E+03 0.  0.
          5    1    3    3  502    0 -0.83488766970E+02 -0.15164731657E+02  0.81276455629E+02  0.11757413804E+03  0.41800000000E+01 0.  1.
         -5    1    3    3    0  502  0.23494952247E+02  0.82093165327E+01  0.15078971338E+03  0.15288693770E+03  0.41800000000E+01 0.  1.
        -11    1    1    2    0    0  0.15913052296E+02 -0.12868188260E+02  0.16270892107E+01  0.20529562142E+02  0.00000000000E+00 0. -1.
         11    1    1    2    0    0  0.44080762428E+02  0.19823603385E+02  0.24315084345E+03  0.24790809091E+03  0.00000000000E+00 0.  1.
</event>
<event>
 7    1  0.2612213E-009  0.1669898E+03  0.7561462E-02  0.1181024E+00
         -2   -1    0    0    0  501 -0.00000000000E+00  0.00000000000E+00  0.33131125797E+02  0.33131125797E+02  0.00000000000E+00 0. -1.
          2   -1    0    0  501    0  0.00000000000E+00 -0.00000000000E+00 -0.98678320986E+03  0.98678320986E+03  0.00000000000E+00 0.  1.
         25    2    1    2    0    0 -0.13922050399E+03 -0.25456383749E+02 -0.41657296842E+03  0.45739610501E+03  0.12509109742E+03 0.  0.
          5    1    3    3  502    0  0.20841788038E+02 -0.18887953599E+02 -0.55567429039E+02  0.62420721638E+02  0.41800000000E+01 0.  1.
         -5    1    3    3    0  502 -0.16006229203E+03 -0.65684301498E+01 -0.36100553938E+03  0.39497538337E+03  0.41800000000E+01 0.  1.
        -11    1    1    2    0    0  0.10720498938E+03  0.33434087025E+02 -0.50181004682E+03  0.51422181110E+03  0.00000000000E+00 0.  1.
         11    1    1    2    0    0  0.32015514610E+02 -0.79777032766E+01 -0.35269068827E+02  0.48296419548E+02  0.00000000000E+00 0. -1.
</event>
<event>
 7    1  0.2612213E-009  0.8024987E+02  0.7561462E-02  0.1328344E+00
          1   -1    0    0  501    0  0.00000000000E+00  0.00000000000E+00  0.11796217642E+03  0.11796217642E+03  0.00000000000E+00 0. -1.
         -1   -1    0    0    0  501 -0.00000000000E+00 -0.00000000000E+00 -0.12054814321E+03  0.12054814321E+03  0.00000000000E+00 0.  1.
         25    2    1    2    0    0 -0.13129586308E+01 -0.27675227040E+02 -0.44424875808E+02  0.13560245823E+03  0.12508722970E+03 0.  0.
          5    1    3    3  502    0 -0.15218088685E+02  0.32710177450E+02  0.23738516943E+02  0.43388195615E+02  0.41800000000E+01 0.  1.
         -5    1    3    3    0  502  0.13905130055E+02 -0.60385404490E+02 -0.68163392752E+02  0.92214262610E+02  0.41800000000E+01 0.  1.
        -11    1    1    2    0    0  0.19137419285E+02  0.37222937836E+02  0.61705357361E+02  0.74560975350E+02  0.00000000000E+00 0. -1.
         11    1    1    2    0    0 -0.17824460654E+02 -0.95477107956E+01 -0.19866448339E+02  0.28346886049E+02  0.00000000000E+00 0.  1.
</event>
<event>
 7    1  0.2612213E-009  0.8880354E+02  0.7561462E-02  0.1305775E+00
          1   -1    0    0  501    0  0.00000000000E+00  0.00000000000E+00  0.19821206051E+03  0.19821206051E+03  0.00000000000E+00 0. -1.
         -1   -1    0    0    0  501 -0.00000000000E+00 -0.00000000000E+00 -0.66595865816E+02  0.66595865816E+02  0.00000000000E+00 0.  1.
         25    2    1    2    0    0 -0.32922542956E+02 -0.14638113646E+02  0.86814481235E+02  0.15646991149E+03  0.12509160980E+03 0.  0.
          5    1    3    3  502    0 -0.27996869867E+02  0.41039063913E+02 -0.37152865770E+01  0.49993051953E+02  0.41800000000E+01 0.  1.
         -5    1    3    3    0  502 -0.49256730887E+01 -0.55677177559E+02  0.90529767812E+02  0.10647685953E+03  0.41800000000E+01 0.  1.
        -11    1    1    2    0    0  0.12430619353E+01 -0.22700558310E+02  0.53931221126E+02  0.58527234367E+02  0.00000000000E+00 0. -1.
         11    1    1    2    0    0  0.31679481021E+02  0.37338671956E+02 -0.91295076644E+01  0.49810780473E+02  0.00000000000E+00 0.  1.
</event>
<event>
 7    1  0.2612213E-009  0.1040303E+03  0.7561462E-02  0.1272042E+00
          1   -1    0    0  501    0  0.00000000000E+00  0.00000000000E+00  0.43959124688E+03  0.43959124688E+03  0.00000000000E+00 0. -1.
         -1   -1    0    0    0  501 -0.00000000000E+00 -0.00000000000E+00 -0.53124425341E+02  0.53124425341E+02  0.00000000000E+00 0.  1.
         25    2    1    2    0    0 -0.15581720857E+02  0.85105928421E+02  0.31097514336E+03  0.34617782886E+03  0.12509092824E+03 0.  0.
          5    1    3    3  502    0  0.11864969417E+02  0.91081222029E+02  0.11072422893E+03  0.14392322182E+03  0.41800000000E+01 0. -1.
         -5    1    3    3    0  502 -0.27446690274E+02 -0.59752936081E+01  0.20025091443E+03  0.20225460705E+03  0.41800000000E+01 0. -1.
        -11    1    1    2    0    0  0.13489413808E+02 -0.34158444753E+02  0.86851700667E+02  0.94297303999E+02  0.00000000000E+00 0. -1.
         11    1    1    2    0    0  0.20923070490E+01 -0.50947483668E+02 -0.11360022496E+02  0.52240539354E+02  0.00000000000E+00 0.  1.
</event>
<event>
 7    1  0.2612213E-009  0.1103898E+03  0.7561462E-02  0.1259850E+00
         -2   -1    0    0    0  501 -0.00000000000E+00  0.00000000000E+00  0.24689197376E+02  0.24689197376E+02  0.00000000000E+00 0.  1.
          2   -1    0    0  501    0  0.00000000000E+00 -0.00000000000E+00 -0.51206517771E+03  0.51206517771E+03  0.00000000000E+00 0. -1.
         25    2    1    2    0    0  0.28805887432E+02  0.13793460054E+01 -0.25527012022E+03  0.28570901770E+03  0.12504050053E+03 0.  0.
          5    1    3    3  502    0  0.63444074644E+02 -0.39237759618E+02 -0.14422570586E+03  0.16242930468E+03  0.41800000000E+01 0.  1.
         -5    1    3    3    0  502 -0.34638187212E+02  0.40617105624E+02 -0.11104441436E+03  0.12327971302E+03  0.41800000000E+01 0.  1.
        -11    1    1    2    0    0 -0.49687024216E+01 -0.43682321182E+02 -0.78812534074E+02  0.90245491382E+02  0.00000000000E+00 0. -1.
         11    1    1    2    0    0 -0.23837185010E+02  0.42302975177E+02 -0.15329332604E+03  0.16079986600E+03  0.00000000000E+00 0.  1.
</event>
<event>
 7    1  0.2618885E-009  0.1206651E+03  0.7561462E-02  0.1242004E+00
          1   -1    0    0  501    0  0.00000000000E+00  0.00000000000E+00  0.16771016282E+03  0.16771016282E+03  0.00000000000E+00 0. -1.
         -1   -1    0    0    0  501 -0.00000000000E+00 -0.00000000000E+00 -0.11387553596E+03  0.11387553596E+03  0.00000000000E+00 0.  1.
         25    2    1    2    0    0  0.29563859593E+02 -0.43907880888E+02 -0.38686434634E+02  0.14123052641E+03  0.12508995790E+03 0.  0.
          5    1    3    3  502    0  0.75618123387E+02 -0.47554447907E+02 -0.26486255303E+02  0.93265857742E+02  0.41800000000E+01 0.  1.
         -5    1    3    3    0  502 -0.46054263793E+02  0.36465670189E+01 -0.12200179330E+02  0.47964668666E+02  0.41800000000E+01 0.  1.
        -11    1    1    2    0    0 -0.61253252777E+02  0.40969611128E+02  0.63164363192E+02  0.97057749764E+02  0.00000000000E+00 0.  1.
         11    1    1    2    0    0  0.31689393184E+02  0.29382697607E+01  0.29356698306E+02  0.43297422613E+02  0.00000000000E+00 0. -1.
</event>
<event>
 7    1  0.2612213E-009  0.1042003E+03  0.7561462E-02  0.1271703E+00
          1   -1    0    0  501    0  0.00000000000E+00  0.00000000000E+00  0.40968543237E+02  0.40968543237E+02  0.00000000000E+00 0.  1.
         -1   -1    0    0    0  501 -0.00000000000E+00 -0.00000000000E+00 -0.40733619185E+03  0.40733619185E+03  0.00000000000E+00 0. -1.
         25    2    1    2    0    0  0.11226087366E+02 -0.35179288809E+02 -0.10153829982E+03  0.16529099783E+03  0.12508988863E+03 0.  0.
          5    1    3    3  502    0 -0.10331328359E+02 -0.68820277284E+02 -0.17100457805E+02  0.71783458877E+02  0.41800000000E+01 0.  1.
         -5    1    3    3    0  502  0.21557415726E+02  0.33640988475E+02 -0.84437842011E+02  0.93507538957E+02  0.41800000000E+01 0.  1.
        -11    1    1    2    0    0 -0.40402152486E-01 -0.31197552137E+02 -0.10635221032E+03  0.11083357583E+03  0.00000000000E+00 0.  1.
         11    1    1    2    0    0 -0.11185685214E+02  0.66376840946E+02 -0.15847713848E+03  0.17218016142E+03  0.00000000000E+00 0. -1.
</event>
<event>
 7    1  0.2612213E-009  0.1501412E+03  0.7561462E-02  0.1200300E+00
         -1   -1    0    0    0  501 -0.00000000000E+00  0.00000000000E+00  0.38181269762E+02  0.38181269762E+02  0.00000000000E+00 0.  1.
          1   -1    0    0  501    0  0.00000000000E+00 -0.00000000000E+00 -0.62654499096E+03  0.62654499096E+03  0.00000000000E+00 0. -1.
         25    2    1    2    0    0  0.71295361182E+02  0.82910352046E+02 -0.27575553940E+03  0.32194078949E+03  0.12509036505E+03 0.  0.
          5    1    3    3  502    0 -0.33543309627E+02  0.40936824985E+02 -0.91909871952E+02  0.10614082260E+03  0.41800000000E+01 0. -1.
         -5    1    3    3    0  502  0.10483867081E+03  0.41973527061E+02 -0.18384566745E+03  0.21579996689E+03  0.41800000000E+01 0. -1.
        -11    1    1    2    0    0 -0.28888128881E+02  0.11184483974E+02 -0.12371969415E+03  0.12753893285E+03  0.00000000000E+00 0.  1.
         11    1    1    2    0    0 -0.42407232301E+02 -0.94094836020E+02 -0.18888848765E+03  0.21524653838E+03  0.00000000000E+00 0. -1.
</event>
<event>
 7    1  0.2612213E-009  0.1347149E+03  0.7561462E-02  0.1220623E+00
          2   -1    0    0  501    0  0.00000000000E+00  0.00000000000E+00  0.29641674400E+03  0.29641674400E+03  0.00000000000E+00 0. -1.
         -2   -1    0    0    0  501 -0.00000000000E+00 -0.00000000000E+00 -0.66485948731E+02  0.66485948731E+02  0.00000000000E+00 0.  1.
         25    2    1    2    0    0 -0.16813051945E+02 -0.84064231188E+02  0.15483699002E+03  0.21673147678E+03  0.12509422795E+03 0.  0.
          5    1    3    3  502    0 -0.63687239143E+02 -0.78228267961E+02  0.12509983389E+03  0.16075810143E+03  0.41800000000E+01 0.  1.
         -5    1    3    3    0  502  0.46874187198E+02 -0.58359632273E+01  0.29737156133E+02  0.55973375342E+02  0.41800000000E+01 0.  1.
        -11    1    1    2    0    0 -0.29749806166E+02  0.63544901311E+02  0.24243447041E+02  0.74234427148E+02  0.00000000000E+00 0.  1.
         11    1    1    2    0    0  0.46562858111E+02  0.20519329877E+02  0.50850358205E+02  0.71936788805E+02  0.00000000000E+00 0. -1.
</event>
<event>
 7    1  0.2612213E-009  0.7208621E+02  0.7561462E-02  0.1353139E+00
          1   -1    0    0  501    0  0.00000000000E+00  0.00000000000E+00  0.35076598981E+03  0.35076598981E+03  0.00000000000E+00 0. -1.
         -1   -1    0    0    0  501 -0.00000000000E+00 -0.00000000000E+00 -0.43277584660E+02  0.43277584660E+02  0.00000000000E+00 0.  1.
         25    2    1    2    0    0 -0.10220720484E+02 -0.55994582044E+02  0.19601039762E+03  0.23938773897E+03  0.12508619927E+03 0.  0.
          5    1    3    3  502    0 -0.23074864207E+02 -0.21481096643E+02 -0.73804314314E+01  0.32647052536E+02  0.41800000000E+01 0.  1.
         -5    1    3    3    0  502  0.12854143723E+02 -0.34513485401E+02  0.20339082905E+03  0.20674068643E+03  0.41800000000E+01 0.  1.
        -11    1    1    2    0    0 -0.19865020654E+02  0.17710531131E+02  0.10152846254E+03  0.10495861405E+03  0.00000000000E+00 0. -1.
         11    1    1    2    0    0  0.30085741138E+02  0.38284050914E+02  0.99495449945E+01  0.49697221449E+02  0.00000000000E+00 0.  1.
</event>
<event>
 7    1  0.2612213E-009  0.9475720E+02  0.7561462E-02  0.1291724E+00
         -1   -1    0    0    0  501 -0.00000000000E+00  0.00000000000E+00  0.53298886641E+02  0.53298886641E+02  0.00000000000E+00 0.  1.
          1   -1    0    0  501    0  0.00000000000E+00 -0.00000000000E+00 -0.29647413377E+03  0.29647413377E+03  0.00000000000E+00 0. -1.
         25    2    1    2    0    0 -0.45213432989E+02  0.41677298909E+02 -0.14902092330E+03  0.20405037770E+03  0.12509224313E+03 0.  0.
          5    1    3    3  502    0  0.18351137643E+02  0.28422380200E+02 -0.13264452367E+03  0.13695487581E+03  0.41800000000E+01 0. -1.
         -5    1    3    3    0  502 -0.63564570632E+02  0.13254918709E+02 -0.16376399635E+02  0.67095501896E+02  0.41800000000E+01 0. -1.
        -11    1    1    2    0    0 -0.11793228063E+02 -0.29909290283E+02 -0.79416202453E+02  0.85677179490E+02  0.00000000000E+00 0. -1.
         11    1    1    2    0    0  0.57006661052E+02 -0.11768008626E+02 -0.14738121376E+02  0.60045463218E+02  0.00000000000E+00 0.  1.
</event>
<event>
 7    1  0.2612213E-009  0.8014271E+02  0.7561462E-02  0.1328647E+00
          1   -1    0    0  501    0  0.00000000000E+00  0.00000000000E+00  0.78862608653E+02  0.78862608653E+02  0.00000000000E+00 0. -1.
         -1   -1    0    0    0  501 -0.00000000000E+00 -0.00000000000E+00 -0.21069625022E+03  0.21069625022E+03  0.00000000000E+00 0.  1.
         25    2    1    2    0    0 -0.10051603289E+02 -0.11454839923E+02 -0.15027808210E+03  0.19612081228E+03  0.12509045911E+03 0.  0.
          5    1    3    3  502    0  0.43978479358E+02  0.32841620774E+02 -0.78394173177E+02  0.95790383076E+02  0.41800000000E+01 0.  1.
         -5    1    3    3    0  502 -0.54030082647E+02 -0.44296460697E+02 -0.71883908924E+02  0.10033042920E+03  0.41800000000E+01 0.  1.
        -11    1    1    2    0    0 -0.58566404137E+01  0.17326242744E+02 -0.33843484238E+02  0.38469213014E+02  0.00000000000E+00 0.  1.
         11    1    1    2    0    0  0.15908243702E+02 -0.58714028208E+01  0.52287924771E+02  0.54968833585E+02  0.00000000000E+00 0. -1.
</event>
<event>
 7    1  0.2612213E-009  0.1140024E+03  0.7561462E-02  0.1253333E+00
          1   -1    0    0  501    0  0.00000000000E+00  0.00000000000E+00  0.16903396302E+03  0.16903396302E+03  0.00000000000E+00 0. -1.
         -1   -1    0    0    0  501 -0.00000000000E+00 -0.00000000000E+00 -0.11054983990E+03  0.11054983990E+03  0.00000000000E+00 0.  1.
         25    2    1    2    0    0  0.57553757336E+02 -0.59169992050E+02  0.45930158359E+02  0.15673359242E+03  0.12506924724E+03 0.  0.
          5    1    3    3  502    0 -0.18144944416E+02 -0.65395122987E+02  0.43315972023E+02  0.80619519663E+02  0.41800000000E+01 0. -1.
         -5    1    3    3    0  502  0.75698701752E+02  0.62251309368E+01  0.26141863353E+01  0.76114072761E+02  0.41800000000E+01 0. -1.
        -11    1    1    2    0    0 -0.25204727054E+02  0.36826588210E+02 -0.38135654274E+02  0.58700970963E+02  0.00000000000E+00 0.  1.
         11    1    1    2    0    0 -0.32349030282E+02  0.22343403840E+02  0.50689619029E+02  0.64149239533E+02  0.00000000000E+00 0. -1.
</event>
<event>
 7    1  0.2612213E-009  0.1388168E+03  0.7561462E-02  0.1214930E+00
         -2   -1    0    0    0  501 -0.00000000000E+00  0.00000000000E+00  0.17837621406E+03  0.17837621406E+03  0.00000000000E+00 0.  1.
          2   -1    0    0  501    0  0.00000000000E+00 -0.00000000000E+00 -0.13310721475E+03  0.13310721475E+03  0.00000000000E+00 0. -1.
         25    2    1    2    0    0 -0.87872292932E+02 -0.18852941875E+02  0.89613055246E+02  0.17819334087E+03  0.12508154851E+03 0.  0.
          5    1    3    3  502    0  0.75370816223E+01 -0.50583689046E+02  0.44455291682E+02  0.67891549956E+02  0.41800000000E+01 0. -1.
         -5    1    3    3    0  502 -0.95409374554E+02  0.31730747171E+02  0.45157763564E+02  0.11030179091E+03  0.41800000000E+01 0. -1.
        -11    1    1    2    0    0  0.74357996728E+01  0.41469570079E+02 -0.15694381325E+02  0.44959203334E+02  0.00000000000E+00 0. -1.
         11    1    1    2    0    0  0.80436493259E+02 -0.22616628204E+02 -0.28649674608E+02  0.88330884601E+02  0.00000000000E+00 0.  1.
</event>
<event>
 7    1  0.2612213E-009  0.1409085E+03  0.7561462E-02  0.1212112E+00
          1   -1    0    0  501    0  0.00000000000E+00  0.00000000000E+00  0.34736897077E+03  0.34736897077E+03  0.00000000000E+00 0. -1.
         -1   -1    0    0    0  501 -0.00000000000E+00 -0.00000000000E+00 -0.62547427536E+02  0.62547427536E+02  0.00000000000E+00 0.  1.
         25    2    1    2    0    0  0.93555150462E+02 -0.64244220838E+02  0.19371188288E+03  0.25700547488E+03  0.12509050507E+03 0.  0.
          5    1    3    3  502    0  0.97810944784E+02 -0.19813664884E+01  0.76920209670E+02  0.12451946751E+03  0.41800000000E+01 0. -1.
         -5    1    3    3    0  502 -0.42557943220E+01 -0.62262854350E+02  0.11679167321E+03  0.13248600737E+03  0.41800000000E+01 0. -1.
        -11    1    1    2    0    0 -0.17304444879E+02 -0.53508771454E+01  0.58939356818E+01  0.19047681660E+02  0.00000000000E+00 0.  1.
         11    1    1    2    0    0 -0.76250705583E+02  0.69595097984E+02  0.85215724668E+02  0.13386324177E+03  0.00000000000E+00 0. -1.
</event>
<event>
 7    1  0.2612213E-009  0.1369157E+03  0.7561462E-02  0.1217540E+00
         -1   -1    0    0    0  501 -0.00000000000E+00  0.00000000000E+00  0.63196965144E+02  0.63196965144E+02  0.00000000000E+00 0.  1.
          1   -1    0    0  501    0  0.00000000000E+00 -0.00000000000E+00 -0.32872619970E+03  0.32872619970E+03  0.00000000000E+00 0. -1.
         25    2    1    2    0    0 -0.93787490936E+02  0.26013182396E+02 -0.11939870172E+03  0.19843745266E+03  0.12509433853E+03 0.  0.
          5    1    3    3  502    0 -0.11983659526E+03  0.32802599425E+02 -0.71707144563E+02  0.14351378706E+03  0.41800000000E+01 0. -1.
         -5    1    3    3    0  502  0.26049104328E+02 -0.67894170291E+01 -0.47691557154E+02  0.54923665606E+02  0.41800000000E+01 0. -1.
        -11    1    1    2    0    0  0.50246068999E+02 -0.51394316272E+02 -0.59704127673E+02  0.93437819196E+02  0.00000000000E+00 0.  1.
         11    1    1    2    0    0  0.43541421937E+02  0.25381133877E+02 -0.86426405163E+02  0.10004789298E+03  0.00000000000E+00 0. -1.
</event>
<event>
 7    1  0.2612213E-009  0.1672100E+03  0.7561462E-02  0.1180789E+00
         -3   -1    0    0    0  501 -0.00000000000E+00  0.00000000000E+00  0.61246923388E+02  0.61246923388E+02  0.00000000000E+00 0.  1.
          3   -1    0    0  501    0  0.00000000000E+00 -0.00000000000E+00 -0.62478804337E+03  0.62478804337E+03  0.00000000000E+00 0. -1.
         25    2    1    2    0    0  0.12399777568E+03 -0.62442689288E+02 -0.43850069430E+03  0.47665588757E+03  0.12507373201E+03 0.  0.
          5    1    3    3  502    0  0.14022893713E+03 -0.34298140692E+02 -0.40419729263E+03  0.42922423165E+03  0.41800000000E+01 0. -1.
         -5    1    3    3    0  502 -0.16231161451E+02 -0.28144548596E+02 -0.34303401664E+02  0.47431655922E+02  0.41800000000E+01 0. -1.
        -11    1    1    2    0    0 -0.15968049306E+02  0.45078960265E+02 -0.68404320605E+01  0.48310276008E+02  0.00000000000E+00 0.  1.
         11    1    1    2    0    0 -0.10802972637E+03  0.17363729023E+02 -0.11819999363E+03  0.16106880318E+03  0.00000000000E+00 0. -1.
</event>
<event>
 7    1  0.2612213E-009  0.7009469E+02  0.7561462E-02  0.1359771E+00
          2   -1    0    0  501    0  0.00000000000E+00  0.00000000000E+00  0.17343054045E+03  0.17343054045E+03  0.00000000000E+00 0. -1.
         -2   -1    0    0    0  501 -0.00000000000E+00 -0.00000000000E+00 -0.92654416566E+02  0.92654416566E+02  0.00000000000E+00 0.  1.
         25    2    1    2    0    0 -0.79246722624E+01  0.65599261837E+02  0.41664216171E+02  0.14747489315E+03  0.12508746386E+03 0.  0.
          5    1    3    3  502    0 -0.15780417369E+02  0.38195442255E+02  0.85478094586E+02  0.95036258530E+02  0.41800000000E+01 0.  1.
         -5    1    3    3    0  502  0.78557451067E+01  0.27403819581E+02 -0.43813878415E+02  0.52438634618E+02  0.41800000000E+01 0.  1.
        -11    1    1    2    0    0  0.15096626270E+02 -0.55052901301E+02 -0.18184250468E+02  0.59911576774E+02  0.00000000000E+00 0.  1.
         11    1    1    2    0    0 -0.71719540077E+01 -0.10546360535E+02  0.57296158183E+02  0.58698487096E+02  0.00000000000E+00 0. -1.
</event>
<event>
 7    1  0.2612213E-009  0.1279729E+03  0.7561462E-02  0.1230495E+00
         -2   -1    0    0    0  501 -0.00000000000E+00  0.00000000000E+00  0.40372321501E+02  0.40372321501E+02  0.00000000000E+00 0.  1.
          2   -1    0    0  501    0  0.00000000000E+00 -0.00000000000E+00 -0.47742045366E+03  0.47742045366E+03  0.00000000000E+00 0. -1.
         25    2    1    2    0    0  0.76618398535E+02 -0.30763808939E+02 -0.28313121735E+03  0.32036361708E+03  0.12511103059E+03 0.  0.
          5    1    3    3  502    0  0.19286736973E+01  0.37892680735E+02 -0.33180982574E+02  0.50576922011E+02  0.41800000000E+01 0.  1.
         -5    1    3    3    0  502  0.74689724838E+02 -0.68656489674E+02 -0.24995023478E+03  0.26978669507E+03  0.41800000000E+01 0.  1.
        -11    1    1    2    0    0 -0.24180935315E+02 -0.28320884658E+02 -0.20849456386E+02  0.42678917185E+02  0.00000000000E+00 0.  1.
         11    1    1    2    0    0 -0.52437463220E+02  0.59084693597E+02 -0.13306745842E+03  0.15475024089E+03  0.00000000000E+00 0. -1.
</event>
<event>
 7    1  0.2612213E-009  0.1697884E+03  0.7561462E-02  0.1178069E+00
         -2   -1    0    0    0  501 -0.00000000000E+00  0.00000000000E+00  0.36074210956E+02  0.36074210956E+02  0.00000000000E+00 0.  1.
          2   -1    0    0  501    0  0.00000000000E+00 -0.00000000000E+00 -0.10523686646E+04  0.10523686646E+04  0.00000000000E+00 0. -1.
         25    2    1    2    0    0 -0.46866419397E+02  0.14510114115E+03 -0.68377919320E+03  0.71165402576E+03  0.12508662958E+03 0.  0.
          5    1    3    3  502    0 -0.69964873440E+02  0.12667691891E+03 -0.38385520499E+03  0.41024921218E+03  0.41800000000E+01 0. -1.
         -5    1    3    3    0  502  0.23098454042E+02  0.18424222240E+02 -0.29992398821E+03  0.30140481358E+03  0.41800000000E+01 0. -1.
        -11    1    1    2    0    0 -0.12635435496E+02 -0.58762057312E+02 -0.60580628074E+02  0.85338421052E+02  0.00000000000E+00 0. -1.
         11    1    1    2    0    0  0.59501854894E+02 -0.86339083833E+02 -0.27193463238E+03  0.29145042875E+03  0.00000000000E+00 0.  1.
</event>
<event>
 7    1  0.2612213E-009  0.1158863E+03  0.7561462E-02  0.1250042E+00
          2   -1    0    0  501    0  0.00000000000E+00  0.00000000000E+00  0.19892731598E+03  0.19892731598E+03  0.00000000000E+00 0. -1.
         -2   -1    0    0    0  501 -0.00000000000E+00 -0.00000000000E+00 -0.91071781039E+02  0.91071781039E+02  0.00000000000E+00 0.  1.
         25    2    1    2    0    0 -0.59901865173E+02 -0.42634070951E+02  0.90695187256E+02  0.17111144237E+03  0.12509041235E+03 0.  0.
          5    1    3    3  502    0 -0.81612502256E+02 -0.66745141005E+02  0.44516209875E+02  0.11451934209E+03  0.41800000000E+01 0. -1.
         -5    1    3    3    0  502  0.21710637083E+02  0.24111070054E+02  0.46178977381E+02  0.56592100276E+02  0.41800000000E+01 0. -1.
        -11    1    1    2    0    0  0.71026873672E+01  0.40059475182E+02 -0.27978199397E+02  0.49375999850E+02  0.00000000000E+00 0.  1.
         11    1    1    2    0    0  0.52799177806E+02  0.25745957690E+01  0.45138547086E+02  0.69511654803E+02  0.00000000000E+00 0. -1.
</event>
<event>
 7    1  0.2612213E-009  0.9881954E+02  0.7561462E-02  0.1282798E+00
         -2   -1    0    0    0  501 -0.00000000000E+00  0.00000000000E+00  0.53708198443E+02  0.53708198443E+02  0.00000000000E+00 0.  1.
          2   -1    0    0  501    0  0.00000000000E+00 -0.00000000000E+00 -0.37682680973E+03  0.37682680973E+03  0.00000000000E+00 0. -1.
         25    2    1    2    0    0 -0.87237932648E+02 -0.24635617714E+02 -0.15090711939E+03  0.21595754702E+03  0.12508929962E+03 0.  0.
          5    1    3    3  502    0 -0.15252840086E+02 -0.19935050037E+02  0.18713526267E+02  0.31586766470E+02  0.41800000000E+01 0. -1.
         -5    1    3    3    0  502 -0.71985092562E+02 -0.47005676771E+01 -0.16962064566E+03  0.18437078055E+03  0.41800000000E+01 0. -1.
        -11    1    1    2    0    0  0.76134751350E+02  0.36870535059E+01 -0.52533420234E+02  0.92573511158E+02  0.00000000000E+00 0.  1.
         11    1    1    2    0    0  0.11103181298E+02  0.20948564208E+02 -0.11967807166E+03  0.12200394999E+03  0.00000000000E+00 0. -1.
</event>
<event>
 7    1  0.2612213E-009  0.8619182E+02  0.7561462E-02  0.1312345E+00
          2   -1    0    0  501    0  0.00000000000E+00  0.00000000000E+00  0.40474281914E+03  0.40474281914E+03  0.00000000000E+00 0. -1.
         -2   -1    0    0    0  501 -0.00000000000E+00 -0.00000000000E+00 -0.32316016836E+02  0.32316016836E+02  0.00000000000E+00 0.  1.
         25    2    1    2    0    0  0.96628322804E+01  0.30392332361E+02  0.18424386831E+03  0.22496452885E+03  0.12508465947E+03 0.  0.
          5    1    3    3  502    0 -0.45619570974E+02  0.95535336050E+01  0.20969345406E+02  0.51279636377E+02  0.41800000000E+01 0.  1.
         -5    1    3    3    0  502  0.55282403254E+02  0.20838798756E+02  0.16327452290E+03  0.17368489247E+03  0.41800000000E+01 0.  1.
        -11    1    1    2    0    0 -0.27388468440E+00  0.17527259225E+02 -0.15399987663E+00  0.17530075434E+02  0.00000000000E+00 0.  1.
         11    1    1    2    0    0 -0.93889475960E+01 -0.47919591587E+02  0.18833693387E+03  0.19456423170E+03  0.00000000000E+00 0. -1.
</event>
<event>
 7    1  0.2612213E-009  0.1172509E+03  0.7561462E-02  0.1247702E+00
         -1   -1    0    0    0  501 -0.00000000000E+00  0.00000000000E+00  0.31644167575E+02  0.31644167575E+02  0.00000000000E+00 0.  1.
          1   -1    0    0  501    0  0.00000000000E+00 -0.00000000000E+00 -0.50568539674E+03  0.50568539674E+03  0.00000000000E+00 0. -1.
         25    2    1    2    0    0 -0.71207412405E+01  0.63382858509E+02 -0.22964442279E+03  0.26916732943E+03  0.12508556514E+03 0.  0.
          5    1    3    3  502    0 -0.52211482070E+02  0.59104662461E+02 -0.78596692368E+02  0.11141953346E+03  0.41800000000E+01 0.  1.
         -5    1    3    3    0  502  0.45090740830E+02  0.42781960481E+01 -0.15104773042E+03  0.15774779597E+03  0.41800000000E+01 0.  1.
        -11    1    1    2    0    0  0.42022997844E+02 -0.62268730821E+02 -0.15698328276E+03  0.17403183115E+03  0.00000000000E+00 0.  1.
         11    1    1    2    0    0 -0.34902256604E+02 -0.11141276883E+01 -0.87413523615E+02  0.94130403735E+02  0.00000000000E+00 0. -1.
</event>
<event>
 7    1  0.2612213E-009  0.1137611E+03  0.7561462E-02  0.1253759E+00
         -2   -1    0    0    0  501 -0.00000000000E+00  0.00000000000E+00  0.29249827743E+02  0.29249827743E+02  0.00000000000E+00 0.  1.
          2   -1    0    0  501    0  0.00000000000E+00 -0.00000000000E+00 -0.56917587270E+03  0.56917587270E+03  0.00000000000E+00 0. -1.
         25    2    1    2    0    0  0.11583705524E+02 -0.37314962670E+02 -0.43157174881E+03  0.45102909668E+03  0.12508590251E+03 0.  0.
          5    1    3    3  502    0 -0.53537991997E+02  0.37404728198E+01 -0.16807003188E+03  0.17648035511E+03  0.41800000000E+01 0. -1.
         -5    1    3    3    0  502  0.65121697521E+02 -0.41055435490E+02 -0.26350171693E+03  0.27454874157E+03  0.41800000000E+01 0. -1.
        -11    1    1    2    0    0 -0.45413427451E+02 -0.10748232343E+01 -0.32329381589E+02  0.55755928400E+02  0.00000000000E+00 0.  1.
         11    1    1    2    0    0  0.33829721927E+02  0.38389785904E+02 -0.76024914556E+02  0.91640675361E+02  0.00000000000E+00 0. -1.
</event>
<event>
 7    1  0.2612213E-009  0.1201698E+03  0.7561462E-02  0.1242817E+00
          2   -1    0    0  501    0  0.00000000000E+00  0.00000000000E+00  0.56360521965E+03  0.56360521965E+03  0.00000000000E+00 0. -1.
         -2   -1    0    0    0  501 -0.00000000000E+00 -0.00000000000E+00 -0.39511198420E+02  0.39511198420E+02  0.00000000000E+00 0.  1.
         25    2    1    2    0    0  0.91775912844E+00  0.99196635473E+02  0.23521565115E+03  0.28427820562E+03  0.12508749289E+03 0.  0.
          5    1    3    3  502    0 -0.37629502189E+02  0.54280131112E+02  0.20932736207E+03  0.21953981184E+03  0.41800000000E+01 0.  1.
         -5    1    3    3    0  502  0.38547261317E+02  0.44916504361E+02  0.25888289073E+02  0.64738393787E+02  0.41800000000E+01 0.  1.
        -11    1    1    2    0    0  0.27342414280E+02 -0.64620072818E+02  0.24989904285E+03  0.25956288843E+03  0.00000000000E+00 0. -1.
         11    1    1    2    0    0 -0.28260173408E+02 -0.34576562655E+02  0.38979327227E+02  0.59275324016E+02  0.00000000000E+00 0.  1.
</event>
<event>
 7    1  0.2612213E-009  0.2934303E+03  0.7561462E-02  0.1088572E+00
         -2   -1    0    0    0  501 -0.00000000000E+00  0.00000000000E+00  0.86757254000E+02  0.86757254000E+02  0.00000000000E+00 0.  1.
          2   -1    0    0  501    0  0.00000000000E+00 -0.00000000000E+00 -0.10924754818E+04  0.10924754818E+04  0.00000000000E+00 0. -1.
         25    2    1    2    0    0 -0.27040787497E+03  0.75232257439E+02 -0.38618678773E+03  0.49352936295E+03  0.12510270051E+03 0.  0.
          5    1    3    3  502    0 -0.24473749775E+03  0.23403948083E+02 -0.28080565085E+03  0.37324720165E+03  0.41800000000E+01 0.  1.
         -5    1    3    3    0  502 -0.25670377218E+02  0.51828309356E+02 -0.10538113688E+03  0.12028216130E+03  0.41800000000E+01 0.  1.
        -11    1    1    2    0    0  0.14063939211E+03 -0.57781279436E+02 -0.23890255242E+03  0.28318288158E+03  0.00000000000E+00 0.  1.
         11    1    1    2    0    0  0.12976848285E+03 -0.17450978003E+02 -0.38062888761E+03  0.40252049123E+03  0.00000000000E+00 0. -1.
</event>
<event>
 7    1  0.2612213E-009  0.1127728E+03  0.7561462E-02  0.1255520E+00
          3   -1    0    0  501    0  0.00000000000E+00  0.00000000000E+00  0.20412028763E+03  0.20412028763E+03  0.00000000000E+00 0. -1.
         -3   -1    0    0    0  501 -0.00000000000E+00 -0.00000000000E+00 -0.73873825743E+02  0.73873825743E+02  0.00000000000E+00 0.  1.
         25    2    1    2    0    0  0.52399330041E+02 -0.59882067100E+01  0.47210166147E+02  0.14372846017E+03  0.12509005583E+03 0.  0.
          5    1    3    3  502    0  0.71089162289E+02 -0.44453719107E+02  0.54580505912E+02  0.10013144443E+03  0.41800000000E+01 0.  1.
         -5    1    3    3    0  502 -0.18689832249E+02  0.38465512397E+02 -0.73703397647E+01  0.43597015743E+02  0.41800000000E+01 0.  1.
        -11    1    1    2    0    0 -0.30274780383E+02  0.44730851795E+02  0.21222290205E+02  0.58032723795E+02  0.00000000000E+00 0.  1.
         11    1    1    2    0    0 -0.22124549658E+02 -0.38742645085E+02  0.61814005534E+02  0.76232929407E+02  0.00000000000E+00 0. -1.
</event>
<event>
 7    1  0.2612213E-009  0.1215734E+03  0.7561462E-02  0.1240524E+00
          1   -1    0    0  501    0  0.00000000000E+00  0.00000000000E+00  0.10570672303E+03  0.10570672303E+03  0.00000000000E+00 0. -1.
         -1   -1    0    0    0  501 -0.00000000000E+00 -0.00000000000E+00 -0.19870629810E+03  0.19870629810E+03  0.00000000000E+00 0.  1.
         25    2    1    2    0    0 -0.39309248604E+02 -0.68373253591E+02  0.59656167804E+01  0.14799188619E+03  0.12508353594E+03 0.  0.
          5    1    3    3  502    0  0.32920580093E+02 -0.28355324495E+02  0.39405387290E+02  0.58805152566E+02  0.41800000000E+01 0. -1.
         -5    1    3    3    0  502 -0.72229828696E+02 -0.40017929096E+02 -0.33439770510E+02  0.89186733623E+02  0.41800000000E+01 0. -1.
        -11    1    1    2    0    0 -0.25026582564E+02  0.38415300380E+02 -0.19343197468E+02  0.49761676282E+02  0.00000000000E+00 0. -1.
         11    1    1    2    0    0  0.64335831168E+02  0.29957953210E+02 -0.79621994381E+02  0.10665945866E+03  0.00000000000E+00 0.  1.
</event>
<event>
 7    1  0.2612213E-009  0.1027711E+03  0.7561462E-02  0.1274574E+00
          1   -1    0    0  501    0  0.00000000000E+00  0.00000000000E+00  0.71986737085E+03  0.71986737085E+03  0.00000000000E+00 0. -1.
         -1   -1    0    0    0  501 -0.00000000000E+00 -0.00000000000E+00 -0.21132267047E+02  0.21132267047E+02  0.00000000000E+00 0.  1.
         25    2    1    2    0    0 -0.69647158875E+02 -0.30956652666E+01  0.40961799763E+03  0.43392964341E+03  0.12509085324E+03 0.  0.
          5    1    3    3  502    0  0.32470279272E+02  0.56590503955E+01  0.50499354922E+02  0.60448334426E+02  0.41800000000E+01 0.  1.
         -5    1    3    3    0  502 -0.10211743815E+03 -0.87547156621E+01  0.35911864271E+03  0.37348130898E+03  0.41800000000E+01 0.  1.
        -11    1    1    2    0    0  0.51291712807E+02  0.31074278721E+01  0.28314116885E+03  0.28776625481E+03  0.00000000000E+00 0. -1.
         11    1    1    2    0    0  0.18355446068E+02 -0.11762605501E-01  0.59759373305E+01  0.19303739682E+02  0.00000000000E+00 0.  1.
</event>
<event>
 7    1  0.2612213E-009  0.1178029E+03  0.7561462E-02  0.1246766E+00
         -1   -1    0    0    0  501 -0.00000000000E+00  0.00000000000E+00  0.60888933541E+02  0.60888933541E+02  0.00000000000E+00 0.  1.
          1   -1    0    0  501    0  0.00000000000E+00 -0.00000000000E+00 -0.48091717788E+03  0.48091717788E+03  0.00000000000E+00 0. -1.
         25    2    1    2    0    0 -0.53512695723E+02  0.41856989005E+02 -0.39849576001E+03  0.42315716998E+03  0.12508998214E+03 0.  0.
          5    1    3    3  502    0 -0.85270074356E+02  0.35049844477E+02 -0.18058993217E+03  0.20280451962E+03  0.41800000000E+01 0.  1.
         -5    1    3    3    0  502  0.31757378633E+02  0.68071445279E+01 -0.21790582784E+03  0.22035265036E+03  0.41800000000E+01 0.  1.
        -11    1    1    2    0    0 -0.20741626681E+02 -0.28304651546E+02 -0.25004497639E+02  0.43088203475E+02  0.00000000000E+00 0. -1.
         11    1    1    2    0    0  0.74254322404E+02 -0.13552337458E+02  0.34720133025E+01  0.75560737970E+02  0.00000000000E+00 0.  1.
</event>
<event>
 7    1  0.2612213E-009  0.1238129E+03  0.7561462E-02  0.1236936E+00
          2   -1    0    0  501    0  0.00000000000E+00  0.00000000000E+00  0.80875329228E+03  0.80875329228E+03  0.00000000000E+00 0. -1.
         -2   -1    0    0    0  501 -0.00000000000E+00 -0.00000000000E+00 -0.29744956354E+02  0.29744956354E+02  0.00000000000E+00 0.  1.
         25    2    1    2    0    0 -0.58611866200E+02  0.80004997056E+02  0.54600147706E+03  0.56885958432E+03  0.12508982096E+03 0.  0.
          5    1    3    3  502    0 -0.24932809108E+01  0.59860392043E+02  0.85443081741E+02  0.10443886060E+03  0.41800000000E+01 0. -1.
         -5    1    3    3    0  502 -0.56118585289E+02  0.20144605013E+02  0.46055839531E+03  0.46442072372E+03  0.41800000000E+01 0. -1.
        -11    1    1    2    0    0  0.77463249086E+02 -0.49471887216E+02  0.20308677825E+03  0.22291761277E+03  0.00000000000E+00 0. -1.
         11    1    1    2    0    0 -0.18851382886E+02 -0.30533109839E+02  0.29920080621E+02  0.46721051546E+02  0.00000000000E+00 0.  1.
</event>
<event>
 7    1  0.2612213E-009  0.1052411E+03  0.7561462E-02  0.1269645E+00
          1   -1    0    0  501    0  0.00000000000E+00  0.00000000000E+00  0.15999011820E+03  0.15999011820E+03  0.00000000000E+00 0. -1.
         -1   -1    0    0    0  501 -0.00000000000E+00 -0.00000000000E+00 -0.85563161198E+02  0.85563161198E+02  0.00000000000E+00 0.  1.
         25    2    1    2    0    0 -0.48972519435E+01  0.84635612444E+01  0.86801240730E+02  0.15257361118E+03  0.12509451023E+03 0.  0.
          5    1    3    3  502    0  0.71180491472E+01 -0.55937963003E+02  0.57634231324E+02  0.80739701194E+02  0.41800000000E+01 0.  1.
         -5    1    3    3    0  502 -0.12015301091E+02  0.64401524247E+02  0.29167009407E+02  0.71833909983E+02  0.41800000000E+01 0.  1.
        -11    1    1    2    0    0 -0.30890958093E+02 -0.32766667193E+02  0.70109620057E+01  0.45574766693E+02  0.00000000000E+00 0. -1.
         11    1    1    2    0    0  0.35788210036E+02  0.24303105949E+02 -0.19385245737E+02  0.47404901525E+02  0.00000000000E+00 0.  1.
</event>
<event>
 7    1  0.2612213E-009  0.1343884E+03  0.7561462E-02  0.1221086E+00
          2   -1    0    0  501    0  0.00000000000E+00  0.00000000000E+00  0.11650571615E+04  0.11650571615E+04  0.00000000000E+00 0. -1.
         -2   -1    0    0    0  501 -0.00000000000E+00 -0.00000000000E+00 -0.17113160436E+02  0.17113160436E+02  0.00000000000E+00 0.  1.
         25    2    1    2    0    0  0.54373691007E+02 -0.65130216024E+02  0.79345798227E+03  0.80772613362E+03  0.12508994361E+03 0.  0.
          5    1    3    3  502    0  0.33338943055E+02 -0.10181257489E+03  0.51466553719E+03  0.52571415532E+03  0.41800000000E+01 0.  1.
         -5    1    3    3    0  502  0.21034747952E+02  0.36682358863E+02  0.27879244508E+03  0.28201197830E+03  0.41800000000E+01 0.  1.
        -11    1    1    2    0    0  0.22642679854E+02  0.15828075699E+02  0.11000060663E+03  0.11341672006E+03  0.00000000000E+00 0.  1.
         11    1    1    2    0    0 -0.77016370861E+02  0.49302140325E+02  0.24448541218E+03  0.26102746827E+03  0.00000000000E+00 0. -1.
</event>
<event>
 7    1  0.2612213E-009  0.1545760E+03  0.7561462E-02  0.1194960E+00
         -2   -1    0    0    0  501 -0.00000000000E+00  0.00000000000E+00  0.39802136783E+03  0.39802136783E+03  0.00000000000E+00 0.  1.
          2   -1    0    0  501    0  0.00000000000E+00 -0.00000000000E+00 -0.69776867066E+02  0.69776867066E+02  0.00000000000E+00 0. -1.
         25    2    1    2    0    0 -0.17289705369E+02 -0.11859210895E+03  0.13478370263E+03  0.21949377641E+03  0.12509136329E+03 0.  0.
          5    1    3    3  502    0  0.39330163811E+02 -0.37338168322E+02  0.28417783418E+01  0.54466032563E+02  0.41800000000E+01 0. -1.
         -5    1    3    3    0  502 -0.56619869180E+02 -0.81253940624E+02  0.13194192429E+03  0.16502774384E+03  0.41800000000E+01 0. -1.
        -11    1    1    2    0    0  0.51242763280E+02  0.26930246808E+02  0.70187443466E+02  0.90979867015E+02  0.00000000000E+00 0.  1.
         11    1    1    2    0    0 -0.33953057912E+02  0.91661862138E+02  0.12327335467E+03  0.15732459147E+03  0.00000000000E+00 0. -1.
</event>
<event>
 7    1  0.2612213E-009  0.1869301E+03  0.7561462E-02  0.1161260E+00
          1   -1    0    0  501    0  0.00000000000E+00  0.00000000000E+00  0.97119595150E+03  0.97119595150E+03  0.00000000000E+00 0. -1.
         -1   -1    0    0    0  501 -0.00000000000E+00 -0.00000000000E+00 -0.41116775486E+02  0.41116775486E+02  0.00000000000E+00 0.  1.
         25    2    1    2    0    0 -0.15299501679E+03  0.63246899400E+02  0.42014514083E+03  0.46860071207E+03  0.12512810452E+03 0.  0.
          5    1    3    3  502    0 -0.17506326738E+03  0.54744738762E+02  0.37415155813E+03  0.41671452442E+03  0.41800000000E+01 0. -1.
         -5    1    3    3    0  502  0.22068250587E+02  0.85021606379E+01  0.45993582698E+02  0.51886187650E+02  0.41800000000E+01 0. -1.
        -11    1    1    2    0    0  0.62853292464E+02 -0.34828513806E+02  0.35519717467E+03  0.36239287333E+03  0.00000000000E+00 0. -1.
         11    1    1    2    0    0  0.90141724329E+02 -0.28418385594E+02  0.15473686052E+03  0.18131914159E+03  0.00000000000E+00 0.  1.
</event>
<event>
 7    1  0.2612213E-009  0.1194400E+03  0.7561462E-02  0.1244024E+00
          2   -1    0    0  501    0  0.00000000000E+00  0.00000000000E+00  0.40704641669E+03  0.40704641669E+03  0.00000000000E+00 0. -1.
         -2   -1    0    0    0  501 -0.00000000000E+00 -0.00000000000E+00 -0.38862040254E+02  0.38862040254E+02  0.00000000000E+00 0.  1.
         25    2    1    2    0    0 -0.34120991495E+02 -0.51711626341E+02  0.23605137392E+03  0.27423686556E+03  0.12508906005E+03 0.  0.
          5    1    3    3  502    0 -0.30243585350E+02  0.36241320238E+02  0.11599604000E+03  0.12530228028E+03  0.41800000000E+01 0.  1.
         -5    1    3    3    0  502 -0.38774061447E+01 -0.87952946579E+02  0.12005533392E+03  0.14893458528E+03  0.41800000000E+01 0.  1.
        -11    1    1    2    0    0 -0.26297370636E+02  0.28102016919E+02  0.23350651791E+02  0.45016974536E+02  0.00000000000E+00 0.  1.
         11    1    1    2    0    0  0.60418362131E+02  0.23609609422E+02  0.10878235073E+03  0.12665461685E+03  0.00000000000E+00 0. -1.
</event>
<event>
 7    1  0.2612213E-009  0.7141547E+02  0.7561462E-02  0.1355345E+00
          1   -1    0    0  501    0  0.00000000000E+00  0.00000000000E+00  0.79818932128E+02  0.79818932128E+02  0.00000000000E+00 0. -1.
         -1   -1    0    0    0  501 -0.00000000000E+00 -0.00000000000E+00 -0.20186030249E+03  0.20186030249E+03  0.00000000000E+00 0.  1.
         25    2    1    2    0    0  0.29190222559E+02  0.26340511246E+02 -0.97957915464E+01  0.13148930602E+03  0.12509032113E+03 0.  0.
          5    1    3    3  502    0  0.57898201809E+02  0.37946276946E+02  0.34359953090E+02  0.77396385465E+02  0.41800000000E+01 0.  1.
         -5    1    3    3    0  502 -0.28707979250E+02 -0.11605765700E+02 -0.44155744637E+02  0.54092920558E+02  0.41800000000E+01 0.  1.
        -11    1    1    2    0    0 -0.18375157722E+02 -0.25438644676E+02 -0.12759170374E+03  0.13139411679E+03  0.00000000000E+00 0.  1.
         11    1    1    2    0    0 -0.10815064837E+02 -0.90186656924E+00  0.15346124930E+02  0.18795811797E+02  0.00000000000E+00 0. -1.
</event>
<event>
 7    1  0.2612213E-009  0.9700880E+02  0.7561462E-02  0.1286715E+00
         -1   -1    0    0    0  501 -0.00000000000E+00  0.00000000000E+00  0.45415036147E+03  0.45415036147E+03  0.00000000000E+00 0.  1.
          1   -1    0    0  501    0  0.00000000000E+00 -0.00000000000E+00 -0.46594697206E+02  0.46594697206E+02  0.00000000000E+00 0. -1.
         25    2    1    2    0    0  0.82671974300E+01 -0.29106570580E+02  0.38249372817E+03  0.40356475990E+03  0.12509006489E+03 0.  0.
          5    1    3    3  502    0 -0.36146419753E+02 -0.62323757640E+02  0.23942788437E+03  0.25006798804E+03  0.41800000000E+01 0.  1.
         -5    1    3    3    0  502  0.44413617184E+02  0.33217187060E+02  0.14306584380E+03  0.15349677186E+03  0.41800000000E+01 0.  1.
        -11    1    1    2    0    0  0.83495585349E+01  0.43471107017E+02  0.48086770569E+02  0.65358930352E+02  0.00000000000E+00 0.  1.
         11    1    1    2    0    0 -0.16616755965E+02 -0.14364536437E+02 -0.23024834480E+02  0.31821368428E+02  0.00000000000E+00 0. -1.
</event>
<event>
 7    1  0.2978657E-009  0.2270356E+03  0.7561462E-02  0.1128744E+00
          2   -1    0    0  501    0  0.00000000000E+00  0.00000000000E+00  0.47629638774E+03  0.47629638774E+03  0.00000000000E+00 0. -1.
         -2   -1    0    0    0  501 -0.00000000000E+00 -0.00000000000E+00 -0.11881183959E+03  0.11881183959E+03  0.00000000000E+00 0.  1.
         25    2    1    2    0    0  0.18042257426E+03 -0.10927590789E+03  0.16629141198E+03  0.29630054858E+03  0.12509057536E+03 0.  0.
          5    1    3    3  502    0  0.10151996803E+03 -0.10395040419E+03  0.16102998590E+03  0.21693344417E+03  0.41800000000E+01 0.  1.
         -5    1    3    3    0  502  0.78902606225E+02 -0.53255037074E+01  0.52614260803E+01  0.79367104415E+02  0.41800000000E+01 0.  1.
        -11    1    1    2    0    0 -0.35813475684E+02  0.71639065907E+02  0.62260751574E+02  0.10144536456E+03  0.00000000000E+00 0.  1.
         11    1    1    2    0    0 -0.14460909857E+03  0.37636841987E+02  0.12893238459E+03  0.19736231419E+03  0.00000000000E+00 0. -1.
</event>
<event>
 7    1  0.2612213E-009  0.1362185E+03  0.7561462E-02  0.1218510E+00
          1   -1    0    0  501    0  0.00000000000E+00  0.00000000000E+00  0.12881868251E+03  0.12881868251E+03  0.00000000000E+00 0. -1.
         -1   -1    0    0    0  501 -0.00000000000E+00 -0.00000000000E+00 -0.15628605533E+03  0.15628605533E+03  0.00000000000E+00 0.  1.
         25    2    1    2    0    0 -0.50293167883E+02 -0.90058594397E+02 -0.22320498110E+02  0.16366200575E+03  0.12508834610E+03 0.  0.
          5    1    3    3  502    0 -0.84638681931E+02 -0.90929978618E+02 -0.30744496472E+02  0.12804164929E+03  0.41800000000E+01 0. -1.
         -5    1    3    3    0  502  0.34345514048E+02  0.87138422129E+00  0.84239983614E+01  0.35620356457E+02  0.41800000000E+01 0. -1.
        -11    1    1    2    0    0  0.45400063274E+02  0.32666286919E+02  0.18880727000E+02  0.59031634726E+02  0.00000000000E+00 0. -1.
         11    1    1    2    0    0  0.48931046084E+01  0.57392307478E+02 -0.24027601704E+02  0.62411097362E+02  0.00000000000E+00 0.  1.
</event>
<event>
 7    1  0.2612213E-009  0.1355308E+03  0.7561462E-02  0.1219472E+00
          1   -1    0    0  501    0  0.00000000000E+00  0.00000000000E+00  0.28416156085E+03  0.28416156085E+03  0.00000000000E+00 0. -1.
         -1   -1    0    0    0  501 -0.00000000000E+00 -0.00000000000E+00 -0.97702314024E+02  0.97702314024E+02  0.00000000000E+00 0.  1.
         25    2    1    2    0    0  0.61184385585E+02 -0.81984784820E+02  0.16056870234E+02  0.16238856141E+03  0.12508871977E+03 0.  0.
          5    1    3    3  502    0  0.38153653472E+02 -0.97784629797E+02 -0.29211564792E+02  0.10903358664E+03  0.41800000000E+01 0.  1.
         -5    1    3    3    0  502  0.23030732112E+02  0.15799844977E+02  0.45268435026E+02  0.53354974769E+02  0.41800000000E+01 0.  1.
        -11    1    1    2    0    0 -0.82738515800E+02  0.81612151920E+02  0.13617195408E+03  0.17902236289E+03  0.00000000000E+00 0.  1.
         11    1    1    2    0    0  0.21554130215E+02  0.37263290007E+00  0.34230422513E+02  0.40452950572E+02  0.00000000000E+00 0. -1.
</event>
<event>
 7    1  0.2612213E-009  0.2699266E+03  0.7561462E-02  0.1101322E+00
         -2   -1    0    0    0  501 -0.00000000000E+00  0.00000000000E+00  0.25178144566E+02  0.25178144566E+02  0.00000000000E+00 0. -1.
          2   -1    0    0  501    0  0.00000000000E+00 -0.00000000000E+00 -0.29522637474E+04  0.29522637474E+04  0.00000000000E+00 0.  1.
         25    2    1    2    0    0  0.85093889529E+02  0.23406417466E+03 -0.16084855771E+04  0.16324522145E+04  0.12508946030E+03 0.  0.
          5    1    3    3  502    0  0.11687103123E+03  0.17844568209E+03 -0.11701360982E+04  0.11894274506E+04  0.41800000000E+01 0. -1.
         -5    1    3    3    0  502 -0.31777141697E+02  0.55618492564E+02 -0.43834947884E+03  0.44302476392E+03  0.41800000000E+01 0. -1.
        -11    1    1    2    0    0 -0.89584232731E+02 -0.12847693702E+03 -0.88057677618E+03  0.89439762793E+03  0.00000000000E+00 0.  1.
         11    1    1    2    0    0  0.44903432020E+01 -0.10558723764E+03 -0.43802324965E+03  0.45059204960E+03  0.00000000000E+00 0. -1.
</event>
<event>
 7    1  0.2612213E-009  0.1006563E+03  0.7561462E-02  0.1278922E+00
          3   -1    0    0  501    0  0.00000000000E+00  0.00000000000E+00  0.27713125208E+03  0.27713125208E+03  0.00000000000E+00 0.  1.
         -3   -1    0    0    0  501 -0.00000000000E+00 -0.00000000000E+00 -0.60086836096E+02  0.60086836096E+02  0.00000000000E+00 0. -1.
         25    2    1    2    0    0  0.40783342609E+02  0.57736000509E+02  0.11627739411E+03  0.18483431240E+03  0.12508622575E+03 0.  0.
          5    1    3    3  502    0 -0.82414191729E+01 -0.23820021068E+02  0.78180412981E+02  0.82249399800E+02  0.41800000000E+01 0. -1.
         -5    1    3    3    0  502  0.49024761782E+02  0.81556021576E+02  0.38096981125E+02  0.10258491260E+03  0.41800000000E+01 0. -1.
        -11    1    1    2    0    0 -0.30838189652E+02 -0.11014587685E+02 -0.78960425552E+01  0.33684752796E+02  0.00000000000E+00 0. -1.
         11    1    1    2    0    0 -0.99451529578E+01 -0.46721412823E+02  0.10866306444E+03  0.11869902298E+03  0.00000000000E+00 0.  1.
</event>
<event>
 7    1  0.2612213E-009  0.1593126E+03  0.7561462E-02  0.1189475E+00
          1   -1    0    0  501    0  0.00000000000E+00  0.00000000000E+00  0.12341513965E+04  0.12341513965E+04  0.00000000000E+00 0. -1.
         -1   -1    0    0    0  501 -0.00000000000E+00 -0.00000000000E+00 -0.25538369170E+02  0.25538369170E+02  0.00000000000E+00 0.  1.
         25    2    1    2    0    0  0.12370427704E+03 -0.47269765744E+02  0.78827818816E+03  0.80905298589E+03  0.12508818146E+03 0.  0.
          5    1    3    3  502    0  0.73065897640E+02 -0.78452220203E+02  0.64507443067E+03  0.65393567708E+03  0.41800000000E+01 0. -1.
         -5    1    3    3    0  502  0.50638379401E+02  0.31182454459E+02  0.14320375749E+03  0.15511730882E+03  0.41800000000E+01 0. -1.
        -11    1    1    2    0    0 -0.39535399133E+02  0.54401660116E+02  0.26945815215E+03  0.27772339507E+03  0.00000000000E+00 0. -1.
         11    1    1    2    0    0 -0.84168877908E+02 -0.71318943720E+01  0.15087668702E+03  0.17291338471E+03  0.00000000000E+00 0.  1.
</event>
<event>
 7    1  0.2612213E-009  0.1329790E+03  0.7561462E-02  0.1223101E+00
          1   -1    0    0  501    0  0.00000000000E+00  0.00000000000E+00  0.10177043380E+03  0.10177043380E+03  0.00000000000E+00 0. -1.
         -1   -1    0    0    0  501 -0.00000000000E+00 -0.00000000000E+00 -0.29023376715E+03  0.29023376715E+03  0.00000000000E+00 0.  1.
         25    2    1    2    0    0 -0.11566325700E+03  0.17508651643E+02 -0.16932567671E+03  0.24083581895E+03  0.12508463132E+03 0.  0.
          5    1    3    3  502    0 -0.74626975880E+02  0.38237242747E+02 -0.17522128057E+03  0.19429678800E+03  0.41800000000E+01 0.  1.
         -5    1    3    3    0  502 -0.41036281120E+02 -0.20728591104E+02  0.58956038542E+01  0.46539030954E+02  0.41800000000E+01 0.  1.
        -11    1    1    2    0    0  0.17162156041E+02 -0.31964984287E+02 -0.34935417127E+02  0.50366488763E+02  0.00000000000E+00 0.  1.
         11    1    1    2    0    0  0.98501100959E+02  0.14456332644E+02  0.15797760488E+02  0.10080189324E+03  0.00000000000E+00 0. -1.
</event>
<event>
 7    1  0.2612213E-009  0.1163746E+03  0.7561462E-02  0.1249200E+00
         -1   -1    0    0    0  501 -0.00000000000E+00  0.00000000000E+00  0.52443285951E+02  0.52443285951E+02  0.00000000000E+00 0.  1.
          1   -1    0    0  501    0  0.00000000000E+00 -0.00000000000E+00 -0.26426223809E+03  0.26426223809E+03  0.00000000000E+00 0. -1.
         25    2    1    2    0    0  0.33282623005E+02  0.31257696376E+02 -0.11987261625E+03  0.17916920942E+03  0.12508950756E+03 0.  0.
          5    1    3    3  502    0  0.18706110093E+02  0.79074676296E+02 -0.87407892156E+02  0.11941664456E+03  0.41800000000E+01 0. -1.
         -5    1    3    3    0  502  0.14576512912E+02 -0.47816979920E+02 -0.32464724093E+02  0.59752564864E+02  0.41800000000E+01 0. -1.
        -11    1    1    2    0    0  0.15016153261E+02  0.23699494066E+02 -0.17031876601E+02  0.32821268993E+02  0.00000000000E+00 0.  1.
         11    1    1    2    0    0 -0.48298776266E+02 -0.54957190442E+02 -0.74914459292E+02  0.10471504563E+03  0.00000000000E+00 0. -1.
</event>
<event>
 7    1  0.2612213E-009  0.9261687E+02  0.7561462E-02  0.1296636E+00
          1   -1    0    0  501    0  0.00000000000E+00  0.00000000000E+00  0.18328932481E+03  0.18328932481E+03  0.00000000000E+00 0. -1.
         -1   -1    0    0    0  501 -0.00000000000E+00 -0.00000000000E+00 -0.10965414894E+03  0.10965414894E+03  0.00000000000E+00 0.  1.
         25    2    1    2    0    0  0.28505590604E+02 -0.73699032650E+02 -0.72990268357E+01  0.14813815302E+03  0.12509004948E+03 0.  0.
          5    1    3    3  502    0  0.72451284195E+01 -0.58283829820E+02  0.54892984102E+02  0.80499744149E+02  0.41800000000E+01 0.  1.
         -5    1    3    3    0  502  0.21260462184E+02 -0.15415202829E+02 -0.62192010938E+02  0.67638408875E+02  0.41800000000E+01 0.  1.
        -11    1    1    2    0    0 -0.19860916593E+02  0.83998589987E+02  0.28842497698E+02  0.91006092110E+02  0.00000000000E+00 0.  1.
         11    1    1    2    0    0 -0.86446740106E+01 -0.10299557337E+02  0.52091705006E+02  0.53799228623E+02  0.00000000000E+00 0. -1.
</event>
<event>
 7    1  0.2663203E-009  0.1015548E+03  0.7561462E-02  0.1277060E+00
         -2   -1    0    0    0  501 -0.00000000000E+00  0.00000000000E+00  0.43549995505E+02  0.43549995505E+02  0.00000000000E+00 0.  1.
          2   -1    0    0  501    0  0.00000000000E+00 -0.00000000000E+00 -0.41045282654E+03  0.41045282654E+03  0.00000000000E+00 0. -1.
         25    2    1    2    0    0 -0.58186888907E+02 -0.43146732831E+02 -0.15399852564E+03  0.21121347786E+03  0.12509289642E+03 0.  0.
          5    1    3    3  502    0 -0.81295211591E+02 -0.49192544578E+02 -0.56246580776E+02  0.11049872451E+03  0.41800000000E+01 0. -1.
         -5    1    3    3    0  502  0.23108322685E+02  0.60458117475E+01 -0.97751944861E+02  0.10071475334E+03  0.41800000000E+01 0. -1.
        -11    1    1    2    0    0  0.11332533326E+02  0.34224856241E+02 -0.14711879584E+02  0.38938496340E+02  0.00000000000E+00 0.  1.
         11    1    1    2    0    0  0.46854355580E+02  0.89218765897E+01 -0.19819242581E+03  0.20385084785E+03  0.00000000000E+00 0. -1.
</event>
<event>
 7    1  0.2612213E-009  0.1852727E+03  0.7561462E-02  0.1162796E+00
          3   -1    0    0  501    0  0.00000000000E+00  0.00000000000E+00  0.18476682302E+03  0.18476682302E+03  0.00000000000E+00 0. -1.
         -3   -1    0    0    0  501 -0.00000000000E+00 -0.00000000000E+00 -0.21577743856E+03  0.21577743856E+03  0.00000000000E+00 0.  1.
         25    2    1    2    0    0  0.78199361156E+02  0.14578573847E+03 -0.47176265699E+02  0.21270201611E+03  0.12509167034E+03 0.  0.
          5    1    3    3  502    0  0.58207302418E+02  0.16267142516E+03 -0.18745935080E+02  0.17383602935E+03  0.41800000000E+01 0.  1.
         -5    1    3    3    0  502  0.19992058739E+02 -0.16885686695E+02 -0.28430330619E+02  0.38865986761E+02  0.41800000000E+01 0.  1.
        -11    1    1    2    0    0  0.19374876060E+01 -0.31949371976E+02 -0.27227246247E+02  0.42021889130E+02  0.00000000000E+00 0.  1.
         11    1    1    2    0    0 -0.80136848762E+02 -0.11383636649E+03  0.43392896407E+02  0.14582035634E+03  0.00000000000E+00 0. -1.
</event>
<event>
 7    1  0.2612213E-009  0.1202212E+03  0.7561462E-02  0.1242733E+00
         -2   -1    0    0    0  501 -0.00000000000E+00  0.00000000000E+00  0.11139104725E+03  0.11139104725E+03  0.00000000000E+00 0.  1.
          2   -1    0    0  501    0  0.00000000000E+00 -0.00000000000E+00 -0.19466804324E+03  0.19466804324E+03  0.00000000000E+00 0. -1.
         25    2    1    2    0    0  0.55325711841E+02  0.12458504078E+02 -0.11756174982E+03  0.18077678258E+03  0.12507330404E+03 0.  0.
          5    1    3    3  502    0 -0.19382510694E+02 -0.32094007481E+02 -0.43927546319E+01  0.37979938523E+02  0.41800000000E+01 0. -1.
         -5    1    3    3    0  502  0.74708222535E+02  0.44552511559E+02 -0.11316899519E+03  0.14279684406E+03  0.41800000000E+01 0. -1.
        -11    1    1    2    0    0 -0.77530117806E+02 -0.34035113164E+02  0.86990205138E+01  0.85117454456E+02  0.00000000000E+00 0. -1.
         11    1    1    2    0    0  0.22204405965E+02  0.21576609086E+02  0.25585733315E+02  0.40164853457E+02  0.00000000000E+00 0.  1.
</event>
<event>
 7    1  0.2612213E-009  0.1654557E+03  0.7561462E-02  0.1182671E+00
         -2   -1    0    0    0  501 -0.00000000000E+00  0.00000000000E+00  0.17195911140E+03  0.17195911140E+03  0.00000000000E+00 0.  1.
          2   -1    0    0  501    0  0.00000000000E+00 -0.00000000000E+00 -0.20692879545E+03  0.20692879545E+03  0.00000000000E+00 0. -1.
         25    2    1    2    0    0  0.15042935458E+03 -0.24397579929E+02 -0.22976555498E+01  0.19717872298E+03  0.12509970802E+03 0.  0.
          5    1    3    3  502    0  0.76779664751E+02 -0.58804866299E+02 -0.43291023589E+02  0.10604109742E+03  0.41800000000E+01 0.  1.
         -5    1    3    3    0  502  0.73649689834E+02  0.34407286370E+02  0.40993368039E+02  0.91137625552E+02  0.41800000000E+01 0.  1.
        -11    1    1    2    0    0 -0.51615579129E+02  0.36594096045E+01 -0.57885558225E+02  0.77642109313E+02  0.00000000000E+00 0. -1.
         11    1    1    2    0    0 -0.98813775456E+02  0.20738170324E+02  0.25213529726E+02  0.10406707457E+03  0.00000000000E+00 0.  1.
</event>
<event>
 7    1  0.2612213E-009  0.2944482E+03  0.7561462E-02  0.1088049E+00
         -2   -1    0    0    0  501 -0.00000000000E+00  0.00000000000E+00  0.13654661836E+03  0.13654661836E+03  0.00000000000E+00 0. -1.
          2   -1    0    0  501    0  0.00000000000E+00 -0.00000000000E+00 -0.75577129842E+03  0.75577129842E+03  0.00000000000E+00 0.  1.
         25    2    1    2    0    0  0.22943581303E+03  0.17937835646E+03 -0.24098188556E+03  0.39816653054E+03  0.12508768845E+03 0.  0.
          5    1    3    3  502    0  0.18023022642E+03  0.16912709341E+03 -0.13704904530E+03  0.28264256838E+03  0.41800000000E+01 0.  1.
         -5    1    3    3    0  502  0.49205586618E+02  0.10251263047E+02 -0.10393284026E+03  0.11552396216E+03  0.41800000000E+01 0.  1.
        -11    1    1    2    0    0 -0.89737515479E+02 -0.72906143162E+02 -0.25378070588E+03  0.27887770451E+03  0.00000000000E+00 0.  1.
         11    1    1    2    0    0 -0.13969829755E+03 -0.10647221330E+03 -0.12446208863E+03  0.21527368174E+03  0.00000000000E+00 0. -1.
</event>
<event>
 7    1  0.2612213E-009  0.1125728E+03  0.7561462E-02  0.1255878E+00
         -1   -1    0    0    0  501 -0.00000000000E+00  0.00000000000E+00  0.61983660925E+03  0.61983660925E+03  0.00000000000E+00 0.  1.
          1   -1    0    0  501    0  0.00000000000E+00 -0.00000000000E+00 -0.31226949130E+02  0.31226949130E+02  0.00000000000E+00 0. -1.
         25    2    1    2    0    0  0.62445135208E+02 -0.16569653826E+02  0.45983556089E+03  0.48090536826E+03  0.12508909557E+03 0.  0.
          5    1    3    3  502    0  0.15906496906E+02 -0.65664248691E+02  0.29525708577E+03  0.30291752887E+03  0.41800000000E+01 0.  1.
         -5    1    3    3    0  502  0.46538638302E+02  0.49094594865E+02  0.16457847512E+03  0.17798783939E+03  0.41800000000E+01 0.  1.
        -11    1    1    2    0    0 -0.37879407799E+02  0.40449975239E+02  0.12367183927E+03  0.13552038172E+03  0.00000000000E+00 0.  1.
         11    1    1    2    0    0 -0.24565727408E+02 -0.23880321413E+02  0.51022599619E+01  0.34637808398E+02  0.00000000000E+00 0. -1.
</event>
<event>
 7    1  0.2612213E-009  0.8609872E+02  0.7561462E-02  0.1312584E+00
          4   -1    0    0  501    0  0.00000000000E+00  0.00000000000E+00  0.56638514664E+02  0.56638514664E+02  0.00000000000E+00 0. -1.
         -4   -1    0    0    0  501 -0.00000000000E+00 -0.00000000000E+00 -0.25972899465E+03  0.25972899465E+03  0.00000000000E+00 0.  1.
         25    2    1    2    0    0 -0.55106150159E+02 -0.11299484319E+02 -0.13658595613E+03  0.19356648237E+03  0.12509154069E+03 0.  0.
          5    1    3    3  502    0 -0.61425537426E+02 -0.23609712017E+02 -0.10638167342E+02  0.66791901860E+02  0.41800000000E+01 0.  1.
         -5    1    3    3    0  502  0.63193872674E+01  0.12310227698E+02 -0.12594778879E+03  0.12677458051E+03  0.41800000000E+01 0.  1.
        -11    1    1    2    0    0  0.25907290008E+02  0.42055146137E+02 -0.72345152366E+01  0.49921550486E+02  0.00000000000E+00 0.  1.
         11    1    1    2    0    0  0.29198860151E+02 -0.30755661818E+02 -0.59270008620E+02  0.72879476465E+02  0.00000000000E+00 0. -1.
</event>
<event>
 7    1  0.2612213E-009  0.1421506E+03  0.7561462E-02  0.1210464E+00
         -4   -1    0    0    0  501 -0.00000000000E+00  0.00000000000E+00  0.31597989763E+03  0.31597989763E+03  0.00000000000E+00 0.  1.
          4   -1    0    0  501    0  0.00000000000E+00 -0.00000000000E+00 -0.12034652072E+03  0.12034652072E+03  0.00000000000E+00 0. -1.
         25    2    1    2    0    0  0.11614146868E+03  0.15130877063E+02  0.22701245695E+03  0.28441885295E+03  0.12506655873E+03 0.  0.
          5    1    3    3  502    0 -0.10994947857E+02 -0.29906708904E+02  0.72329198643E+02  0.79147239321E+02  0.41800000000E+01 0.  1.
         -5    1    3    3    0  502  0.12713641653E+03  0.45037585968E+02  0.15468325831E+03  0.20527161363E+03  0.41800000000E+01 0.  1.
        -11    1    1    2    0    0 -0.32741746137E+02 -0.64551564847E+01 -0.55408811880E+02  0.64682512469E+02  0.00000000000E+00 0. -1.
         11    1    1    2    0    0 -0.83399722540E+02 -0.86757205788E+01  0.24029731843E+02  0.87225052936E+02  0.00000000000E+00 0.  1.
</event>
<event>
 7    1  0.2612213E-009  0.2313735E+03  0.7561462E-02  0.1125677E+00
         -1   -1    0    0    0  501 -0.00000000000E+00  0.00000000000E+00  0.41916378351E+03  0.41916378351E+03  0.00000000000E+00 0.  1.
          1   -1    0    0  501    0  0.00000000000E+00 -0.00000000000E+00 -0.16323237689E+03  0.16323237689E+03  0.00000000000E+00 0. -1.
         25    2    1    2    0    0 -0.20627291832E+03 -0.80626695474E+02  0.33266261180E+02  0.25652067236E+03  0.12508809039E+03 0.  0.
          5    1    3    3  502    0 -0.11209700731E+03 -0.22003303040E+02 -0.42676970113E+02  0.12201918116E+03  0.41800000000E+01 0.  1.
         -5    1    3    3    0  502 -0.94175911013E+02 -0.58623392435E+02  0.75943231293E+02  0.13450149120E+03  0.41800000000E+01 0.  1.
        -11    1    1    2    0    0  0.75736067126E+02  0.75269491552E+02  0.11084779888E+03  0.15391128204E+03  0.00000000000E+00 0.  1.
         11    1    1    2    0    0  0.13053685120E+03  0.53572039219E+01  0.11181734656E+03  0.17196420600E+03  0.00000000000E+00 0. -1.
</event>
<event>
 7    1  0.2612213E-009  0.6218932E+02  0.7561462E-02  0.1388867E+00
         -2   -1    0    0    0  501 -0.00000000000E+00  0.00000000000E+00  0.11850812064E+02  0.11850812064E+02  0.00000000000E+00 0.  1.
          2   -1    0    0  501    0  0.00000000000E+00 -0.00000000000E+00 -0.65531090357E+03  0.65531090357E+03  0.00000000000E+00 0. -1.
         25    2    1    2    0    0  0.22350347412E+01 -0.29748820958E+02 -0.43025986339E+03  0.44906723304E+03  0.12509133468E+03 0.  0.
          5    1    3    3  502    0 -0.27700327630E+02  0.10568202958E+02 -0.20654500463E+02  0.36374109666E+02  0.41800000000E+01 0.  1.
         -5    1    3    3    0  502  0.29935362371E+02 -0.40317023916E+02 -0.40960536293E+03  0.41269312337E+03  0.41800000000E+01 0.  1.
        -11    1    1    2    0    0 -0.16687520509E+02  0.95984882894E+01 -0.63488500565E+02  0.66343002813E+02  0.00000000000E+00 0.  1.
         11    1    1    2    0    0  0.14452485768E+02  0.20150332669E+02 -0.14971172754E+03  0.15175147978E+03  0.00000000000E+00 0. -1.
</event>
<event>
 7    1  0.2612213E-009  0.1016156E+03  0.7561462E-02  0.1276935E+00
         -2   -1    0    0    0  501 -0.00000000000E+00  0.00000000000E+00  0.32808096991E+03  0.32808096991E+03  0.00000000000E+00 0.  1.
          2   -1    0    0  501    0  0.00000000000E+00 -0.00000000000E+00 -0.37240434730E+02  0.37240434730E+02  0.00000000000E+00 0. -1.
         25    2    1    2    0    0 -0.15677652546E+02 -0.86992572632E+01  0.16891389177E+03  0.21095244485E+03  0.12509022860E+03 0.  0.
          5    1    3    3  502    0 -0.27848877420E+02  0.46980147482E+02  0.34086626016E+02  0.64514065940E+02  0.41800000000E+01 0.  1.
         -5    1    3    3    0  502  0.12171224874E+02 -0.55679404746E+02  0.13482726575E+03  0.14643837891E+03  0.41800000000E+01 0.  1.
        -11    1    1    2    0    0 -0.35518164753E+02 -0.98483217102E+01  0.70081043111E+02  0.79182586921E+02  0.00000000000E+00 0.  1.
         11    1    1    2    0    0  0.51195817299E+02  0.18547578973E+02  0.51845600307E+02  0.75186372874E+02  0.00000000000E+00 0. -1.
</event>
<event>
 7    1  0.2612213E-009  0.1212675E+03  0.7561462E-02  0.1241021E+00
          1   -1    0    0  501    0  0.00000000000E+00  0.00000000000E+00  0.16307049824E+03  0.16307049824E+03  0.00000000000E+00 0. -1.
         -1   -1    0    0    0  501 -0.00000000000E+00 -0.00000000000E+00 -0.10241230023E+03  0.10241230023E+03  0.00000000000E+00 0.  1.
         25    2    1    2    0    0 -0.14732613598E+02 -0.69867877159E+02  0.37023337459E+02  0.14871632331E+03  0.12508895691E+03 0.  0.
          5    1    3    3  502    0  0.29360866795E+02  0.14447446028E+02  0.41927407793E+02  0.53349499716E+02  0.41800000000E+01 0.  1.
         -5    1    3    3    0  502 -0.44093480393E+02 -0.84315323187E+02 -0.49040703333E+01  0.95366823598E+02  0.41800000000E+01 0.  1.
        -11    1    1    2    0    0  0.49389253197E+02  0.19354129171E+02  0.12584114288E+02  0.54518259140E+02  0.00000000000E+00 0.  1.
         11    1    1    2    0    0 -0.34656639599E+02  0.50513747988E+02  0.11050746266E+02  0.62248216015E+02  0.00000000000E+00 0. -1.
</event>
<event>
 7    1  0.2612213E-009  0.1630793E+03  0.7561462E-02  0.1185263E+00
          2   -1    0    0  501    0  0.00000000000E+00  0.00000000000E+00  0.45939993218E+03  0.45939993218E+03  0.00000000000E+00 0.  1.
         -2   -1    0    0    0  501 -0.00000000000E+00 -0.00000000000E+00 -0.76982585740E+02  0.76982585740E+02  0.00000000000E+00 0. -1.
         25    2    1    2    0    0 -0.66292383762E+02  0.10999230191E+03  0.31691227354E+03  0.36410730330E+03  0.12509097719E+03 0.  0.
          5    1    3    3  502    0 -0.90190086467E+02  0.32786105690E+02  0.14272378431E+03  0.17203700599E+03  0.41800000000E+01 0.  1.
         -5    1    3    3    0  502  0.23897702705E+02  0.77206196216E+02  0.17418848923E+03  0.19207029731E+03  0.41800000000E+01 0.  1.
        -11    1    1    2    0    0  0.67780611714E+02 -0.39065456325E+02  0.39197229352E+01  0.78330616174E+02  0.00000000000E+00 0.  1.
         11    1    1    2    0    0 -0.14882279527E+01 -0.70926845580E+02  0.61585349965E+02  0.93944598444E+02  0.00000000000E+00 0. -1.
</event>
<event>
 7    1  0.2612213E-009  0.9924722E+02  0.7561462E-02  0.1281887E+00
         -1   -1    0    0    0  501 -0.00000000000E+00  0.00000000000E+00  0.13462469905E+02  0.13462469905E+02  0.00000000000E+00 0.  1.
          1   -1    0    0  501    0  0.00000000000E+00 -0.00000000000E+00 -0.11441109177E+04  0.11441109177E+04  0.00000000000E+00 0. -1.
         25    2    1    2    0    0  0.12830164610E+02  0.24268943728E+02 -0.89382665109E+03  0.90295538345E+03  0.12509495415E+03 0.  0.
          5    1    3    3  502    0  0.63083212811E+02 -0.11105110735E+01 -0.30854688937E+03  0.31495933121E+03  0.41800000000E+01 0. -1.
         -5    1    3    3    0  502 -0.50253048202E+02  0.25379454801E+02 -0.58527976171E+03  0.58799605224E+03  0.41800000000E+01 0. -1.
        -11    1    1    2    0    0  0.30633076234E+02 -0.41388356977E+01 -0.16768237420E+03  0.17050775331E+03  0.00000000000E+00 0.  1.
         11    1    1    2    0    0 -0.43463240844E+02 -0.20130108030E+02 -0.69139422535E+02  0.84110250876E+02  0.00000000000E+00 0. -1.
</event>
<event>
 7    1  0.2612213E-009  0.9902712E+02  0.7561462E-02  0.1282355E+00
          2   -1    0    0  501    0  0.00000000000E+00  0.00000000000E+00  0.17439354455E+03  0.17439354455E+03  0.00000000000E+00 0. -1.
         -2   -1    0    0    0  501 -0.00000000000E+00 -0.00000000000E+00 -0.76804867949E+02  0.76804867949E+02  0.00000000000E+00 0.  1.
         25    2    1    2    0    0 -0.19009356990E+02 -0.21666104405E+02  0.27260075528E+02  0.13123223256E+03  0.12509201178E+03 0.  0.
          5    1    3    3  502    0 -0.20876838433E+02 -0.64908315317E+02  0.47566600134E+02  0.83240528762E+02  0.41800000000E+01 0.  1.
         -5    1    3    3    0  502  0.18674814425E+01  0.43242210912E+02 -0.20306524606E+02  0.47991703794E+02  0.41800000000E+01 0.  1.
        -11    1    1    2    0    0  0.39680079662E+02 -0.16405770482E+02  0.74050771513E+01  0.43571701765E+02  0.00000000000E+00 0.  1.
         11    1    1    2    0    0 -0.20670722672E+02  0.38071874887E+02  0.62923523922E+02  0.76394478177E+02  0.00000000000E+00 0. -1.
</event>
<event>
 7    1  0.2612213E-009  0.1319374E+03  0.7561462E-02  0.1224609E+00
         -1   -1    0    0    0  501 -0.00000000000E+00  0.00000000000E+00  0.50159416110E+02  0.50159416110E+02  0.00000000000E+00 0.  1.
          1   -1    0    0  501    0  0.00000000000E+00 -0.00000000000E+00 -0.40750737259E+03  0.40750737259E+03  0.00000000000E+00 0. -1.
         25    2    1    2    0    0 -0.72092660735E+02  0.41571781878E+02 -0.12800289964E+03  0.19737702534E+03  0.12508950010E+03 0.  0.
          5    1    3    3  502    0 -0.68622214729E+02  0.81971951334E+02 -0.10781552349E+03  0.15188834275E+03  0.41800000000E+01 0. -1.
         -5    1    3    3    0  502 -0.34704460064E+01 -0.40400169455E+02 -0.20187376155E+02  0.45488682587E+02  0.41800000000E+01 0. -1.
        -11    1    1    2    0    0  0.79149183807E+01 -0.50689160001E+02 -0.59890789152E+02  0.78860278340E+02  0.00000000000E+00 0.  1.
         11    1    1    2    0    0  0.64177742355E+02  0.91173781227E+01 -0.16945426769E+03  0.18142948502E+03  0.00000000000E+00 0. -1.
</event>
<event>
 7    1  0.2612213E-009  0.1158990E+03  0.7561462E-02  0.1250020E+00
          2   -1    0    0  501    0  0.00000000000E+00  0.00000000000E+00  0.19369137315E+02  0.19369137315E+02  0.00000000000E+00 0.  1.
         -2   -1    0    0    0  501 -0.00000000000E+00 -0.00000000000E+00 -0.15820517719E+04  0.15820517719E+04  0.00000000000E+00 0. -1.
         25    2    1    2    0    0  0.69239436117E+02  0.80855816782E+02 -0.12086163020E+04  0.12197264860E+04  0.12509025742E+03 0.  0.
          5    1    3    3  502    0  0.40652090586E+02  0.68029080364E+02 -0.29278346415E+03  0.30334827760E+03  0.41800000000E+01 0.  1.
         -5    1    3    3    0  502  0.28587345531E+02  0.12826736419E+02 -0.91583283789E+03  0.91637820841E+03  0.41800000000E+01 0.  1.
        -11    1    1    2    0    0 -0.63883261023E+02 -0.31582641537E+02 -0.99736659095E+02  0.12258032245E+03  0.00000000000E+00 0.  1.
         11    1    1    2    0    0 -0.53561750939E+01 -0.49273175246E+02 -0.25432967348E+03  0.25911410078E+03  0.00000000000E+00 0. -1.
</event>
<event>
 7    1  0.2612213E-009  0.8010063E+02  0.7561462E-02  0.1328766E+00
          1   -1    0    0  501    0  0.00000000000E+00  0.00000000000E+00  0.50166746800E+03  0.50166746800E+03  0.00000000000E+00 0. -1.
         -1   -1    0    0    0  501 -0.00000000000E+00 -0.00000000000E+00 -0.33385007608E+02  0.33385007608E+02  0.00000000000E+00 0.  1.
         25    2    1    2    0    0  0.39112662679E+02 -0.37987604104E+02  0.35238642076E+03  0.37788860597E+03  0.12510295976E+03 0.  0.
          5    1    3    3  502    0  0.12707657143E+02  0.33429272537E+01 -0.67795469937E+01  0.15365362675E+02  0.41800000000E+01 0. -1.
         -5    1    3    3    0  502  0.26405005536E+02 -0.41330531357E+02  0.35916596775E+03  0.36252324330E+03  0.41800000000E+01 0. -1.
        -11    1    1    2    0    0  0.22365293494E+02 -0.40286585173E+01  0.44923083513E+01  0.23165001119E+02  0.00000000000E+00 0.  1.
         11    1    1    2    0    0 -0.61477956173E+02  0.42016262621E+02  0.11140373128E+03  0.13399886851E+03  0.00000000000E+00 0. -1.
</event>
<event>
 7    1  0.2612213E-009  0.1406729E+03  0.7561462E-02  0.1212426E+00
         -2   -1    0    0    0  501 -0.00000000000E+00  0.00000000000E+00  0.57517837208E+02  0.57517837208E+02  0.00000000000E+00 0.  1.
          2   -1    0    0  501    0  0.00000000000E+00 -0.00000000000E+00 -0.86750103494E+03  0.86750103494E+03  0.00000000000E+00 0. -1.
         25    2    1    2    0    0  0.10550441750E+03  0.53228535944E+02 -0.74146857866E+03  0.76117537791E+03  0.12509134120E+03 0.  0.
          5    1    3    3  502    0  0.32038356253E+02  0.70406843613E+02 -0.54843403698E+03  0.55387809599E+03  0.41800000000E+01 0. -1.
         -5    1    3    3    0  502  0.73466061247E+02 -0.17178307669E+02 -0.19303454168E+03  0.20729728192E+03  0.41800000000E+01 0. -1.
        -11    1    1    2    0    0 -0.96434426445E+02 -0.26381199211E+02 -0.84853744150E+02  0.13113246803E+03  0.00000000000E+00 0. -1.
         11    1    1    2    0    0 -0.90699910549E+01 -0.26847336733E+02  0.16339125077E+02  0.32711026210E+02  0.00000000000E+00 0.  1.
</event>
<event>
 7    1  0.2612213E-009  0.1111212E+03  0.7561462E-02  0.1258508E+00
         -2   -1    0    0    0  501 -0.00000000000E+00  0.00000000000E+00  0.54040865616E+02  0.54040865616E+02  0.00000000000E+00 0. -1.
          2   -1    0    0  501    0  0.00000000000E+00 -0.00000000000E+00 -0.37130089640E+03  0.37130089640E+03  0.00000000000E+00 0.  1.
         25    2    1    2    0    0  0.86089011457E+02 -0.15819806456E+02 -0.20398747507E+03  0.25479380073E+03  0.12508959482E+03 0.  0.
          5    1    3    3  502    0 -0.18798085450E+02 -0.15598454537E+02 -0.11359607916E+03  0.11626788637E+03  0.41800000000E+01 0. -1.
         -5    1    3    3    0  502  0.10488709691E+03 -0.22135191929E+00 -0.90391395919E+02  0.13852591436E+03  0.41800000000E+01 0. -1.
        -11    1    1    2    0    0 -0.46349118018E+02 -0.66711182266E+01 -0.11570385373E+03  0.12482037625E+03  0.00000000000E+00 0.  1.
         11    1    1    2    0    0 -0.39739893439E+02  0.22490924683E+02  0.24312980153E+01  0.45727585040E+02  0.00000000000E+00 0. -1.
</event>
<event>
 7    1  0.2612213E-009  0.1434311E+03  0.7561462E-02  0.1208785E+00
         -3   -1    0    0    0  501 -0.00000000000E+00  0.00000000000E+00  0.11257780121E+03  0.11257780121E+03  0.00000000000E+00 0.  1.
          3   -1    0    0  501    0  0.00000000000E+00 -0.00000000000E+00 -0.30781286158E+03  0.30781286158E+03  0.00000000000E+00 0. -1.
         25    2    1    2    0    0 -0.11969728980E+03 -0.19619505581E+02 -0.20558318454E+03  0.26948933951E+03  0.12509073570E+03 0.  0.
          5    1    3    3  502    0 -0.88540335002E+02 -0.57005988771E+02 -0.19161593697E+03  0.21868519241E+03  0.41800000000E+01 0.  1.
         -5    1    3    3    0  502 -0.31156954802E+02  0.37386483190E+02 -0.13967247566E+02  0.50804147099E+02  0.41800000000E+01 0.  1.
        -11    1    1    2    0    0  0.90661921756E+02 -0.99258882249E+01  0.40372953417E+02  0.99740075602E+02  0.00000000000E+00 0.  1.
         11    1    1    2    0    0  0.29035368048E+02  0.29545393806E+02 -0.30024829248E+02  0.51161247681E+02  0.00000000000E+00 0. -1.
</event>
<event>
 7    1  0.2612213E-009  0.1100739E+03  0.7561462E-02  0.1260433E+00
          2   -1    0    0  501    0  0.00000000000E+00  0.00000000000E+00  0.91215037829E+03  0.91215037829E+03  0.00000000000E+00 0. -1.
         -2   -1    0    0    0  501 -0.00000000000E+00 -0.00000000000E+00 -0.14275734882E+02  0.14275734882E+02  0.00000000000E+00 0.  1.
         25    2    1    2    0    0  0.12880948821E+02  0.29619147127E+02  0.60057932049E+03  0.61431754368E+03  0.12508921437E+03 0.  0.
          5    1    3    3  502    0  0.48700260968E+02  0.62793994100E+02  0.40011624476E+03  0.40795254974E+03  0.41800000000E+01 0. -1.
         -5    1    3    3    0  502 -0.35819312147E+02 -0.33174846974E+02  0.20046307573E+03  0.20636499394E+03  0.41800000000E+01 0. -1.
        -11    1    1    2    0    0  0.27246515071E+00 -0.59198637886E+02  0.14917869474E+03  0.16049559474E+03  0.00000000000E+00 0. -1.
         11    1    1    2    0    0 -0.13153413972E+02  0.29579490759E+02  0.14811662817E+03  0.15161297476E+03  0.00000000000E+00 0.  1.
</event>
<event>
 7    1  0.2612213E-009  0.1485565E+03  0.7561462E-02  0.1202258E+00
          3   -1    0    0  501    0  0.00000000000E+00  0.00000000000E+00  0.48947697999E+02  0.48947697999E+02  0.00000000000E+00 0. -1.
         -3   -1    0    0    0  501 -0.00000000000E+00 -0.00000000000E+00 -0.66101232471E+03  0.66101232471E+03  0.00000000000E+00 0.  1.
         25    2    1    2    0    0 -0.50089426900E+02  0.11353507491E+03 -0.46815239024E+03  0.50021295543E+03  0.12508867400E+03 0.  0.
          5    1    3    3  502    0 -0.75708680668E+02  0.65019256976E+02 -0.40172564329E+03  0.41395684918E+03  0.41800000000E+01 0. -1.
         -5    1    3    3    0  502  0.25619253768E+02  0.48515817937E+02 -0.66426746952E+02  0.86256106244E+02  0.41800000000E+01 0. -1.
        -11    1    1    2    0    0 -0.63011488315E+01 -0.71736654636E+02 -0.34734958676E+02  0.79952294834E+02  0.00000000000E+00 0.  1.
         11    1    1    2    0    0  0.56390575732E+02 -0.41798420277E+02 -0.10917727779E+03  0.12979477245E+03  0.00000000000E+00 0. -1.
</event>
<event>
 7    1  0.2612213E-009  0.3536116E+03  0.7561462E-02  0.1061142E+00
         -1   -1    0    0    0  501 -0.00000000000E+00  0.00000000000E+00  0.31488061024E+03  0.31488061024E+03  0.00000000000E+00 0.  1.
          1   -1    0    0  501    0  0.00000000000E+00 -0.00000000000E+00 -0.52906181351E+03  0.52906181351E+03  0.00000000000E+00 0. -1.
         25    2    1    2    0    0 -0.11940811392E+03 -0.31703153518E+03 -0.31481831298E+03  0.47908856130E+03  0.12509191585E+03 0.  0.
          5    1    3    3  502    0  0.24630321484E+02 -0.77356791748E+02 -0.77340467073E+02  0.11220403831E+03  0.41800000000E+01 0.  1.
         -5    1    3    3    0  502 -0.14403843540E+03 -0.23967474344E+03 -0.23747784591E+03  0.36688452299E+03  0.41800000000E+01 0.  1.
        -11    1    1    2    0    0 -0.78627654024E+01  0.48215913342E+02  0.35483363485E+02  0.60379354612E+02  0.00000000000E+00 0.  1.
         11    1    1    2    0    0  0.12727087932E+03  0.26881562184E+03  0.65153746225E+02  0.30447450783E+03  0.00000000000E+00 0. -1.
</event>
<event>
 7    1  0.2612213E-009  0.1126089E+03  0.7561462E-02  0.1255814E+00
         -1   -1    0    0    0  501 -0.00000000000E+00  0.00000000000E+00  0.85083706243E+02  0.85083706243E+02  0.00000000000E+00 0.  1.
          1   -1    0    0  501    0  0.00000000000E+00 -0.00000000000E+00 -0.16473101281E+03  0.16473101281E+03  0.00000000000E+00 0. -1.
         25    2    1    2    0    0 -0.11757932316E+02  0.45661148667E+02 -0.40787618560E+02  0.13976605288E+03  0.12509088792E+03 0.  0.
          5    1    3    3  502    0  0.21146445227E+02 -0.33276815865E+02  0.90864516748E+01  0.40676216932E+02  0.41800000000E+01 0.  1.
         -5    1    3    3    0  502 -0.32904377543E+02  0.78937964532E+02 -0.49874070235E+02  0.99089835946E+02  0.41800000000E+01 0.  1.
        -11    1    1    2    0    0  0.44762531564E+02 -0.14654046703E+01 -0.43819623254E+01  0.45000369295E+02  0.00000000000E+00 0.  1.
         11    1    1    2    0    0 -0.33004599248E+02 -0.44195743997E+02 -0.34477725681E+02  0.65048296881E+02  0.00000000000E+00 0. -1.
</event>
<event>
 7    1  0.2612213E-009  0.1599588E+03  0.7561462E-02  0.1188743E+00
         -1   -1    0    0    0  501 -0.00000000000E+00  0.00000000000E+00  0.59241918261E+02  0.59241918261E+02  0.00000000000E+00 0.  1.
          1   -1    0    0  501    0  0.00000000000E+00 -0.00000000000E+00 -0.84280002849E+03  0.84280002849E+03  0.00000000000E+00 0. -1.
         25    2    1    2    0    0 -0.53495208574E+01  0.13379747870E+03 -0.12007721402E+03  0.21908970690E+03  0.12510547416E+03 0.  0.
          5    1    3    3  502    0 -0.45917294255E+02  0.64237343766E+02 -0.11331061955E+03  0.13817236753E+03  0.41800000000E+01 0. -1.
         -5    1    3    3    0  502  0.40567773397E+02  0.69560134935E+02 -0.67665944675E+01  0.80917339373E+02  0.41800000000E+01 0. -1.
        -11    1    1    2    0    0  0.38429543271E+02 -0.23464418583E+02 -0.14497723161E+03  0.15180845306E+03  0.00000000000E+00 0.  1.
         11    1    1    2    0    0 -0.33080022413E+02 -0.11033306012E+03 -0.51850366460E+03  0.53114378679E+03  0.00000000000E+00 0. -1.
</event>
<event>
 7    1  0.2612213E-009  0.1351600E+03  0.7561462E-02  0.1219994E+00
         -1   -1    0    0    0  501 -0.00000000000E+00  0.00000000000E+00  0.81282808885E+02  0.81282808885E+02  0.00000000000E+00 0.  1.
          1   -1    0    0  501    0  0.00000000000E+00 -0.00000000000E+00 -0.30405630361E+03  0.30405630361E+03  0.00000000000E+00 0. -1.
         25    2    1    2    0    0  0.10372821690E+03 -0.26194139584E+02 -0.66715132121E+02  0.17762111685E+03  0.12511065650E+03 0.  0.
          5    1    3    3  502    0 -0.27244422469E+02  0.62940077528E+01 -0.33065886807E+01  0.28465400365E+02  0.41800000000E+01 0. -1.
         -5    1    3    3    0  502  0.13097263937E+03 -0.32488147336E+02 -0.63408543440E+02  0.14915571649E+03  0.41800000000E+01 0. -1.
        -11    1    1    2    0    0 -0.78824323834E+02  0.18368722195E+02 -0.42930161142E+02  0.91617043821E+02  0.00000000000E+00 0.  1.
         11    1    1    2    0    0 -0.24903893065E+02  0.78254173889E+01 -0.11312820146E+03  0.11610095181E+03  0.00000000000E+00 0. -1.
</event>
<event>
 7    1  0.2612213E-009  0.7324496E+02  0.7561462E-02  0.1349394E+00
          2   -1    0    0  501    0  0.00000000000E+00  0.00000000000E+00  0.24269469354E+03  0.24269469354E+03  0.00000000000E+00 0. -1.
         -2   -1    0    0    0  501 -0.00000000000E+00 -0.00000000000E+00 -0.59350649180E+02  0.59350649180E+02  0.00000000000E+00 0.  1.
         25    2    1    2    0    0 -0.19568907577E+02 -0.33712365851E+02  0.13662466673E+03  0.18929665189E+03  0.12508979615E+03 0.  0.
          5    1    3    3  502    0  0.10363409925E+02 -0.48457239670E+02  0.14612299673E+03  0.15435318887E+03  0.41800000000E+01 0.  1.
         -5    1    3    3    0  502 -0.29932317502E+02  0.14744873819E+02 -0.94983299967E+01  0.34943463019E+02  0.41800000000E+01 0.  1.
        -11    1    1    2    0    0 -0.44765755360E+01  0.38378806938E+02 -0.18676610148E+02  0.42916061296E+02  0.00000000000E+00 0.  1.
         11    1    1    2    0    0  0.24045483113E+02 -0.46664410870E+01  0.65395987782E+02  0.69832629540E+02  0.00000000000E+00 0. -1.
</event>
<event>
 7    1  0.2612213E-009  0.1024256E+03  0.7561462E-02  0.1275276E+00
         -2   -1    0    0    0  501 -0.00000000000E+00  0.00000000000E+00  0.52717383531E+02  0.52717383531E+02  0.00000000000E+00 0.  1.
          2   -1    0    0  501    0  0.00000000000E+00 -0.00000000000E+00 -0.33071791412E+03  0.33071791412E+03  0.00000000000E+00 0. -1.
         25    2    1    2    0    0  0.62102091785E+02 -0.41385095967E+02 -0.14319066538E+03  0.20425883523E+03  0.12509480063E+03 0.  0.
          5    1    3    3  502    0  0.44831316945E+02  0.18954379778E+02 -0.10969274625E+01  0.48865029844E+02  0.41800000000E+01 0. -1.
         -5    1    3    3    0  502  0.17270774840E+02 -0.60339475744E+02 -0.14209373792E+03  0.15539380539E+03  0.41800000000E+01 0. -1.
        -11    1    1    2    0    0 -0.22975289726E+02  0.48186373952E+02 -0.12826064362E+03  0.13892653913E+03  0.00000000000E+00 0. -1.
         11    1    1    2    0    0 -0.39126802059E+02 -0.68012779855E+01 -0.65492215879E+01  0.40249923292E+02  0.00000000000E+00 0.  1.
</event>
<event>
 7    1  0.2612213E-009  0.1524664E+03  0.7561462E-02  0.1197475E+00
          2   -1    0    0  501    0  0.00000000000E+00  0.00000000000E+00  0.21505974893E+03  0.21505974893E+03  0.00000000000E+00 0. -1.
         -2   -1    0    0    0  501 -0.00000000000E+00 -0.00000000000E+00 -0.13136939314E+03  0.13136939314E+03  0.00000000000E+00 0.  1.
         25    2    1    2    0    0  0.25382081590E+02  0.12100343782E+03  0.15502648458E+02  0.17656145508E+03  0.12509010066E+03 0.  0.
          5    1    3    3  502    0  0.33010776438E+02  0.55901107385E+01  0.45832611356E+02  0.56912752198E+02  0.41800000000E+01 0. -1.
         -5    1    3    3    0  502 -0.76286948474E+01  0.11541332708E+03 -0.30329962897E+02  0.11964870288E+03  0.41800000000E+01 0. -1.
        -11    1    1    2    0    0 -0.41784855034E+02 -0.96348000757E+01  0.21935178515E+02  0.48165916780E+02  0.00000000000E+00 0. -1.
         11    1    1    2    0    0  0.16402773444E+02 -0.11136863774E+03  0.46252528813E+02  0.12170177020E+03  0.00000000000E+00 0.  1.
</event>
<event>
 7    1  0.2612213E-009  0.1908913E+03  0.7561462E-02  0.1157660E+00
         -2   -1    0    0    0  501 -0.00000000000E+00  0.00000000000E+00  0.21305884616E+03  0.21305884616E+03  0.00000000000E+00 0.  1.
          2   -1    0    0  501    0  0.00000000000E+00 -0.00000000000E+00 -0.30486302273E+03  0.30486302273E+03  0.00000000000E+00 0. -1.
         25    2    1    2    0    0  0.41943849703E+02  0.16133804041E+03 -0.20872345497E+03  0.29496189951E+03  0.12509113356E+03 0.  0.
          5    1    3    3  502    0  0.28188171596E+02  0.18121022823E+03 -0.17748784595E+03  0.25524718939E+03  0.41800000000E+01 0.  1.
         -5    1    3    3    0  502  0.13755678106E+02 -0.19872187817E+02 -0.31235609021E+02  0.39714710118E+02  0.41800000000E+01 0.  1.
        -11    1    1    2    0    0 -0.52776310089E+02 -0.12016699164E+03  0.12309948483E+03  0.17994145701E+03  0.00000000000E+00 0.  1.
         11    1    1    2    0    0  0.10832460386E+02 -0.41171048778E+02 -0.61802064366E+01  0.43018512376E+02  0.00000000000E+00 0. -1.
</event>
<event>
 7    1  0.2612213E-009  0.9033647E+02  0.7561462E-02  0.1302039E+00
          1   -1    0    0  501    0  0.00000000000E+00  0.00000000000E+00  0.69024525395E+02  0.69024525395E+02  0.00000000000E+00 0. -1.
         -1   -1    0    0    0  501 -0.00000000000E+00 -0.00000000000E+00 -0.17874453012E+03  0.17874453012E+03  0.00000000000E+00 0.  1.
         25    2    1    2    0    0  0.37749983400E+02 -0.34400140954E+02 -0.50100997369E+02  0.14411219541E+03  0.12509909666E+03 0.  0.
          5    1    3    3  502    0  0.31144004876E+02 -0.61576450867E+02 -0.78111476319E+02  0.10430955600E+03  0.41800000000E+01 0.  1.
         -5    1    3    3    0  502  0.66059785236E+01  0.27176309913E+02  0.28010478950E+02  0.39802639407E+02  0.41800000000E+01 0.  1.
        -11    1    1    2    0    0  0.30906691298E+01 -0.17189522271E+02 -0.21183385402E+02  0.27454830698E+02  0.00000000000E+00 0.  1.
         11    1    1    2    0    0 -0.40840652530E+02  0.51589663225E+02 -0.38435621955E+02  0.76202029407E+02  0.00000000000E+00 0. -1.
</event>
<event>
 7    1  0.2612213E-009  0.1076179E+03  0.7561462E-02  0.1265046E+00
          2   -1    0    0  501    0  0.00000000000E+00  0.00000000000E+00  0.67612065971E+03  0.67612065971E+03  0.00000000000E+00 0. -1.
         -2   -1    0    0    0  501 -0.00000000000E+00 -0.00000000000E+00 -0.22524287063E+02  0.22524287063E+02  0.00000000000E+00 0.  1.
         25    2    1    2    0    0  0.38979246220E+02  0.48805705735E+01  0.24013425820E+03  0.27359662430E+03  0.12508976481E+03 0.  0.
          5    1    3    3  502    0  0.56954637350E+02  0.46718858295E+02  0.88526476346E+02  0.11524275183E+03  0.41800000000E+01 0.  1.
         -5    1    3    3    0  502 -0.17975391130E+02 -0.41838287722E+02  0.15160778185E+03  0.15835387246E+03  0.41800000000E+01 0.  1.
        -11    1    1    2    0    0  0.10767666184E+02 -0.35643645970E+02  0.11397200997E+03  0.11990008836E+03  0.00000000000E+00 0.  1.
         11    1    1    2    0    0 -0.49746912404E+02  0.30763075397E+02  0.29949010448E+03  0.30514823411E+03  0.00000000000E+00 0. -1.
</event>
<event>
 7    1  0.2612213E-009  0.1090949E+03  0.7561462E-02  0.1262255E+00
          1   -1    0    0  501    0  0.00000000000E+00  0.00000000000E+00  0.47486570257E+03  0.47486570257E+03  0.00000000000E+00 0. -1.
         -1   -1    0    0    0  501 -0.00000000000E+00 -0.00000000000E+00 -0.39022688104E+02  0.39022688104E+02  0.00000000000E+00 0.  1.
         25    2    1    2    0    0  0.71335704828E+02  0.34973291816E+02  0.22181700544E+03  0.26676321852E+03  0.12509163411E+03 0.  0.
          5    1    3    3  502    0  0.78601684984E+02  0.59384607390E+02  0.21976528211E+03  0.24087135176E+03  0.41800000000E+01 0. -1.
         -5    1    3    3    0  502 -0.72659801566E+01 -0.24411315574E+02  0.20517233390E+01  0.25891866761E+02  0.41800000000E+01 0. -1.
        -11    1    1    2    0    0 -0.77761814305E+02 -0.24572188282E+02  0.21917771539E+03  0.23385799777E+03  0.00000000000E+00 0. -1.
         11    1    1    2    0    0  0.64261094774E+01 -0.10401103534E+02 -0.51517063623E+01  0.13267174386E+02  0.00000000000E+00 0.  1.
</event>
<event>
 7    1  0.2612213E-009  0.1350691E+03  0.7561462E-02  0.1220122E+00
         -2   -1    0    0    0  501 -0.00000000000E+00  0.00000000000E+00  0.27464128927E+02  0.27464128927E+02  0.00000000000E+00 0.  1.
          2   -1    0    0  501    0  0.00000000000E+00 -0.00000000000E+00 -0.11206864300E+04  0.11206864300E+04  0.00000000000E+00 0. -1.
         25    2    1    2    0    0  0.91612867000E+02  0.33556426297E+02 -0.88869359458E+03  0.90274160490E+03  0.12508856471E+03 0.  0.
          5    1    3    3  502    0 -0.29582696471E+02 -0.40570371561E+01 -0.12637514176E+03  0.12992207024E+03  0.41800000000E+01 0. -1.
         -5    1    3    3    0  502  0.12119556347E+03  0.37613463454E+02 -0.76231845282E+03  0.77281953466E+03  0.41800000000E+01 0. -1.
        -11    1    1    2    0    0 -0.54038144521E+02  0.10571384953E+02 -0.16825506703E+03  0.17703571059E+03  0.00000000000E+00 0. -1.
         11    1    1    2    0    0 -0.37574722479E+02 -0.44127811250E+02 -0.36273639414E+02  0.68373243388E+02  0.00000000000E+00 0.  1.
</event>
<event>
 7    1  0.2985153E-009  0.1880573E+03  0.7561462E-02  0.1160225E+00
         -1   -1    0    0    0  501 -0.00000000000E+00  0.00000000000E+00  0.85138040774E+02  0.85138040774E+02  0.00000000000E+00 0.  1.
          1   -1    0    0  501    0  0.00000000000E+00 -0.00000000000E+00 -0.49683809769E+03  0.49683809769E+03  0.00000000000E+00 0. -1.
         25    2    1    2    0    0  0.13256638501E+03 -0.10423360263E+03 -0.15167837281E+03  0.25902238044E+03  0.12509106460E+03 0.  0.
          5    1    3    3  502    0  0.12712093746E+03 -0.60868756165E+02 -0.52323982847E+02  0.15039950066E+03  0.41800000000E+01 0.  1.
         -5    1    3    3    0  502  0.54454475468E+01 -0.43364846462E+02 -0.99354389959E+02  0.10862287978E+03  0.41800000000E+01 0.  1.
        -11    1    1    2    0    0 -0.81694267051E+02  0.11314830205E+03 -0.19806128506E+03  0.24229066050E+03  0.00000000000E+00 0. -1.
         11    1    1    2    0    0 -0.50872117959E+02 -0.89146994235E+01 -0.61960399056E+02  0.80663097527E+02  0.00000000000E+00 0.  1.
</event>
<event>
 7    1  0.2612213E-009  0.1895400E+03  0.7561462E-02  0.1158877E+00
         -1   -1    0    0    0  501 -0.00000000000E+00  0.00000000000E+00  0.64194908442E+02  0.64194908442E+02  0.00000000000E+00 0.  1.
          1   -1    0    0  501    0  0.00000000000E+00 -0.00000000000E+00 -0.72131498574E+03  0.72131498574E+03  0.00000000000E+00 0. -1.
         25    2    1    2    0    0 -0.57976536258E+01 -0.16384596176E+03 -0.19431948155E+03  0.28334749089E+03  0.12508648092E+03 0.  0.
          5    1    3    3  502    0  0.37439147446E+01 -0.17655090616E+03 -0.19917189094E+03  0.26621636671E+03  0.41800000000E+01 0. -1.
         -5    1    3    3    0  502 -0.95415683705E+01  0.12704944393E+02  0.48524093836E+01  0.17131124185E+02  0.41800000000E+01 0. -1.
        -11    1    1    2    0    0  0.46355202650E+02  0.10217116360E+03 -0.34835668638E+03  0.36597832235E+03  0.00000000000E+00 0.  1.
         11    1    1    2    0    0 -0.40557549024E+02  0.61674798160E+02 -0.11444390936E+03  0.13618408094E+03  0.00000000000E+00 0. -1.
</event>
<event>
 7    1  0.2612213E-009  0.1064093E+03  0.7561462E-02  0.1267368E+00
          2   -1    0    0  501    0  0.00000000000E+00  0.00000000000E+00  0.42550166180E+03  0.42550166180E+03  0.00000000000E+00 0. -1.
         -2   -1    0    0    0  501 -0.00000000000E+00 -0.00000000000E+00 -0.49655322184E+02  0.49655322184E+02  0.00000000000E+00 0.  1.
         25    2    1    2    0    0 -0.27497932676E+01 -0.16716858509E+02  0.35848017122E+03  0.38005571214E+03  0.12508915403E+03 0.  0.
          5    1    3    3  502    0 -0.48096198701E+02  0.28242772321E+02  0.10917522474E+03  0.12266866191E+03  0.41800000000E+01 0. -1.
         -5    1    3    3    0  502  0.45346405434E+02 -0.44959630830E+02  0.24930494648E+03  0.25738705023E+03  0.41800000000E+01 0. -1.
        -11    1    1    2    0    0 -0.19448643524E+02  0.49567124613E+02  0.45779946971E+01  0.53442563681E+02  0.00000000000E+00 0.  1.
         11    1    1    2    0    0  0.22198436792E+02 -0.32850266104E+02  0.12788173706E+02  0.41658708163E+02  0.00000000000E+00 0. -1.
</event>
<event>
 7    1  0.2612213E-009  0.9743496E+02  0.7561462E-02  0.1285784E+00
         -2   -1    0    0    0  501 -0.00000000000E+00  0.00000000000E+00  0.67856440989E+02  0.67856440989E+02  0.00000000000E+00 0.  1.
          2   -1    0    0  501    0  0.00000000000E+00 -0.00000000000E+00 -0.34429070107E+03  0.34429070107E+03  0.00000000000E+00 0. -1.
         25    2    1    2    0    0 -0.25157075991E+02  0.22835653948E+02 -0.25339964874E+03  0.28462812357E+03  0.12508973252E+03 0.  0.
          5    1    3    3  502    0  0.20660400995E+02 -0.84390355703E+01 -0.21691545227E+03  0.21810056241E+03  0.41800000000E+01 0. -1.
         -5    1    3    3    0  502 -0.45817476986E+02  0.31274689519E+02 -0.36484196468E+02  0.66527561159E+02  0.41800000000E+01 0. -1.
        -11    1    1    2    0    0 -0.37610765913E+02  0.17953751874E+02 -0.31420897122E+02  0.52193674855E+02  0.00000000000E+00 0. -1.
         11    1    1    2    0    0  0.62767841904E+02 -0.40789405823E+02  0.83862857777E+01  0.75325343635E+02  0.00000000000E+00 0.  1.
</event>
<event>
 7    1  0.2612213E-009  0.9465955E+02  0.7561462E-02  0.1291945E+00
          1   -1    0    0  501    0  0.00000000000E+00  0.00000000000E+00  0.39515584971E+03  0.39515584971E+03  0.00000000000E+00 0. -1.
         -1   -1    0    0    0  501 -0.00000000000E+00 -0.00000000000E+00 -0.37966994197E+02  0.37966994197E+02  0.00000000000E+00 0.  1.
         25    2    1    2    0    0 -0.41800021760E+02 -0.24718424150E+01  0.26774261912E+03  0.29847479852E+03  0.12509094067E+03 0.  0.
          5    1    3    3  502    0 -0.47417753269E+02  0.43003559547E+02  0.67929467886E+02  0.93432512896E+02  0.41800000000E+01 0.  1.
         -5    1    3    3    0  502  0.56177315096E+01 -0.45475401962E+02  0.19981315123E+03  0.20504228563E+03  0.41800000000E+01 0.  1.
        -11    1    1    2    0    0  0.21605169517E+02  0.34846553691E+02  0.41551934727E+01  0.41210815168E+02  0.00000000000E+00 0.  1.
         11    1    1    2    0    0  0.20194852243E+02 -0.32374711276E+02  0.85291042924E+02  0.93437230216E+02  0.00000000000E+00 0. -1.
</event>
<event>
 7    1  0.2612213E-009  0.1723283E+03  0.7561462E-02  0.1175441E+00
          2   -1    0    0  501    0  0.00000000000E+00  0.00000000000E+00  0.14402594063E+03  0.14402594063E+03  0.00000000000E+00 0. -1.
         -2   -1    0    0    0  501 -0.00000000000E+00 -0.00000000000E+00 -0.21426999447E+03  0.21426999447E+03  0.00000000000E+00 0.  1.
         25    2    1    2    0    0 -0.53233135563E+02  0.12828334320E+03 -0.42219584134E+02  0.19162500097E+03  0.12508902769E+03 0.  0.
          5    1    3    3  502    0  0.38339068936E+02  0.46005463361E+02  0.37509493802E+01  0.60149221833E+02  0.41800000000E+01 0.  1.
         -5    1    3    3    0  502 -0.91572204499E+02  0.82277879838E+02 -0.45970533514E+02  0.13147577913E+03  0.41800000000E+01 0.  1.
        -11    1    1    2    0    0 -0.22378453121E+02 -0.31098949133E+02  0.63333206227E+01  0.38833629130E+02  0.00000000000E+00 0.  1.
         11    1    1    2    0    0  0.75611588684E+02 -0.97184394065E+02 -0.34357790325E+02  0.12783730500E+03  0.00000000000E+00 0. -1.
</event>
<event>
 7    1  0.2612213E-009  0.9820163E+02  0.7561462E-02  0.1284124E+00
          2   -1    0    0  501    0  0.00000000000E+00  0.00000000000E+00  0.38952387689E+03  0.38952387689E+03  0.00000000000E+00 0. -1.
         -2   -1    0    0    0  501 -0.00000000000E+00 -0.00000000000E+00 -0.36955439522E+02  0.36955439522E+02  0.00000000000E+00 0.  1.
         25    2    1    2    0    0 -0.25678117677E+02  0.20746385150E+02  0.12788338273E+03  0.18190825945E+03  0.12508667816E+03 0.  0.
          5    1    3    3  502    0  0.32890798625E+02  0.25034857372E+02  0.46748996788E+00  0.41548040444E+02  0.41800000000E+01 0.  1.
         -5    1    3    3    0  502 -0.58568916302E+02 -0.42884722224E+01  0.12741589277E+03  0.14036021901E+03  0.41800000000E+01 0.  1.
        -11    1    1    2    0    0 -0.34011760764E+02 -0.82999727791E+01  0.95629262170E+02  0.10183636483E+03  0.00000000000E+00 0.  1.
         11    1    1    2    0    0  0.59689878442E+02 -0.12446412371E+02  0.12905579247E+03  0.14273469213E+03  0.00000000000E+00 0. -1.
</event>
<event>
 7    1  0.2612213E-009  0.1665738E+03  0.7561462E-02  0.1181469E+00
          3   -1    0    0  501    0  0.00000000000E+00  0.00000000000E+00  0.14906992049E+03  0.14906992049E+03  0.00000000000E+00 0. -1.
         -3   -1    0    0    0  501 -0.00000000000E+00 -0.00000000000E+00 -0.32336273657E+03  0.32336273657E+03  0.00000000000E+00 0.  1.
         25    2    1    2    0    0  0.41273661444E+02 -0.13493195229E+03  0.47085570334E+02  0.19435647332E+03  0.12508893200E+03 0.  0.
          5    1    3    3  502    0  0.24209933339E+02  0.39592602664E+01  0.48321756101E+02  0.54353115153E+02  0.41800000000E+01 0.  1.
         -5    1    3    3    0  502  0.17063728105E+02 -0.13889121256E+03 -0.12361857673E+01  0.14000335817E+03  0.41800000000E+01 0.  1.
        -11    1    1    2    0    0 -0.53439921724E+02  0.27415495114E+02 -0.77252944201E+02  0.97854238508E+02  0.00000000000E+00 0. -1.
         11    1    1    2    0    0  0.12166260280E+02  0.10751645718E+03 -0.14412544220E+03  0.18022194523E+03  0.00000000000E+00 0.  1.
</event>
<event>
 7    1  0.2612213E-009  0.1911702E+03  0.7561462E-02  0.1157410E+00
          2   -1    0    0  501    0  0.00000000000E+00  0.00000000000E+00  0.15258337287E+04  0.15258337287E+04  0.00000000000E+00 0. -1.
         -2   -1    0    0    0  501 -0.00000000000E+00 -0.00000000000E+00 -0.28434113523E+02  0.28434113523E+02  0.00000000000E+00 0.  1.
         25    2    1    2    0    0  0.14488725535E+03  0.89964021120E+02  0.95061799595E+03  0.97386214860E+03  0.12508824245E+03 0.  0.
          5    1    3    3  502    0 -0.27918261861E+01  0.55726878178E+02  0.18124986617E+03  0.18968991969E+03  0.41800000000E+01 0. -1.
         -5    1    3    3    0  502  0.14767908154E+03  0.34237142943E+02  0.76936812978E+03  0.78417222891E+03  0.41800000000E+01 0. -1.
        -11    1    1    2    0    0 -0.11100246638E+03 -0.48366997465E+02  0.23834235573E+03  0.26733498185E+03  0.00000000000E+00 0.  1.
         11    1    1    2    0    0 -0.33884788967E+02 -0.41597023656E+02  0.30843926351E+03  0.31307071178E+03  0.00000000000E+00 0. -1.
</event>
<event>
 6    1  0.2612213E-009  0.1159556E+03  0.7561462E-02  0.1249922E+00
         -2   -1    0    0    0  501 -0.00000000000E+00  0.00000000000E+00  0.63606651366E+02  0.63606651366E+02  0.00000000000E+00 0.  1.
          2   -1    0    0  501    0  0.00000000000E+00 -0.00000000000E+00 -0.26870314841E+03  0.26870314841E+03  0.00000000000E+00 0. -1.
          5    1    1    2  502    0 -0.22522279235E+02 -0.38869258580E+02 -0.41632604738E+02  0.61390703708E+02  0.41800000000E+01 0.  1.
         -5    1    1    2    0  502  0.75394474404E+02  0.46337914637E+02 -0.13314080690E+03  0.15992334403E+03  0.41800000000E+01 0.  1.
        -11    1    1    2    0    0 -0.50455916513E+02 -0.40734144941E+02 -0.40094578009E+02  0.76240706063E+02  0.00000000000E+00 0. -1.
         11    1    1    2    0    0 -0.24162786561E+01  0.33265488884E+02  0.97714926015E+01  0.34755045977E+02  0.00000000000E+00 0.  1.
</event>
<event>
 7    1  0.2612213E-009  0.9759458E+02  0.7561462E-02  0.1285437E+00
          2   -1    0    0  501    0  0.00000000000E+00  0.00000000000E+00  0.20220371603E+03  0.20220371603E+03  0.00000000000E+00 0. -1.
         -2   -1    0    0    0  501 -0.00000000000E+00 -0.00000000000E+00 -0.86668426094E+02  0.86668426094E+02  0.00000000000E+00 0.  1.
         25    2    1    2    0    0  0.37854759753E+02  0.52627802194E+02  0.10823204425E+03  0.17766021232E+03  0.12508519992E+03 0.  0.
          5    1    3    3  502    0  0.72491648186E+01  0.63816164763E+02 -0.19746634012E+00  0.64362758398E+02  0.41800000000E+01 0. -1.
         -5    1    3    3    0  502  0.30605594934E+02 -0.11188362569E+02  0.10842951059E+03  0.11329745392E+03  0.41800000000E+01 0. -1.
        -11    1    1    2    0    0  0.21883512586E+02 -0.76000116926E+01  0.25265471916E+02  0.34278161735E+02  0.00000000000E+00 0. -1.
         11    1    1    2    0    0 -0.59738272338E+02 -0.45027790501E+02 -0.17962226223E+02  0.76933768076E+02  0.00000000000E+00 0.  1.
</event>
<event>
 7    1  0.2612213E-009  0.1334606E+03  0.7561462E-02  0.1222409E+00
          2   -1    0    0  501    0  0.00000000000E+00  0.00000000000E+00  0.31399744737E+02  0.31399744737E+02  0.00000000000E+00 0.  1.
         -2   -1    0    0    0  501 -0.00000000000E+00 -0.00000000000E+00 -0.68845779746E+03  0.68845779746E+03  0.00000000000E+00 0. -1.
         25    2    1    2    0    0 -0.39028992910E+01 -0.77644149640E+02 -0.50185718460E+03  0.52302527112E+03  0.12510377252E+03 0.  0.
          5    1    3    3  502    0  0.43270129818E+02  0.11819467092E+02 -0.12753126085E+03  0.13525420079E+03  0.41800000000E+01 0.  1.
         -5    1    3    3    0  502 -0.47173029109E+02 -0.89463616732E+02 -0.37432592375E+03  0.38777107033E+03  0.41800000000E+01 0.  1.
        -11    1    1    2    0    0 -0.38965815724E+02  0.65289053786E+02 -0.10552480411E+03  0.13006336771E+03  0.00000000000E+00 0.  1.
         11    1    1    2    0    0  0.42868715015E+02  0.12355095853E+02 -0.49676064020E+02  0.66768903369E+02  0.00000000000E+00 0. -1.
</event>
<event>
 7    1  0.2612213E-009  0.1071409E+03  0.7561462E-02  0.1265958E+00
          3   -1    0    0  501    0  0.00000000000E+00  0.00000000000E+00  0.29587270980E+03  0.29587270980E+03  0.00000000000E+00 0. -1.
         -3   -1    0    0    0  501 -0.00000000000E+00 -0.00000000000E+00 -0.68063654113E+02  0.68063654113E+02  0.00000000000E+00 0.  1.
         25    2    1    2    0    0 -0.66375212163E+02  0.90017321003E+01  0.20401369573E+03  0.24850726317E+03  0.12509025475E+03 0.  0.
          5    1    3    3  502    0 -0.26260571926E+01 -0.50532239129E+02  0.10402158074E+03  0.11575130681E+03  0.41800000000E+01 0.  1.
         -5    1    3    3    0  502 -0.63749154971E+02  0.59533971229E+02  0.99992114991E+02  0.13275595636E+03  0.41800000000E+01 0.  1.
        -11    1    1    2    0    0  0.41439083265E+02  0.12472384412E+02 -0.29795594654E+02  0.52540798010E+02  0.00000000000E+00 0.  1.
         11    1    1    2    0    0  0.24936128898E+02 -0.21474116512E+02  0.53590954609E+02  0.62888302730E+02  0.00000000000E+00 0. -1.
</event>
<event>
 7    1  0.2612213E-009  0.1073252E+03  0.7561462E-02  0.1265605E+00
          1   -1    0    0  501    0  0.00000000000E+00  0.00000000000E+00  0.21517497610E+03  0.21517497610E+03  0.00000000000E+00 0. -1.
         -1   -1    0    0    0  501 -0.00000000000E+00 -0.00000000000E+00 -0.71297132775E+02  0.71297132775E+02  0.00000000000E+00 0.  1.
         25    2    1    2    0    0 -0.22217396843E+02  0.35812089369E+02  0.12912540142E+03  0.18465366453E+03  0.12508991992E+03 0.  0.
          5    1    3    3  502    0  0.17710972688E+02  0.63024927614E+02  0.11782292149E+03  0.13485374775E+03  0.41800000000E+01 0.  1.
         -5    1    3    3    0  502 -0.39928369531E+02 -0.27212838245E+02  0.11302479930E+02  0.49799916780E+02  0.41800000000E+01 0.  1.
        -11    1    1    2    0    0  0.47196742569E+02  0.10116228878E+02  0.39309772989E+01  0.48428536818E+02  0.00000000000E+00 0. -1.
         11    1    1    2    0    0 -0.24979345725E+02 -0.45928318247E+02  0.10821464612E+02  0.53389907531E+02  0.00000000000E+00 0.  1.
</event>
<event>
 7    1  0.2612213E-009  0.1514932E+03  0.7561462E-02  0.1198650E+00
         -2   -1    0    0    0  501 -0.00000000000E+00  0.00000000000E+00  0.32920337716E+03  0.32920337716E+03  0.00000000000E+00 0.  1.
          2   -1    0    0  501    0  0.00000000000E+00 -0.00000000000E+00 -0.20434631109E+03  0.20434631109E+03  0.00000000000E+00 0. -1.
         25    2    1    2    0    0 -0.95987595049E+02 -0.92189619637E+02 -0.13563754626E+03  0.22750287463E+03  0.12508984627E+03 0.  0.
          5    1    3    3  502    0 -0.18687883797E+02 -0.52524095269E+02 -0.12861082267E+03  0.14023634939E+03  0.41800000000E+01 0.  1.
         -5    1    3    3    0  502 -0.77299711253E+02 -0.39665524368E+02 -0.70267235967E+01  0.87266525241E+02  0.41800000000E+01 0.  1.
        -11    1    1    2    0    0  0.96748612733E+01  0.70419758049E+02  0.12831907563E+03  0.14669127594E+03  0.00000000000E+00 0.  1.
         11    1    1    2    0    0  0.86312733776E+02  0.21769861589E+02  0.13217553670E+03  0.15935553767E+03  0.00000000000E+00 0. -1.
</event>
<event>
 7    1  0.2612213E-009  0.1114974E+03  0.7561462E-02  0.1257822E+00
          2   -1    0    0  501    0  0.00000000000E+00  0.00000000000E+00  0.10623924966E+03  0.10623924966E+03  0.00000000000E+00 0. -1.
         -2   -1    0    0    0  501 -0.00000000000E+00 -0.00000000000E+00 -0.16526069722E+03  0.16526069722E+03  0.00000000000E+00 0.  1.
         25    2    1    2    0    0  0.63812493410E+02 -0.38429343964E+02 -0.56714328576E+02  0.15624675051E+03  0.12509069984E+03 0.  0.
          5    1    3    3  502    0 -0.23864344357E+02 -0.21755581819E+02  0.20230514375E+02  0.38334819469E+02  0.41800000000E+01 0. -1.
         -5    1    3    3    0  502  0.87676837767E+02 -0.16673762144E+02 -0.76944842951E+02  0.11791193104E+03  0.41800000000E+01 0. -1.
        -11    1    1    2    0    0 -0.61349016102E+02  0.56168005267E+02 -0.24523198085E+02  0.86717552068E+02  0.00000000000E+00 0.  1.
         11    1    1    2    0    0 -0.24634773081E+01 -0.17738661304E+02  0.22216079102E+02  0.28535644306E+02  0.00000000000E+00 0. -1.
</event>
<event>
 7    1  0.2612213E-009  0.1084672E+03  0.7561462E-02  0.1263435E+00
          2   -1    0    0  501    0  0.00000000000E+00  0.00000000000E+00  0.17877817547E+03  0.17877817547E+03  0.00000000000E+00 0. -1.
         -2   -1    0    0    0  501 -0.00000000000E+00 -0.00000000000E+00 -0.10556945448E+03  0.10556945448E+03  0.00000000000E+00 0.  1.
         25    2    1    2    0    0  0.10759390195E+02 -0.48527669299E+02 -0.28436139370E+02  0.13757411354E+03  0.12508926225E+03 0.  0.
          5    1    3    3  502    0  0.47866273953E+02 -0.74817043604E+02 -0.19868949356E+02  0.91109921217E+02  0.41800000000E+01 0.  1.
         -5    1    3    3    0  502 -0.37106883758E+02  0.26289374305E+02 -0.85671900148E+01  0.46464192324E+02  0.41800000000E+01 0.  1.
        -11    1    1    2    0    0 -0.24889396974E+02 -0.63464034114E+01 -0.48521451882E+01  0.26140050323E+02  0.00000000000E+00 0.  1.
         11    1    1    2    0    0  0.14130006779E+02  0.54874072710E+02  0.10649700555E+03  0.12063346608E+03  0.00000000000E+00 0. -1.
</event>
<event>
 6    1  0.2612213E-009  0.1210209E+03  0.7561462E-02  0.1241422E+00
         -1   -1    0    0    0  501 -0.00000000000E+00  0.00000000000E+00  0.28649994479E+03  0.28649994479E+03  0.00000000000E+00 0.  1.
          1   -1    0    0  501    0  0.00000000000E+00 -0.00000000000E+00 -0.75636557047E+02  0.75636557047E+02  0.00000000000E+00 0. -1.
          5    1    1    2  502    0 -0.80352206245E+01  0.88187852459E+02  0.15311876776E+03  0.17693075349E+03  0.41800000000E+01 0.  1.
         -5    1    1    2    0  502  0.41397593001E+02 -0.28710822087E+02  0.51068407534E+02  0.71857683369E+02  0.41800000000E+01 0.  1.
        -11    1    1    2    0    0 -0.51822776558E+02 -0.13885950042E+02 -0.20163750084E+02  0.57314889830E+02  0.00000000000E+00 0. -1.
         11    1    1    2    0    0  0.18460404182E+02 -0.45591080330E+02  0.26839962538E+02  0.56033175149E+02  0.00000000000E+00 0.  1.
</event>
<event>
 7    1  0.3464311E-009  0.1248063E+03  0.7561462E-02  0.1235372E+00
          2   -1    0    0  501    0  0.00000000000E+00  0.00000000000E+00  0.52244454965E+03  0.52244454965E+03  0.00000000000E+00 0. -1.
         -2   -1    0    0    0  501 -0.00000000000E+00 -0.00000000000E+00 -0.47915353430E+02  0.47915353430E+02  0.00000000000E+00 0.  1.
         25    2    1    2    0    0  0.95554646926E+02 -0.23309187897E+02  0.35899812521E+03  0.39268751871E+03  0.12509925920E+03 0.  0.
          5    1    3    3  502    0  0.99765149670E+02 -0.53852420591E+02  0.19362776799E+03  0.22441558152E+03  0.41800000000E+01 0. -1.
         -5    1    3    3    0  502 -0.42105027441E+01  0.30543232693E+02  0.16537035722E+03  0.16827193719E+03  0.41800000000E+01 0. -1.
        -11    1    1    2    0    0 -0.20881310035E+02  0.22046207729E+02 -0.96873767749E+01  0.31873337647E+02  0.00000000000E+00 0.  1.
         11    1    1    2    0    0 -0.74673336891E+02  0.12629801685E+01  0.12521844778E+03  0.14579904673E+03  0.00000000000E+00 0. -1.
</event>
<event>
 7    1  0.2612213E-009  0.1237825E+03  0.7561462E-02  0.1236984E+00
         -1   -1    0    0    0  501 -0.00000000000E+00  0.00000000000E+00  0.48314950945E+02  0.48314950945E+02  0.00000000000E+00 0.  1.
          1   -1    0    0  501    0  0.00000000000E+00 -0.00000000000E+00 -0.47490916303E+03  0.47490916303E+03  0.00000000000E+00 0. -1.
         25    2    1    2    0    0  0.14788029996E+02 -0.11331031726E+03 -0.25667454632E+03  0.30755151233E+03  0.12509275032E+03 0.  0.
          5    1    3    3  502    0  0.21678901942E+02 -0.31807059496E+02 -0.20947559715E+03  0.21302385318E+03  0.41800000000E+01 0. -1.
         -5    1    3    3    0  502 -0.68908719459E+01 -0.81503257761E+02 -0.47198949171E+02  0.94527659152E+02  0.41800000000E+01 0. -1.
        -11    1    1    2    0    0 -0.35569367570E+02  0.81810003811E+02 -0.87181012942E+02  0.12473405971E+03  0.00000000000E+00 0.  1.
         11    1    1    2    0    0  0.20781337574E+02  0.31500313447E+02 -0.82738652820E+02  0.90938541934E+02  0.00000000000E+00 0. -1.
</event>
<event>
 7    1  0.2612213E-009  0.1059442E+03  0.7561462E-02  0.1268270E+00
         -1   -1    0    0    0  501 -0.00000000000E+00  0.00000000000E+00  0.48679665811E+03  0.48679665811E+03  0.00000000000E+00 0.  1.
          1   -1    0    0  501    0  0.00000000000E+00 -0.00000000000E+00 -0.37980967810E+02  0.37980967810E+02  0.00000000000E+00 0. -1.
         25    2    1    2    0    0 -0.17665715637E+01 -0.51734723424E+01  0.38594945675E+03  0.40575151328E+03  0.12508965494E+03 0.  0.
          5    1    3    3  502    0  0.16557197207E+02 -0.54991444447E+02  0.29323821364E+03  0.29883828751E+03  0.41800000000E+01 0. -1.
         -5    1    3    3    0  502 -0.18323768771E+02  0.49817972104E+02  0.92711243113E+02  0.10691322578E+03  0.41800000000E+01 0. -1.
        -11    1    1    2    0    0  0.32364406950E+02 -0.36871680703E+02  0.31285425347E+02  0.58187228102E+02  0.00000000000E+00 0. -1.
         11    1    1    2    0    0 -0.30597835387E+02  0.42045153045E+02  0.31580808206E+02  0.60838884538E+02  0.00000000000E+00 0.  1.
</event>
<event>
 7    1  0.2612213E-009  0.8717257E+02  0.7561462E-02  0.1309847E+00
         -2   -1    0    0    0  501 -0.00000000000E+00  0.00000000000E+00  0.49310330974E+02  0.49310330974E+02  0.00000000000E+00 0.  1.
          2   -1    0    0  501    0  0.00000000000E+00 -0.00000000000E+00 -0.31459645931E+03  0.31459645931E+03  0.00000000000E+00 0. -1.
         25    2    1    2    0    0 -0.33779384248E+02  0.17899285650E+02 -0.21968126996E+03  0.25567265743E+03  0.12508883308E+03 0.  0.
          5    1    3    3  502    0  0.19488652868E+02  0.27202247132E+02 -0.48124829255E+01  0.34064677183E+02  0.41800000000E+01 0. -1.
         -5    1    3    3    0  502 -0.53268037117E+02 -0.93029614827E+01 -0.21486878703E+03  0.22160798025E+03  0.41800000000E+01 0. -1.
        -11    1    1    2    0    0  0.55160869260E+02 -0.28973672712E+02 -0.69511206966E+01  0.62693805810E+02  0.00000000000E+00 0.  1.
         11    1    1    2    0    0 -0.21381485012E+02  0.11074387062E+02 -0.38653737687E+02  0.45540327044E+02  0.00000000000E+00 0. -1.
</event>
<event>
 7    1  0.2612213E-009  0.1148601E+03  0.7561462E-02  0.1251825E+00
          2   -1    0    0  501    0  0.00000000000E+00  0.00000000000E+00  0.68513069452E+03  0.68513069452E+03  0.00000000000E+00 0. -1.
         -2   -1    0    0    0  501 -0.00000000000E+00 -0.00000000000E+00 -0.61042084741E+02  0.61042084741E+02  0.00000000000E+00 0.  1.
         25    2    1    2    0    0 -0.15419445344E+02  0.52520312672E+02  0.26523679903E+02  0.13911536057E+03  0.12511368995E+03 0.  0.
          5    1    3    3  502    0 -0.59646974713E+02  0.87602861741E+01 -0.17346374181E+02  0.62871880070E+02  0.41800000000E+01 0. -1.
         -5    1    3    3    0  502  0.44227529369E+02  0.43760026497E+02  0.43870054084E+02  0.76243480498E+02  0.41800000000E+01 0. -1.
        -11    1    1    2    0    0 -0.19995780674E+02 -0.66056793730E+02  0.38785632626E+03  0.39394905897E+03  0.00000000000E+00 0.  1.
         11    1    1    2    0    0  0.35415226017E+02  0.13536481058E+02  0.20970860362E+03  0.21310835972E+03  0.00000000000E+00 0. -1.
</event>
<event>
 7    1  0.2612213E-009  0.1289246E+03  0.7561462E-02  0.1229060E+00
          1   -1    0    0  501    0  0.00000000000E+00  0.00000000000E+00  0.29907031175E+03  0.29907031175E+03  0.00000000000E+00 0. -1.
         -1   -1    0    0    0  501 -0.00000000000E+00 -0.00000000000E+00 -0.12476056461E+03  0.12476056461E+03  0.00000000000E+00 0.  1.
         25    2    1    2    0    0  0.67093429858E+02  0.77458654515E+02 -0.42280060140E+02  0.16714283145E+03  0.12509097142E+03 0.  0.
          5    1    3    3  502    0 -0.80478306852E+01 -0.25937298165E+02 -0.26700168099E+02  0.38312953310E+02  0.41800000000E+01 0.  1.
         -5    1    3    3    0  502  0.75141260543E+02  0.10339595268E+03 -0.15579892042E+02  0.12882987814E+03  0.41800000000E+01 0.  1.
        -11    1    1    2    0    0 -0.19382557607E+02 -0.23455248860E+02  0.16569806078E+03  0.16846863087E+03  0.00000000000E+00 0. -1.
         11    1    1    2    0    0 -0.47710872252E+02 -0.54003405654E+02  0.50891746492E+02  0.88219414044E+02  0.00000000000E+00 0.  1.
</event>
<event>
 7    1  0.2612213E-009  0.8919276E+02  0.7561462E-02  0.1304818E+00
          2   -1    0    0  501    0  0.00000000000E+00  0.00000000000E+00  0.63610438661E+03  0.63610438661E+03  0.00000000000E+00 0. -1.
         -2   -1    0    0    0  501 -0.00000000000E+00 -0.00000000000E+00 -0.20030020606E+02  0.20030020606E+02  0.00000000000E+00 0.  1.
         25    2    1    2    0    0 -0.57448429155E+01  0.30156627529E+02  0.37517610988E+03  0.39666863549E+03  0.12508584074E+03 0.  0.
          5    1    3    3  502    0 -0.48329519565E+02  0.26803719089E+02  0.32896159643E+03  0.33359764110E+03  0.41800000000E+01 0. -1.
         -5    1    3    3    0  502  0.42584676649E+02  0.33529084405E+01  0.46214513442E+02  0.63070994388E+02  0.41800000000E+01 0. -1.
        -11    1    1    2    0    0 -0.26029762115E+00  0.24778641994E+02  0.20248127486E+02  0.32000555004E+02  0.00000000000E+00 0.  1.
         11    1    1    2    0    0  0.60051405367E+01 -0.54935269523E+02  0.22065012864E+03  0.22746521672E+03  0.00000000000E+00 0. -1.
</event>
<event>
 7    1  0.2612213E-009  0.1144061E+03  0.7561462E-02  0.1252621E+00
          2   -1    0    0  501    0  0.00000000000E+00  0.00000000000E+00  0.43531541342E+03  0.43531541342E+03  0.00000000000E+00 0. -1.
         -2   -1    0    0    0  501 -0.00000000000E+00 -0.00000000000E+00 -0.63298513473E+02  0.63298513473E+02  0.00000000000E+00 0.  1.
         25    2    1    2    0    0  0.11491439147E+02  0.44829925684E+02  0.23422544209E+02  0.13541805719E+03  0.12509060406E+03 0.  0.
          5    1    3    3  502    0 -0.49868431562E+02  0.49368207279E+02  0.26566196202E+01  0.70346360135E+02  0.41800000000E+01 0.  1.
         -5    1    3    3    0  502  0.61359870709E+02 -0.45382815951E+01  0.20765924589E+02  0.65071697052E+02  0.41800000000E+01 0.  1.
        -11    1    1    2    0    0 -0.44723937771E+02 -0.50442236982E+01  0.21979464836E+03  0.22435543731E+03  0.00000000000E+00 0. -1.
         11    1    1    2    0    0  0.33232498625E+02 -0.39785701985E+02  0.12879970738E+03  0.13884043239E+03  0.00000000000E+00 0.  1.
</event>
<event>
 7    1  0.2612213E-009  0.9993279E+02  0.7561462E-02  0.1280437E+00
         -1   -1    0    0    0  501 -0.00000000000E+00  0.00000000000E+00  0.16721337659E+02  0.16721337659E+02  0.00000000000E+00 0.  1.
          1   -1    0    0  501    0  0.00000000000E+00 -0.00000000000E+00 -0.81348327273E+03  0.81348327273E+03  0.00000000000E+00 0. -1.
         25    2    1    2    0    0 -0.21386602251E+02 -0.32187802255E+02 -0.51974044655E+03  0.53597201284E+03  0.12506968216E+03 0.  0.
          5    1    3    3  502    0  0.45151327951E+02 -0.33724897612E+01 -0.98145127818E+02  0.10816632848E+03  0.41800000000E+01 0. -1.
         -5    1    3    3    0  502 -0.66537930202E+02 -0.28815312494E+02 -0.42159531874E+03  0.42780568436E+03  0.41800000000E+01 0. -1.
        -11    1    1    2    0    0 -0.21864136951E+02 -0.74508584333E+01 -0.19855986304E+02  0.30460071703E+02  0.00000000000E+00 0.  1.
         11    1    1    2    0    0  0.43250739202E+02  0.39638660689E+02 -0.25716550221E+03  0.26377252584E+03  0.00000000000E+00 0. -1.
</event>
<event>
 7    1  0.2612213E-009  0.1861194E+03  0.7561462E-02  0.1162009E+00
         -2   -1    0    0    0  501 -0.00000000000E+00  0.00000000000E+00  0.46478182790E+02  0.46478182790E+02  0.00000000000E+00 0.  1.
          2   -1    0    0  501    0  0.00000000000E+00 -0.00000000000E+00 -0.10806226272E+04  0.10806226272E+04  0.00000000000E+00 0. -1.
         25    2    1    2    0    0  0.13115208373E+03 -0.12151088939E+03 -0.73969639515E+03  0.77120988595E+03  0.12509262921E+03 0.  0.
          5    1    3    3  502    0  0.12974514981E+03 -0.84844426434E+02 -0.70007493736E+03  0.71704586389E+03  0.41800000000E+01 0.  1.
         -5    1    3    3    0  502  0.14069339210E+01 -0.36666462955E+02 -0.39621457787E+02  0.54164022061E+02  0.41800000000E+01 0.  1.
        -11    1    1    2    0    0 -0.29241925296E+02  0.40962246788E+02 -0.16499796898E+03  0.17250311773E+03  0.00000000000E+00 0. -1.
         11    1    1    2    0    0 -0.10191015844E+03  0.80548642602E+02 -0.12945008025E+03  0.18338780629E+03  0.00000000000E+00 0.  1.
</event>
<event>
 7    1  0.2612213E-009  0.6327442E+02  0.7561462E-02  0.1384583E+00
          1   -1    0    0  501    0  0.00000000000E+00  0.00000000000E+00  0.19014870442E+03  0.19014870442E+03  0.00000000000E+00 0. -1.
         -1   -1    0    0    0  501 -0.00000000000E+00 -0.00000000000E+00 -0.63780576380E+02  0.63780576380E+02  0.00000000000E+00 0.  1.
         25    2    1    2    0    0 -0.10193107904E+02  0.19665468419E+02  0.71566463801E+02  0.14580762258E+03  0.12508986356E+03 0.  0.
          5    1    3    3  502    0  0.15211745720E+02  0.29471703876E+02  0.10046510054E+03  0.10588053345E+03  0.41800000000E+01 0. -1.
         -5    1    3    3    0  502 -0.25404853624E+02 -0.98062354579E+01 -0.28898636736E+02  0.39927089134E+02  0.41800000000E+01 0. -1.
        -11    1    1    2    0    0  0.34658617060E+02 -0.78715941048E+00 -0.10209549471E+02  0.36139649373E+02  0.00000000000E+00 0.  1.
         11    1    1    2    0    0 -0.24465509155E+02 -0.18878309008E+02  0.65011213712E+02  0.71982008846E+02  0.00000000000E+00 0. -1.
</event>
<event>
 7    1  0.2612213E-009  0.2344468E+03  0.7561462E-02  0.1123548E+00
          2   -1    0    0  501    0  0.00000000000E+00  0.00000000000E+00  0.40267560589E+03  0.40267560589E+03  0.00000000000E+00 0. -1.
         -2   -1    0    0    0  501 -0.00000000000E+00 -0.00000000000E+00 -0.17613159570E+03  0.17613159570E+03  0.00000000000E+00 0.  1.
         25    2    1    2    0    0 -0.13037278278E+03  0.18373271718E+03  0.21480055412E+03  0.33547502067E+03  0.12509771219E+03 0.  0.
          5    1    3    3  502    0 -0.50883700800E+02  0.60806743721E+02  0.16089963914E+03  0.17942345823E+03  0.41800000000E+01 0.  1.
         -5    1    3    3    0  502 -0.79489081979E+02  0.12292597346E+03  0.53900914976E+02  0.15605156244E+03  0.41800000000E+01 0.  1.
        -11    1    1    2    0    0 -0.12091349606E+02 -0.35283385176E+02  0.19854871448E+01  0.37350504200E+02  0.00000000000E+00 0. -1.
         11    1    1    2    0    0  0.14246413239E+03 -0.14844933200E+03  0.97579689229E+01  0.20598167672E+03  0.00000000000E+00 0.  1.
</event>
<event>
 7    1  0.2612213E-009  0.1086008E+03  0.7561462E-02  0.1263183E+00
         -1   -1    0    0    0  501 -0.00000000000E+00  0.00000000000E+00  0.12383828060E+03  0.12383828060E+03  0.00000000000E+00 0.  1.
          1   -1    0    0  501    0  0.00000000000E+00 -0.00000000000E+00 -0.10169148659E+03  0.10169148659E+03  0.00000000000E+00 0. -1.
         25    2    1    2    0    0  0.80370659259E+01  0.31116325322E+02  0.26511313671E+02  0.13187054948E+03  0.12511663334E+03 0.  0.
          5    1    3    3  502    0 -0.52012764529E+02  0.36870509131E+02  0.31423880402E+02  0.71201789142E+02  0.41800000000E+01 0.  1.
         -5    1    3    3    0  502  0.60049830455E+02 -0.57541838087E+01 -0.49125667308E+01  0.60668760337E+02  0.41800000000E+01 0.  1.
        -11    1    1    2    0    0 -0.45782995345E+02 -0.32049657290E+01  0.36314364951E+01  0.46038481720E+02  0.00000000000E+00 0.  1.
         11    1    1    2    0    0  0.37745929419E+02 -0.27911359594E+02 -0.79959561535E+01  0.47620735997E+02  0.00000000000E+00 0. -1.
</event>
<event>
 7    1  0.2612213E-009  0.9331756E+02  0.7561462E-02  0.1295011E+00
          4   -1    0    0  501    0  0.00000000000E+00  0.00000000000E+00  0.30854716834E+03  0.30854716834E+03  0.00000000000E+00 0. -1.
         -4   -1    0    0    0  501 -0.00000000000E+00 -0.00000000000E+00 -0.50568528584E+02  0.50568528584E+02  0.00000000000E+00 0.  1.
         25    2    1    2    0    0 -0.27328372811E+02 -0.45946713079E+02  0.10305524391E+03  0.17066334803E+03  0.12509058582E+03 0.  0.
          5    1    3    3  502    0 -0.29435596058E+01 -0.63460257594E+02  0.12006822864E+03  0.13590335082E+03  0.41800000000E+01 0.  1.
         -5    1    3    3    0  502 -0.24384813205E+02  0.17513544516E+02 -0.17012984730E+02  0.34759997209E+02  0.41800000000E+01 0.  1.
        -11    1    1    2    0    0  0.47036946080E+02  0.51103420026E+01  0.31182287088E+02  0.56665023779E+02  0.00000000000E+00 0.  1.
         11    1    1    2    0    0 -0.19708573269E+02  0.40836371076E+02  0.12374110876E+03  0.13178732511E+03  0.00000000000E+00 0. -1.
</event>
<event>
 7    1  0.2612213E-009  0.9086314E+02  0.7561462E-02  0.1300775E+00
          1   -1    0    0  501    0  0.00000000000E+00  0.00000000000E+00  0.53960940977E+03  0.53960940977E+03  0.00000000000E+00 0. -1.
         -1   -1    0    0    0  501 -0.00000000000E+00 -0.00000000000E+00 -0.29540408198E+02  0.29540408198E+02  0.00000000000E+00 0.  1.
         25    2    1    2    0    0 -0.31343024784E+02 -0.52646576780E+02  0.32108501136E+03  0.34999608710E+03  0.12509048411E+03 0.  0.
          5    1    3    3  502    0 -0.58673012091E+02 -0.65271674736E+02  0.30100709533E+03  0.31356922315E+03  0.41800000000E+01 0.  1.
         -5    1    3    3    0  502  0.27329987307E+02  0.12625097956E+02  0.20077916031E+02  0.36426863944E+02  0.41800000000E+01 0.  1.
        -11    1    1    2    0    0  0.99177446537E+01  0.32781944557E+02  0.18673521351E+03  0.18985009221E+03  0.00000000000E+00 0. -1.
         11    1    1    2    0    0  0.21425280130E+02  0.19864632223E+02  0.22487767001E+01  0.29303638659E+02  0.00000000000E+00 0.  1.
</event>
<event>
 7    1  0.2612213E-009  0.2585391E+03  0.7561462E-02  0.1108024E+00
         -1   -1    0    0    0  501 -0.00000000000E+00  0.00000000000E+00  0.80593175714E+02  0.80593175714E+02  0.00000000000E+00 0.  1.
          1   -1    0    0  501    0  0.00000000000E+00 -0.00000000000E+00 -0.11966494076E+04  0.11966494076E+04  0.00000000000E+00 0. -1.
         25    2    1    2    0    0 -0.15376648164E+03 -0.17695936370E+03 -0.21511536944E+03  0.34187770705E+03  0.12508795758E+03 0.  0.
          5    1    3    3  502    0 -0.10827979699E+03 -0.18951824771E+03 -0.17463869842E+03  0.27956721560E+03  0.41800000000E+01 0.  1.
         -5    1    3    3    0  502 -0.45486684646E+02  0.12558884014E+02 -0.40476671019E+02  0.62310491448E+02  0.41800000000E+01 0.  1.
        -11    1    1    2    0    0  0.13614972208E+03  0.91265248446E+02 -0.58085043098E+03  0.60353402188E+03  0.00000000000E+00 0.  1.
         11    1    1    2    0    0  0.17616759560E+02  0.85694115250E+02 -0.32009043145E+03  0.33183085437E+03  0.00000000000E+00 0. -1.
</event>
<event>
 7    1  0.2612213E-009  0.1268144E+03  0.7561462E-02  0.1232261E+00
         -4   -1    0    0    0  501 -0.00000000000E+00  0.00000000000E+00  0.16432700043E+03  0.16432700043E+03  0.00000000000E+00 0.  1.
          4   -1    0    0  501    0  0.00000000000E+00 -0.00000000000E+00 -0.11302897986E+03  0.11302897986E+03  0.00000000000E+00 0. -1.
         25    2    1    2    0    0 -0.31935140397E+02 -0.76842302641E+02  0.10246859733E+02  0.15058949796E+03  0.12509039170E+03 0.  0.
          5    1    3    3  502    0 -0.78085819190E+02 -0.66065452455E+02  0.25988743659E+01  0.10240246928E+03  0.41800000000E+01 0. -1.
         -5    1    3    3    0  502  0.46150678793E+02 -0.10776850186E+02  0.76479853668E+01  0.48187028682E+02  0.41800000000E+01 0. -1.
        -11    1    1    2    0    0  0.38165694152E+02  0.85142163911E+02  0.55811194587E+02  0.10872303218E+03  0.00000000000E+00 0.  1.
         11    1    1    2    0    0 -0.62305537552E+01 -0.82998612693E+01 -0.14760033742E+02  0.18043450149E+02  0.00000000000E+00 0. -1.
</event>
<event>
 7    1  0.2612213E-009  0.1163614E+03  0.7561462E-02  0.1249223E+00
          1   -1    0    0  501    0  0.00000000000E+00  0.00000000000E+00  0.47201136359E+03  0.47201136359E+03  0.00000000000E+00 0. -1.
         -1   -1    0    0    0  501 -0.00000000000E+00 -0.00000000000E+00 -0.34721784607E+02  0.34721784607E+02  0.00000000000E+00 0.  1.
         25    2    1    2    0    0 -0.42389476537E+02  0.35017870137E+02  0.16486130768E+03  0.21412570069E+03  0.12508975168E+03 0.  0.
          5    1    3    3  502    0 -0.38345958968E+01 -0.44048257192E+02  0.32045505649E+02  0.54766229738E+02  0.41800000000E+01 0. -1.
         -5    1    3    3    0  502 -0.38554880640E+02  0.79066127330E+02  0.13281580203E+03  0.15935947095E+03  0.41800000000E+01 0. -1.
        -11    1    1    2    0    0  0.65850039898E+02 -0.38877435226E+02  0.15549161425E+03  0.17327817181E+03  0.00000000000E+00 0.  1.
         11    1    1    2    0    0 -0.23460563361E+02  0.38595650884E+01  0.11693665706E+03  0.11932927571E+03  0.00000000000E+00 0. -1.
</event>
<event>
 7    1  0.2612213E-009  0.1089246E+03  0.7561462E-02  0.1262574E+00
          1   -1    0    0  501    0  0.00000000000E+00  0.00000000000E+00  0.41672981542E+03  0.41672981542E+03  0.00000000000E+00 0. -1.
         -1   -1    0    0    0  501 -0.00000000000E+00 -0.00000000000E+00 -0.50103248046E+02  0.50103248046E+02  0.00000000000E+00 0.  1.
         25    2    1    2    0    0  0.35968553056E+02 -0.67523631926E+02  0.28865525627E+03  0.32376512659E+03  0.12509525389E+03 0.  0.
          5    1    3    3  502    0  0.58285490929E+02 -0.15594359846E+02  0.49998671783E+02  0.78471154521E+02  0.41800000000E+01 0. -1.
         -5    1    3    3    0  502 -0.22316937873E+02 -0.51929272080E+02  0.23865658449E+03  0.24529397207E+03  0.41800000000E+01 0. -1.
        -11    1    1    2    0    0 -0.35203151451E+02  0.21008362594E+01  0.68384163025E+02  0.76941985533E+02  0.00000000000E+00 0. -1.
         11    1    1    2    0    0 -0.76540160532E+00  0.65422795667E+02  0.95871480775E+01  0.66125951341E+02  0.00000000000E+00 0.  1.
</event>
<event>
 7    1  0.2612213E-009  0.2090256E+03  0.7561462E-02  0.1142340E+00
          1   -1    0    0  501    0  0.00000000000E+00  0.00000000000E+00  0.13209364883E+04  0.13209364883E+04  0.00000000000E+00 0. -1.
         -1   -1    0    0    0  501 -0.00000000000E+00 -0.00000000000E+00 -0.43712883915E+02  0.43712883915E+02  0.00000000000E+00 0.  1.
         25    2    1    2    0    0  0.16010669412E+02 -0.17051801525E+02  0.23821359344E+03  0.27007626071E+03  0.12509342521E+03 0.  0.
          5    1    3    3  502    0 -0.40795256537E+02  0.27737109310E+02  0.60610560646E+02  0.78260543383E+02  0.41800000000E+01 0. -1.
         -5    1    3    3    0  502  0.56805925949E+02 -0.44788910835E+02  0.17760303280E+03  0.19181571733E+03  0.41800000000E+01 0. -1.
        -11    1    1    2    0    0 -0.10929337903E+03 -0.98808815856E+02  0.79701200411E+03  0.81051610687E+03  0.00000000000E+00 0. -1.
         11    1    1    2    0    0  0.93282709614E+02  0.11586061738E+03  0.24199800683E+03  0.28405700464E+03  0.00000000000E+00 0.  1.
</event>
<event>
 7    1  0.2612213E-009  0.1160720E+03  0.7561462E-02  0.1249721E+00
          1   -1    0    0  501    0  0.00000000000E+00  0.00000000000E+00  0.71261990404E+03  0.71261990404E+03  0.00000000000E+00 0. -1.
         -1   -1    0    0    0  501 -0.00000000000E+00 -0.00000000000E+00 -0.21118049709E+02  0.21118049709E+02  0.00000000000E+00 0.  1.
         25    2    1    2    0    0  0.42504228759E+02 -0.26201954035E+02  0.30876635262E+03  0.33686061271E+03  0.12508101386E+03 0.  0.
          5    1    3    3  502    0 -0.41669758080E+02 -0.21580126539E+01  0.14717917391E+03  0.15303662107E+03  0.41800000000E+01 0. -1.
         -5    1    3    3    0  502  0.84173986839E+02 -0.24043941381E+02  0.16158717872E+03  0.18382399164E+03  0.41800000000E+01 0. -1.
        -11    1    1    2    0    0  0.13282766922E+02  0.42437534375E+02  0.20919367602E+03  0.21386764670E+03  0.00000000000E+00 0.  1.
         11    1    1    2    0    0 -0.55786995681E+02 -0.16235580340E+02  0.17354182569E+03  0.18300969434E+03  0.00000000000E+00 0. -1.
</event>
<event>
 7    1  0.2612213E-009  0.1242402E+03  0.7561462E-02  0.1236261E+00
          1   -1    0    0  501    0  0.00000000000E+00  0.00000000000E+00  0.15717094632E+04  0.15717094632E+04  0.00000000000E+00 0. -1.
         -1   -1    0    0    0  501 -0.00000000000E+00 -0.00000000000E+00 -0.33872585673E+02  0.33872585673E+02  0.00000000000E+00 0.  1.
         25    2    1    2    0    0 -0.68250456215E+02  0.31688357743E+02  0.14587125458E+04  0.14659995211E+04  0.12510007070E+03 0.  0.
          5    1    3    3  502    0 -0.36620318402E+02 -0.43477398735E+02  0.83843488530E+03  0.84037007396E+03  0.41800000000E+01 0.  1.
         -5    1    3    3    0  502 -0.31630137813E+02  0.75165756478E+02  0.62027766055E+03  0.62562944715E+03  0.41800000000E+01 0.  1.
        -11    1    1    2    0    0  0.19251317640E+02 -0.53003139914E+02  0.61207242928E+02  0.83224231198E+02  0.00000000000E+00 0.  1.
         11    1    1    2    0    0  0.48999138575E+02  0.21314782171E+02  0.17917088720E+02  0.56358296534E+02  0.00000000000E+00 0. -1.
</event>
<event>
 7    1  0.2612213E-009  0.1049854E+03  0.7561462E-02  0.1270148E+00
         -1   -1    0    0    0  501 -0.00000000000E+00  0.00000000000E+00  0.83195324033E+03  0.83195324033E+03  0.00000000000E+00 0.  1.
          1   -1    0    0  501    0  0.00000000000E+00 -0.00000000000E+00 -0.19256283736E+02  0.19256283736E+02  0.00000000000E+00 0. -1.
         25    2    1    2    0    0  0.54040807179E+02 -0.46459147385E+01  0.57631703296E+03  0.59222509877E+03  0.12508897540E+03 0.  0.
          5    1    3    3  502    0  0.72100479479E+02  0.30470941319E+02  0.50086602446E+03  0.50696272473E+03  0.41800000000E+01 0.  1.
         -5    1    3    3    0  502 -0.18059672301E+02 -0.35116856058E+02  0.75451008497E+02  0.85262374035E+02  0.41800000000E+01 0.  1.
        -11    1    1    2    0    0 -0.55703596742E+02 -0.25796941981E+02  0.86706888455E+02  0.10623774005E+03  0.00000000000E+00 0. -1.
         11    1    1    2    0    0  0.16627895636E+01  0.30442856719E+02  0.14967303518E+03  0.15274668525E+03  0.00000000000E+00 0.  1.
</event>
<event>
 7    1  0.2612213E-009  0.8436967E+02  0.7561462E-02  0.1317089E+00
          1   -1    0    0  501    0  0.00000000000E+00  0.00000000000E+00  0.10248883188E+03  0.10248883188E+03  0.00000000000E+00 0. -1.
         -1   -1    0    0    0  501 -0.00000000000E+00 -0.00000000000E+00 -0.13639790389E+03  0.13639790389E+03  0.00000000000E+00 0.  1.
         25    2    1    2    0    0  0.28501418381E+02  0.13578259308E+02 -0.54374633738E+02  0.14000484216E+03  0.12509218624E+03 0.  0.
          5    1    3    3  502    0 -0.69346744504E+01 -0.45367542836E+02 -0.54142975050E+02  0.71100195499E+02  0.41800000000E+01 0.  1.
         -5    1    3    3    0  502  0.35436092831E+02  0.58945802144E+02 -0.23165868729E+00  0.68904646660E+02  0.41800000000E+01 0.  1.
        -11    1    1    2    0    0 -0.39432049510E+02 -0.16000748031E+02 -0.26811805160E+02  0.50296951816E+02  0.00000000000E+00 0.  1.
         11    1    1    2    0    0  0.10930631129E+02  0.24224887237E+01  0.47277366891E+02  0.48584941789E+02  0.00000000000E+00 0. -1.
</event>
<event>
 7    1  0.2612213E-009  0.8531057E+02  0.7561462E-02  0.1314622E+00
         -2   -1    0    0    0  501 -0.00000000000E+00  0.00000000000E+00  0.21331915819E+03  0.21331915819E+03  0.00000000000E+00 0.  1.
          2   -1    0    0  501    0  0.00000000000E+00 -0.00000000000E+00 -0.66453298727E+02  0.66453298727E+02  0.00000000000E+00 0. -1.
         25    2    1    2    0    0  0.26903248943E+02 -0.27410385274E+02  0.11823341704E+03  0.17635715916E+03  0.12509033798E+03 0.  0.
          5    1    3    3  502    0 -0.29376938748E+02 -0.29613334986E+02 -0.35935248637E+01  0.42075408021E+02  0.41800000000E+01 0.  1.
         -5    1    3    3    0  502  0.56280187691E+02  0.22029497124E+01  0.12182694190E+03  0.13428175113E+03  0.41800000000E+01 0.  1.
        -11    1    1    2    0    0  0.16313221707E+02  0.23800176792E+02  0.47932724382E+02  0.55947436800E+02  0.00000000000E+00 0.  1.
         11    1    1    2    0    0 -0.43216470650E+02  0.36102084823E+01 -0.19300281959E+02  0.47467860963E+02  0.00000000000E+00 0. -1.
</event>
<event>
 7    1  0.2612213E-009  0.1415288E+03  0.7561462E-02  0.1211287E+00
          1   -1    0    0  501    0  0.00000000000E+00  0.00000000000E+00  0.13664449140E+04  0.13664449140E+04  0.00000000000E+00 0. -1.
         -1   -1    0    0    0  501 -0.00000000000E+00 -0.00000000000E+00 -0.15380044262E+02  0.15380044262E+02  0.00000000000E+00 0.  1.
         25    2    1    2    0    0  0.56072369183E+02  0.79540791674E+02  0.84693464398E+03  0.86163554894E+03  0.12508668952E+03 0.  0.
          5    1    3    3  502    0 -0.12138618340E+01  0.95373356155E+02  0.60414488815E+03  0.61164210843E+03  0.41800000000E+01 0.  1.
         -5    1    3    3    0  502  0.57286231017E+02 -0.15832564481E+02  0.24278975583E+03  0.24999344051E+03  0.41800000000E+01 0.  1.
        -11    1    1    2    0    0 -0.61452840474E+02 -0.15022905560E+02  0.26546569656E+03  0.27289957007E+03  0.00000000000E+00 0.  1.
         11    1    1    2    0    0  0.53804712917E+01 -0.64517886114E+02  0.23866452916E+03  0.24728983921E+03  0.00000000000E+00 0. -1.
</event>
<event>
 7    1  0.2612213E-009  0.9834122E+02  0.7561462E-02  0.1283823E+00
         -4   -1    0    0    0  501 -0.00000000000E+00  0.00000000000E+00  0.28704713930E+03  0.28704713930E+03  0.00000000000E+00 0.  1.
          4   -1    0    0  501    0  0.00000000000E+00 -0.00000000000E+00 -0.54048867658E+02  0.54048867658E+02  0.00000000000E+00 0. -1.
         25    2    1    2    0    0 -0.36596865422E+02  0.34094589224E+02  0.82559250552E+02  0.15800545600E+03  0.12509165719E+03 0.  0.
          5    1    3    3  502    0 -0.59961807529E+02 -0.83052940691E+01  0.90308074602E+02  0.10879989435E+03  0.41800000000E+01 0.  1.
         -5    1    3    3    0  502  0.23364942107E+02  0.42399883293E+02 -0.77488240498E+01  0.49205561648E+02  0.41800000000E+01 0.  1.
        -11    1    1    2    0    0  0.55478794128E+02 -0.93096982988E+01  0.13890924672E+03  0.14986776139E+03  0.00000000000E+00 0.  1.
         11    1    1    2    0    0 -0.18881928706E+02 -0.24784890926E+02  0.11529774371E+02  0.33222789572E+02  0.00000000000E+00 0. -1.
</event>
<event>
 7    1  0.2612213E-009  0.9486826E+02  0.7561462E-02  0.1291473E+00
          1   -1    0    0  501    0  0.00000000000E+00  0.00000000000E+00  0.16336636773E+03  0.16336636773E+03  0.00000000000E+00 0. -1.
         -1   -1    0    0    0  501 -0.00000000000E+00 -0.00000000000E+00 -0.94657177393E+02  0.94657177393E+02  0.00000000000E+00 0.  1.
         25    2    1    2    0    0  0.22703136086E+02 -0.54608149957E+02  0.48208604550E+02  0.14652102115E+03  0.12508740007E+03 0.  0.
          5    1    3    3  502    0  0.64759032823E+02 -0.80305483405E+01  0.51953629697E+02  0.83515711561E+02  0.41800000000E+01 0.  1.
         -5    1    3    3    0  502 -0.42055896737E+02 -0.46577601616E+02 -0.37450251469E+01  0.63005309586E+02  0.41800000000E+01 0.  1.
        -11    1    1    2    0    0 -0.23404314562E+02  0.36672150231E+02 -0.33300435190E+02  0.54786198322E+02  0.00000000000E+00 0.  1.
         11    1    1    2    0    0  0.70117847582E+00  0.17935999726E+02  0.53801020975E+02  0.56716325652E+02  0.00000000000E+00 0. -1.
</event>
<event>
 7    1  0.2612213E-009  0.9885260E+02  0.7561462E-02  0.1282727E+00
         -1   -1    0    0    0  501 -0.00000000000E+00  0.00000000000E+00  0.18926517028E+03  0.18926517028E+03  0.00000000000E+00 0.  1.
          1   -1    0    0  501    0  0.00000000000E+00 -0.00000000000E+00 -0.68442204910E+02  0.68442204910E+02  0.00000000000E+00 0. -1.
         25    2    1    2    0    0 -0.31694648134E+02 -0.12824338021E+02  0.73843494993E+02  0.14922871562E+03  0.12508930188E+03 0.  0.
          5    1    3    3  502    0  0.79020010173E+01  0.51878746991E+02  0.39707136299E+02  0.65939177144E+02  0.41800000000E+01 0. -1.
         -5    1    3    3    0  502 -0.39596649151E+02 -0.64703085012E+02  0.34136358694E+02  0.83289538473E+02  0.41800000000E+01 0. -1.
        -11    1    1    2    0    0 -0.18020427926E+02  0.54750337448E+01 -0.18189157561E+02  0.26183148587E+02  0.00000000000E+00 0. -1.
         11    1    1    2    0    0  0.49715076060E+02  0.73493042766E+01  0.65168627938E+02  0.82295510985E+02  0.00000000000E+00 0.  1.
</event>
<event>
 7    1  0.2612213E-009  0.1240480E+03  0.7561462E-02  0.1236565E+00
         -1   -1    0    0    0  501 -0.00000000000E+00  0.00000000000E+00  0.61075184366E+02  0.61075184366E+02  0.00000000000E+00 0.  1.
          1   -1    0    0  501    0  0.00000000000E+00 -0.00000000000E+00 -0.33551722889E+03  0.33551722889E+03  0.00000000000E+00 0. -1.
         25    2    1    2    0    0  0.62945908199E+02 -0.63590872390E+02 -0.16108720882E+03  0.22271492286E+03  0.12508741587E+03 0.  0.
          5    1    3    3  502    0  0.59566489614E+02 -0.79590119699E+02 -0.51883540417E+02  0.11221465147E+03  0.41800000000E+01 0.  1.
         -5    1    3    3    0  502  0.33794185852E+01  0.15999247309E+02 -0.10920366841E+03  0.11050027139E+03  0.41800000000E+01 0.  1.
        -11    1    1    2    0    0  0.15022011439E+02  0.50464603644E+02 -0.41545978786E+02  0.67070152840E+02  0.00000000000E+00 0.  1.
         11    1    1    2    0    0 -0.77967919638E+02  0.13126268745E+02 -0.71808856916E+02  0.10680733755E+03  0.00000000000E+00 0. -1.
</event>
<event>
 6    1  0.2612213E-009  0.1380147E+03  0.7561462E-02  0.1216026E+00
          2   -1    0    0  501    0  0.00000000000E+00  0.00000000000E+00  0.33476372815E+03  0.33476372815E+03  0.00000000000E+00 0. -1.
         -2   -1    0    0    0  501 -0.00000000000E+00 -0.00000000000E+00 -0.11089319769E+03  0.11089319769E+03  0.00000000000E+00 0.  1.
          5    1    1    2  502    0  0.91627250224E+02 -0.64353101551E+02 -0.35809855679E+02  0.11762947261E+03  0.41800000000E+01 0.  1.
         -5    1    1    2    0  502  0.16224060523E+02  0.43966490393E+02  0.15310713465E+02  0.49478912317E+02  0.41800000000E+01 0.  1.
        -11    1    1    2    0    0 -0.42420365602E+02  0.28346017992E+02  0.43188203602E+02  0.66844633922E+02  0.00000000000E+00 0.  1.
         11    1    1    2    0    0 -0.65430945144E+02 -0.79594068334E+01  0.20118146907E+03  0.21170390700E+03  0.00000000000E+00 0. -1.
</event>
<event>
 7    1  0.2612213E-009  0.1045495E+03  0.7561462E-02  0.1271010E+00
          2   -1    0    0  501    0  0.00000000000E+00  0.00000000000E+00  0.79053304256E+02  0.79053304256E+02  0.00000000000E+00 0. -1.
         -2   -1    0    0    0  501 -0.00000000000E+00 -0.00000000000E+00 -0.15820271418E+03  0.15820271418E+03  0.00000000000E+00 0.  1.
         25    2    1    2    0    0 -0.96271505423E+01 -0.40061831018E+02 -0.73725478765E+02  0.15093724842E+03  0.12509586088E+03 0.  0.
          5    1    3    3  502    0 -0.49012717768E+02  0.19696288048E+02 -0.78315042923E+01  0.53563001459E+02  0.41800000000E+01 0.  1.
         -5    1    3    3    0  502  0.39385567225E+02 -0.59758119066E+02 -0.65893974473E+02  0.97374246964E+02  0.41800000000E+01 0.  1.
        -11    1    1    2    0    0 -0.19848349674E+02  0.49612474391E+02 -0.11709516962E+02  0.54703449502E+02  0.00000000000E+00 0.  1.
         11    1    1    2    0    0  0.29475500216E+02 -0.95506433726E+01  0.62855858055E+01  0.31615320507E+02  0.00000000000E+00 0. -1.
</event>
<event>
 7    1  0.2612213E-009  0.1143199E+03  0.7561462E-02  0.1252773E+00
          3   -1    0    0  501    0  0.00000000000E+00  0.00000000000E+00  0.95780681457E+03  0.95780681457E+03  0.00000000000E+00 0. -1.
         -3   -1    0    0    0  501 -0.00000000000E+00 -0.00000000000E+00 -0.25641648567E+02  0.25641648567E+02  0.00000000000E+00 0.  1.
         25    2    1    2    0    0  0.25433915263E+02  0.48729623073E+02  0.81131178043E+03  0.82273669528E+03  0.12508958583E+03 0.  0.
          5    1    3    3  502    0 -0.38074645322E+02  0.59637457789E+02  0.47813650461E+03  0.48336145319E+03  0.41800000000E+01 0. -1.
         -5    1    3    3    0  502  0.63508560585E+02 -0.10907834715E+02  0.33317527582E+03  0.33937524209E+03  0.41800000000E+01 0. -1.
        -11    1    1    2    0    0 -0.15791910996E+02 -0.68976804890E+02  0.50669453388E+02  0.87032049110E+02  0.00000000000E+00 0.  1.
         11    1    1    2    0    0 -0.96420042673E+01  0.20247181816E+02  0.70183932185E+02  0.73679718747E+02  0.00000000000E+00 0. -1.
</event>
<event>
 7    1  0.2612213E-009  0.1532013E+03  0.7561462E-02  0.1196594E+00
          2   -1    0    0  501    0  0.00000000000E+00  0.00000000000E+00  0.65700254249E+03  0.65700254249E+03  0.00000000000E+00 0. -1.
         -2   -1    0    0    0  501 -0.00000000000E+00 -0.00000000000E+00 -0.13772658193E+03  0.13772658193E+03  0.00000000000E+00 0.  1.
         25    2    1    2    0    0  0.39775909961E+02  0.11816971679E+03  0.59480397161E+03  0.62047459895E+03  0.12510299088E+03 0.  0.
          5    1    3    3  502    0  0.38633359013E+02 -0.15823550987E+02  0.16476074512E+03  0.17001910695E+03  0.41800000000E+01 0.  1.
         -5    1    3    3    0  502  0.11425509479E+01  0.13399326777E+03  0.43004322648E+03  0.45045549200E+03  0.41800000000E+01 0.  1.
        -11    1    1    2    0    0 -0.43794443627E+02 -0.73691402960E+02  0.90867974055E+00  0.85727486034E+02  0.00000000000E+00 0. -1.
         11    1    1    2    0    0  0.40185336666E+01 -0.44478313828E+02 -0.76436690787E+02  0.88527039441E+02  0.00000000000E+00 0.  1.
</event>
<event>
 7    1  0.2944769E-009  0.7139579E+02  0.7561462E-02  0.1355410E+00
         -1   -1    0    0    0  501 -0.00000000000E+00  0.00000000000E+00  0.27056433640E+02  0.27056433640E+02  0.00000000000E+00 0.  1.
          1   -1    0    0  501    0  0.00000000000E+00 -0.00000000000E+00 -0.56000039269E+03  0.56000039269E+03  0.00000000000E+00 0. -1.
         25    2    1    2    0    0  0.57995998439E+02  0.34341213628E+01 -0.30597839921E+03  0.33562705813E+03  0.12508961724E+03 0.  0.
          5    1    3    3  502    0  0.10975404173E+02  0.14365896689E+02  0.63120252891E+01  0.19599809889E+02  0.41800000000E+01 0.  1.
         -5    1    3    3    0  502  0.47020594266E+02 -0.10931775326E+02 -0.31229042450E+03  0.31602724824E+03  0.41800000000E+01 0.  1.
        -11    1    1    2    0    0  0.26825093460E+01  0.12711018389E+02  0.27572837588E+01  0.13280378708E+02  0.00000000000E+00 0.  1.
         11    1    1    2    0    0 -0.60678507785E+02 -0.16145139752E+02 -0.22972284360E+03  0.23814938950E+03  0.00000000000E+00 0. -1.
</event>
<event>
 7    1  0.2612213E-009  0.1188978E+03  0.7561462E-02  0.1244926E+00
          2   -1    0    0  501    0  0.00000000000E+00  0.00000000000E+00  0.23648982043E+03  0.23648982043E+03  0.00000000000E+00 0. -1.
         -2   -1    0    0    0  501 -0.00000000000E+00 -0.00000000000E+00 -0.89131043282E+02  0.89131043282E+02  0.00000000000E+00 0.  1.
         25    2    1    2    0    0 -0.10758122278E+03  0.20145785401E+02  0.89028167115E+02  0.18855517633E+03  0.12508983898E+03 0.  0.
          5    1    3    3  502    0 -0.53290879346E+02  0.36844380728E+02  0.11011007313E+03  0.12782459394E+03  0.41800000000E+01 0. -1.
         -5    1    3    3    0  502 -0.54290343436E+02 -0.16698595327E+02 -0.21081906011E+02  0.60730582390E+02  0.41800000000E+01 0. -1.
        -11    1    1    2    0    0  0.63770556454E+02 -0.30819133336E+02  0.10969448867E+02  0.71671693565E+02  0.00000000000E+00 0.  1.
         11    1    1    2    0    0  0.43810666328E+02  0.10673347935E+02  0.47361161171E+02  0.65393993820E+02  0.00000000000E+00 0. -1.
</event>
<event>
 7    1  0.2612213E-009  0.1272927E+03  0.7561462E-02  0.1231529E+00
          1   -1    0    0  501    0  0.00000000000E+00  0.00000000000E+00  0.82246166803E+02  0.82246166803E+02  0.00000000000E+00 0. -1.
         -1   -1    0    0    0  501 -0.00000000000E+00 -0.00000000000E+00 -0.29119637594E+03  0.29119637594E+03  0.00000000000E+00 0.  1.
         25    2    1    2    0    0  0.11627027364E+02 -0.97889025521E+02 -0.16044581156E+03  0.22607227277E+03  0.12509342502E+03 0.  0.
          5    1    3    3  502    0 -0.52993984185E+02 -0.39570375385E+02 -0.10018894147E+03  0.12012274289E+03  0.41800000000E+01 0.  1.
         -5    1    3    3    0  502  0.64621011548E+02 -0.58318650135E+02 -0.60256870094E+02  0.10594952987E+03  0.41800000000E+01 0.  1.
        -11    1    1    2    0    0  0.60552275255E+01  0.11572091521E+02 -0.57349567526E+02  0.58817956255E+02  0.00000000000E+00 0.  1.
         11    1    1    2    0    0 -0.17682254889E+02  0.86316934000E+02  0.88451699528E+01  0.88552313717E+02  0.00000000000E+00 0. -1.
</event>
<event>
 7    1  0.2612213E-009  0.1335631E+03  0.7561462E-02  0.1222262E+00
         -1   -1    0    0    0  501 -0.00000000000E+00  0.00000000000E+00  0.26917695358E+02  0.26917695358E+02  0.00000000000E+00 0.  1.
          1   -1    0    0  501    0  0.00000000000E+00 -0.00000000000E+00 -0.70946742166E+03  0.70946742166E+03  0.00000000000E+00 0. -1.
         25    2    1    2    0    0 -0.55352331230E+02  0.63334249040E+02 -0.44209500286E+03  0.46708739652E+03  0.12509011456E+03 0.  0.
          5    1    3    3  502    0 -0.74380663754E+02 -0.96247683642E+01 -0.21163389497E+03  0.22456958211E+03  0.41800000000E+01 0.  1.
         -5    1    3    3    0  502  0.19028332524E+02  0.72959017404E+02 -0.23046110789E+03  0.24251781442E+03  0.41800000000E+01 0.  1.
        -11    1    1    2    0    0 -0.74381729521E+01 -0.52195588169E+02 -0.72497017952E+02  0.89641081280E+02  0.00000000000E+00 0. -1.
         11    1    1    2    0    0  0.62790504182E+02 -0.11138660870E+02 -0.16795770549E+03  0.17965663922E+03  0.00000000000E+00 0.  1.
</event>
<event>
 7    1  0.2612213E-009  0.2541168E+03  0.7561462E-02  0.1110730E+00
          1   -1    0    0  501    0  0.00000000000E+00  0.00000000000E+00  0.43869563944E+03  0.43869563944E+03  0.00000000000E+00 0. -1.
         -1   -1    0    0    0  501 -0.00000000000E+00 -0.00000000000E+00 -0.15563649269E+03  0.15563649269E+03  0.00000000000E+00 0.  1.
         25    2    1    2    0    0  0.84312312124E+02 -0.22194016232E+03  0.15722953924E+03  0.31102212149E+03  0.12509048892E+03 0.  0.
          5    1    3    3  502    0  0.10950266612E+03 -0.14790607637E+03  0.13887006014E+03  0.23058492431E+03  0.41800000000E+01 0. -1.
         -5    1    3    3    0  502 -0.25190353999E+02 -0.74034085950E+02  0.18359479099E+02  0.80437197178E+02  0.41800000000E+01 0. -1.
        -11    1    1    2    0    0 -0.17409161082E+02  0.39979045564E+01 -0.73103403739E+01  0.19300342142E+02  0.00000000000E+00 0.  1.
         11    1    1    2    0    0 -0.66903151042E+02  0.21794225776E+03  0.13313994788E+03  0.26400966850E+03  0.00000000000E+00 0. -1.
</event>
<event>
 7    1  0.2612213E-009  0.1516435E+03  0.7561462E-02  0.1198468E+00
         -2   -1    0    0    0  501 -0.00000000000E+00  0.00000000000E+00  0.17490083755E+02  0.17490083755E+02  0.00000000000E+00 0.  1.
          2   -1    0    0  501    0  0.00000000000E+00 -0.00000000000E+00 -0.16199587098E+04  0.16199587098E+04  0.00000000000E+00 0. -1.
         25    2    1    2    0    0  0.12240157528E+03  0.38678925104E+02 -0.93011856563E+03  0.94723084380E+03  0.12509004931E+03 0.  0.
          5    1    3    3  502    0  0.57538818282E+02  0.75360995021E+02 -0.36214912700E+03  0.37437876244E+03  0.41800000000E+01 0. -1.
         -5    1    3    3    0  502  0.64862757000E+02 -0.36682069917E+02 -0.56796943863E+03  0.57285208136E+03  0.41800000000E+01 0. -1.
        -11    1    1    2    0    0 -0.10950663444E+03 -0.46159526271E+02 -0.66068820879E+03  0.67129078206E+03  0.00000000000E+00 0. -1.
         11    1    1    2    0    0 -0.12894940843E+02  0.74806011665E+01 -0.11661851602E+02  0.18927167668E+02  0.00000000000E+00 0.  1.
</event>
<event>
 7    1  0.2612213E-009  0.1050076E+03  0.7561462E-02  0.1270105E+00
          2   -1    0    0  501    0  0.00000000000E+00  0.00000000000E+00  0.27033690217E+03  0.27033690217E+03  0.00000000000E+00 0. -1.
         -2   -1    0    0    0  501 -0.00000000000E+00 -0.00000000000E+00 -0.53195676452E+02  0.53195676452E+02  0.00000000000E+00 0.  1.
         25    2    1    2    0    0 -0.10062565196E+02  0.50444622429E+02  0.12113835130E+03  0.18156966410E+03  0.12508847915E+03 0.  0.
          5    1    3    3  502    0  0.25676334255E+02 -0.17135334960E+02  0.96091374347E+02  0.10101444683E+03  0.41800000000E+01 0.  1.
         -5    1    3    3    0  502 -0.35738899450E+02  0.67579957388E+02  0.25046976949E+02  0.80555217266E+02  0.41800000000E+01 0.  1.
        -11    1    1    2    0    0  0.35071652195E+02  0.10347995841E+02  0.20756219786E+02  0.42046670087E+02  0.00000000000E+00 0.  1.
         11    1    1    2    0    0 -0.25009087000E+02 -0.60792618270E+02  0.75246654640E+02  0.99916244441E+02  0.00000000000E+00 0. -1.
</event>
<event>
 7    1  0.2612213E-009  0.1167753E+03  0.7561462E-02  0.1248514E+00
         -4   -1    0    0    0  501 -0.00000000000E+00  0.00000000000E+00  0.14036098509E+03  0.14036098509E+03  0.00000000000E+00 0.  1.
          4   -1    0    0  501    0  0.00000000000E+00 -0.00000000000E+00 -0.14394308526E+03  0.14394308526E+03  0.00000000000E+00 0. -1.
         25    2    1    2    0    0  0.45000831134E+02 -0.57907736629E+02 -0.56939482757E+02  0.15577868550E+03  0.12508602398E+03 0.  0.
          5    1    3    3  502    0  0.25649914772E+02  0.22211437921E+02  0.22742656292E+02  0.41060527488E+02  0.41800000000E+01 0. -1.
         -5    1    3    3    0  502  0.19350916361E+02 -0.80119174550E+02 -0.79682139049E+02  0.11471815801E+03  0.41800000000E+01 0. -1.
        -11    1    1    2    0    0  0.25177487916E+02  0.34794513231E+02  0.17175097051E+02  0.46255248432E+02  0.00000000000E+00 0.  1.
         11    1    1    2    0    0 -0.70178319050E+02  0.23113223398E+02  0.36182285536E+02  0.82270136424E+02  0.00000000000E+00 0. -1.
</event>
<event>
 7    1  0.2612213E-009  0.1099960E+03  0.7561462E-02  0.1260577E+00
          2   -1    0    0  501    0  0.00000000000E+00  0.00000000000E+00  0.78829583673E+03  0.78829583673E+03  0.00000000000E+00 0. -1.
         -2   -1    0    0    0  501 -0.00000000000E+00 -0.00000000000E+00 -0.28461133914E+02  0.28461133914E+02  0.00000000000E+00 0.  1.
         25    2    1    2    0    0 -0.33149087588E+01  0.75713101100E+02  0.21116682659E+03  0.25687161045E+03  0.12509249901E+03 0.  0.
          5    1    3    3  502    0  0.18611635316E+02  0.83527798257E+02  0.61792073169E+02  0.10563625683E+03  0.41800000000E+01 0.  1.
         -5    1    3    3    0  502 -0.21926544075E+02 -0.78146971564E+01  0.14937475342E+03  0.15123535362E+03  0.41800000000E+01 0.  1.
        -11    1    1    2    0    0  0.30575413929E+02 -0.77531674757E+02  0.44091982845E+03  0.44872743581E+03  0.00000000000E+00 0.  1.
         11    1    1    2    0    0 -0.27260505170E+02  0.18185736570E+01  0.10774804778E+03  0.11115792438E+03  0.00000000000E+00 0. -1.
</event>
<event>
 7    1  0.2612213E-009  0.1029045E+03  0.7561462E-02  0.1274304E+00
          2   -1    0    0  501    0  0.00000000000E+00  0.00000000000E+00  0.14795337182E+03  0.14795337182E+03  0.00000000000E+00 0. -1.
         -2   -1    0    0    0  501 -0.00000000000E+00 -0.00000000000E+00 -0.93202085597E+02  0.93202085597E+02  0.00000000000E+00 0.  1.
         25    2    1    2    0    0 -0.42589627230E+02 -0.15969033225E+02  0.39871928874E+01  0.13316427573E+03  0.12509172736E+03 0.  0.
          5    1    3    3  502    0 -0.52243438375E+02  0.43831786195E+02 -0.14192959325E+02  0.69781909036E+02  0.41800000000E+01 0.  1.
         -5    1    3    3    0  502  0.96538111451E+01 -0.59800819420E+02  0.18180152213E+02  0.63382366691E+02  0.41800000000E+01 0.  1.
        -11    1    1    2    0    0 -0.15003012210E+02 -0.44697741574E+01 -0.12498507354E+02  0.20032022925E+02  0.00000000000E+00 0.  1.
         11    1    1    2    0    0  0.57592639440E+02  0.20438807382E+02  0.63262600692E+02  0.87959158768E+02  0.00000000000E+00 0. -1.
</event>
<event>
 7    1  0.2612213E-009  0.1629122E+03  0.7561462E-02  0.1185448E+00
         -2   -1    0    0    0  501 -0.00000000000E+00  0.00000000000E+00  0.36997263171E+02  0.36997263171E+02  0.00000000000E+00 0.  1.
          2   -1    0    0  501    0  0.00000000000E+00 -0.00000000000E+00 -0.84660552321E+03  0.84660552321E+03  0.00000000000E+00 0. -1.
         25    2    1    2    0    0  0.13127799397E+03  0.39390935003E+02 -0.35843524595E+03  0.40362022463E+03  0.12509157738E+03 0.  0.
          5    1    3    3  502    0  0.93987371959E+02  0.81752638863E+02 -0.20306447079E+03  0.23826407985E+03  0.41800000000E+01 0. -1.
         -5    1    3    3    0  502  0.37290622013E+02 -0.42361703860E+02 -0.15537077515E+03  0.16535614478E+03  0.41800000000E+01 0. -1.
        -11    1    1    2    0    0 -0.70558755623E+02  0.28693179854E+01 -0.33420067434E+03  0.34157994922E+03  0.00000000000E+00 0. -1.
         11    1    1    2    0    0 -0.60719238349E+02 -0.42260252988E+02 -0.11697233975E+03  0.13840261253E+03  0.00000000000E+00 0.  1.
</event>
<event>
 7    1  0.2612213E-009  0.1117185E+03  0.7561462E-02  0.1257420E+00
          2   -1    0    0  501    0  0.00000000000E+00  0.00000000000E+00  0.77632095675E+02  0.77632095675E+02  0.00000000000E+00 0. -1.
         -2   -1    0    0    0  501 -0.00000000000E+00 -0.00000000000E+00 -0.32666219930E+03  0.32666219930E+03  0.00000000000E+00 0.  1.
         25    2    1    2    0    0  0.86072182387E+02  0.49543147891E+02 -0.50864330633E+02  0.16762352210E+03  0.12509005135E+03 0.  0.
          5    1    3    3  502    0 -0.25797488581E+01  0.20803596874E+02  0.34884970407E+02  0.40913057908E+02  0.41800000000E+01 0. -1.
         -5    1    3    3    0  502  0.88651931245E+02  0.28739551017E+02 -0.85749301040E+02  0.12671046419E+03  0.41800000000E+01 0. -1.
        -11    1    1    2    0    0 -0.75830673867E+02 -0.21351451211E+02 -0.18984836282E+03  0.20554458502E+03  0.00000000000E+00 0.  1.
         11    1    1    2    0    0 -0.10241508520E+02 -0.28191696680E+02 -0.83174101776E+01  0.31126187857E+02  0.00000000000E+00 0. -1.
</event>
<event>
 7    1  0.3229529E-009  0.2101221E+03  0.7561462E-02  0.1141469E+00
          2   -1    0    0  501    0  0.00000000000E+00  0.00000000000E+00  0.82493862609E+03  0.82493862609E+03  0.00000000000E+00 0. -1.
         -2   -1    0    0    0  501 -0.00000000000E+00 -0.00000000000E+00 -0.62486795334E+02  0.62486795334E+02  0.00000000000E+00 0.  1.
         25    2    1    2    0    0 -0.12761131437E+03  0.15283867030E+03  0.39409828219E+03  0.45891730226E+03  0.12508927849E+03 0.  0.
          5    1    3    3  502    0 -0.10883890833E+03  0.15584467141E+03  0.39607889028E+03  0.43935114578E+03  0.41800000000E+01 0.  1.
         -5    1    3    3    0  502 -0.18772406032E+02 -0.30060011119E+01 -0.19806080863E+01  0.19566156478E+02  0.41800000000E+01 0.  1.
        -11    1    1    2    0    0  0.53401936239E+02 -0.11619935504E+03  0.27786094093E+03  0.30587703313E+03  0.00000000000E+00 0. -1.
         11    1    1    2    0    0  0.74209378127E+02 -0.36639315266E+02  0.90492607639E+02  0.12263108604E+03  0.00000000000E+00 0.  1.
</event>
<event>
 7    1  0.2612213E-009  0.1448197E+03  0.7561462E-02  0.1206987E+00
          1   -1    0    0  501    0  0.00000000000E+00  0.00000000000E+00  0.47283505725E+03  0.47283505725E+03  0.00000000000E+00 0. -1.
         -1   -1    0    0    0  501 -0.00000000000E+00 -0.00000000000E+00 -0.60983257269E+02  0.60983257269E+02  0.00000000000E+00 0.  1.
         25    2    1    2    0    0 -0.11258281440E+03  0.33834170114E+02  0.12996798102E+03  0.21530904592E+03  0.12508664197E+03 0.  0.
          5    1    3    3  502    0 -0.42889306398E+02  0.58521317227E+02  0.12040672631E+03  0.14063957236E+03  0.41800000000E+01 0.  1.
         -5    1    3    3    0  502 -0.69693508003E+02 -0.24687147113E+02  0.95612547133E+01  0.74669473563E+02  0.41800000000E+01 0.  1.
        -11    1    1    2    0    0  0.72125324809E+02 -0.60763081264E+02  0.14237267187E+03  0.17077526817E+03  0.00000000000E+00 0.  1.
         11    1    1    2    0    0  0.40457489593E+02  0.26928911149E+02  0.13951114708E+03  0.14773400042E+03  0.00000000000E+00 0. -1.
</event>
<event>
 7    1  0.2612213E-009  0.1471608E+03  0.7561462E-02  0.1204006E+00
         -2   -1    0    0    0  501 -0.00000000000E+00  0.00000000000E+00  0.17853212624E+02  0.17853212624E+02  0.00000000000E+00 0.  1.
          2   -1    0    0  501    0  0.00000000000E+00 -0.00000000000E+00 -0.19808719695E+04  0.19808719695E+04  0.00000000000E+00 0. -1.
         25    2    1    2    0    0  0.11539204983E+03 -0.41435247561E+02 -0.15272143054E+04  0.15372254555E+04  0.12508541749E+03 0.  0.
          5    1    3    3  502    0  0.11943756538E+03 -0.11739665857E+02 -0.14382732756E+04  0.14432777416E+04  0.41800000000E+01 0.  1.
         -5    1    3    3    0  502 -0.40455155441E+01 -0.29695581704E+02 -0.88941029753E+02  0.93947713875E+02  0.41800000000E+01 0.  1.
        -11    1    1    2    0    0 -0.20954032249E+02 -0.21865822300E+02 -0.43149719507E+02  0.52717017612E+02  0.00000000000E+00 0.  1.
         11    1    1    2    0    0 -0.94438017582E+02  0.63301069861E+02 -0.39265473205E+03  0.40878270904E+03  0.00000000000E+00 0. -1.
</event>
<event>
 7    1  0.2612213E-009  0.6290123E+02  0.7561462E-02  0.1386045E+00
          1   -1    0    0  501    0  0.00000000000E+00  0.00000000000E+00  0.12366753963E+03  0.12366753963E+03  0.00000000000E+00 0. -1.
         -1   -1    0    0    0  501 -0.00000000000E+00 -0.00000000000E+00 -0.12587169533E+03  0.12587169533E+03  0.00000000000E+00 0.  1.
         25    2    1    2    0    0  0.98438758098E+01 -0.13840189720E+02 -0.61327458619E+02  0.14034644334E+03  0.12509042424E+03 0.  0.
          5    1    3    3  502    0 -0.26512918978E+02 -0.23224967378E+02 -0.87473996181E+02  0.94400775369E+02  0.41800000000E+01 0.  1.
         -5    1    3    3    0  502  0.36356794787E+02  0.93847776580E+01  0.26146537562E+02  0.45945667972E+02  0.41800000000E+01 0.  1.
        -11    1    1    2    0    0  0.73296863028E+01 -0.16281233458E+02  0.70480475976E+02  0.72706948485E+02  0.00000000000E+00 0. -1.
         11    1    1    2    0    0 -0.17173562113E+02  0.30121423177E+02 -0.11357173059E+02  0.36485843141E+02  0.00000000000E+00 0.  1.
</event>
<event>
 7    1  0.2612213E-009  0.1473561E+03  0.7561462E-02  0.1203760E+00
         -2   -1    0    0    0  501 -0.00000000000E+00  0.00000000000E+00  0.25070194060E+02  0.25070194060E+02  0.00000000000E+00 0. -1.
          2   -1    0    0  501    0  0.00000000000E+00 -0.00000000000E+00 -0.12822834362E+04  0.12822834362E+04  0.00000000000E+00 0.  1.
         25    2    1    2    0    0 -0.16804671145E+02 -0.11893898185E+03 -0.94715826481E+03  0.96290442409E+03  0.12508906014E+03 0.  0.
          5    1    3    3  502    0  0.69647681499E+01 -0.12782432560E+03 -0.54189803042E+03  0.55682898091E+03  0.41800000000E+01 0. -1.
         -5    1    3    3    0  502 -0.23769439295E+02  0.88853437508E+01 -0.40526023439E+03  0.40607544318E+03  0.41800000000E+01 0. -1.
        -11    1    1    2    0    0  0.29021440752E+02  0.12424746208E+03 -0.30424652439E+03  0.32991760102E+03  0.00000000000E+00 0.  1.
         11    1    1    2    0    0 -0.12216769607E+02 -0.53084802378E+01 -0.58084529070E+01  0.14531605116E+02  0.00000000000E+00 0. -1.
</event>
<event>
 7    1  0.2612213E-009  0.1727129E+03  0.7561462E-02  0.1175048E+00
         -2   -1    0    0    0  501 -0.00000000000E+00  0.00000000000E+00  0.16907031714E+03  0.16907031714E+03  0.00000000000E+00 0.  1.
          2   -1    0    0  501    0  0.00000000000E+00 -0.00000000000E+00 -0.22282574022E+03  0.22282574022E+03  0.00000000000E+00 0. -1.
         25    2    1    2    0    0  0.10499153297E+02 -0.16082634628E+03 -0.40935826685E+02  0.20808748244E+03  0.12509721246E+03 0.  0.
          5    1    3    3  502    0 -0.28671007470E+02 -0.13904887708E+02  0.26542298807E+02  0.41681393900E+02  0.41800000000E+01 0.  1.
         -5    1    3    3    0  502  0.39170160767E+02 -0.14692145857E+03 -0.67478125492E+02  0.16640608854E+03  0.41800000000E+01 0.  1.
        -11    1    1    2    0    0 -0.46829425489E+01  0.59479860492E+02 -0.47786613722E+02  0.76441770036E+02  0.00000000000E+00 0. -1.
         11    1    1    2    0    0 -0.58162107481E+01  0.10134648579E+03  0.34967017327E+02  0.10736680488E+03  0.00000000000E+00 0.  1.
</event>
<event>
 7    1  0.3042801E-009  0.8907928E+02  0.7561462E-02  0.1305097E+00
         -2   -1    0    0    0  501 -0.00000000000E+00  0.00000000000E+00  0.21791721837E+02  0.21791721837E+02  0.00000000000E+00 0.  1.
          2   -1    0    0  501    0  0.00000000000E+00 -0.00000000000E+00 -0.57640125579E+03  0.57640125579E+03  0.00000000000E+00 0. -1.
         25    2    1    2    0    0  0.19021847918E+02 -0.14518564110E+02 -0.27601480583E+03  0.30398384239E+03  0.12509749795E+03 0.  0.
          5    1    3    3  502    0 -0.31890148569E+02 -0.42137813737E+01 -0.23616229632E+03  0.23837961350E+03  0.41800000000E+01 0.  1.
         -5    1    3    3    0  502  0.50911996487E+02 -0.10304782737E+02 -0.39852509508E+02  0.65604228885E+02  0.41800000000E+01 0.  1.
        -11    1    1    2    0    0 -0.55621650016E+02  0.12142600179E+02 -0.18929300898E+03  0.19766905155E+03  0.00000000000E+00 0.  1.
         11    1    1    2    0    0  0.36599802099E+02  0.23759639310E+01 -0.89301719138E+02  0.96540083692E+02  0.00000000000E+00 0. -1.
</event>
<event>
 7    1  0.2612213E-009  0.2290922E+03  0.7561462E-02  0.1127280E+00
          1   -1    0    0  501    0  0.00000000000E+00  0.00000000000E+00  0.25904023966E+03  0.25904023966E+03  0.00000000000E+00 0. -1.
         -1   -1    0    0    0  501 -0.00000000000E+00 -0.00000000000E+00 -0.22543547615E+03  0.22543547615E+03  0.00000000000E+00 0.  1.
         25    2    1    2    0    0  0.14218290643E+02  0.21063488154E+03 -0.43112728920E+02  0.24915016822E+03  0.12509150978E+03 0.  0.
          5    1    3    3  502    0  0.57404680804E+02  0.17562615902E+03 -0.53576411581E+02  0.19242595819E+03  0.41800000000E+01 0. -1.
         -5    1    3    3    0  502 -0.43186390161E+02  0.35008722520E+02  0.10463682661E+02  0.56724210021E+02  0.41800000000E+01 0. -1.
        -11    1    1    2    0    0 -0.22425671242E+02 -0.33629166644E+02 -0.39864050986E+01  0.40616782313E+02  0.00000000000E+00 0.  1.
         11    1    1    2    0    0  0.82073805994E+01 -0.17700571489E+03  0.80703897532E+02  0.19470876528E+03  0.00000000000E+00 0. -1.
</event>
<event>
 7    1  0.2612213E-009  0.1207229E+03  0.7561462E-02  0.1241909E+00
          2   -1    0    0  501    0  0.00000000000E+00  0.00000000000E+00  0.27276909455E+02  0.27276909455E+02  0.00000000000E+00 0.  1.
         -2   -1    0    0    0  501 -0.00000000000E+00 -0.00000000000E+00 -0.82291823220E+03  0.82291823220E+03  0.00000000000E+00 0. -1.
         25    2    1    2    0    0  0.98161448881E+02 -0.23778407123E+02 -0.37295357642E+03  0.40613132802E+03  0.12508877943E+03 0.  0.
          5    1    3    3  502    0  0.10503847285E+02 -0.24567238289E+02 -0.45559182569E+01  0.27424602023E+02  0.41800000000E+01 0. -1.
         -5    1    3    3    0  502  0.87657601595E+02  0.78883116595E+00 -0.36839765816E+03  0.37870672599E+03  0.41800000000E+01 0. -1.
        -11    1    1    2    0    0 -0.18199238183E+01 -0.20522197982E+02 -0.24563121390E+02  0.32059626715E+02  0.00000000000E+00 0.  1.
         11    1    1    2    0    0 -0.96341525063E+02  0.44300605105E+02 -0.39812462493E+03  0.41200418692E+03  0.00000000000E+00 0. -1.
</event>
<event>
 7    1  0.2612213E-009  0.1291534E+03  0.7561462E-02  0.1228717E+00
         -1   -1    0    0    0  501 -0.00000000000E+00  0.00000000000E+00  0.53043331048E+02  0.53043331048E+02  0.00000000000E+00 0.  1.
          1   -1    0    0  501    0  0.00000000000E+00 -0.00000000000E+00 -0.38145724977E+03  0.38145724977E+03  0.00000000000E+00 0. -1.
         25    2    1    2    0    0 -0.78176702174E+02 -0.45095664386E+02 -0.20988811808E+03  0.26047271461E+03  0.12509115571E+03 0.  0.
          5    1    3    3  502    0 -0.14128175265E+02 -0.70206868636E+02 -0.16013560519E+03  0.17546935399E+03  0.41800000000E+01 0.  1.
         -5    1    3    3    0  502 -0.64048526909E+02  0.25111204250E+02 -0.49752512887E+02  0.85003360620E+02  0.41800000000E+01 0.  1.
        -11    1    1    2    0    0  0.32365083179E+02  0.61082757360E+02 -0.35124648848E+02  0.77539298505E+02  0.00000000000E+00 0.  1.
         11    1    1    2    0    0  0.45811618995E+02 -0.15987092975E+02 -0.83401151802E+02  0.96488567710E+02  0.00000000000E+00 0. -1.
</event>
<event>
 6    1  0.2612213E-009  0.1272913E+03  0.7561462E-02  0.1231531E+00
         -1   -1    0    0    0  501 -0.00000000000E+00  0.00000000000E+00  0.55801619348E+03  0.55801619348E+03  0.00000000000E+00 0.  1.
          1   -1    0    0  501    0  0.00000000000E+00 -0.00000000000E+00 -0.30676783199E+02  0.30676783199E+02  0.00000000000E+00 0. -1.
          5    1    1    2  502    0  0.10382468165E+03  0.14081594013E+02  0.27465315621E+03  0.29398925903E+03  0.41800000000E+01 0. -1.
         -5    1    1    2    0  502 -0.35987506740E+02 -0.77994855359E+01  0.77202448562E+02  0.85636575597E+02  0.41800000000E+01 0. -1.
        -11    1    1    2    0    0 -0.70317074290E+02 -0.38624679272E+02  0.13673545000E+03  0.15853371904E+03  0.00000000000E+00 0.  1.
         11    1    1    2    0    0  0.24798993771E+01  0.32342570796E+02  0.38748355507E+02  0.50533423009E+02  0.00000000000E+00 0. -1.
</event>
<event>
 7    1  0.2612213E-009  0.1306426E+03  0.7561462E-02  0.1226505E+00
          2   -1    0    0  501    0  0.00000000000E+00  0.00000000000E+00  0.33030181669E+03  0.33030181669E+03  0.00000000000E+00 0.  1.
         -2   -1    0    0    0  501 -0.00000000000E+00 -0.00000000000E+00 -0.69317755412E+02  0.69317755412E+02  0.00000000000E+00 0. -1.
         25    2    1    2    0    0  0.26645693585E+02  0.84521500828E+02  0.21528918213E+03  0.26429182611E+03  0.12508741071E+03 0.  0.
          5    1    3    3  502    0  0.48634822768E+02  0.10137358896E+03  0.11798121508E+03  0.16303064140E+03  0.41800000000E+01 0. -1.
         -5    1    3    3    0  502 -0.21989129183E+02 -0.16852088134E+02  0.97307967050E+02  0.10126118471E+03  0.41800000000E+01 0. -1.
        -11    1    1    2    0    0  0.11538479761E+02  0.12185125999E+02  0.23724491742E+02  0.29059685463E+02  0.00000000000E+00 0.  1.
         11    1    1    2    0    0 -0.38184173346E+02 -0.96706626827E+02  0.21970387411E+02  0.10626806053E+03  0.00000000000E+00 0. -1.
</event>
<event>
 7    1  0.2612213E-009  0.9563668E+02  0.7561462E-02  0.1289749E+00
         -1   -1    0    0    0  501 -0.00000000000E+00  0.00000000000E+00  0.25122029589E+03  0.25122029589E+03  0.00000000000E+00 0.  1.
          1   -1    0    0  501    0  0.00000000000E+00 -0.00000000000E+00 -0.64792881079E+02  0.64792881079E+02  0.00000000000E+00 0. -1.
         25    2    1    2    0    0 -0.58241555068E+02 -0.35675274098E+02  0.11750100576E+03  0.18471156138E+03  0.12508825138E+03 0.  0.
          5    1    3    3  502    0 -0.72672703780E+02 -0.52406347883E+02  0.13079006147E+03  0.15859148701E+03  0.41800000000E+01 0. -1.
         -5    1    3    3    0  502  0.14431148711E+02  0.16731073785E+02 -0.13289055712E+02  0.26120074365E+02  0.41800000000E+01 0. -1.
        -11    1    1    2    0    0 -0.16296026622E+01  0.15981484588E+02 -0.17874091231E+02  0.24032199063E+02  0.00000000000E+00 0. -1.
         11    1    1    2    0    0  0.59871157730E+02  0.19693789510E+02  0.86800500283E+02  0.10726941653E+03  0.00000000000E+00 0.  1.
</event>
<event>
 7    1  0.2612213E-009  0.1223344E+03  0.7561462E-02  0.1239295E+00
          2   -1    0    0  501    0  0.00000000000E+00  0.00000000000E+00  0.37590961625E+03  0.37590961625E+03  0.00000000000E+00 0. -1.
         -2   -1    0    0    0  501 -0.00000000000E+00 -0.00000000000E+00 -0.75856203775E+02  0.75856203775E+02  0.00000000000E+00 0.  1.
         25    2    1    2    0    0 -0.91376477415E+02  0.40404271605E+02  0.26958468801E+03  0.31353703806E+03  0.12508958564E+03 0.  0.
          5    1    3    3  502    0  0.22318535292E+02  0.89844810757E+01  0.66242075694E+01  0.25301984976E+02  0.41800000000E+01 0.  1.
         -5    1    3    3    0  502 -0.11369501271E+03  0.31419790529E+02  0.26296048044E+03  0.28823505308E+03  0.41800000000E+01 0.  1.
        -11    1    1    2    0    0  0.10787430716E+02 -0.13449885914E+02 -0.29536923797E+02  0.34200847358E+02  0.00000000000E+00 0.  1.
         11    1    1    2    0    0  0.80589046699E+02 -0.26954385691E+02  0.60005648260E+02  0.10402793461E+03  0.00000000000E+00 0. -1.
</event>
<event>
 7    1  0.3076497E-009  0.1219543E+03  0.7561462E-02  0.1239907E+00
          1   -1    0    0  501    0  0.00000000000E+00  0.00000000000E+00  0.37870109818E+03  0.37870109818E+03  0.00000000000E+00 0. -1.
         -1   -1    0    0    0  501 -0.00000000000E+00 -0.00000000000E+00 -0.58154320485E+02  0.58154320485E+02  0.00000000000E+00 0.  1.
         25    2    1    2    0    0  0.99424665657E+02 -0.21409044509E+01  0.15375409414E+03  0.22176103387E+03  0.12509111505E+03 0.  0.
          5    1    3    3  502    0  0.39461053764E+02 -0.47243502509E+02  0.12839367486E+03  0.14244834656E+03  0.41800000000E+01 0. -1.
         -5    1    3    3    0  502  0.59963611892E+02  0.45102598058E+02  0.25360419285E+02  0.79312687314E+02  0.41800000000E+01 0. -1.
        -11    1    1    2    0    0 -0.39251447144E+02  0.20324661770E+02  0.13991085550E+03  0.14672701000E+03  0.00000000000E+00 0. -1.
         11    1    1    2    0    0 -0.60173218512E+02 -0.18183757319E+02  0.26881828062E+02  0.68367374795E+02  0.00000000000E+00 0.  1.
</event>
<event>
 7    1  0.2612213E-009  0.1019699E+03  0.7561462E-02  0.1276207E+00
          1   -1    0    0  501    0  0.00000000000E+00  0.00000000000E+00  0.17284713175E+03  0.17284713175E+03  0.00000000000E+00 0. -1.
         -1   -1    0    0    0  501 -0.00000000000E+00 -0.00000000000E+00 -0.73583185195E+02  0.73583185195E+02  0.00000000000E+00 0.  1.
         25    2    1    2    0    0  0.51900196613E+01  0.31724863509E+02  0.44903777311E+02  0.13674113245E+03  0.12509350430E+03 0.  0.
          5    1    3    3  502    0 -0.28304235858E+02  0.65602125599E+02  0.63271155789E+00  0.71572630066E+02  0.41800000000E+01 0.  1.
         -5    1    3    3    0  502  0.33494255519E+02 -0.33877262090E+02  0.44271065753E+02  0.65168502380E+02  0.41800000000E+01 0.  1.
        -11    1    1    2    0    0 -0.43308673527E+01  0.26230485351E+02  0.43105895079E+02  0.50644969783E+02  0.00000000000E+00 0. -1.
         11    1    1    2    0    0 -0.85915230867E+00 -0.57955348860E+02  0.11254274163E+02  0.59044214714E+02  0.00000000000E+00 0.  1.
</event>
<event>
 7    1  0.2612213E-009  0.1001017E+03  0.7561462E-02  0.1280082E+00
         -1   -1    0    0    0  501 -0.00000000000E+00  0.00000000000E+00  0.20608135810E+02  0.20608135810E+02  0.00000000000E+00 0.  1.
          1   -1    0    0  501    0  0.00000000000E+00 -0.00000000000E+00 -0.71937738274E+03  0.71937738274E+03  0.00000000000E+00 0. -1.
         25    2    1    2    0    0 -0.81018519204E+00 -0.53710896706E+02 -0.39228434572E+03  0.41523478782E+03  0.12508958509E+03 0.  0.
          5    1    3    3  502    0 -0.29928560630E+02  0.35366959427E+01 -0.17779407675E+02  0.35239277757E+02  0.41800000000E+01 0.  1.
         -5    1    3    3    0  502  0.29118375438E+02 -0.57247592649E+02 -0.37450493804E+03  0.37999551006E+03  0.41800000000E+01 0.  1.
        -11    1    1    2    0    0 -0.24738903809E+02 -0.17141101998E+02 -0.11792021959E+03  0.12170048861E+03  0.00000000000E+00 0. -1.
         11    1    1    2    0    0  0.25549089001E+02  0.70851998704E+02 -0.18856468162E+03  0.20305024212E+03  0.00000000000E+00 0.  1.
</event>
<event>
 7    1  0.2612213E-009  0.1612340E+03  0.7561462E-02  0.1187311E+00
         -1   -1    0    0    0  501 -0.00000000000E+00  0.00000000000E+00  0.16900761416E+03  0.16900761416E+03  0.00000000000E+00 0.  1.
          1   -1    0    0  501    0  0.00000000000E+00 -0.00000000000E+00 -0.27604942319E+03  0.27604942319E+03  0.00000000000E+00 0. -1.
         25    2    1    2    0    0 -0.79961542726E+02 -0.12713922955E+03 -0.16857099808E+03  0.25811263344E+03  0.12509083956E+03 0.  0.
          5    1    3    3  502    0 -0.67600859650E+02 -0.11683918751E+03 -0.18867362817E+03  0.23202690001E+03  0.41800000000E+01 0. -1.
         -5    1    3    3    0  502 -0.12360683076E+02 -0.10300042044E+02  0.20102630087E+02  0.26085733431E+02  0.41800000000E+01 0. -1.
        -11    1    1    2    0    0  0.68367458007E+02  0.32950475794E+02  0.51055316254E+02  0.91468510905E+02  0.00000000000E+00 0.  1.
         11    1    1    2    0    0  0.11594084719E+02  0.94188753757E+02  0.10473872798E+02  0.95475893011E+02  0.00000000000E+00 0. -1.
</event>
<event>
 7    1  0.2612213E-009  0.1442016E+03  0.7561462E-02  0.1207785E+00
          1   -1    0    0  501    0  0.00000000000E+00  0.00000000000E+00  0.12629949075E+04  0.12629949075E+04  0.00000000000E+00 0. -1.
         -1   -1    0    0    0  501 -0.00000000000E+00 -0.00000000000E+00 -0.19242144991E+02  0.19242144991E+02  0.00000000000E+00 0.  1.
         25    2    1    2    0    0  0.85453810836E+02  0.84142802786E+02  0.73031933360E+03  0.75059728595E+03  0.12509033371E+03 0.  0.
          5    1    3    3  502    0  0.21808730027E+02  0.87678252286E+02  0.24632168881E+03  0.26240225496E+03  0.41800000000E+01 0. -1.
         -5    1    3    3    0  502  0.63645080809E+02 -0.35354495004E+01  0.48399764480E+03  0.48819503099E+03  0.41800000000E+01 0. -1.
        -11    1    1    2    0    0 -0.14559559143E+02 -0.55897923482E+02  0.16126828797E+03  0.17130096123E+03  0.00000000000E+00 0.  1.
         11    1    1    2    0    0 -0.70894251693E+02 -0.28244879304E+02  0.35216514095E+03  0.36033880534E+03  0.00000000000E+00 0. -1.
</event>
<event>
 7    1  0.2612213E-009  0.1120604E+03  0.7561462E-02  0.1256801E+00
         -1   -1    0    0    0  501 -0.00000000000E+00  0.00000000000E+00  0.17843160120E+03  0.17843160120E+03  0.00000000000E+00 0.  1.
          1   -1    0    0  501    0  0.00000000000E+00 -0.00000000000E+00 -0.10382047968E+03  0.10382047968E+03  0.00000000000E+00 0. -1.
         25    2    1    2    0    0  0.21658038217E+01  0.80399785155E+02  0.68083981170E+02  0.16356018457E+03  0.12509072438E+03 0.  0.
          5    1    3    3  502    0  0.21031818596E+02  0.97642817600E+02  0.86161841145E+02  0.13197648462E+03  0.41800000000E+01 0.  1.
         -5    1    3    3    0  502 -0.18866014774E+02 -0.17243032445E+02 -0.18077859975E+02  0.31583699952E+02  0.41800000000E+01 0.  1.
        -11    1    1    2    0    0  0.25879396832E+02 -0.24140327192E+02  0.34917063149E+02  0.49716193300E+02  0.00000000000E+00 0.  1.
         11    1    1    2    0    0 -0.28045200654E+02 -0.56259457962E+02 -0.28389922794E+02  0.68975703013E+02  0.00000000000E+00 0. -1.
</event>
<event>
 7    1  0.2612213E-009  0.1127190E+03  0.7561462E-02  0.1255616E+00
         -1   -1    0    0    0  501 -0.00000000000E+00  0.00000000000E+00  0.19818982598E+03  0.19818982598E+03  0.00000000000E+00 0.  1.
          1   -1    0    0  501    0  0.00000000000E+00 -0.00000000000E+00 -0.89240270879E+02  0.89240270879E+02  0.00000000000E+00 0. -1.
         25    2    1    2    0    0  0.10327542449E+02 -0.65241781418E+02  0.10357240714E+03  0.17532289110E+03  0.12509086476E+03 0.  0.
          5    1    3    3  502    0  0.18154005421E+02  0.25383561073E+02  0.72612330437E+02  0.79144905187E+02  0.41800000000E+01 0.  1.
         -5    1    3    3    0  502 -0.78264629718E+01 -0.90625342490E+02  0.30960076700E+02  0.96177985908E+02  0.41800000000E+01 0.  1.
        -11    1    1    2    0    0  0.28246229683E+02  0.13725936633E+01  0.21800850688E+02  0.35707290507E+02  0.00000000000E+00 0.  1.
         11    1    1    2    0    0 -0.38573772132E+02  0.63869187754E+02 -0.16423702719E+02  0.76399915261E+02  0.00000000000E+00 0. -1.
</event>
<event>
 7    1  0.2612213E-009  0.9253686E+02  0.7561462E-02  0.1296822E+00
          1   -1    0    0  501    0  0.00000000000E+00  0.00000000000E+00  0.40153354083E+03  0.40153354083E+03  0.00000000000E+00 0.  1.
         -1   -1    0    0    0  501 -0.00000000000E+00 -0.00000000000E+00 -0.35805267969E+02  0.35805267969E+02  0.00000000000E+00 0. -1.
         25    2    1    2    0    0  0.59554636785E+01 -0.50082662874E+02  0.16310322954E+03  0.21165723302E+03  0.12510947260E+03 0.  0.
          5    1    3    3  502    0 -0.47369129121E+02  0.38188818453E+01  0.24533931187E+02  0.53645171560E+02  0.41800000000E+01 0. -1.
         -5    1    3    3    0  502  0.53324592799E+02 -0.53901544719E+02  0.13856929835E+03  0.15801206146E+03  0.41800000000E+01 0. -1.
        -11    1    1    2    0    0 -0.18685476874E+02  0.42950626957E+02  0.20553328292E+03  0.21080283155E+03  0.00000000000E+00 0.  1.
         11    1    1    2    0    0  0.12730013195E+02  0.71320359173E+01 -0.29082395983E+01  0.14878744229E+02  0.00000000000E+00 0. -1.
</event>
<event>
 7    1  0.2612213E-009  0.2534442E+03  0.7561462E-02  0.1111147E+00
          2   -1    0    0  501    0  0.00000000000E+00  0.00000000000E+00  0.59610943216E+03  0.59610943216E+03  0.00000000000E+00 0. -1.
         -2   -1    0    0    0  501 -0.00000000000E+00 -0.00000000000E+00 -0.11255420529E+03  0.11255420529E+03  0.00000000000E+00 0.  1.
         25    2    1    2    0    0  0.20658877857E+03 -0.10997231349E+03  0.22012541745E+03  0.34478398016E+03  0.12509180790E+03 0.  0.
          5    1    3    3  502    0  0.11882011963E+03 -0.12581600774E+03  0.11999732646E+03  0.21062934124E+03  0.41800000000E+01 0. -1.
         -5    1    3    3    0  502  0.87768658945E+02  0.15843694253E+02  0.10012809098E+03  0.13415463892E+03  0.41800000000E+01 0. -1.
        -11    1    1    2    0    0 -0.11082323357E+03  0.19056011867E+02  0.16278891521E+03  0.19785133712E+03  0.00000000000E+00 0. -1.
         11    1    1    2    0    0 -0.95765545006E+02  0.90916301621E+02  0.10064089421E+03  0.16602832017E+03  0.00000000000E+00 0.  1.
</event>
<event>
 7    1  0.2612213E-009  0.2140897E+03  0.7561462E-02  0.1138368E+00
         -2   -1    0    0    0  501 -0.00000000000E+00  0.00000000000E+00  0.54931261550E+02  0.54931261550E+02  0.00000000000E+00 0.  1.
          2   -1    0    0  501    0  0.00000000000E+00 -0.00000000000E+00 -0.11165476646E+04  0.11165476646E+04  0.00000000000E+00 0. -1.
         25    2    1    2    0    0 -0.17929338290E+03 -0.98384244632E+02 -0.73937646648E+03  0.77727110960E+03  0.12508893593E+03 0.  0.
          5    1    3    3  502    0 -0.62207993752E+02 -0.83769603499E+02 -0.49464858411E+03  0.50555106084E+03  0.41800000000E+01 0. -1.
         -5    1    3    3    0  502 -0.11708538915E+03 -0.14614641133E+02 -0.24472788237E+03  0.27172004876E+03  0.41800000000E+01 0. -1.
        -11    1    1    2    0    0  0.61159357704E+02  0.21939000495E+02 -0.33719377563E+02  0.73203710293E+02  0.00000000000E+00 0.  1.
         11    1    1    2    0    0  0.11813402520E+03  0.76445244137E+02 -0.28852055898E+03  0.32100410623E+03  0.00000000000E+00 0. -1.
</event>
<event>
 7    1  0.2612213E-009  0.8434936E+02  0.7561462E-02  0.1317143E+00
         -2   -1    0    0    0  501 -0.00000000000E+00  0.00000000000E+00  0.62868880473E+02  0.62868880473E+02  0.00000000000E+00 0.  1.
          2   -1    0    0  501    0  0.00000000000E+00 -0.00000000000E+00 -0.19694867330E+03  0.19694867330E+03  0.00000000000E+00 0. -1.
         25    2    1    2    0    0 -0.67020515236E+01  0.18502751361E+02 -0.10042471765E+03  0.16161076404E+03  0.12508255608E+03 0.  0.
          5    1    3    3  502    0  0.19385113859E+01  0.69842484641E+02 -0.36110588661E+02  0.78760253305E+02  0.41800000000E+01 0.  1.
         -5    1    3    3    0  502 -0.86405629095E+01 -0.51339733279E+02 -0.64314128990E+02  0.82850510731E+02  0.41800000000E+01 0.  1.
        -11    1    1    2    0    0  0.22488899255E+02 -0.20664030112E+02  0.23713610380E+02  0.38666368429E+02  0.00000000000E+00 0.  1.
         11    1    1    2    0    0 -0.15786847731E+02  0.21612787509E+01 -0.57368685552E+02  0.59540421305E+02  0.00000000000E+00 0. -1.
</event>
<event>
 7    1  0.2612213E-009  0.8931313E+02  0.7561462E-02  0.1304524E+00
          1   -1    0    0  501    0  0.00000000000E+00  0.00000000000E+00  0.14894337032E+03  0.14894337032E+03  0.00000000000E+00 0. -1.
         -1   -1    0    0    0  501 -0.00000000000E+00 -0.00000000000E+00 -0.85163752423E+02  0.85163752423E+02  0.00000000000E+00 0.  1.
         25    2    1    2    0    0 -0.22058066420E+02  0.19114506602E+02  0.24834436806E+02  0.13082535209E+03  0.12508637352E+03 0.  0.
          5    1    3    3  502    0  0.13461781384E+01  0.68541455600E+02  0.31524624795E+02  0.75571275627E+02  0.41800000000E+01 0. -1.
         -5    1    3    3    0  502 -0.23404244559E+02 -0.49426948999E+02 -0.66901879888E+01  0.55254076465E+02  0.41800000000E+01 0. -1.
        -11    1    1    2    0    0 -0.11905277767E+02 -0.17409102987E+02  0.59786332487E+02  0.63397303237E+02  0.00000000000E+00 0. -1.
         11    1    1    2    0    0  0.33963344187E+02 -0.17054036147E+01 -0.20841151392E+02  0.39884467418E+02  0.00000000000E+00 0.  1.
</event>
<event>
 7    1  0.2612213E-009  0.9421953E+02  0.7561462E-02  0.1292944E+00
          2   -1    0    0  501    0  0.00000000000E+00  0.00000000000E+00  0.37264651365E+03  0.37264651365E+03  0.00000000000E+00 0.  1.
         -2   -1    0    0    0  501 -0.00000000000E+00 -0.00000000000E+00 -0.38345669152E+02  0.38345669152E+02  0.00000000000E+00 0. -1.
         25    2    1    2    0    0 -0.27272981066E+02  0.14247432670E+02  0.25803414668E+03  0.28840195070E+03  0.12508900623E+03 0.  0.
          5    1    3    3  502    0  0.33617256992E+02  0.26245037294E+02  0.30708717543E+02  0.52720201852E+02  0.41800000000E+01 0. -1.
         -5    1    3    3    0  502 -0.60890238058E+02 -0.11997604625E+02  0.22732542913E+03  0.23568174884E+03  0.41800000000E+01 0. -1.
        -11    1    1    2    0    0  0.18053716725E+02 -0.46477947215E+02  0.73682448770E+02  0.88967631877E+02  0.00000000000E+00 0.  1.
         11    1    1    2    0    0  0.92192643405E+01  0.32230514546E+02  0.25842490488E+01  0.33622600227E+02  0.00000000000E+00 0. -1.
</event>
<event>
 7    1  0.2612213E-009  0.1182605E+03  0.7561462E-02  0.1245995E+00
         -1   -1    0    0    0  501 -0.00000000000E+00  0.00000000000E+00  0.30507083784E+03  0.30507083784E+03  0.00000000000E+00 0.  1.
          1   -1    0    0  501    0  0.00000000000E+00 -0.00000000000E+00 -0.86926731247E+02  0.86926731247E+02  0.00000000000E+00 0. -1.
         25    2    1    2    0    0 -0.53640137090E+02  0.22799788146E+02  0.24589537181E+03  0.28197418553E+03  0.12509121783E+03 0.  0.
          5    1    3    3  502    0  0.32773037749E+01  0.61679732295E+02  0.72510549105E+02  0.95343495990E+02  0.41800000000E+01 0.  1.
         -5    1    3    3    0  502 -0.56917440865E+02 -0.38879944149E+02  0.17338482271E+03  0.18663068954E+03  0.41800000000E+01 0.  1.
        -11    1    1    2    0    0  0.21854983818E+02  0.34029305246E+02 -0.17665648402E+02  0.44132856996E+02  0.00000000000E+00 0.  1.
         11    1    1    2    0    0  0.31785153272E+02 -0.56829093392E+02 -0.10085616817E+02  0.65890526564E+02  0.00000000000E+00 0. -1.
</event>
<event>
 7    1  0.2612213E-009  0.1527050E+03  0.7561462E-02  0.1197188E+00
          1   -1    0    0  501    0  0.00000000000E+00  0.00000000000E+00  0.19279115358E+02  0.19279115358E+02  0.00000000000E+00 0. -1.
         -1   -1    0    0    0  501 -0.00000000000E+00 -0.00000000000E+00 -0.16103366017E+04  0.16103366017E+04  0.00000000000E+00 0.  1.
         25    2    1    2    0    0  0.13032033008E+03  0.39335668782E+02 -0.73583469260E+03  0.75870377273E+03  0.12509211266E+03 0.  0.
          5    1    3    3  502    0  0.37040925907E+02  0.38846216026E+02 -0.81094016453E+02  0.97338433294E+02  0.41800000000E+01 0. -1.
         -5    1    3    3    0  502  0.93279404176E+02  0.48945275692E+00 -0.65474067615E+03  0.66136533944E+03  0.41800000000E+01 0. -1.
        -11    1    1    2    0    0  0.11300100168E+02 -0.33395564746E+00 -0.20946649310E+02  0.23802644968E+02  0.00000000000E+00 0. -1.
         11    1    1    2    0    0 -0.14162043025E+03 -0.39001713135E+02 -0.83427614439E+03  0.84710929932E+03  0.00000000000E+00 0.  1.
</event>
<event>
 6    1  0.2612213E-009  0.1728573E+03  0.7561462E-02  0.1174901E+00
          1   -1    0    0  501    0  0.00000000000E+00  0.00000000000E+00  0.11914058551E+04  0.11914058551E+04  0.00000000000E+00 0. -1.
         -1   -1    0    0    0  501 -0.00000000000E+00 -0.00000000000E+00 -0.29508554939E+02  0.29508554939E+02  0.00000000000E+00 0.  1.
          5    1    1    2  502    0 -0.10382736783E+03 -0.68026419579E+02  0.32653292044E+03  0.34935502945E+03  0.41800000000E+01 0.  1.
         -5    1    1    2    0  502  0.25556443412E+02 -0.62609869339E+02  0.29546301363E+03  0.30313197185E+03  0.41800000000E+01 0.  1.
        -11    1    1    2    0    0  0.62888017745E+02  0.85933715837E+02  0.48227070023E+03  0.49388716788E+03  0.00000000000E+00 0. -1.
         11    1    1    2    0    0  0.15382906672E+02  0.44702573081E+02  0.57630665822E+02  0.74540240816E+02  0.00000000000E+00 0.  1.
</event>
<event>
 7    1  0.4629952E-009  0.1082406E+03  0.7561462E-02  0.1263863E+00
          1   -1    0    0  501    0  0.00000000000E+00  0.00000000000E+00  0.82839796453E+02  0.82839796453E+02  0.00000000000E+00 0. -1.
         -1   -1    0    0    0  501 -0.00000000000E+00 -0.00000000000E+00 -0.17972230476E+03  0.17972230476E+03  0.00000000000E+00 0.  1.
         25    2    1    2    0    0  0.42792791779E+02  0.31249233364E+02 -0.72394767335E+02  0.15393375238E+03  0.12508741011E+03 0.  0.
          5    1    3    3  502    0  0.85902225370E+02  0.32754947850E+02 -0.55159303230E+02  0.10729445496E+03  0.41800000000E+01 0. -1.
         -5    1    3    3    0  502 -0.43109433591E+02 -0.15057144863E+01 -0.17235464105E+02  0.46639297417E+02  0.41800000000E+01 0. -1.
        -11    1    1    2    0    0  0.29263596376E+00 -0.37566068642E+02 -0.46545392550E+02  0.59814452406E+02  0.00000000000E+00 0.  1.
         11    1    1    2    0    0 -0.43085427743E+02  0.63168352782E+01  0.22057651576E+02  0.48813896431E+02  0.00000000000E+00 0. -1.
</event>
<event>
 7    1  0.2612213E-009  0.2275456E+03  0.7561462E-02  0.1128379E+00
         -2   -1    0    0    0  501 -0.00000000000E+00  0.00000000000E+00  0.50146803246E+02  0.50146803246E+02  0.00000000000E+00 0.  1.
          2   -1    0    0  501    0  0.00000000000E+00 -0.00000000000E+00 -0.14089102621E+04  0.14089102621E+04  0.00000000000E+00 0. -1.
         25    2    1    2    0    0  0.16394153179E+03  0.12750479787E+03 -0.10437529102E+04  0.10715445122E+04  0.12511276851E+03 0.  0.
          5    1    3    3  502    0  0.10353575472E+03  0.18176173587E+02 -0.64927497373E+03  0.65774272303E+03  0.41800000000E+01 0.  1.
         -5    1    3    3    0  502  0.60405777062E+02  0.10932862429E+03 -0.39447793643E+03  0.41380178917E+03  0.41800000000E+01 0.  1.
        -11    1    1    2    0    0 -0.39511616012E+02 -0.84464513990E+02 -0.11499266926E+03  0.14804977510E+03  0.00000000000E+00 0. -1.
         11    1    1    2    0    0 -0.12442991577E+03 -0.43040283885E+02 -0.20001787947E+03  0.23946277808E+03  0.00000000000E+00 0.  1.
</event>
<event>
 7    1  0.2612213E-009  0.1419267E+03  0.7561462E-02  0.1210760E+00
          1   -1    0    0  501    0  0.00000000000E+00  0.00000000000E+00  0.67383523117E+03  0.67383523117E+03  0.00000000000E+00 0. -1.
         -1   -1    0    0    0  501 -0.00000000000E+00 -0.00000000000E+00 -0.37359535009E+02  0.37359535009E+02  0.00000000000E+00 0.  1.
         25    2    1    2    0    0  0.10678706463E+03 -0.24339239773E+02  0.26588745839E+03  0.31359290457E+03  0.12509393869E+03 0.  0.
          5    1    3    3  502    0  0.24627816444E+02 -0.56494771521E+02  0.47194598246E+02  0.77736677673E+02  0.41800000000E+01 0.  1.
         -5    1    3    3    0  502  0.82159248187E+02  0.32155531749E+02  0.21869286015E+03  0.23585622689E+03  0.41800000000E+01 0.  1.
        -11    1    1    2    0    0 -0.44865532056E+02  0.49598970686E+02  0.11148381175E+03  0.13000620809E+03  0.00000000000E+00 0.  1.
         11    1    1    2    0    0 -0.61921532575E+02 -0.25259730913E+02  0.25910442602E+03  0.26759565352E+03  0.00000000000E+00 0. -1.
</event>
<event>
 7    1  0.2612213E-009  0.1360664E+03  0.7561462E-02  0.1218722E+00
         -2   -1    0    0    0  501 -0.00000000000E+00  0.00000000000E+00  0.65082996398E+02  0.65082996398E+02  0.00000000000E+00 0.  1.
          2   -1    0    0  501    0  0.00000000000E+00 -0.00000000000E+00 -0.30196053453E+03  0.30196053453E+03  0.00000000000E+00 0. -1.
         25    2    1    2    0    0  0.27152392982E+02  0.78146735139E+02 -0.91191909781E+02  0.17552021891E+03  0.12508884114E+03 0.  0.
          5    1    3    3  502    0 -0.46128623508E+02  0.67815958785E+01 -0.20461033649E+02  0.51087828760E+02  0.41800000000E+01 0.  1.
         -5    1    3    3    0  502  0.73281016489E+02  0.71365139260E+02 -0.70730876132E+02  0.12443239015E+03  0.41800000000E+01 0.  1.
        -11    1    1    2    0    0 -0.60921790116E+02 -0.46176367176E+02 -0.10399596374E+03  0.12906929097E+03  0.00000000000E+00 0.  1.
         11    1    1    2    0    0  0.33769397135E+02 -0.31970367963E+02 -0.41689664613E+02  0.62454021056E+02  0.00000000000E+00 0. -1.
</event>
<event>
 7    1  0.2612213E-009  0.9644245E+02  0.7561462E-02  0.1287960E+00
          2   -1    0    0  501    0  0.00000000000E+00  0.00000000000E+00  0.17373202625E+02  0.17373202625E+02  0.00000000000E+00 0. -1.
         -2   -1    0    0    0  501 -0.00000000000E+00 -0.00000000000E+00 -0.10378283791E+04  0.10378283791E+04  0.00000000000E+00 0.  1.
         25    2    1    2    0    0  0.64060284840E+02  0.46209813380E+02 -0.57354622236E+03  0.59231878996E+03  0.12508881968E+03 0.  0.
          5    1    3    3  502    0  0.62567509004E+02  0.37435682617E+02 -0.13356313868E+03  0.15222584514E+03  0.41800000000E+01 0.  1.
         -5    1    3    3    0  502  0.14927758362E+01  0.87741307636E+01 -0.43998308368E+03  0.44009294482E+03  0.41800000000E+01 0.  1.
        -11    1    1    2    0    0 -0.17943882638E+02 -0.59403032392E+02 -0.34124408688E+03  0.34684035234E+03  0.00000000000E+00 0.  1.
         11    1    1    2    0    0 -0.46116402202E+02  0.13193219011E+02 -0.10566486723E+03  0.11604243942E+03  0.00000000000E+00 0. -1.
</event>
<event>
 7    1  0.2612213E-009  0.9718123E+02  0.7561462E-02  0.1286338E+00
          1   -1    0    0  501    0  0.00000000000E+00  0.00000000000E+00  0.48961744857E+03  0.48961744857E+03  0.00000000000E+00 0. -1.
         -1   -1    0    0    0  501 -0.00000000000E+00 -0.00000000000E+00 -0.26526210676E+02  0.26526210676E+02  0.00000000000E+00 0.  1.
         25    2    1    2    0    0  0.15872874377E+02 -0.15966322102E+02  0.20258733035E+03  0.23915511455E+03  0.12508665322E+03 0.  0.
          5    1    3    3  502    0  0.53701586753E+02 -0.37874704777E+02  0.57006607475E+02  0.87095231658E+02  0.41800000000E+01 0. -1.
         -5    1    3    3    0  502 -0.37828712376E+02  0.21908382674E+02  0.14558072287E+03  0.15205988289E+03  0.41800000000E+01 0. -1.
        -11    1    1    2    0    0 -0.48028768350E+02 -0.14125154787E+01  0.84288835982E+02  0.97022500795E+02  0.00000000000E+00 0.  1.
         11    1    1    2    0    0  0.32155893973E+02  0.17378837581E+02  0.17621507156E+03  0.17996604390E+03  0.00000000000E+00 0. -1.
</event>
<event>
 7    1  0.2612213E-009  0.1461974E+03  0.7561462E-02  0.1205225E+00
         -2   -1    0    0    0  501 -0.00000000000E+00  0.00000000000E+00  0.78019720215E+02  0.78019720215E+02  0.00000000000E+00 0.  1.
          2   -1    0    0  501    0  0.00000000000E+00 -0.00000000000E+00 -0.43427892589E+03  0.43427892589E+03  0.00000000000E+00 0. -1.
         25    2    1    2    0    0  0.42312273324E+02  0.10176119452E+03 -0.32624951805E+03  0.36637667608E+03  0.12508977401E+03 0.  0.
          5    1    3    3  502    0  0.81319582819E+02  0.54625126640E+02 -0.14506134286E+03  0.17509153207E+03  0.41800000000E+01 0. -1.
         -5    1    3    3    0  502 -0.39007309495E+02  0.47136067882E+02 -0.18118817519E+03  0.19128514401E+03  0.41800000000E+01 0. -1.
        -11    1    1    2    0    0 -0.63699448886E+02 -0.69147701718E+02 -0.44884691137E+02  0.10418090007E+03  0.00000000000E+00 0. -1.
         11    1    1    2    0    0  0.21387175561E+02 -0.32613492804E+02  0.14875003513E+02  0.41741069954E+02  0.00000000000E+00 0.  1.
</event>
<event>
 7    1  0.2612213E-009  0.1105735E+03  0.7561462E-02  0.1259512E+00
         -1   -1    0    0    0  501 -0.00000000000E+00  0.00000000000E+00  0.55798702004E+02  0.55798702004E+02  0.00000000000E+00 0.  1.
          1   -1    0    0  501    0  0.00000000000E+00 -0.00000000000E+00 -0.32919018407E+03  0.32919018407E+03  0.00000000000E+00 0. -1.
         25    2    1    2    0    0  0.68643350408E+02 -0.24630383083E+02 -0.10036486476E+03  0.17617299755E+03  0.12508098841E+03 0.  0.
          5    1    3    3  502    0 -0.30854463925E+02 -0.32344917456E+02 -0.30227460372E+02  0.54123593653E+02  0.41800000000E+01 0.  1.
         -5    1    3    3    0  502  0.99497814333E+02  0.77145343736E+01 -0.70137404389E+02  0.12204940390E+03  0.41800000000E+01 0.  1.
        -11    1    1    2    0    0 -0.22562689823E+02 -0.28065193131E+01  0.46625508842E+01  0.23209715712E+02  0.00000000000E+00 0.  1.
         11    1    1    2    0    0 -0.46080660585E+02  0.27436902396E+02 -0.17768916819E+03  0.18560617281E+03  0.00000000000E+00 0. -1.
</event>
<event>
 7    1  0.2612213E-009  0.1346321E+03  0.7561462E-02  0.1220740E+00
         -2   -1    0    0    0  501 -0.00000000000E+00  0.00000000000E+00  0.92193233617E+02  0.92193233617E+02  0.00000000000E+00 0.  1.
          2   -1    0    0  501    0  0.00000000000E+00 -0.00000000000E+00 -0.29914142744E+03  0.29914142744E+03  0.00000000000E+00 0. -1.
         25    2    1    2    0    0  0.37513824700E+02 -0.80420575620E+02 -0.21116981357E+03  0.26098896418E+03  0.12509113970E+03 0.  0.
          5    1    3    3  502    0  0.61089081243E+02  0.13638272140E+01 -0.51583715368E+02  0.80075514129E+02  0.41800000000E+01 0.  1.
         -5    1    3    3    0  502 -0.23575256543E+02 -0.81784402834E+02 -0.15958609820E+03  0.18091345005E+03  0.41800000000E+01 0.  1.
        -11    1    1    2    0    0 -0.25565370473E+02 -0.12956801014E+02  0.19924431616E+02  0.34906300794E+02  0.00000000000E+00 0.  1.
         11    1    1    2    0    0 -0.11948454228E+02  0.93377376635E+02 -0.15702811873E+02  0.95439396092E+02  0.00000000000E+00 0. -1.
</event>
<event>
 7    1  0.2612213E-009  0.7679772E+02  0.7561462E-02  0.1338393E+00
          1   -1    0    0  501    0  0.00000000000E+00  0.00000000000E+00  0.42774953885E+03  0.42774953885E+03  0.00000000000E+00 0. -1.
         -1   -1    0    0    0  501 -0.00000000000E+00 -0.00000000000E+00 -0.25335350427E+02  0.25335350427E+02  0.00000000000E+00 0.  1.
         25    2    1    2    0    0 -0.12430719826E+02 -0.79269793671E+01  0.21901478591E+03  0.25264999682E+03  0.12508870711E+03 0.  0.
          5    1    3    3  502    0 -0.40833417925E+02 -0.14386605673E+02  0.21894503161E+03  0.22322352410E+03  0.41800000000E+01 0. -1.
         -5    1    3    3    0  502  0.28402698098E+02  0.64596263061E+01  0.69754301903E-01  0.29426472723E+02  0.41800000000E+01 0. -1.
        -11    1    1    2    0    0 -0.32996691241E+02 -0.51632851808E+01  0.69255843399E+02  0.76888315053E+02  0.00000000000E+00 0. -1.
         11    1    1    2    0    0  0.45427411067E+02  0.13090264548E+02  0.11414355911E+03  0.12354657741E+03  0.00000000000E+00 0.  1.
</event>
<event>
 7    1  0.2612213E-009  0.7975630E+02  0.7561462E-02  0.1329744E+00
         -2   -1    0    0    0  501 -0.00000000000E+00  0.00000000000E+00  0.34482146653E+02  0.34482146653E+02  0.00000000000E+00 0.  1.
          2   -1    0    0  501    0  0.00000000000E+00 -0.00000000000E+00 -0.39924180880E+03  0.39924180880E+03  0.00000000000E+00 0. -1.
         25    2    1    2    0    0 -0.42982897851E+02 -0.59012829253E+00 -0.19548826084E+03  0.23603038164E+03  0.12508718229E+03 0.  0.
          5    1    3    3  502    0  0.83008736647E+01 -0.68107480041E+01  0.15192826586E+02  0.19067909472E+02  0.41800000000E+01 0.  1.
         -5    1    3    3    0  502 -0.51283771516E+02  0.62206197116E+01 -0.21068108743E+03  0.21696247217E+03  0.41800000000E+01 0.  1.
        -11    1    1    2    0    0 -0.55931182236E+01 -0.35315807239E+02 -0.33097131497E+02  0.48722780357E+02  0.00000000000E+00 0.  1.
         11    1    1    2    0    0  0.48576016075E+02  0.35905935531E+02 -0.13617426980E+03  0.14897079345E+03  0.00000000000E+00 0. -1.
</event>
<event>
 7    1  0.2612213E-009  0.1833916E+03  0.7561462E-02  0.1164560E+00
          3   -1    0    0  501    0  0.00000000000E+00  0.00000000000E+00  0.23934229482E+03  0.23934229482E+03  0.00000000000E+00 0. -1.
         -3   -1    0    0    0  501 -0.00000000000E+00 -0.00000000000E+00 -0.17012178858E+03  0.17012178858E+03  0.00000000000E+00 0.  1.
         25    2    1    2    0    0 -0.99223130775E+02 -0.13407711662E+03  0.57501407229E+01  0.20857043574E+03  0.12508660866E+03 0.  0.
          5    1    3    3  502    0 -0.32091170715E+02  0.12891271808E+02 -0.26482830775E+02  0.43758894553E+02  0.41800000000E+01 0.  1.
         -5    1    3    3    0  502 -0.67131960060E+02 -0.14696838842E+03  0.32232971498E+02  0.16481154119E+03  0.41800000000E+01 0.  1.
        -11    1    1    2    0    0  0.71634183672E+02  0.68240685855E+02  0.80452502438E+02  0.12751804823E+03  0.00000000000E+00 0. -1.
         11    1    1    2    0    0  0.27588947103E+02  0.65836430761E+02 -0.16982136924E+02  0.73375599432E+02  0.00000000000E+00 0.  1.
</event>
<event>
 7    1  0.2612213E-009  0.1102861E+03  0.7561462E-02  0.1260041E+00
          2   -1    0    0  501    0  0.00000000000E+00  0.00000000000E+00  0.12571159616E+03  0.12571159616E+03  0.00000000000E+00 0. -1.
         -2   -1    0    0    0  501 -0.00000000000E+00 -0.00000000000E+00 -0.10418954699E+03  0.10418954699E+03  0.00000000000E+00 0.  1.
         25    2    1    2    0    0 -0.55617478554E+01  0.22528815552E+02  0.41288847043E+02  0.13375686041E+03  0.12509056019E+03 0.  0.
          5    1    3    3  502    0  0.25176102583E+02  0.67577256402E+02  0.27977377218E+02  0.77464364453E+02  0.41800000000E+01 0. -1.
         -5    1    3    3    0  502 -0.30737850438E+02 -0.45048440850E+02  0.13311469825E+02  0.56292495961E+02  0.41800000000E+01 0. -1.
        -11    1    1    2    0    0  0.78313673382E+01  0.35102068714E+02 -0.30458581400E+01  0.36093805482E+02  0.00000000000E+00 0.  1.
         11    1    1    2    0    0 -0.22696194829E+01 -0.57630884265E+02 -0.16720939735E+02  0.60050477262E+02  0.00000000000E+00 0. -1.
</event>
<event>
 7    1  0.2612213E-009  0.9830308E+02  0.7561462E-02  0.1283905E+00
         -1   -1    0    0    0  501 -0.00000000000E+00  0.00000000000E+00  0.33171530580E+03  0.33171530580E+03  0.00000000000E+00 0.  1.
          1   -1    0    0  501    0  0.00000000000E+00 -0.00000000000E+00 -0.42967754267E+02  0.42967754267E+02  0.00000000000E+00 0. -1.
         25    2    1    2    0    0  0.26203291334E+02 -0.41863318375E+02  0.15840478193E+03  0.20779015639E+03  0.12508207006E+03 0.  0.
          5    1    3    3  502    0 -0.39268878094E+01 -0.61221770300E+02  0.16029518391E+03  0.17168443141E+03  0.41800000000E+01 0. -1.
         -5    1    3    3    0  502  0.30130179144E+02  0.19358451925E+02 -0.18904019758E+01  0.36105724973E+02  0.41800000000E+01 0. -1.
        -11    1    1    2    0    0 -0.28412364338E+02 -0.21517534444E+02  0.23647141578E+02  0.42772117560E+02  0.00000000000E+00 0. -1.
         11    1    1    2    0    0  0.22090730038E+01  0.63380852818E+02  0.10669562803E+03  0.12412078612E+03  0.00000000000E+00 0.  1.
</event>
<event>
 7    1  0.2612213E-009  0.1237853E+03  0.7561462E-02  0.1236980E+00
          2   -1    0    0  501    0  0.00000000000E+00  0.00000000000E+00  0.55109383936E+03  0.55109383936E+03  0.00000000000E+00 0. -1.
         -2   -1    0    0    0  501 -0.00000000000E+00 -0.00000000000E+00 -0.50394564215E+02  0.50394564215E+02  0.00000000000E+00 0.  1.
         25    2    1    2    0    0 -0.18717972669E+01  0.81785125694E+02  0.94164465633E+02  0.17665726939E+03  0.12509409991E+03 0.  0.
          5    1    3    3  502    0 -0.33026408693E+02 -0.19202526639E+02  0.58630282691E+01  0.38875804827E+02  0.41800000000E+01 0. -1.
         -5    1    3    3    0  502  0.31154611426E+02  0.10098765233E+03  0.88301437363E+02  0.13778146456E+03  0.41800000000E+01 0. -1.
        -11    1    1    2    0    0  0.10802731133E+02  0.78121069318E+01  0.65813586754E+01  0.14867491270E+02  0.00000000000E+00 0.  1.
         11    1    1    2    0    0 -0.89309338661E+01 -0.89597232626E+02  0.39995345084E+03  0.40996364291E+03  0.00000000000E+00 0. -1.
</event>
<event>
 7    1  0.2612213E-009  0.1187974E+03  0.7561462E-02  0.1245094E+00
         -2   -1    0    0    0  501 -0.00000000000E+00  0.00000000000E+00  0.66484610924E+02  0.66484610924E+02  0.00000000000E+00 0.  1.
          2   -1    0    0  501    0  0.00000000000E+00 -0.00000000000E+00 -0.37531023663E+03  0.37531023663E+03  0.00000000000E+00 0. -1.
         25    2    1    2    0    0  0.22380175791E+02 -0.10268421908E+03 -0.23227744762E+03  0.28398036975E+03  0.12508843517E+03 0.  0.
          5    1    3    3  502    0  0.21089205245E+02  0.37861711172E+01  0.62711794294E+01  0.22713206753E+02  0.41800000000E+01 0. -1.
         -5    1    3    3    0  502  0.12909705461E+01 -0.10647039019E+03 -0.23854862705E+03  0.26126716300E+03  0.41800000000E+01 0. -1.
        -11    1    1    2    0    0 -0.73172910442E+01  0.87537432057E+02 -0.10584421390E+02  0.88478103142E+02  0.00000000000E+00 0.  1.
         11    1    1    2    0    0 -0.15062884747E+02  0.15146787020E+02 -0.65963756698E+02  0.69336374664E+02  0.00000000000E+00 0. -1.
</event>
<event>
 7    1  0.2612213E-009  0.8652529E+02  0.7561462E-02  0.1311491E+00
         -2   -1    0    0    0  501 -0.00000000000E+00  0.00000000000E+00  0.12130654257E+03  0.12130654257E+03  0.00000000000E+00 0.  1.
          2   -1    0    0  501    0  0.00000000000E+00 -0.00000000000E+00 -0.12024334048E+03  0.12024334048E+03  0.00000000000E+00 0. -1.
         25    2    1    2    0    0 -0.16296211848E+02  0.36299770925E+02  0.34672284343E+02  0.13576798330E+03  0.12509011990E+03 0.  0.
          5    1    3    3  502    0  0.14582521353E+02  0.55955095062E+02  0.65685345360E+02  0.87610841723E+02  0.41800000000E+01 0. -1.
         -5    1    3    3    0  502 -0.30878733201E+02 -0.19655324137E+02 -0.31013061017E+02  0.48157141575E+02  0.41800000000E+01 0. -1.
        -11    1    1    2    0    0  0.73565701700E+01  0.19957897478E+02 -0.43071896199E+02  0.48037745977E+02  0.00000000000E+00 0. -1.
         11    1    1    2    0    0  0.89396416784E+01 -0.56257668402E+02  0.94628139393E+01  0.57744153774E+02  0.00000000000E+00 0.  1.
</event>
<event>
 7    1  0.2612213E-009  0.1202586E+03  0.7561462E-02  0.1242671E+00
         -1   -1    0    0    0  501 -0.00000000000E+00  0.00000000000E+00  0.84075751028E+03  0.84075751028E+03  0.00000000000E+00 0.  1.
          1   -1    0    0  501    0  0.00000000000E+00 -0.00000000000E+00 -0.21862753920E+02  0.21862753920E+02  0.00000000000E+00 0. -1.
         25    2    1    2    0    0  0.62599435529E+02  0.38284339183E+02  0.53549991846E+03  0.55478941373E+03  0.12508697357E+03 0.  0.
          5    1    3    3  502    0 -0.32640039074E+02 -0.73613888534E+01  0.20630654578E+03  0.20904407532E+03  0.41800000000E+01 0.  1.
         -5    1    3    3    0  502  0.95239474603E+02  0.45645728036E+02  0.32919337269E+03  0.34574533841E+03  0.41800000000E+01 0.  1.
        -11    1    1    2    0    0 -0.37832508999E+02  0.16274551957E+02  0.40898217928E+02  0.58041571380E+02  0.00000000000E+00 0. -1.
         11    1    1    2    0    0 -0.24766926530E+02 -0.54558891140E+02  0.24249661997E+03  0.24978927909E+03  0.00000000000E+00 0.  1.
</event>
<event>
 7    1  0.2612213E-009  0.2820862E+03  0.7561462E-02  0.1094555E+00
          1   -1    0    0  501    0  0.00000000000E+00  0.00000000000E+00  0.18002749100E+04  0.18002749100E+04  0.00000000000E+00 0. -1.
         -1   -1    0    0    0  501 -0.00000000000E+00 -0.00000000000E+00 -0.47266351694E+02  0.47266351694E+02  0.00000000000E+00 0.  1.
         25    2    1    2    0    0  0.24877712403E+03 -0.80540903043E+02  0.11018010119E+04  0.11392937111E+04  0.12509114990E+03 0.  0.
          5    1    3    3  502    0  0.25482534911E+03 -0.94644883028E+02  0.10017174107E+04  0.10379541684E+04  0.41800000000E+01 0.  1.
         -5    1    3    3    0  502 -0.60482250869E+01  0.14103979986E+02  0.10008360121E+03  0.10133954268E+03  0.41800000000E+01 0.  1.
        -11    1    1    2    0    0 -0.56339132574E+02 -0.19365932486E+02  0.17862056080E+03  0.18829349946E+03  0.00000000000E+00 0. -1.
         11    1    1    2    0    0 -0.19243799145E+03  0.99906835529E+02  0.47258698558E+03  0.51995405113E+03  0.00000000000E+00 0.  1.
</event>
<event>
 7    1  0.2612213E-009  0.1068508E+03  0.7561462E-02  0.1266515E+00
          2   -1    0    0  501    0  0.00000000000E+00  0.00000000000E+00  0.51448118089E+02  0.51448118089E+02  0.00000000000E+00 0.  1.
         -2   -1    0    0    0  501 -0.00000000000E+00 -0.00000000000E+00 -0.32619345233E+03  0.32619345233E+03  0.00000000000E+00 0. -1.
         25    2    1    2    0    0 -0.32724346490E+02  0.21435430561E+02 -0.23397343886E+03  0.26818248600E+03  0.12509162710E+03 0.  0.
          5    1    3    3  502    0 -0.69757079661E+02  0.35209223130E+02 -0.92115559870E+02  0.12086557958E+03  0.41800000000E+01 0.  1.
         -5    1    3    3    0  502  0.37032733171E+02 -0.13773792568E+02 -0.14185787899E+03  0.14731690642E+03  0.41800000000E+01 0.  1.
        -11    1    1    2    0    0  0.31957875949E+01 -0.52652064307E+02 -0.40474925695E+02  0.66488138372E+02  0.00000000000E+00 0. -1.
         11    1    1    2    0    0  0.29528558895E+02  0.31216633745E+02 -0.29696968595E+00  0.42970946043E+02  0.00000000000E+00 0.  1.
</event>
<event>
 7    1  0.2612213E-009  0.1496989E+03  0.7561462E-02  0.1200843E+00
         -1   -1    0    0    0  501 -0.00000000000E+00  0.00000000000E+00  0.31282698783E+02  0.31282698783E+02  0.00000000000E+00 0.  1.
          1   -1    0    0  501    0  0.00000000000E+00 -0.00000000000E+00 -0.75220420909E+03  0.75220420909E+03  0.00000000000E+00 0. -1.
         25    2    1    2    0    0 -0.10717841278E+03 -0.18221501824E+02 -0.35772643735E+03  0.39425200043E+03  0.12508877075E+03 0.  0.
          5    1    3    3  502    0 -0.12282622979E+03 -0.43173600526E+02 -0.32442450963E+03  0.34959830856E+03  0.41800000000E+01 0.  1.
         -5    1    3    3    0  502  0.15647817008E+02  0.24952098702E+02 -0.33301927724E+02  0.44653691862E+02  0.41800000000E+01 0.  1.
        -11    1    1    2    0    0  0.54570393887E+02 -0.34780529346E+02 -0.18646118269E+03  0.19737118777E+03  0.00000000000E+00 0.  1.
         11    1    1    2    0    0  0.52608018890E+02  0.53002031170E+02 -0.17673389027E+03  0.19186371968E+03  0.00000000000E+00 0. -1.
</event>
<event>
 7    1  0.2612213E-009  0.1319847E+03  0.7561462E-02  0.1224540E+00
         -1   -1    0    0    0  501 -0.00000000000E+00  0.00000000000E+00  0.29306023596E+02  0.29306023596E+02  0.00000000000E+00 0.  1.
          1   -1    0    0  501    0  0.00000000000E+00 -0.00000000000E+00 -0.67060461011E+03  0.67060461011E+03  0.00000000000E+00 0. -1.
         25    2    1    2    0    0  0.63913649516E+02 -0.51905819017E+02 -0.42599446557E+03  0.45155048546E+03  0.12508951826E+03 0.  0.
          5    1    3    3  502    0  0.94749037352E+02 -0.22712625135E+02 -0.21216032009E+03  0.23350100051E+03  0.41800000000E+01 0.  1.
         -5    1    3    3    0  502 -0.30835387836E+02 -0.29193193882E+02 -0.21383414548E+03  0.21804948495E+03  0.41800000000E+01 0.  1.
        -11    1    1    2    0    0 -0.65140281514E+02 -0.64056473087E+01 -0.11624097229E+03  0.13340259455E+03  0.00000000000E+00 0.  1.
         11    1    1    2    0    0  0.12266319971E+01  0.58311466326E+02 -0.99063148644E+02  0.11495755369E+03  0.00000000000E+00 0. -1.
</event>
<event>
 7    1  0.2612213E-009  0.1378976E+03  0.7561462E-02  0.1216186E+00
         -3   -1    0    0    0  501 -0.00000000000E+00  0.00000000000E+00  0.30026729500E+03  0.30026729500E+03  0.00000000000E+00 0.  1.
          3   -1    0    0  501    0  0.00000000000E+00 -0.00000000000E+00 -0.82350578389E+02  0.82350578389E+02  0.00000000000E+00 0. -1.
         25    2    1    2    0    0  0.76136455811E+02 -0.81223496145E+02  0.89952201579E+02  0.19008763896E+03  0.12509154922E+03 0.  0.
          5    1    3    3  502    0 -0.16867858326E+02  0.20295137393E+02  0.29086261373E+02  0.39495572498E+02  0.41800000000E+01 0. -1.
         -5    1    3    3    0  502  0.93004314137E+02 -0.10151863354E+03  0.60865940207E+02  0.15059206646E+03  0.41800000000E+01 0. -1.
        -11    1    1    2    0    0 -0.33162976651E+02  0.36093724993E+02  0.12010210270E+03  0.12971913921E+03  0.00000000000E+00 0.  1.
         11    1    1    2    0    0 -0.42973479160E+02  0.45129771152E+02  0.78624123332E+01  0.62811095223E+02  0.00000000000E+00 0. -1.
</event>
<event>
 7    1  0.2612213E-009  0.1005059E+03  0.7561462E-02  0.1279236E+00
         -1   -1    0    0    0  501 -0.00000000000E+00  0.00000000000E+00  0.40117165550E+03  0.40117165550E+03  0.00000000000E+00 0.  1.
          1   -1    0    0  501    0  0.00000000000E+00 -0.00000000000E+00 -0.34772264673E+02  0.34772264673E+02  0.00000000000E+00 0. -1.
         25    2    1    2    0    0 -0.62463264185E+01  0.42785919920E+02  0.21591400821E+03  0.25324939444E+03  0.12508695098E+03 0.  0.
          5    1    3    3  502    0  0.18595337782E+02  0.82659012408E+02  0.14751392157E+03  0.17016500339E+03  0.41800000000E+01 0.  1.
         -5    1    3    3    0  502 -0.24841664200E+02 -0.39873092488E+02  0.68400086638E+02  0.83084391054E+02  0.41800000000E+01 0.  1.
        -11    1    1    2    0    0 -0.21727237698E+02 -0.55101620163E+01  0.12977279276E+03  0.13169439049E+03  0.00000000000E+00 0.  1.
         11    1    1    2    0    0  0.27973564116E+02 -0.37275757904E+02  0.20712589848E+02  0.51000135244E+02  0.00000000000E+00 0. -1.
</event>
<event>
 7    1  0.2612213E-009  0.1964995E+03  0.7561462E-02  0.1152726E+00
         -2   -1    0    0    0  501 -0.00000000000E+00  0.00000000000E+00  0.31763990445E+02  0.31763990445E+02  0.00000000000E+00 0.  1.
          2   -1    0    0  501    0  0.00000000000E+00 -0.00000000000E+00 -0.14202185852E+04  0.14202185852E+04  0.00000000000E+00 0. -1.
         25    2    1    2    0    0  0.11714454293E+03 -0.13740701149E+03 -0.82236925248E+03  0.85120057921E+03  0.12509079850E+03 0.  0.
          5    1    3    3  502    0  0.96414905767E+02 -0.34218909322E+02 -0.54435449564E+03  0.55390076469E+03  0.41800000000E+01 0.  1.
         -5    1    3    3    0  502  0.20729637165E+02 -0.10318810216E+03 -0.27801475685E+03  0.29729981451E+03  0.41800000000E+01 0.  1.
        -11    1    1    2    0    0 -0.64754738078E+02  0.10593156460E+03 -0.47596648461E+03  0.49189304422E+03  0.00000000000E+00 0. -1.
         11    1    1    2    0    0 -0.52389804854E+02  0.31475446887E+02 -0.90118857695E+02  0.10888895225E+03  0.00000000000E+00 0.  1.
</event>
<event>
 7    1  0.2612213E-009  0.1259627E+03  0.7561462E-02  0.1233572E+00
          2   -1    0    0  501    0  0.00000000000E+00  0.00000000000E+00  0.10852426505E+03  0.10852426505E+03  0.00000000000E+00 0. -1.
         -2   -1    0    0    0  501 -0.00000000000E+00 -0.00000000000E+00 -0.20940655003E+03  0.20940655003E+03  0.00000000000E+00 0.  1.
         25    2    1    2    0    0  0.24234337572E+02 -0.58959110545E+02  0.31890631270E+02  0.14396964070E+03  0.12508703069E+03 0.  0.
          5    1    3    3  502    0  0.74514567292E+02 -0.45891795429E+02  0.13200716443E+02  0.88601404848E+02  0.41800000000E+01 0.  1.
         -5    1    3    3    0  502 -0.50280229719E+02 -0.13067315116E+02  0.18689914827E+02  0.55368235850E+02  0.41800000000E+01 0.  1.
        -11    1    1    2    0    0 -0.35796808628E+02 -0.13916868731E+02 -0.40532799763E+02  0.55839041897E+02  0.00000000000E+00 0.  1.
         11    1    1    2    0    0  0.11562471056E+02  0.72875979277E+02 -0.92240116484E+02  0.11812213248E+03  0.00000000000E+00 0. -1.
</event>
<event>
 7    1  0.2612213E-009  0.1083116E+03  0.7561462E-02  0.1263729E+00
          2   -1    0    0  501    0  0.00000000000E+00  0.00000000000E+00  0.20640761193E+03  0.20640761193E+03  0.00000000000E+00 0. -1.
         -2   -1    0    0    0  501 -0.00000000000E+00 -0.00000000000E+00 -0.74179208239E+02  0.74179208239E+02  0.00000000000E+00 0.  1.
         25    2    1    2    0    0 -0.21778680457E+02 -0.47474331443E+02  0.10516845928E+03  0.17157049330E+03  0.12509159154E+03 0.  0.
          5    1    3    3  502    0 -0.26184314919E+02  0.37859221041E+02  0.57025303163E+02  0.73405017311E+02  0.41800000000E+01 0.  1.
         -5    1    3    3    0  502  0.44056344625E+01 -0.85333552483E+02  0.48143156119E+02  0.98165475986E+02  0.41800000000E+01 0.  1.
        -11    1    1    2    0    0 -0.15526147828E+02  0.44843224277E+02 -0.17736682746E+02  0.50661286450E+02  0.00000000000E+00 0.  1.
         11    1    1    2    0    0  0.37304828285E+02  0.26311071653E+01  0.44796627157E+02  0.58355040425E+02  0.00000000000E+00 0. -1.
</event>
<event>
 7    1  0.2612213E-009  0.1228450E+03  0.7561462E-02  0.1238476E+00
          1   -1    0    0  501    0  0.00000000000E+00  0.00000000000E+00  0.45358891550E+03  0.45358891550E+03  0.00000000000E+00 0. -1.
         -1   -1    0    0    0  501 -0.00000000000E+00 -0.00000000000E+00 -0.58229194282E+02  0.58229194282E+02  0.00000000000E+00 0.  1.
         25    2    1    2    0    0  0.77466026622E+02 -0.74911317156E+02  0.12448825215E+03  0.20677898215E+03  0.12509009480E+03 0.  0.
          5    1    3    3  502    0  0.79330799515E+02 -0.34988329576E+02  0.13914825618E+03  0.16400386750E+03  0.41800000000E+01 0.  1.
         -5    1    3    3    0  502 -0.18647728925E+01 -0.39922987580E+02 -0.14660004028E+02  0.42775114651E+02  0.41800000000E+01 0.  1.
        -11    1    1    2    0    0  0.72587523216E+01  0.74222439774E+01 -0.27648448584E+01  0.10743535639E+02  0.00000000000E+00 0.  1.
         11    1    1    2    0    0 -0.84724778944E+02  0.67489073179E+02  0.27363631393E+03  0.29429559199E+03  0.00000000000E+00 0. -1.
</event>
<event>
 7    1  0.2612213E-009  0.1114323E+03  0.7561462E-02  0.1257940E+00
          1   -1    0    0  501    0  0.00000000000E+00  0.00000000000E+00  0.18989643547E+02  0.18989643547E+02  0.00000000000E+00 0. -1.
         -1   -1    0    0    0  501 -0.00000000000E+00 -0.00000000000E+00 -0.84470511563E+03  0.84470511563E+03  0.00000000000E+00 0.  1.
         25    2    1    2    0    0 -0.13851547177E+02 -0.47019714404E+02 -0.31543031520E+03  0.34284924797E+03  0.12508638688E+03 0.  0.
          5    1    3    3  502    0 -0.61253790147E+02 -0.29560554269E+02 -0.96537926545E+02  0.11816470216E+03  0.41800000000E+01 0.  1.
         -5    1    3    3    0  502  0.47402242970E+02 -0.17459160135E+02 -0.21889238866E+03  0.22468454581E+03  0.41800000000E+01 0.  1.
        -11    1    1    2    0    0  0.27712610001E+01  0.74423798837E+02 -0.38291473285E+03  0.39009008492E+03  0.00000000000E+00 0.  1.
         11    1    1    2    0    0  0.11080286177E+02 -0.27404084433E+02 -0.12737042403E+03  0.13075542628E+03  0.00000000000E+00 0. -1.
</event>
<event>
 7    1  0.2612213E-009  0.1082530E+03  0.7561462E-02  0.1263840E+00
         -3   -1    0    0    0  501 -0.00000000000E+00  0.00000000000E+00  0.13614247352E+03  0.13614247352E+03  0.00000000000E+00 0.  1.
          3   -1    0    0  501    0  0.00000000000E+00 -0.00000000000E+00 -0.10253011256E+03  0.10253011256E+03  0.00000000000E+00 0. -1.
         25    2    1    2    0    0  0.31501215209E+02 -0.11193495129E+02 -0.15553161846E+02  0.13041123367E+03  0.12509023995E+03 0.  0.
          5    1    3    3  502    0 -0.28743306110E+02 -0.49469394395E+02 -0.61358549005E+00  0.57369395283E+02  0.41800000000E+01 0. -1.
         -5    1    3    3    0  502  0.60244521319E+02  0.38275899267E+02 -0.14939576356E+02  0.73041838389E+02  0.41800000000E+01 0. -1.
        -11    1    1    2    0    0  0.12118452923E+02  0.35636654859E+02 -0.69641062411E+00  0.37647218470E+02  0.00000000000E+00 0. -1.
         11    1    1    2    0    0 -0.43619668133E+02 -0.24443159730E+02  0.49861933435E+02  0.70614133935E+02  0.00000000000E+00 0.  1.
</event>
<event>
 7    1  0.2612213E-009  0.7163089E+02  0.7561462E-02  0.1354633E+00
          1   -1    0    0  501    0  0.00000000000E+00  0.00000000000E+00  0.64787866367E+03  0.64787866367E+03  0.00000000000E+00 0. -1.
         -1   -1    0    0    0  501 -0.00000000000E+00 -0.00000000000E+00 -0.18667453993E+02  0.18667453993E+02  0.00000000000E+00 0.  1.
         25    2    1    2    0    0 -0.18396285248E+02  0.66185450220E+01  0.39284201012E+03  0.41274031807E+03  0.12508995481E+03 0.  0.
          5    1    3    3  502    0 -0.42282764310E+02  0.55151770161E+01  0.38603511017E+02  0.57671074188E+02  0.41800000000E+01 0.  1.
         -5    1    3    3    0  502  0.23886479062E+02  0.11033680058E+01  0.35423849910E+03  0.35506924388E+03  0.41800000000E+01 0.  1.
        -11    1    1    2    0    0  0.29188196282E+02  0.27655386233E+02  0.50788650578E+02  0.64778532072E+02  0.00000000000E+00 0.  1.
         11    1    1    2    0    0 -0.10791911034E+02 -0.34273931255E+02  0.18558054899E+03  0.18902726753E+03  0.00000000000E+00 0. -1.
</event>
<event>
 7    1  0.2612213E-009  0.1200067E+03  0.7561462E-02  0.1243086E+00
          2   -1    0    0  501    0  0.00000000000E+00  0.00000000000E+00  0.35102935090E+03  0.35102935090E+03  0.00000000000E+00 0. -1.
         -2   -1    0    0    0  501 -0.00000000000E+00 -0.00000000000E+00 -0.66810363323E+02  0.66810363323E+02  0.00000000000E+00 0.  1.
         25    2    1    2    0    0  0.67662010819E+02 -0.37450761303E+02  0.25618646283E+03  0.29539767502E+03  0.12509026917E+03 0.  0.
          5    1    3    3  502    0  0.87422118897E+02 -0.46671402326E+02  0.25448299054E+03  0.27312984374E+03  0.41800000000E+01 0.  1.
         -5    1    3    3    0  502 -0.19760108078E+02  0.92206410238E+01  0.17034722902E+01  0.22267831282E+02  0.41800000000E+01 0.  1.
        -11    1    1    2    0    0  0.13773327658E+01 -0.25293635452E+02  0.10963871439E+02  0.27602020159E+02  0.00000000000E+00 0.  1.
         11    1    1    2    0    0 -0.69039343585E+02  0.62744396755E+02  0.17068653311E+02  0.94840019046E+02  0.00000000000E+00 0. -1.
</event>
<event>
 7    1  0.2612213E-009  0.1063568E+03  0.7561462E-02  0.1267469E+00
          2   -1    0    0  501    0  0.00000000000E+00  0.00000000000E+00  0.17296506869E+02  0.17296506869E+02  0.00000000000E+00 0. -1.
         -2   -1    0    0    0  501 -0.00000000000E+00 -0.00000000000E+00 -0.98517159267E+03  0.98517159267E+03  0.00000000000E+00 0.  1.
         25    2    1    2    0    0 -0.51660729939E+02 -0.18659029523E+02 -0.71694708314E+03  0.72984752056E+03  0.12508913958E+03 0.  0.
          5    1    3    3  502    0 -0.85181573122E+02 -0.58337693758E+01 -0.31872293904E+03  0.32998745057E+03  0.41800000000E+01 0. -1.
         -5    1    3    3    0  502  0.33520843183E+02 -0.12825260147E+02 -0.39822414410E+03  0.39986006999E+03  0.41800000000E+01 0. -1.
        -11    1    1    2    0    0  0.70220056999E+02  0.11259241938E+02 -0.23898737208E+03  0.24934432207E+03  0.00000000000E+00 0. -1.
         11    1    1    2    0    0 -0.18559327060E+02  0.73997875850E+01 -0.11940630583E+02  0.23276256914E+02  0.00000000000E+00 0.  1.
</event>
<event>
 7    1  0.2612213E-009  0.8933656E+02  0.7561462E-02  0.1304466E+00
         -1   -1    0    0    0  501 -0.00000000000E+00  0.00000000000E+00  0.22099653641E+02  0.22099653641E+02  0.00000000000E+00 0.  1.
          1   -1    0    0  501    0  0.00000000000E+00 -0.00000000000E+00 -0.56860915986E+03  0.56860915986E+03  0.00000000000E+00 0. -1.
         25    2    1    2    0    0 -0.11896417444E+02  0.23527658576E+02 -0.35189304171E+03  0.37439299799E+03  0.12508528560E+03 0.  0.
          5    1    3    3  502    0  0.34998486872E+02  0.76240245536E+01 -0.30139214413E+03  0.30354195225E+03  0.41800000000E+01 0. -1.
         -5    1    3    3    0  502 -0.46894904316E+02  0.15903634022E+02 -0.50500897585E+02  0.70851045742E+02  0.41800000000E+01 0. -1.
        -11    1    1    2    0    0  0.24857535806E+02 -0.54194365623E+02 -0.14252665201E+03  0.15449521962E+03  0.00000000000E+00 0.  1.
         11    1    1    2    0    0 -0.12961118362E+02  0.30666707048E+02 -0.52089812493E+02  0.61820595888E+02  0.00000000000E+00 0. -1.
</event>
<event>
 7    1  0.2612213E-009  0.1658479E+03  0.7561462E-02  0.1182248E+00
         -1   -1    0    0    0  501 -0.00000000000E+00  0.00000000000E+00  0.16797203840E+03  0.16797203840E+03  0.00000000000E+00 0.  1.
          1   -1    0    0  501    0  0.00000000000E+00 -0.00000000000E+00 -0.25295176822E+03  0.25295176822E+03  0.00000000000E+00 0. -1.
         25    2    1    2    0    0  0.13109084343E+03  0.69756086705E+02 -0.14277372870E+03  0.24099991913E+03  0.12508358226E+03 0.  0.
          5    1    3    3  502    0  0.84362795262E+02  0.91428849684E+02 -0.48691698194E+02  0.13365878068E+03  0.41800000000E+01 0.  1.
         -5    1    3    3    0  502  0.46728048167E+02 -0.21672762979E+02 -0.94082030503E+02  0.10734113845E+03  0.41800000000E+01 0.  1.
        -11    1    1    2    0    0 -0.91857652865E+02 -0.71296054418E+02  0.80592538887E+01  0.11655860045E+03  0.00000000000E+00 0. -1.
         11    1    1    2    0    0 -0.39233190564E+02  0.15399677126E+01  0.49734744995E+02  0.63365287043E+02  0.00000000000E+00 0.  1.
</event>
<event>
 7    1  0.2612213E-009  0.1409417E+03  0.7561462E-02  0.1212067E+00
          2   -1    0    0  501    0  0.00000000000E+00  0.00000000000E+00  0.22419294379E+02  0.22419294379E+02  0.00000000000E+00 0.  1.
         -2   -1    0    0    0  501 -0.00000000000E+00 -0.00000000000E+00 -0.91828242867E+03  0.91828242867E+03  0.00000000000E+00 0. -1.
         25    2    1    2    0    0  0.81832893993E+02  0.43075297269E+02 -0.46412667888E+03  0.48950232289E+03  0.12508735464E+03 0.  0.
          5    1    3    3  502    0 -0.16448065468E+02 -0.28047776335E+02 -0.12788911879E+03  0.13202392102E+03  0.41800000000E+01 0.  1.
         -5    1    3    3    0  502  0.98280959461E+02  0.71123073604E+02 -0.33623756009E+03  0.35747840187E+03  0.41800000000E+01 0.  1.
        -11    1    1    2    0    0 -0.49689280244E+02 -0.69958318567E+02 -0.33424526387E+03  0.34508417426E+03  0.00000000000E+00 0. -1.
         11    1    1    2    0    0 -0.32143613749E+02  0.26883021298E+02 -0.97491191542E+02  0.10611522590E+03  0.00000000000E+00 0.  1.
</event>
<event>
 7    1  0.2612213E-009  0.1431828E+03  0.7561462E-02  0.1209109E+00
          1   -1    0    0  501    0  0.00000000000E+00  0.00000000000E+00  0.15576267543E+03  0.15576267543E+03  0.00000000000E+00 0. -1.
         -1   -1    0    0    0  501 -0.00000000000E+00 -0.00000000000E+00 -0.20185739241E+03  0.20185739241E+03  0.00000000000E+00 0.  1.
         25    2    1    2    0    0  0.35357241617E+02 -0.10922620190E+03 -0.10445073857E+03  0.19934547522E+03  0.12509262163E+03 0.  0.
          5    1    3    3  502    0 -0.40474292262E+02 -0.15462642735E+02 -0.66681682536E+01  0.44036331844E+02  0.41800000000E+01 0. -1.
         -5    1    3    3    0  502  0.75831533879E+02 -0.93763559163E+02 -0.97782570319E+02  0.15530914337E+03  0.41800000000E+01 0. -1.
        -11    1    1    2    0    0 -0.42622129440E+02  0.67572580493E+02 -0.72538072735E+01  0.80220429271E+02  0.00000000000E+00 0.  1.
         11    1    1    2    0    0  0.72648878228E+01  0.41653621404E+02  0.65609828872E+02  0.78054163347E+02  0.00000000000E+00 0. -1.
</event>
<event>
 7    1  0.2612213E-009  0.2685924E+03  0.7561462E-02  0.1102088E+00
          1   -1    0    0  501    0  0.00000000000E+00  0.00000000000E+00  0.67520961814E+03  0.67520961814E+03  0.00000000000E+00 0. -1.
         -1   -1    0    0    0  501 -0.00000000000E+00 -0.00000000000E+00 -0.12530387971E+03  0.12530387971E+03  0.00000000000E+00 0.  1.
         25    2    1    2    0    0 -0.22883492544E+03 -0.12173058239E+03  0.38234919905E+03  0.47856174890E+03  0.12508668877E+03 0.  0.
          5    1    3    3  502    0 -0.11169534550E+03 -0.17146064137E+02  0.82236468689E+02  0.13982183987E+03  0.41800000000E+01 0.  1.
         -5    1    3    3    0  502 -0.11713957994E+03 -0.10458451825E+03  0.30011273036E+03  0.33873990903E+03  0.41800000000E+01 0.  1.
        -11    1    1    2    0    0  0.62111549096E+02  0.67416843240E+02  0.95504283233E+02  0.13237803216E+03  0.00000000000E+00 0.  1.
         11    1    1    2    0    0  0.16672337635E+03  0.54313739150E+02  0.72052256148E+02  0.18957371679E+03  0.00000000000E+00 0. -1.
</event>
<event>
 7    1  0.2612213E-009  0.1108700E+03  0.7561462E-02  0.1258967E+00
         -2   -1    0    0    0  501 -0.00000000000E+00  0.00000000000E+00  0.17521009367E+02  0.17521009367E+02  0.00000000000E+00 0.  1.
          2   -1    0    0  501    0  0.00000000000E+00 -0.00000000000E+00 -0.80881360721E+03  0.80881360721E+03  0.00000000000E+00 0. -1.
         25    2    1    2    0    0  0.42838406974E+02  0.96616114820E+01 -0.52513451015E+03  0.54160811990E+03  0.12507847913E+03 0.  0.
          5    1    3    3  502    0  0.80211426641E+02 -0.58023081335E+01 -0.43941945251E+03  0.44673758224E+03  0.41800000000E+01 0.  1.
         -5    1    3    3    0  502 -0.37373019667E+02  0.15463919615E+02 -0.85715057635E+02  0.94870537651E+02  0.41800000000E+01 0.  1.
        -11    1    1    2    0    0  0.19391746662E+02 -0.29438835122E+02 -0.79116519493E+02  0.86614713003E+02  0.00000000000E+00 0.  1.
         11    1    1    2    0    0 -0.62230153636E+02  0.19777223640E+02 -0.18704156820E+03  0.19811178368E+03  0.00000000000E+00 0. -1.
</event>
<event>
 7    1  0.2929190E-009  0.1619289E+03  0.7561462E-02  0.1186536E+00
         -1   -1    0    0    0  501 -0.00000000000E+00  0.00000000000E+00  0.82658283392E+02  0.82658283392E+02  0.00000000000E+00 0.  1.
          1   -1    0    0  501    0  0.00000000000E+00 -0.00000000000E+00 -0.43676571100E+03  0.43676571100E+03  0.00000000000E+00 0. -1.
         25    2    1    2    0    0 -0.10991332998E+03  0.10981180989E+03 -0.19763167724E+03  0.28079360607E+03  0.12508875116E+03 0.  0.
          5    1    3    3  502    0 -0.11749487375E+03  0.10005952933E+03 -0.10374109534E+03  0.18600172588E+03  0.41800000000E+01 0. -1.
         -5    1    3    3    0  502  0.75815437715E+01  0.97522805629E+01 -0.93890581896E+02  0.94791880195E+02  0.41800000000E+01 0. -1.
        -11    1    1    2    0    0  0.83224720192E+02 -0.71375337062E+02 -0.46460705702E+02  0.11907724370E+03  0.00000000000E+00 0.  1.
         11    1    1    2    0    0  0.26688609789E+02 -0.38436472826E+02 -0.11001504467E+03  0.11955314462E+03  0.00000000000E+00 0. -1.
</event>
<event>
 7    1  0.2612213E-009  0.1276513E+03  0.7561462E-02  0.1230983E+00
         -1   -1    0    0    0  501 -0.00000000000E+00  0.00000000000E+00  0.18477988761E+02  0.18477988761E+02  0.00000000000E+00 0.  1.
          1   -1    0    0  501    0  0.00000000000E+00 -0.00000000000E+00 -0.93976715070E+03  0.93976715070E+03  0.00000000000E+00 0. -1.
         25    2    1    2    0    0  0.69273292999E+02  0.19692573183E+02 -0.42416848461E+03  0.44805688428E+03  0.12509788829E+03 0.  0.
          5    1    3    3  502    0  0.87981712716E-01 -0.45343660361E+02 -0.18898574511E+03  0.19439428883E+03  0.41800000000E+01 0. -1.
         -5    1    3    3    0  502  0.69185311287E+02  0.65036233544E+02 -0.23518273950E+03  0.25366259545E+03  0.41800000000E+01 0. -1.
        -11    1    1    2    0    0  0.17883125795E+02  0.12488922990E+02 -0.97212903716E+02  0.99629955508E+02  0.00000000000E+00 0. -1.
         11    1    1    2    0    0 -0.87156418794E+02 -0.32181496174E+02 -0.39990777362E+03  0.41055829967E+03  0.00000000000E+00 0.  1.
</event>
<event>
 7    1  0.2612213E-009  0.1580170E+03  0.7561462E-02  0.1190954E+00
          4   -1    0    0  501    0  0.00000000000E+00  0.00000000000E+00  0.26667122801E+02  0.26667122801E+02  0.00000000000E+00 0. -1.
         -4   -1    0    0    0  501 -0.00000000000E+00 -0.00000000000E+00 -0.10835507269E+04  0.10835507269E+04  0.00000000000E+00 0.  1.
         25    2    1    2    0    0 -0.12727638966E+03 -0.20532543202E+02 -0.64467133035E+03  0.66923089386E+03  0.12509196788E+03 0.  0.
          5    1    3    3  502    0 -0.11438803043E+03  0.32114116765E+02 -0.51654075222E+03  0.53004505385E+03  0.41800000000E+01 0. -1.
         -5    1    3    3    0  502 -0.12888359233E+02 -0.52646659967E+02 -0.12813057813E+03  0.13918584002E+03  0.41800000000E+01 0. -1.
        -11    1    1    2    0    0  0.34439754678E+02  0.34684680999E+02 -0.23908421337E+03  0.24402947544E+03  0.00000000000E+00 0.  1.
         11    1    1    2    0    0  0.92836634982E+02 -0.14152137797E+02 -0.17312806042E+03  0.19695748045E+03  0.00000000000E+00 0. -1.
</event>
<event>
 7    1  0.2612213E-009  0.1858450E+03  0.7561462E-02  0.1162263E+00
          1   -1    0    0  501    0  0.00000000000E+00  0.00000000000E+00  0.12645260646E+04  0.12645260646E+04  0.00000000000E+00 0. -1.
         -1   -1    0    0    0  501 -0.00000000000E+00 -0.00000000000E+00 -0.38703131867E+02  0.38703131867E+02  0.00000000000E+00 0.  1.
         25    2    1    2    0    0  0.43728388372E+02  0.15688052862E+03  0.93857208678E+03  0.96077428617E+03  0.12508395056E+03 0.  0.
          5    1    3    3  502    0  0.83297751320E+02  0.13234523940E+03  0.77623022940E+03  0.79183623257E+03  0.41800000000E+01 0. -1.
         -5    1    3    3    0  502 -0.39569362948E+02  0.24535289220E+02  0.16234185738E+03  0.16893805361E+03  0.41800000000E+01 0. -1.
        -11    1    1    2    0    0 -0.15565551020E+02 -0.12502994061E+03  0.13622477490E+03  0.18555851294E+03  0.00000000000E+00 0.  1.
         11    1    1    2    0    0 -0.28162837352E+02 -0.31850588007E+02  0.15102607103E+03  0.15689639733E+03  0.00000000000E+00 0. -1.
</event>
<event>
 7    1  0.2612213E-009  0.1173054E+03  0.7561462E-02  0.1247610E+00
          2   -1    0    0  501    0  0.00000000000E+00  0.00000000000E+00  0.44758432228E+02  0.44758432228E+02  0.00000000000E+00 0. -1.
         -2   -1    0    0    0  501 -0.00000000000E+00 -0.00000000000E+00 -0.48263625135E+03  0.48263625135E+03  0.00000000000E+00 0.  1.
         25    2    1    2    0    0  0.63037086908E+02 -0.26480913386E+02 -0.10824858070E+03  0.17899753811E+03  0.12508976908E+03 0.  0.
          5    1    3    3  502    0  0.51863873475E+02 -0.64125575065E+02 -0.11219682739E+03  0.13931098745E+03  0.41800000000E+01 0.  1.
         -5    1    3    3    0  502  0.11173213433E+02  0.37644661679E+02  0.39482466896E+01  0.39686550660E+02  0.41800000000E+01 0.  1.
        -11    1    1    2    0    0  0.21943825441E+02  0.15473174518E+02 -0.89216331368E+02  0.93169224465E+02  0.00000000000E+00 0.  1.
         11    1    1    2    0    0 -0.84980912350E+02  0.11007738868E+02 -0.24041290706E+03  0.25522792100E+03  0.00000000000E+00 0. -1.
</event>
<event>
 7    1  0.2612213E-009  0.1835881E+03  0.7561462E-02  0.1164375E+00
         -2   -1    0    0    0  501 -0.00000000000E+00  0.00000000000E+00  0.26318689840E+02  0.26318689840E+02  0.00000000000E+00 0. -1.
          2   -1    0    0  501    0  0.00000000000E+00 -0.00000000000E+00 -0.13118012251E+04  0.13118012251E+04  0.00000000000E+00 0.  1.
         25    2    1    2    0    0 -0.13461671403E+03  0.69561639555E+02 -0.69635112950E+03  0.72354188808E+03  0.12508991506E+03 0.  0.
          5    1    3    3  502    0 -0.15663551422E+03  0.44601800387E+02 -0.57277506264E+03  0.59549370248E+03  0.41800000000E+01 0.  1.
         -5    1    3    3    0  502  0.22018800193E+02  0.24959839168E+02 -0.12357606686E+03  0.12804818559E+03  0.41800000000E+01 0.  1.
        -11    1    1    2    0    0  0.41145560489E+02 -0.65256252381E+02 -0.33499932782E+03  0.34376719631E+03  0.00000000000E+00 0.  1.
         11    1    1    2    0    0  0.93471153541E+02 -0.43053871742E+01 -0.25413207792E+03  0.27081083053E+03  0.00000000000E+00 0. -1.
</event>
<event>
 7    1  0.2612213E-009  0.1120457E+03  0.7561462E-02  0.1256828E+00
          1   -1    0    0  501    0  0.00000000000E+00  0.00000000000E+00  0.37363948998E+03  0.37363948998E+03  0.00000000000E+00 0. -1.
         -1   -1    0    0    0  501 -0.00000000000E+00 -0.00000000000E+00 -0.50888645228E+02  0.50888645228E+02  0.00000000000E+00 0.  1.
         25    2    1    2    0    0  0.71449383742E+02  0.26302072040E+02  0.19581005178E+03  0.24450031000E+03  0.12506802861E+03 0.  0.
          5    1    3    3  502    0  0.67109225930E+02  0.48630136115E+02  0.50029370024E+02  0.96896587187E+02  0.41800000000E+01 0.  1.
         -5    1    3    3    0  502  0.43401578119E+01 -0.22328064075E+02  0.14578068175E+03  0.14760372281E+03  0.41800000000E+01 0.  1.
        -11    1    1    2    0    0  0.18303144932E+02  0.10358953938E+02  0.95055508102E+00  0.21052709945E+02  0.00000000000E+00 0.  1.
         11    1    1    2    0    0 -0.89752528673E+02 -0.36661025978E+02  0.12599023790E+03  0.15897511527E+03  0.00000000000E+00 0. -1.
</event>
<event>
 7    1  0.2612213E-009  0.1089660E+03  0.7561462E-02  0.1262497E+00
          2   -1    0    0  501    0  0.00000000000E+00  0.00000000000E+00  0.48957638187E+02  0.48957638187E+02  0.00000000000E+00 0. -1.
         -2   -1    0    0    0  501 -0.00000000000E+00 -0.00000000000E+00 -0.46745491961E+03  0.46745491961E+03  0.00000000000E+00 0.  1.
         25    2    1    2    0    0  0.22997662777E+02  0.10089454863E+03 -0.19271570272E+03  0.25198624850E+03  0.12509646247E+03 0.  0.
          5    1    3    3  502    0  0.17981623992E+02  0.16870816375E+02  0.14063760449E+02  0.28691897890E+02  0.41800000000E+01 0.  1.
         -5    1    3    3    0  502  0.50160387846E+01  0.84023732250E+02 -0.20677946317E+03  0.22329435061E+03  0.41800000000E+01 0.  1.
        -11    1    1    2    0    0  0.76265688666E+01 -0.37179005895E+02 -0.12854955794E+02  0.40071098318E+02  0.00000000000E+00 0. -1.
         11    1    1    2    0    0 -0.30624231643E+02 -0.63715542731E+02 -0.21292662291E+03  0.22435521098E+03  0.00000000000E+00 0.  1.
</event>
<event>
 7    1  0.2612213E-009  0.9916585E+02  0.7561462E-02  0.1282060E+00
          2   -1    0    0  501    0  0.00000000000E+00  0.00000000000E+00  0.24843967730E+03  0.24843967730E+03  0.00000000000E+00 0. -1.
         -2   -1    0    0    0  501 -0.00000000000E+00 -0.00000000000E+00 -0.73132896665E+02  0.73132896665E+02  0.00000000000E+00 0.  1.
         25    2    1    2    0    0 -0.70719942709E+02  0.39394989064E+02  0.10048479478E+03  0.17971649257E+03  0.12509016051E+03 0.  0.
          5    1    3    3  502    0 -0.79703842058E+02  0.22149968015E+02  0.12387332374E+03  0.14901475181E+03  0.41800000000E+01 0.  1.
         -5    1    3    3    0  502  0.89838993488E+01  0.17245021049E+02 -0.23388528960E+02  0.30701740755E+02  0.41800000000E+01 0.  1.
        -11    1    1    2    0    0  0.97737936641E+01 -0.32900475669E+02 -0.11314984152E+02  0.36138583372E+02  0.00000000000E+00 0.  1.
         11    1    1    2    0    0  0.60946149045E+02 -0.64945133955E+01  0.86136969999E+02  0.10571749802E+03  0.00000000000E+00 0. -1.
</event>
<event>
 7    1  0.2838015E-009  0.1313038E+03  0.7561462E-02  0.1225534E+00
          1   -1    0    0  501    0  0.00000000000E+00  0.00000000000E+00  0.37340446095E+03  0.37340446095E+03  0.00000000000E+00 0. -1.
         -1   -1    0    0    0  501 -0.00000000000E+00 -0.00000000000E+00 -0.60545087825E+02  0.60545087825E+02  0.00000000000E+00 0.  1.
         25    2    1    2    0    0 -0.59564497553E+02 -0.83265705086E+02  0.14241577904E+03  0.21543413990E+03  0.12509399466E+03 0.  0.
          5    1    3    3  502    0 -0.62515937243E+02 -0.11049533480E+03  0.13768159880E+03  0.18732633683E+03  0.41800000000E+01 0.  1.
         -5    1    3    3    0  502  0.29514396896E+01  0.27229629715E+02  0.47341802408E+01  0.28107803066E+02  0.41800000000E+01 0.  1.
        -11    1    1    2    0    0  0.54628792029E+02  0.49393061690E+02  0.40315041441E+02  0.83960002549E+02  0.00000000000E+00 0.  1.
         11    1    1    2    0    0  0.49357055245E+01  0.33872643396E+02  0.13012855265E+03  0.13455540633E+03  0.00000000000E+00 0. -1.
</event>
<event>
 7    1  0.2612213E-009  0.9972315E+02  0.7561462E-02  0.1280879E+00
          2   -1    0    0  501    0  0.00000000000E+00  0.00000000000E+00  0.21546122680E+03  0.21546122680E+03  0.00000000000E+00 0. -1.
         -2   -1    0    0    0  501 -0.00000000000E+00 -0.00000000000E+00 -0.65063071527E+02  0.65063071527E+02  0.00000000000E+00 0.  1.
         25    2    1    2    0    0  0.21610460611E+02  0.41611931452E+02  0.79035191567E+02  0.15521558374E+03  0.12508697408E+03 0.  0.
          5    1    3    3  502    0  0.65356152554E+02 -0.30034256793E+01  0.62196792277E+02  0.90367918046E+02  0.41800000000E+01 0.  1.
         -5    1    3    3    0  502 -0.43745691943E+02  0.44615357131E+02  0.16838399290E+02  0.64847665696E+02  0.41800000000E+01 0.  1.
        -11    1    1    2    0    0  0.91122039862E+01 -0.39424623580E+02 -0.70408746986E+01  0.41071974903E+02  0.00000000000E+00 0.  1.
         11    1    1    2    0    0 -0.30722664597E+02 -0.21873078717E+01  0.78403838400E+02  0.84236739677E+02  0.00000000000E+00 0. -1.
</event>
<event>
 7    1  0.2612213E-009  0.1865069E+03  0.7561462E-02  0.1161650E+00
          1   -1    0    0  501    0  0.00000000000E+00  0.00000000000E+00  0.83977201776E+03  0.83977201776E+03  0.00000000000E+00 0. -1.
         -1   -1    0    0    0  501 -0.00000000000E+00 -0.00000000000E+00 -0.48086019753E+02  0.48086019753E+02  0.00000000000E+00 0.  1.
         25    2    1    2    0    0 -0.16386278014E+03  0.36872361211E+02  0.37945859608E+03  0.43341364766E+03  0.12509189461E+03 0.  0.
          5    1    3    3  502    0 -0.11204127719E+03 -0.31688826885E+02  0.16196537677E+03  0.19951863375E+03  0.41800000000E+01 0.  1.
         -5    1    3    3    0  502 -0.51821502954E+02  0.68561188096E+02  0.21749321932E+03  0.23389501391E+03  0.41800000000E+01 0.  1.
        -11    1    1    2    0    0  0.36261902296E+02 -0.20921199925E+02  0.30942455425E+02  0.52058214646E+02  0.00000000000E+00 0.  1.
         11    1    1    2    0    0  0.12760087784E+03 -0.15951161286E+02  0.38128494650E+03  0.40238617521E+03  0.00000000000E+00 0. -1.
</event>
<event>
 7    1  0.2612213E-009  0.1092417E+03  0.7561462E-02  0.1261981E+00
          2   -1    0    0  501    0  0.00000000000E+00  0.00000000000E+00  0.76363364736E+03  0.76363364736E+03  0.00000000000E+00 0. -1.
         -2   -1    0    0    0  501 -0.00000000000E+00 -0.00000000000E+00 -0.33377105324E+02  0.33377105324E+02  0.00000000000E+00 0.  1.
         25    2    1    2    0    0 -0.79721410274E+01  0.41064718014E+02  0.66203338222E+03  0.67504512670E+03  0.12509139786E+03 0.  0.
          5    1    3    3  502    0 -0.58953901268E+02  0.11178408559E+02  0.18962022958E+03  0.19893170476E+03  0.41800000000E+01 0. -1.
         -5    1    3    3    0  502  0.50981760241E+02  0.29886309454E+02  0.47241315263E+03  0.47611342194E+03  0.41800000000E+01 0. -1.
        -11    1    1    2    0    0 -0.40067616550E+02 -0.82378100817E+01  0.16476062173E+02  0.44099161394E+02  0.00000000000E+00 0.  1.
         11    1    1    2    0    0  0.48039757577E+02 -0.32826907932E+02  0.51747097647E+02  0.77866464588E+02  0.00000000000E+00 0. -1.
</event>
<event>
 7    1  0.2612213E-009  0.1300740E+03  0.7561462E-02  0.1227346E+00
         -1   -1    0    0    0  501 -0.00000000000E+00  0.00000000000E+00  0.11841516108E+02  0.11841516108E+02  0.00000000000E+00 0.  1.
          1   -1    0    0  501    0  0.00000000000E+00 -0.00000000000E+00 -0.23151593907E+04  0.23151593907E+04  0.00000000000E+00 0. -1.
         25    2    1    2    0    0 -0.88429072537E+02  0.74034303246E+01 -0.18478004170E+04  0.18541542890E+04  0.12508890717E+03 0.  0.
          5    1    3    3  502    0 -0.27253852367E+02  0.52262557843E+02 -0.12708533349E+04  0.12722263237E+04  0.41800000000E+01 0.  1.
         -5    1    3    3    0  502 -0.61175220171E+02 -0.44859127518E+02 -0.57694708216E+03  0.58192796539E+03  0.41800000000E+01 0.  1.
        -11    1    1    2    0    0  0.67772698831E+02  0.36199560219E+02 -0.31656115157E+03  0.32575222110E+03  0.00000000000E+00 0.  1.
         11    1    1    2    0    0  0.20656373706E+02 -0.43602990544E+02 -0.13895630594E+03  0.14709439663E+03  0.00000000000E+00 0. -1.
</event>
<event>
 7    1  0.2612213E-009  0.2328825E+03  0.7561462E-02  0.1124627E+00
          2   -1    0    0  501    0  0.00000000000E+00  0.00000000000E+00  0.16637120998E+03  0.16637120998E+03  0.00000000000E+00 0. -1.
         -2   -1    0    0    0  501 -0.00000000000E+00 -0.00000000000E+00 -0.33828977094E+03  0.33828977094E+03  0.00000000000E+00 0.  1.
         25    2    1    2    0    0 -0.15075752389E+03 -0.14594299184E+03 -0.71549262328E+02  0.25455644546E+03  0.12510994807E+03 0.  0.
          5    1    3    3  502    0 -0.16350108069E+03 -0.15649547391E+03 -0.60799094976E+02  0.23438736973E+03  0.41800000000E+01 0. -1.
         -5    1    3    3    0  502  0.12743556794E+02  0.10552482069E+02 -0.10750167352E+02  0.20169075727E+02  0.41800000000E+01 0. -1.
        -11    1    1    2    0    0  0.87549714238E+02  0.34276225712E+02 -0.72678258162E+02  0.11883577459E+03  0.00000000000E+00 0.  1.
         11    1    1    2    0    0  0.63207809655E+02  0.11166676613E+03 -0.27691040472E+02  0.13126876087E+03  0.00000000000E+00 0. -1.
</event>
<event>
 7    1  0.2612213E-009  0.1483410E+03  0.7561462E-02  0.1202527E+00
          3   -1    0    0  501    0  0.00000000000E+00  0.00000000000E+00  0.37281474265E+03  0.37281474265E+03  0.00000000000E+00 0. -1.
         -3   -1    0    0    0  501 -0.00000000000E+00 -0.00000000000E+00 -0.82889111688E+02  0.82889111688E+02  0.00000000000E+00 0.  1.
         25    2    1    2    0    0  0.89272190800E+02 -0.10570533679E+03  0.14631189800E+03  0.23706152538E+03  0.12509137877E+03 0.  0.
          5    1    3    3  502    0  0.86967347119E+02 -0.11712549012E+03  0.73874971213E+02  0.16357470364E+03  0.41800000000E+01 0. -1.
         -5    1    3    3    0  502  0.23048436812E+01  0.11420153326E+02  0.72436926792E+02  0.73486821740E+02  0.41800000000E+01 0. -1.
        -11    1    1    2    0    0 -0.11667607286E+02  0.14318537543E+02 -0.12129661049E+02  0.22097109637E+02  0.00000000000E+00 0.  1.
         11    1    1    2    0    0 -0.77604583515E+02  0.91386799250E+02  0.15574339401E+03  0.19654521932E+03  0.00000000000E+00 0. -1.
</event>
<event>
 7    1  0.2612213E-009  0.1699946E+03  0.7561462E-02  0.1177854E+00
         -2   -1    0    0    0  501 -0.00000000000E+00  0.00000000000E+00  0.15384052015E+03  0.15384052015E+03  0.00000000000E+00 0.  1.
          2   -1    0    0  501    0  0.00000000000E+00 -0.00000000000E+00 -0.19490402244E+03  0.19490402244E+03  0.00000000000E+00 0. -1.
         25    2    1    2    0    0  0.10127041081E+03 -0.84030375966E+02  0.45163959413E+00  0.18155944903E+03  0.12508728697E+03 0.  0.
          5    1    3    3  502    0 -0.23687828261E+02 -0.38341176005E+02  0.14927626081E+02  0.47659893051E+02  0.41800000000E+01 0.  1.
         -5    1    3    3    0  502  0.12495823907E+03 -0.45689199960E+02 -0.14475986487E+02  0.13389955598E+03  0.41800000000E+01 0.  1.
        -11    1    1    2    0    0 -0.63314321051E+02  0.10165827902E+03 -0.26004686042E+02  0.12255346849E+03  0.00000000000E+00 0.  1.
         11    1    1    2    0    0 -0.37956089763E+02 -0.17627903053E+02 -0.15510455848E+02  0.44631625074E+02  0.00000000000E+00 0. -1.
</event>
<event>
 7    1  0.2612213E-009  0.8037625E+02  0.7561462E-02  0.1327987E+00
          1   -1    0    0  501    0  0.00000000000E+00  0.00000000000E+00  0.10190070422E+03  0.10190070422E+03  0.00000000000E+00 0. -1.
         -1   -1    0    0    0  501 -0.00000000000E+00 -0.00000000000E+00 -0.14316317673E+03  0.14316317673E+03  0.00000000000E+00 0.  1.
         25    2    1    2    0    0 -0.38137111408E+02 -0.35459596932E+02 -0.19496799523E+02  0.13689050771E+03  0.12508822338E+03 0.  0.
          5    1    3    3  502    0  0.16682536410E+02 -0.27090820202E+02  0.42728297711E+02  0.53435937210E+02  0.41800000000E+01 0.  1.
         -5    1    3    3    0  502 -0.54819647818E+02 -0.83687767298E+01 -0.62225097234E+02  0.83454570496E+02  0.41800000000E+01 0.  1.
        -11    1    1    2    0    0  0.42064283018E+02  0.45683265110E+02  0.19807296423E+02  0.65182003717E+02  0.00000000000E+00 0. -1.
         11    1    1    2    0    0 -0.39271716096E+01 -0.10223668178E+02 -0.41572969409E+02  0.42991369522E+02  0.00000000000E+00 0.  1.
</event>
<event>
 7    1  0.2612213E-009  0.3082111E+03  0.7561462E-02  0.1081206E+00
          1   -1    0    0  501    0  0.00000000000E+00  0.00000000000E+00  0.59149788157E+03  0.59149788157E+03  0.00000000000E+00 0. -1.
         -1   -1    0    0    0  501 -0.00000000000E+00 -0.00000000000E+00 -0.16480476997E+03  0.16480476997E+03  0.00000000000E+00 0.  1.
         25    2    1    2    0    0  0.21373420081E+03  0.19582198923E+03  0.18805970696E+03  0.36748013020E+03  0.12508650065E+03 0.  0.
          5    1    3    3  502    0  0.65694214143E+02  0.30348156645E+00  0.67101308842E+02  0.93999361281E+02  0.41800000000E+01 0.  1.
         -5    1    3    3    0  502  0.14803998667E+03  0.19551850766E+03  0.12095839812E+03  0.27348076892E+03  0.41800000000E+01 0.  1.
        -11    1    1    2    0    0 -0.82980866973E+02 -0.18529675371E+02  0.85166657170E+02  0.12034339469E+03  0.00000000000E+00 0.  1.
         11    1    1    2    0    0 -0.13075333384E+03 -0.17729231386E+03  0.15346674748E+03  0.26847912665E+03  0.00000000000E+00 0. -1.
</event>
<event>
 7    1  0.2612213E-009  0.7905726E+02  0.7561462E-02  0.1331748E+00
          4   -1    0    0  501    0  0.00000000000E+00  0.00000000000E+00  0.29599102451E+02  0.29599102451E+02  0.00000000000E+00 0. -1.
         -4   -1    0    0    0  501 -0.00000000000E+00 -0.00000000000E+00 -0.55679118537E+03  0.55679118537E+03  0.00000000000E+00 0.  1.
         25    2    1    2    0    0  0.94802756393E+00 -0.47627559053E+02 -0.17944372854E+03  0.22386662047E+03  0.12508768489E+03 0.  0.
          5    1    3    3  502    0 -0.12641708727E+02 -0.12610545113E+02  0.16283024915E+02  0.24524435732E+02  0.41800000000E+01 0.  1.
         -5    1    3    3    0  502  0.13589736291E+02 -0.35017013940E+02 -0.19572675345E+03  0.19934218473E+03  0.41800000000E+01 0.  1.
        -11    1    1    2    0    0 -0.44689712905E+02  0.14073705287E+02 -0.17699974798E+03  0.18309601417E+03  0.00000000000E+00 0.  1.
         11    1    1    2    0    0  0.43741685341E+02  0.33553853765E+02 -0.17074860641E+03  0.17942765319E+03  0.00000000000E+00 0. -1.
</event>
<event>
 7    1  0.2612213E-009  0.1322519E+03  0.7561462E-02  0.1224152E+00
          2   -1    0    0  501    0  0.00000000000E+00  0.00000000000E+00  0.10927738479E+03  0.10927738479E+03  0.00000000000E+00 0. -1.
         -2   -1    0    0    0  501 -0.00000000000E+00 -0.00000000000E+00 -0.22024919076E+03  0.22024919076E+03  0.00000000000E+00 0.  1.
         25    2    1    2    0    0 -0.14618593405E+02 -0.93286678342E+02  0.10971836767E+01  0.15672866871E+03  0.12508622688E+03 0.  0.
          5    1    3    3  502    0  0.26459768341E+02 -0.10894320418E+03  0.56823362294E+01  0.11233210771E+03  0.41800000000E+01 0. -1.
         -5    1    3    3    0  502 -0.41078361746E+02  0.15656525838E+02 -0.45851525528E+01  0.44396561004E+02  0.41800000000E+01 0. -1.
        -11    1    1    2    0    0  0.34367100600E+02  0.51174762390E+02 -0.11017392244E+03  0.12624677063E+03  0.00000000000E+00 0.  1.
         11    1    1    2    0    0 -0.19748507195E+02  0.42111915952E+02 -0.18950672097E+01  0.46551136198E+02  0.00000000000E+00 0. -1.
</event>
<event>
 7    1  0.2612213E-009  0.1022586E+03  0.7561462E-02  0.1275617E+00
         -2   -1    0    0    0  501 -0.00000000000E+00  0.00000000000E+00  0.51531885479E+02  0.51531885479E+02  0.00000000000E+00 0.  1.
          2   -1    0    0  501    0  0.00000000000E+00 -0.00000000000E+00 -0.30779786329E+03  0.30779786329E+03  0.00000000000E+00 0. -1.
         25    2    1    2    0    0  0.90676076824E+01 -0.29313270186E+02 -0.22223691033E+03  0.25686264292E+03  0.12509070188E+03 0.  0.
          5    1    3    3  502    0  0.56493852577E+02 -0.44979976279E+02 -0.90126248148E+02  0.11556369088E+03  0.41800000000E+01 0. -1.
         -5    1    3    3    0  502 -0.47426244894E+02  0.15666706093E+02 -0.13211066218E+03  0.14129895204E+03  0.41800000000E+01 0. -1.
        -11    1    1    2    0    0 -0.29234881778E+02  0.46924930062E+02 -0.47139257660E+02  0.72654917154E+02  0.00000000000E+00 0. -1.
         11    1    1    2    0    0  0.20167274095E+02 -0.17611659876E+02  0.13110190182E+02  0.29812188693E+02  0.00000000000E+00 0.  1.
</event>
<event>
 7    1  0.2612213E-009  0.7489146E+02  0.7561462E-02  0.1344207E+00
          1   -1    0    0  501    0  0.00000000000E+00  0.00000000000E+00  0.16008820694E+04  0.16008820694E+04  0.00000000000E+00 0. -1.
         -1   -1    0    0    0  501 -0.00000000000E+00 -0.00000000000E+00 -0.13487886772E+02  0.13487886772E+02  0.00000000000E+00 0.  1.
         25    2    1    2    0    0  0.17182212398E+02  0.81136203556E+01  0.14196168859E+04  0.14252442003E+04  0.12509144050E+03 0.  0.
          5    1    3    3  502    0  0.86697328192E+01 -0.26248654116E+02  0.73227478090E+02  0.78382983214E+02  0.41800000000E+01 0. -1.
         -5    1    3    3    0  502  0.85124795791E+01  0.34362274472E+02  0.13463894078E+04  0.13468612171E+04  0.41800000000E+01 0. -1.
        -11    1    1    2    0    0  0.12109749083E+02 -0.40640360962E+02  0.67559398009E+02  0.79765639352E+02  0.00000000000E+00 0.  1.
         11    1    1    2    0    0 -0.29291961481E+02  0.32526740606E+02  0.10021789867E+03  0.10936011648E+03  0.00000000000E+00 0. -1.
</event>
<event>
 7    1  0.2612213E-009  0.1106027E+03  0.7561462E-02  0.1259458E+00
          2   -1    0    0  501    0  0.00000000000E+00  0.00000000000E+00  0.98726479866E+02  0.98726479866E+02  0.00000000000E+00 0. -1.
         -2   -1    0    0    0  501 -0.00000000000E+00 -0.00000000000E+00 -0.30251086114E+03  0.30251086114E+03  0.00000000000E+00 0.  1.
         25    2    1    2    0    0 -0.59293743255E+02  0.76360888677E+02  0.93396290723E-01  0.15809321510E+03  0.12508686033E+03 0.  0.
          5    1    3    3  502    0 -0.37495033438E+02 -0.38398530570E+01  0.48698854249E+02  0.61722547008E+02  0.41800000000E+01 0. -1.
         -5    1    3    3    0  502 -0.21798709817E+02  0.80200741734E+02 -0.48605457958E+02  0.96370668088E+02  0.41800000000E+01 0. -1.
        -11    1    1    2    0    0  0.97913256917E+01 -0.32454679826E+02 -0.59096659235E+01  0.34410760711E+02  0.00000000000E+00 0. -1.
         11    1    1    2    0    0  0.49502417564E+02 -0.43906208851E+02 -0.19796811164E+03  0.20873336520E+03  0.00000000000E+00 0.  1.
</event>
<event>
 7    1  0.2612213E-009  0.1147258E+03  0.7561462E-02  0.1252060E+00
          3   -1    0    0  501    0  0.00000000000E+00  0.00000000000E+00  0.46765348974E+02  0.46765348974E+02  0.00000000000E+00 0. -1.
         -3   -1    0    0    0  501 -0.00000000000E+00 -0.00000000000E+00 -0.45903263901E+03  0.45903263901E+03  0.00000000000E+00 0.  1.
         25    2    1    2    0    0  0.75665339381E+02  0.51384205920E+01 -0.34786004611E+03  0.37736754085E+03  0.12509197519E+03 0.  0.
          5    1    3    3  502    0  0.37943308107E+02  0.58605808050E+02 -0.24979344630E+03  0.25940041169E+03  0.41800000000E+01 0.  1.
         -5    1    3    3    0  502  0.37722031274E+02 -0.53467387458E+02 -0.98066599806E+02  0.11796712916E+03  0.41800000000E+01 0.  1.
        -11    1    1    2    0    0 -0.50427702479E+02  0.23615368036E+02 -0.26046337083E+01  0.55744263396E+02  0.00000000000E+00 0. -1.
         11    1    1    2    0    0 -0.25237636902E+02 -0.28753788628E+02 -0.61802610214E+02  0.72686183736E+02  0.00000000000E+00 0.  1.
</event>
<event>
 7    1  0.2612213E-009  0.1033774E+03  0.7561462E-02  0.1273350E+00
         -1   -1    0    0    0  501 -0.00000000000E+00  0.00000000000E+00  0.28814546497E+03  0.28814546497E+03  0.00000000000E+00 0.  1.
          1   -1    0    0  501    0  0.00000000000E+00 -0.00000000000E+00 -0.55090475986E+02  0.55090475986E+02  0.00000000000E+00 0. -1.
         25    2    1    2    0    0  0.20403912237E+02 -0.55244689162E+02  0.16695492733E+03  0.21676980528E+03  0.12508759094E+03 0.  0.
          5    1    3    3  502    0 -0.42200782414E+02 -0.15329827230E+02  0.14876728372E+02  0.47483671786E+02  0.41800000000E+01 0. -1.
         -5    1    3    3    0  502  0.62604694651E+02 -0.39914861932E+02  0.15207819896E+03  0.16928613349E+03  0.41800000000E+01 0. -1.
        -11    1    1    2    0    0 -0.43974253861E+02  0.37540537824E+02  0.75888355148E+02  0.95404766285E+02  0.00000000000E+00 0.  1.
         11    1    1    2    0    0  0.23570341624E+02  0.17704151338E+02 -0.97882934949E+01  0.31061369391E+02  0.00000000000E+00 0. -1.
</event>
<event>
 7    1  0.2612213E-009  0.1171831E+03  0.7561462E-02  0.1247818E+00
          2   -1    0    0  501    0  0.00000000000E+00  0.00000000000E+00  0.10365535192E+04  0.10365535192E+04  0.00000000000E+00 0. -1.
         -2   -1    0    0    0  501 -0.00000000000E+00 -0.00000000000E+00 -0.20305959388E+02  0.20305959388E+02  0.00000000000E+00 0.  1.
         25    2    1    2    0    0  0.18737568608E+01  0.94952482613E+02  0.62687321377E+03  0.64624826177E+03  0.12508918729E+03 0.  0.
          5    1    3    3  502    0  0.23105070481E+02  0.39768316399E+02  0.53450623915E+03  0.53649767507E+03  0.41800000000E+01 0.  1.
         -5    1    3    3    0  502 -0.21231313620E+02  0.55184166215E+02  0.92366974621E+02  0.10975058669E+03  0.41800000000E+01 0.  1.
        -11    1    1    2    0    0 -0.36707599832E+02 -0.85144598166E+02  0.25083218768E+03  0.26742071135E+03  0.00000000000E+00 0. -1.
         11    1    1    2    0    0  0.34833842971E+02 -0.98078844473E+01  0.13854215833E+03  0.14319050544E+03  0.00000000000E+00 0.  1.
</event>
<event>
 7    1  0.2612213E-009  0.1380770E+03  0.7561462E-02  0.1215940E+00
          2   -1    0    0  501    0  0.00000000000E+00  0.00000000000E+00  0.83862772383E+03  0.83862772383E+03  0.00000000000E+00 0. -1.
         -2   -1    0    0    0  501 -0.00000000000E+00 -0.00000000000E+00 -0.26503808865E+02  0.26503808865E+02  0.00000000000E+00 0.  1.
         25    2    1    2    0    0 -0.36017496536E+02 -0.87152875080E+02  0.55623057087E+03  0.57786898065E+03  0.12508887695E+03 0.  0.
          5    1    3    3  502    0 -0.19965527035E+02  0.25210185665E+02  0.54289565341E+02  0.63237686833E+02  0.41800000000E+01 0.  1.
         -5    1    3    3    0  502 -0.16051969501E+02 -0.11236306075E+03  0.50194100553E+03  0.51463129382E+03  0.41800000000E+01 0.  1.
        -11    1    1    2    0    0 -0.19461876312E+02  0.69119854547E+02  0.13011787101E+03  0.14861688759E+03  0.00000000000E+00 0.  1.
         11    1    1    2    0    0  0.55479372848E+02  0.18033020533E+02  0.12577547309E+03  0.13864566445E+03  0.00000000000E+00 0. -1.
</event>
<event>
 7    1  0.2612213E-009  0.1810646E+03  0.7561462E-02  0.1166777E+00
         -4   -1    0    0    0  501 -0.00000000000E+00  0.00000000000E+00  0.41171064768E+03  0.41171064768E+03  0.00000000000E+00 0.  1.
          4   -1    0    0  501    0  0.00000000000E+00 -0.00000000000E+00 -0.10432928485E+03  0.10432928485E+03  0.00000000000E+00 0. -1.
         25    2    1    2    0    0 -0.13145206658E+03 -0.66571932932E+02  0.40107320074E+02  0.19740055321E+03  0.12508762218E+03 0.  0.
          5    1    3    3  502    0 -0.44413904476E+02  0.36634314301E+02  0.56401200772E+01  0.57999579736E+02  0.41800000000E+01 0. -1.
         -5    1    3    3    0  502 -0.87038162102E+02 -0.10320624723E+03  0.34467199996E+02  0.13940097347E+03  0.41800000000E+01 0. -1.
        -11    1    1    2    0    0  0.91679744349E+02 -0.12120753562E+00  0.10966181361E+03  0.14293671179E+03  0.00000000000E+00 0. -1.
         11    1    1    2    0    0  0.39772322229E+02  0.66693140468E+02  0.15761222914E+03  0.17570266753E+03  0.00000000000E+00 0.  1.
</event>
<event>
 7    1  0.2612213E-009  0.1386653E+03  0.7561462E-02  0.1215136E+00
         -2   -1    0    0    0  501 -0.00000000000E+00  0.00000000000E+00  0.28095778700E+02  0.28095778700E+02  0.00000000000E+00 0.  1.
          2   -1    0    0  501    0  0.00000000000E+00 -0.00000000000E+00 -0.79168107577E+03  0.79168107577E+03  0.00000000000E+00 0. -1.
         25    2    1    2    0    0  0.83664514749E+02  0.15978925476E+02 -0.55814904062E+03  0.57830207880E+03  0.12509142941E+03 0.  0.
          5    1    3    3  502    0  0.50549343020E+02 -0.53487696372E+02 -0.24818451779E+03  0.25889997492E+03  0.41800000000E+01 0. -1.
         -5    1    3    3    0  502  0.33115171729E+02  0.69466621848E+02 -0.30996452284E+03  0.31940210389E+03  0.41800000000E+01 0. -1.
        -11    1    1    2    0    0 -0.99798450483E+02 -0.31001586663E+02 -0.16234387254E+03  0.19307087312E+03  0.00000000000E+00 0.  1.
         11    1    1    2    0    0  0.16133935734E+02  0.15022661187E+02 -0.43092383911E+02  0.48403902555E+02  0.00000000000E+00 0. -1.
</event>
<event>
 7    1  0.2612213E-009  0.1254784E+03  0.7561462E-02  0.1234324E+00
          1   -1    0    0  501    0  0.00000000000E+00  0.00000000000E+00  0.82391816524E+02  0.82391816524E+02  0.00000000000E+00 0. -1.
         -1   -1    0    0    0  501 -0.00000000000E+00 -0.00000000000E+00 -0.25144071254E+03  0.25144071254E+03  0.00000000000E+00 0.  1.
         25    2    1    2    0    0  0.65442335998E+02  0.63592784902E+02 -0.63311687501E+02  0.16727929034E+03  0.12508896661E+03 0.  0.
          5    1    3    3  502    0  0.38358638941E+02 -0.18372086282E+02 -0.68456866733E+02  0.80701510138E+02  0.41800000000E+01 0. -1.
         -5    1    3    3    0  502  0.27083697057E+02  0.81964871184E+02  0.51451792321E+01  0.86577780197E+02  0.41800000000E+01 0. -1.
        -11    1    1    2    0    0 -0.35957126545E+02  0.14156316520E+02 -0.10339513434E+02  0.40002772214E+02  0.00000000000E+00 0. -1.
         11    1    1    2    0    0 -0.29485209453E+02 -0.77749101423E+02 -0.95397695083E+02  0.12655046652E+03  0.00000000000E+00 0.  1.
</event>
<event>
 7    1  0.2612213E-009  0.1233923E+03  0.7561462E-02  0.1237603E+00
          2   -1    0    0  501    0  0.00000000000E+00  0.00000000000E+00  0.17183867274E+03  0.17183867274E+03  0.00000000000E+00 0. -1.
         -2   -1    0    0    0  501 -0.00000000000E+00 -0.00000000000E+00 -0.10713707473E+03  0.10713707473E+03  0.00000000000E+00 0.  1.
         25    2    1    2    0    0  0.73855586844E+02 -0.16822655473E+02  0.17724626001E+02  0.14730674486E+03  0.12508982880E+03 0.  0.
          5    1    3    3  502    0 -0.58106767953E+01  0.30581471648E+02  0.40987972729E+02  0.51637938392E+02  0.41800000000E+01 0. -1.
         -5    1    3    3    0  502  0.79666263639E+02 -0.47404127120E+02 -0.23263346728E+02  0.95668806470E+02  0.41800000000E+01 0. -1.
        -11    1    1    2    0    0 -0.71795181118E+01  0.48311192179E+02  0.13400300450E+02  0.50646666447E+02  0.00000000000E+00 0. -1.
         11    1    1    2    0    0 -0.66676068732E+02 -0.31488536706E+02  0.33576671557E+02  0.81022336170E+02  0.00000000000E+00 0.  1.
</event>
<event>
 7    1  0.2612213E-009  0.1087374E+03  0.7561462E-02  0.1262926E+00
         -2   -1    0    0    0  501 -0.00000000000E+00  0.00000000000E+00  0.36838482247E+02  0.36838482247E+02  0.00000000000E+00 0. -1.
          2   -1    0    0  501    0  0.00000000000E+00 -0.00000000000E+00 -0.36485058998E+03  0.36485058998E+03  0.00000000000E+00 0.  1.
         25    2    1    2    0    0 -0.12451017072E+02  0.27062629726E+02 -0.22507018801E+03  0.25921321410E+03  0.12508991596E+03 0.  0.
          5    1    3    3  502    0 -0.26675171829E+02 -0.45969170522E+02 -0.80256249239E+02  0.96349713920E+02  0.41800000000E+01 0. -1.
         -5    1    3    3    0  502  0.14224154757E+02  0.73031800249E+02 -0.14481393878E+03  0.16286350018E+03  0.41800000000E+01 0. -1.
        -11    1    1    2    0    0  0.45365366953E+02 -0.33126404684E+02 -0.33536149236E+02  0.65422079695E+02  0.00000000000E+00 0.  1.
         11    1    1    2    0    0 -0.32914349881E+02  0.60637749576E+01 -0.69405770480E+02  0.77053778433E+02  0.00000000000E+00 0. -1.
</event>
<event>
 7    1  0.2612213E-009  0.1199860E+03  0.7561462E-02  0.1243120E+00
          2   -1    0    0  501    0  0.00000000000E+00  0.00000000000E+00  0.35770113542E+03  0.35770113542E+03  0.00000000000E+00 0. -1.
         -2   -1    0    0    0  501 -0.00000000000E+00 -0.00000000000E+00 -0.48692961410E+02  0.48692961410E+02  0.00000000000E+00 0.  1.
         25    2    1    2    0    0  0.14026717977E+02 -0.72464807190E+02  0.15259553274E+03  0.21066778762E+03  0.12509045939E+03 0.  0.
          5    1    3    3  502    0 -0.25059423303E+02  0.26714842994E+02  0.54101643122E+02  0.65468448286E+02  0.41800000000E+01 0. -1.
         -5    1    3    3    0  502  0.39086141280E+02 -0.99179650184E+02  0.98493889622E+02  0.14519933934E+03  0.41800000000E+01 0. -1.
        -11    1    1    2    0    0 -0.19540367284E+02 -0.38418103938E+01 -0.17911759345E+01  0.19994843634E+02  0.00000000000E+00 0.  1.
         11    1    1    2    0    0  0.55136493071E+01  0.76306617584E+02  0.15820381720E+03  0.17573146558E+03  0.00000000000E+00 0. -1.
</event>
<event>
 7    1  0.2612213E-009  0.1095178E+03  0.7561462E-02  0.1261465E+00
          1   -1    0    0  501    0  0.00000000000E+00  0.00000000000E+00  0.20816046350E+03  0.20816046350E+03  0.00000000000E+00 0. -1.
         -1   -1    0    0    0  501 -0.00000000000E+00 -0.00000000000E+00 -0.13577982490E+03  0.13577982490E+03  0.00000000000E+00 0.  1.
         25    2    1    2    0    0 -0.65332555934E+02 -0.20236021156E+02  0.14886064823E+03  0.20612029825E+03  0.12509294681E+03 0.  0.
          5    1    3    3  502    0 -0.72000314270E+02  0.17748872372E+02  0.28316311381E+02  0.79488072160E+02  0.41800000000E+01 0.  1.
         -5    1    3    3    0  502  0.66677583362E+01 -0.37984893528E+02  0.12054433685E+03  0.12663222609E+03  0.41800000000E+01 0.  1.
        -11    1    1    2    0    0  0.81387198790E+02  0.16408173556E+01 -0.32916713133E+02  0.87807052177E+02  0.00000000000E+00 0. -1.
         11    1    1    2    0    0 -0.16054642856E+02  0.18595203800E+02 -0.43563296500E+02  0.50012937962E+02  0.00000000000E+00 0.  1.
</event>
<event>
 7    1  0.2612213E-009  0.1125661E+03  0.7561462E-02  0.1255890E+00
         -2   -1    0    0    0  501 -0.00000000000E+00  0.00000000000E+00  0.16192133474E+03  0.16192133474E+03  0.00000000000E+00 0.  1.
          2   -1    0    0  501    0  0.00000000000E+00 -0.00000000000E+00 -0.14013511811E+03  0.14013511811E+03  0.00000000000E+00 0. -1.
         25    2    1    2    0    0 -0.62712854845E+02 -0.67415989413E+02 -0.36086899435E+02  0.15945188922E+03  0.12507926637E+03 0.  0.
          5    1    3    3  502    0 -0.47423439042E+02 -0.34373872135E+02  0.42669961271E+02  0.72586111971E+02  0.41800000000E+01 0.  1.
         -5    1    3    3    0  502 -0.15289415804E+02 -0.33042117278E+02 -0.78756860705E+02  0.86865777254E+02  0.41800000000E+01 0.  1.
        -11    1    1    2    0    0  0.18774707039E+02 -0.22729974182E+02  0.18869276726E+02  0.35002727820E+02  0.00000000000E+00 0. -1.
         11    1    1    2    0    0  0.43938147806E+02  0.90145963595E+02  0.39003839336E+02  0.10760183580E+03  0.00000000000E+00 0.  1.
</event>
<event>
 7    1  0.2612213E-009  0.7981107E+02  0.7561462E-02  0.1329588E+00
         -1   -1    0    0    0  501 -0.00000000000E+00  0.00000000000E+00  0.36112393440E+02  0.36112393440E+02  0.00000000000E+00 0.  1.
          1   -1    0    0  501    0  0.00000000000E+00 -0.00000000000E+00 -0.46326600701E+03  0.46326600701E+03  0.00000000000E+00 0. -1.
         25    2    1    2    0    0 -0.72563340221E+01 -0.34036904109E+02 -0.13215802080E+03  0.18526645210E+03  0.12508697209E+03 0.  0.
          5    1    3    3  502    0 -0.60954355222E+00 -0.41002342369E+02 -0.15486192933E+03  0.16025371503E+03  0.41800000000E+01 0. -1.
         -5    1    3    3    0  502 -0.66467904699E+01  0.69654382600E+01  0.22703908527E+02  0.25012737077E+02  0.41800000000E+01 0. -1.
        -11    1    1    2    0    0  0.50042483607E+02  0.40828284858E+02 -0.17615873301E+03  0.18762488701E+03  0.00000000000E+00 0.  1.
         11    1    1    2    0    0 -0.42786149585E+02 -0.67913807491E+01 -0.11883685975E+03  0.12648706133E+03  0.00000000000E+00 0. -1.
</event>
<event>
 7    1  0.2612213E-009  0.1157968E+03  0.7561462E-02  0.1250197E+00
          2   -1    0    0  501    0  0.00000000000E+00  0.00000000000E+00  0.25235625426E+03  0.25235625426E+03  0.00000000000E+00 0. -1.
         -2   -1    0    0    0  501 -0.00000000000E+00 -0.00000000000E+00 -0.75838444245E+02  0.75838444245E+02  0.00000000000E+00 0.  1.
         25    2    1    2    0    0 -0.16370925843E+02  0.73336877074E+02  0.14545815908E+03  0.20603903811E+03  0.12509078475E+03 0.  0.
          5    1    3    3  502    0  0.32565715996E+02  0.88459473690E+02  0.89252013825E+02  0.12988070956E+03  0.41800000000E+01 0. -1.
         -5    1    3    3    0  502 -0.48936641839E+02 -0.15122596617E+02  0.56206145256E+02  0.76158328549E+02  0.41800000000E+01 0. -1.
        -11    1    1    2    0    0 -0.11479974369E+02 -0.59467542614E+01 -0.26349117058E+02  0.29350122104E+02  0.00000000000E+00 0.  1.
         11    1    1    2    0    0  0.27850900212E+02 -0.67390122812E+02  0.57408767991E+02  0.92805538291E+02  0.00000000000E+00 0. -1.
</event>
<event>
 7    1  0.2612213E-009  0.6364616E+02  0.7561462E-02  0.1383138E+00
          1   -1    0    0  501    0  0.00000000000E+00  0.00000000000E+00  0.32484513583E+02  0.32484513583E+02  0.00000000000E+00 0. -1.
         -1   -1    0    0    0  501 -0.00000000000E+00 -0.00000000000E+00 -0.88865276282E+03  0.88865276282E+03  0.00000000000E+00 0.  1.
         25    2    1    2    0    0  0.10597519954E+02  0.21634492916E+01 -0.80166846824E+03  0.81143993498E+03  0.12508176196E+03 0.  0.
          5    1    3    3  502    0  0.15293748779E+02  0.17945964622E+02 -0.79103600738E+03  0.79139837867E+03  0.41800000000E+01 0. -1.
         -5    1    3    3    0  502 -0.46962288251E+01 -0.15782515330E+02 -0.10632460859E+02  0.20041556308E+02  0.41800000000E+01 0. -1.
        -11    1    1    2    0    0 -0.13405835915E+01 -0.43741081130E+02 -0.44679841108E+01  0.43989114844E+02  0.00000000000E+00 0. -1.
         11    1    1    2    0    0 -0.92569363628E+01  0.41577631838E+02 -0.50031796893E+02  0.65708226581E+02  0.00000000000E+00 0.  1.
</event>
<event>
 7    1  0.3803498E-009  0.1094205E+03  0.7561462E-02  0.1261647E+00
          2   -1    0    0  501    0  0.00000000000E+00  0.00000000000E+00  0.98150230551E+03  0.98150230551E+03  0.00000000000E+00 0.  1.
         -2   -1    0    0    0  501 -0.00000000000E+00 -0.00000000000E+00 -0.20661002187E+02  0.20661002187E+02  0.00000000000E+00 0. -1.
         25    2    1    2    0    0  0.61138340216E+02  0.53064308059E+02  0.67977675219E+03  0.69591496270E+03  0.12508990793E+03 0.  0.
          5    1    3    3  502    0  0.50009757166E+02  0.69538206208E+02  0.22661536808E+03  0.24229844280E+03  0.41800000000E+01 0.  1.
         -5    1    3    3    0  502  0.11128583050E+02 -0.16473898150E+02  0.45316138411E+03  0.45361651990E+03  0.41800000000E+01 0.  1.
        -11    1    1    2    0    0 -0.10673449734E+02 -0.60787814786E+02  0.94846324078E+02  0.11315876522E+03  0.00000000000E+00 0.  1.
         11    1    1    2    0    0 -0.50464890481E+02  0.77235067271E+01  0.18621822706E+03  0.19308957977E+03  0.00000000000E+00 0. -1.
</event>
<event>
 7    1  0.2612213E-009  0.1287612E+03  0.7561462E-02  0.1229306E+00
         -1   -1    0    0    0  501 -0.00000000000E+00  0.00000000000E+00  0.26930208035E+03  0.26930208035E+03  0.00000000000E+00 0.  1.
          1   -1    0    0  501    0  0.00000000000E+00 -0.00000000000E+00 -0.10128247266E+03  0.10128247266E+03  0.00000000000E+00 0. -1.
         25    2    1    2    0    0 -0.96583115165E+02  0.77530447608E+02  0.90040000730E+02  0.19772180014E+03  0.12508972810E+03 0.  0.
          5    1    3    3  502    0 -0.40236814773E+02  0.60396788991E+01  0.98058707529E+02  0.10624717176E+03  0.41800000000E+01 0. -1.
         -5    1    3    3    0  502 -0.56346300392E+02  0.71490768709E+02 -0.80187067991E+01  0.91474628380E+02  0.41800000000E+01 0. -1.
        -11    1    1    2    0    0  0.12847899882E+02 -0.20475788898E+02  0.66659452826E+02  0.70907045584E+02  0.00000000000E+00 0.  1.
         11    1    1    2    0    0  0.83735215283E+02 -0.57054658710E+02  0.11320154136E+02  0.10195570729E+03  0.00000000000E+00 0. -1.
</event>
<event>
 7    1  0.2612213E-009  0.2310157E+03  0.7561462E-02  0.1125927E+00
         -2   -1    0    0    0  501 -0.00000000000E+00  0.00000000000E+00  0.69337488378E+03  0.69337488378E+03  0.00000000000E+00 0.  1.
          2   -1    0    0  501    0  0.00000000000E+00 -0.00000000000E+00 -0.10485711013E+03  0.10485711013E+03  0.00000000000E+00 0. -1.
         25    2    1    2    0    0 -0.16984621597E+03  0.12761710998E+03  0.49783334066E+03  0.55553421694E+03  0.12508543995E+03 0.  0.
          5    1    3    3  502    0  0.17903238319E+00 -0.20043292013E+02  0.55551962747E+02  0.59205224198E+02  0.41800000000E+01 0.  1.
         -5    1    3    3    0  502 -0.17002524835E+03  0.14766040199E+03  0.44228137791E+03  0.49632899274E+03  0.41800000000E+01 0.  1.
        -11    1    1    2    0    0  0.93251440649E+02 -0.44594953583E+02  0.77043309078E+02  0.12891940328E+03  0.00000000000E+00 0.  1.
         11    1    1    2    0    0  0.76594775317E+02 -0.83022156394E+02  0.13641123909E+02  0.11377837369E+03  0.00000000000E+00 0. -1.
</event>
<event>
 7    1  0.2612213E-009  0.1045663E+03  0.7561462E-02  0.1270976E+00
         -1   -1    0    0    0  501 -0.00000000000E+00  0.00000000000E+00  0.23020991525E+02  0.23020991525E+02  0.00000000000E+00 0.  1.
          1   -1    0    0  501    0  0.00000000000E+00 -0.00000000000E+00 -0.11469411503E+04  0.11469411503E+04  0.00000000000E+00 0. -1.
         25    2    1    2    0    0 -0.94637966044E+02  0.19025886047E+02 -0.86551137428E+03  0.87981549147E+03  0.12508809323E+03 0.  0.
          5    1    3    3  502    0 -0.31284483253E+02 -0.16321412702E+01 -0.37180130151E+02  0.48797717729E+02  0.41800000000E+01 0.  1.
         -5    1    3    3    0  502 -0.63353482791E+02  0.20658027317E+02 -0.82833124413E+03  0.83101777374E+03  0.41800000000E+01 0.  1.
        -11    1    1    2    0    0  0.21625921560E+02 -0.29943852576E+02 -0.17458220681E+03  0.17844680363E+03  0.00000000000E+00 0. -1.
         11    1    1    2    0    0  0.73012044484E+02  0.10917966529E+02 -0.83826577694E+02  0.11169984674E+03  0.00000000000E+00 0.  1.
</event>
<event>
 7    1  0.2612213E-009  0.1307921E+03  0.7561462E-02  0.1226285E+00
         -1   -1    0    0    0  501 -0.00000000000E+00  0.00000000000E+00  0.50165315257E+02  0.50165315257E+02  0.00000000000E+00 0.  1.
          1   -1    0    0  501    0  0.00000000000E+00 -0.00000000000E+00 -0.44049644682E+03  0.44049644682E+03  0.00000000000E+00 0. -1.
         25    2    1    2    0    0 -0.96867575880E+01 -0.10966137716E+03 -0.22371034151E+03  0.27895054376E+03  0.12509051945E+03 0.  0.
          5    1    3    3  502    0 -0.40410861027E+02 -0.41288239891E+01 -0.12377822171E+03  0.13034034466E+03  0.41800000000E+01 0.  1.
         -5    1    3    3    0  502  0.30724103439E+02 -0.10553255317E+03 -0.99932119800E+02  0.14861019910E+03  0.41800000000E+01 0.  1.
        -11    1    1    2    0    0  0.39504633103E+01  0.93886604106E+02 -0.17032004467E+03  0.19452305315E+03  0.00000000000E+00 0. -1.
         11    1    1    2    0    0  0.57362942777E+01  0.15774773050E+02  0.36992546197E+01  0.17188165159E+02  0.00000000000E+00 0.  1.
</event>
<event>
 7    1  0.2612213E-009  0.1104353E+03  0.7561462E-02  0.1259766E+00
         -2   -1    0    0    0  501 -0.00000000000E+00  0.00000000000E+00  0.83386666827E+02  0.83386666827E+02  0.00000000000E+00 0.  1.
          2   -1    0    0  501    0  0.00000000000E+00 -0.00000000000E+00 -0.26954338293E+03  0.26954338293E+03  0.00000000000E+00 0. -1.
         25    2    1    2    0    0 -0.31882233072E+02 -0.84133217586E+02 -0.41270265630E+02  0.15951457774E+03  0.12508713203E+03 0.  0.
          5    1    3    3  502    0 -0.10557224261E+02 -0.93708346714E+02 -0.73391924853E+02  0.11956820757E+03  0.41800000000E+01 0.  1.
         -5    1    3    3    0  502 -0.21325008811E+02  0.95751291272E+01  0.32121659223E+02  0.39946370171E+02  0.41800000000E+01 0.  1.
        -11    1    1    2    0    0  0.23138936260E+02  0.57261944211E+01  0.47033581718E+01  0.24296527569E+02  0.00000000000E+00 0.  1.
         11    1    1    2    0    0  0.87432968111E+01  0.78407023165E+02 -0.14958980864E+03  0.16911894444E+03  0.00000000000E+00 0. -1.
</event>
<event>
 7    1  0.2612213E-009  0.1584649E+03  0.7561462E-02  0.1190441E+00
          3   -1    0    0  501    0  0.00000000000E+00  0.00000000000E+00  0.23301987647E+03  0.23301987647E+03  0.00000000000E+00 0. -1.
         -3   -1    0    0    0  501 -0.00000000000E+00 -0.00000000000E+00 -0.12241721461E+03  0.12241721461E+03  0.00000000000E+00 0.  1.
         25    2    1    2    0    0  0.11514928670E+03  0.56922312126E+02  0.73254561871E+02  0.19368585873E+03  0.12509385753E+03 0.  0.
          5    1    3    3  502    0  0.12256243378E+03  0.84431592668E+02  0.70568069260E+02  0.16476519297E+03  0.41800000000E+01 0. -1.
         -5    1    3    3    0  502 -0.74131470772E+01 -0.27509280542E+02  0.26864926115E+01  0.28920665761E+02  0.41800000000E+01 0. -1.
        -11    1    1    2    0    0 -0.10225259212E+03 -0.25652998162E+02  0.59754401249E+02  0.12117861766E+03  0.00000000000E+00 0. -1.
         11    1    1    2    0    0 -0.12896694584E+02 -0.31269313964E+02 -0.22406301254E+02  0.40572614691E+02  0.00000000000E+00 0.  1.
</event>
<event>
 7    1  0.2612213E-009  0.1514835E+03  0.7561462E-02  0.1198662E+00
         -1   -1    0    0    0  501 -0.00000000000E+00  0.00000000000E+00  0.26698926486E+02  0.26698926486E+02  0.00000000000E+00 0.  1.
          1   -1    0    0  501    0  0.00000000000E+00 -0.00000000000E+00 -0.97940816199E+03  0.97940816199E+03  0.00000000000E+00 0. -1.
         25    2    1    2    0    0  0.11192101510E+03  0.17417190454E+02 -0.64097464959E+03  0.66281651309E+03  0.12509019330E+03 0.  0.
          5    1    3    3  502    0  0.40456941161E+02  0.66194577728E+02 -0.22858625639E+03  0.24142832315E+03  0.41800000000E+01 0.  1.
         -5    1    3    3    0  502  0.71464073943E+02 -0.48777387274E+02 -0.41238839320E+03  0.42138818994E+03  0.41800000000E+01 0.  1.
        -11    1    1    2    0    0 -0.91773059858E+02  0.22008723841E+02 -0.16569633381E+03  0.19068810524E+03  0.00000000000E+00 0.  1.
         11    1    1    2    0    0 -0.20147955246E+02 -0.39425914295E+02 -0.14603825211E+03  0.15260247015E+03  0.00000000000E+00 0. -1.
</event>
<event>
 7    1  0.2612213E-009  0.2849480E+03  0.7561462E-02  0.1093017E+00
         -2   -1    0    0    0  501 -0.00000000000E+00  0.00000000000E+00  0.13866820980E+03  0.13866820980E+03  0.00000000000E+00 0.  1.
          2   -1    0    0  501    0  0.00000000000E+00 -0.00000000000E+00 -0.86078965157E+03  0.86078965157E+03  0.00000000000E+00 0. -1.
         25    2    1    2    0    0 -0.24216277168E+03 -0.13997360360E+03 -0.61374236605E+03  0.68597600660E+03  0.12509185448E+03 0.  0.
          5    1    3    3  502    0 -0.50214765686E+02 -0.20354749655E+02 -0.35112226213E+02  0.64700690538E+02  0.41800000000E+01 0.  1.
         -5    1    3    3    0  502 -0.19194800599E+03 -0.11961885395E+03 -0.57863013983E+03  0.62127531606E+03  0.41800000000E+01 0.  1.
        -11    1    1    2    0    0  0.17874029323E+03  0.13813074337E+03 -0.60098145939E+02  0.23375196648E+03  0.00000000000E+00 0.  1.
         11    1    1    2    0    0  0.63422478446E+02  0.18428602359E+01 -0.48280929783E+02  0.79729888290E+02  0.00000000000E+00 0. -1.
</event>
<event>
 7    1  0.2612213E-009  0.9457528E+02  0.7561462E-02  0.1292136E+00
         -2   -1    0    0    0  501 -0.00000000000E+00  0.00000000000E+00  0.34464144041E+02  0.34464144041E+02  0.00000000000E+00 0. -1.
          2   -1    0    0  501    0  0.00000000000E+00 -0.00000000000E+00 -0.70899742777E+03  0.70899742777E+03  0.00000000000E+00 0.  1.
         25    2    1    2    0    0 -0.23784867506E+02  0.24178555778E+02 -0.61891270582E+03  0.63233616718E+03  0.12508304610E+03 0.  0.
          5    1    3    3  502    0 -0.56624956067E+02 -0.27591267603E+02 -0.40046321393E+03  0.40540833958E+03  0.41800000000E+01 0. -1.
         -5    1    3    3    0  502  0.32840088561E+02  0.51769823380E+02 -0.21844949189E+03  0.22692782760E+03  0.41800000000E+01 0. -1.
        -11    1    1    2    0    0  0.31822389311E+02 -0.37396230701E+02 -0.72924060701E+02  0.87915079260E+02  0.00000000000E+00 0.  1.
         11    1    1    2    0    0 -0.80375218049E+01  0.13217674923E+02  0.17303482789E+02  0.23210325370E+02  0.00000000000E+00 0. -1.
</event>
<event>
 7    1  0.2612213E-009  0.1327834E+03  0.7561462E-02  0.1223383E+00
         -2   -1    0    0    0  501 -0.00000000000E+00  0.00000000000E+00  0.22761978150E+02  0.22761978150E+02  0.00000000000E+00 0. -1.
          2   -1    0    0  501    0  0.00000000000E+00 -0.00000000000E+00 -0.99272927417E+03  0.99272927417E+03  0.00000000000E+00 0.  1.
         25    2    1    2    0    0 -0.11198436716E+02  0.10269343756E+03 -0.51556112245E+03  0.54048428876E+03  0.12509455751E+03 0.  0.
          5    1    3    3  502    0  0.56566222429E+02  0.56888805569E+02 -0.25457856041E+03  0.26695278522E+03  0.41800000000E+01 0.  1.
         -5    1    3    3    0  502 -0.67764659145E+02  0.45804631987E+02 -0.26098256204E+03  0.27353150354E+03  0.41800000000E+01 0.  1.
        -11    1    1    2    0    0  0.81184171670E+01 -0.83520665748E+02 -0.44603657087E+03  0.45386146880E+03  0.00000000000E+00 0.  1.
         11    1    1    2    0    0  0.30800195492E+01 -0.19172771807E+02 -0.83696027006E+01  0.21145494758E+02  0.00000000000E+00 0. -1.
</event>
<event>
 7    1  0.2612213E-009  0.1211381E+03  0.7561462E-02  0.1241231E+00
         -2   -1    0    0    0  501 -0.00000000000E+00  0.00000000000E+00  0.11467206876E+02  0.11467206876E+02  0.00000000000E+00 0.  1.
          2   -1    0    0  501    0  0.00000000000E+00 -0.00000000000E+00 -0.33300694635E+04  0.33300694635E+04  0.00000000000E+00 0. -1.
         25    2    1    2    0    0 -0.45650303013E+02  0.41482552900E+02 -0.30250996048E+04  0.30283131206E+04  0.12509190678E+03 0.  0.
          5    1    3    3  502    0 -0.85966953768E+02  0.14292347650E+02 -0.15989408682E+04  0.16013194437E+04  0.41800000000E+01 0.  1.
         -5    1    3    3    0  502  0.40316650755E+02  0.27190205250E+02 -0.14261587366E+04  0.14269936769E+04  0.41800000000E+01 0.  1.
        -11    1    1    2    0    0  0.22857318323E+02 -0.67715563854E+02 -0.22981379448E+03  0.24067038605E+03  0.00000000000E+00 0. -1.
         11    1    1    2    0    0  0.22792984690E+02  0.26233010954E+02 -0.63688857325E+02  0.72553163695E+02  0.00000000000E+00 0.  1.
</event>
<event>
 7    1  0.2612213E-009  0.1872127E+03  0.7561462E-02  0.1161000E+00
          3   -1    0    0  501    0  0.00000000000E+00  0.00000000000E+00  0.91320649207E+02  0.91320649207E+02  0.00000000000E+00 0. -1.
         -3   -1    0    0    0  501 -0.00000000000E+00 -0.00000000000E+00 -0.61951178988E+03  0.61951178988E+03  0.00000000000E+00 0.  1.
         25    2    1    2    0    0  0.18609820897E+03  0.32502858617E+01 -0.42152177860E+03  0.47746419338E+03  0.12509331871E+03 0.  0.
          5    1    3    3  502    0  0.80784848015E+02 -0.11883870188E+02 -0.32023229608E+03  0.33050508906E+03  0.41800000000E+01 0.  1.
         -5    1    3    3    0  502  0.10531336095E+03  0.15134156050E+02 -0.10128948252E+03  0.14695910432E+03  0.41800000000E+01 0.  1.
        -11    1    1    2    0    0 -0.15766870246E+03 -0.44580715686E+01 -0.42782332407E+02  0.16343078689E+03  0.00000000000E+00 0. -1.
         11    1    1    2    0    0 -0.28429506509E+02  0.12077857068E+01 -0.63887029661E+02  0.69937458815E+02  0.00000000000E+00 0.  1.
</event>
<event>
 7    1  0.2612213E-009  0.8570584E+02  0.7561462E-02  0.1313597E+00
          2   -1    0    0  501    0  0.00000000000E+00  0.00000000000E+00  0.55877881282E+03  0.55877881282E+03  0.00000000000E+00 0. -1.
         -2   -1    0    0    0  501 -0.00000000000E+00 -0.00000000000E+00 -0.27221128628E+02  0.27221128628E+02  0.00000000000E+00 0.  1.
         25    2    1    2    0    0  0.47686491688E+02 -0.32969111733E+02  0.32240590107E+03  0.35064379079E+03  0.12507813222E+03 0.  0.
          5    1    3    3  502    0  0.60077753409E+02 -0.73286112349E+01  0.55604934209E+02  0.82294751386E+02  0.41800000000E+01 0.  1.
         -5    1    3    3    0  502 -0.12391261721E+02 -0.25640500498E+02  0.26680096686E+03  0.26834903941E+03  0.41800000000E+01 0.  1.
        -11    1    1    2    0    0 -0.59701643028E+02  0.17187054665E+02  0.20613404783E+03  0.21529265362E+03  0.00000000000E+00 0.  1.
         11    1    1    2    0    0  0.12015151339E+02  0.15782057068E+02  0.30177352937E+01  0.20063497036E+02  0.00000000000E+00 0. -1.
</event>
<event>
 7    1  0.2612213E-009  0.1015949E+03  0.7561462E-02  0.1276977E+00
          3   -1    0    0  501    0  0.00000000000E+00  0.00000000000E+00  0.22671145001E+03  0.22671145001E+03  0.00000000000E+00 0. -1.
         -3   -1    0    0    0  501 -0.00000000000E+00 -0.00000000000E+00 -0.60228474006E+02  0.60228474006E+02  0.00000000000E+00 0.  1.
         25    2    1    2    0    0 -0.49434538131E+01  0.11096035315E+02  0.43710272138E+02  0.13307263591E+03  0.12510067467E+03 0.  0.
          5    1    3    3  502    0  0.53135339147E+02 -0.17230886595E+01  0.50021632698E+02  0.73116136650E+02  0.41800000000E+01 0. -1.
         -5    1    3    3    0  502 -0.58078792960E+02  0.12819123975E+02 -0.63113605600E+01  0.59956499258E+02  0.41800000000E+01 0. -1.
        -11    1    1    2    0    0  0.30271059033E+02 -0.41055186255E+02  0.51345005602E+02  0.72375237020E+02  0.00000000000E+00 0.  1.
         11    1    1    2    0    0 -0.25327605220E+02  0.29959150940E+02  0.71427698263E+02  0.81492051087E+02  0.00000000000E+00 0. -1.
</event>
<event>
 7    1  0.2672537E-009  0.1043550E+03  0.7561462E-02  0.1271396E+00
         -2   -1    0    0    0  501 -0.00000000000E+00  0.00000000000E+00  0.70214721909E+02  0.70214721909E+02  0.00000000000E+00 0. -1.
          2   -1    0    0  501    0  0.00000000000E+00 -0.00000000000E+00 -0.31282048584E+03  0.31282048584E+03  0.00000000000E+00 0.  1.
         25    2    1    2    0    0  0.97132450006E+02 -0.17162419809E+02 -0.10432924843E+03  0.19042587546E+03  0.12509260757E+03 0.  0.
          5    1    3    3  502    0  0.26556249867E+02 -0.26722905527E+02  0.23096374872E+02  0.44387644892E+02  0.41800000000E+01 0.  1.
         -5    1    3    3    0  502  0.70576200139E+02  0.95604857180E+01 -0.12742562330E+03  0.14603823057E+03  0.41800000000E+01 0.  1.
        -11    1    1    2    0    0 -0.35333824763E+02  0.38233799953E-01  0.49530950203E+01  0.35679318722E+02  0.00000000000E+00 0. -1.
         11    1    1    2    0    0 -0.61798625244E+02  0.17124186009E+02 -0.14322961052E+03  0.15693001356E+03  0.00000000000E+00 0.  1.
</event>
<event>
 7    1  0.3663642E-009  0.9396073E+02  0.7561462E-02  0.1293534E+00
          2   -1    0    0  501    0  0.00000000000E+00  0.00000000000E+00  0.15461570547E+03  0.15461570547E+03  0.00000000000E+00 0. -1.
         -2   -1    0    0    0  501 -0.00000000000E+00 -0.00000000000E+00 -0.12295672479E+03  0.12295672479E+03  0.00000000000E+00 0.  1.
         25    2    1    2    0    0 -0.35436713946E+02  0.51430111466E+02 -0.40358181998E+02  0.14552182065E+03  0.12508797053E+03 0.  0.
          5    1    3    3  502    0  0.34471380031E+02  0.36762097412E+01 -0.49162613708E+02  0.60301123919E+02  0.41800000000E+01 0.  1.
         -5    1    3    3    0  502 -0.69908093977E+02  0.47753901725E+02  0.88044317096E+01  0.85220696730E+02  0.41800000000E+01 0.  1.
        -11    1    1    2    0    0  0.34775252750E+01 -0.28967092697E+02  0.85801577997E+02  0.90626135459E+02  0.00000000000E+00 0. -1.
         11    1    1    2    0    0  0.31959188671E+02 -0.22463018769E+02 -0.13784415320E+02  0.41424474147E+02  0.00000000000E+00 0.  1.
</event>
<event>
 7    1  0.2612213E-009  0.1089544E+03  0.7561462E-02  0.1262519E+00
          2   -1    0    0  501    0  0.00000000000E+00  0.00000000000E+00  0.49888170187E+03  0.49888170187E+03  0.00000000000E+00 0. -1.
         -2   -1    0    0    0  501 -0.00000000000E+00 -0.00000000000E+00 -0.31021032608E+02  0.31021032608E+02  0.00000000000E+00 0.  1.
         25    2    1    2    0    0  0.17087269401E+01  0.15646248791E+02  0.36089782983E+03  0.38228565119E+03  0.12508937075E+03 0.  0.
          5    1    3    3  502    0 -0.56649081762E+02 -0.31813823615E+01  0.24013033499E+03  0.24677781473E+03  0.41800000000E+01 0. -1.
         -5    1    3    3    0  502  0.58357808702E+02  0.18827631153E+02  0.12076749484E+03  0.13550783646E+03  0.41800000000E+01 0. -1.
        -11    1    1    2    0    0  0.43789830277E+02 -0.28533908677E+02  0.71218641584E+02  0.88339278292E+02  0.00000000000E+00 0. -1.
         11    1    1    2    0    0 -0.45498557217E+02  0.12887659886E+02  0.35744197847E+02  0.59277805002E+02  0.00000000000E+00 0.  1.
</event>
<event>
 7    1  0.2612213E-009  0.2314169E+03  0.7561462E-02  0.1125646E+00
         -2   -1    0    0    0  501 -0.00000000000E+00  0.00000000000E+00  0.51095084642E+02  0.51095084642E+02  0.00000000000E+00 0.  1.
          2   -1    0    0  501    0  0.00000000000E+00 -0.00000000000E+00 -0.11942391731E+04  0.11942391731E+04  0.00000000000E+00 0. -1.
         25    2    1    2    0    0  0.16265955726E+03 -0.12939552925E+03 -0.75266216319E+03  0.79079011281E+03  0.12508931233E+03 0.  0.
          5    1    3    3  502    0  0.14284199017E+03 -0.41923381675E+02 -0.39834078661E+03  0.42526963067E+03  0.41800000000E+01 0.  1.
         -5    1    3    3    0  502  0.19817567089E+02 -0.87472147571E+02 -0.35432137658E+03  0.36552048214E+03  0.41800000000E+01 0.  1.
        -11    1    1    2    0    0 -0.16237844758E+03  0.91812345697E+02 -0.36252697577E+03  0.40770341575E+03  0.00000000000E+00 0.  1.
         11    1    1    2    0    0 -0.28110968133E+00  0.37583183549E+02 -0.27954949494E+02  0.46840729174E+02  0.00000000000E+00 0. -1.
</event>
<event>
 7    1  0.2612213E-009  0.1258713E+03  0.7561462E-02  0.1233714E+00
          3   -1    0    0  501    0  0.00000000000E+00  0.00000000000E+00  0.83768957766E+02  0.83768957766E+02  0.00000000000E+00 0. -1.
         -3   -1    0    0    0  501 -0.00000000000E+00 -0.00000000000E+00 -0.22043954653E+03  0.22043954653E+03  0.00000000000E+00 0.  1.
         25    2    1    2    0    0 -0.80144986961E+02 -0.11956794654E+02 -0.67416932897E+02  0.16357734695E+03  0.12508525780E+03 0.  0.
          5    1    3    3  502    0 -0.11276448069E+03 -0.92523055985E+01 -0.38162314107E+02  0.11947915250E+03  0.41800000000E+01 0.  1.
         -5    1    3    3    0  502  0.32619493733E+02 -0.27044890550E+01 -0.29254618789E+02  0.44098194441E+02  0.41800000000E+01 0.  1.
        -11    1    1    2    0    0  0.21567739102E+02 -0.27462285063E+02 -0.60000263301E+02  0.69421726189E+02  0.00000000000E+00 0.  1.
         11    1    1    2    0    0  0.58577247859E+02  0.39419079717E+02 -0.92533925673E+01  0.71209431162E+02  0.00000000000E+00 0. -1.
</event>
<event>
 7    1  0.2612213E-009  0.9177653E+02  0.7561462E-02  0.1298606E+00
         -1   -1    0    0    0  501 -0.00000000000E+00  0.00000000000E+00  0.55606534881E+02  0.55606534881E+02  0.00000000000E+00 0.  1.
          1   -1    0    0  501    0  0.00000000000E+00 -0.00000000000E+00 -0.27339169300E+03  0.27339169300E+03  0.00000000000E+00 0. -1.
         25    2    1    2    0    0  0.13973729848E+02  0.53586639167E+02 -0.10147559182E+03  0.17033082827E+03  0.12509397389E+03 0.  0.
          5    1    3    3  502    0 -0.45907304080E+01  0.69543209340E+02 -0.12035139157E+03  0.13913756726E+03  0.41800000000E+01 0.  1.
         -5    1    3    3    0  502  0.18564460256E+02 -0.15956570173E+02  0.18875799751E+02  0.31193261011E+02  0.41800000000E+01 0.  1.
        -11    1    1    2    0    0  0.11078400179E+02 -0.61606618843E+02 -0.31901023684E+02  0.70255119016E+02  0.00000000000E+00 0.  1.
         11    1    1    2    0    0 -0.25052130027E+02  0.80199796758E+01 -0.84408542614E+02  0.88412280590E+02  0.00000000000E+00 0. -1.
</event>
<event>
 7    1  0.2612213E-009  0.1218089E+03  0.7561462E-02  0.1240142E+00
          1   -1    0    0  501    0  0.00000000000E+00  0.00000000000E+00  0.59606410459E+02  0.59606410459E+02  0.00000000000E+00 0. -1.
         -1   -1    0    0    0  501 -0.00000000000E+00 -0.00000000000E+00 -0.61168665798E+03  0.61168665798E+03  0.00000000000E+00 0.  1.
         25    2    1    2    0    0 -0.18590246081E+02 -0.87645618085E+02 -0.65391634231E+02  0.16718213572E+03  0.12508576681E+03 0.  0.
          5    1    3    3  502    0 -0.43611648740E+02 -0.35596906721E+02 -0.88391840155E+02  0.10487948074E+03  0.41800000000E+01 0.  1.
         -5    1    3    3    0  502  0.25021402659E+02 -0.52048711364E+02  0.23000205925E+02  0.62302654986E+02  0.41800000000E+01 0.  1.
        -11    1    1    2    0    0  0.50924525546E+02  0.81876329929E+02 -0.31974207412E+03  0.33396412183E+03  0.00000000000E+00 0.  1.
         11    1    1    2    0    0 -0.32334279466E+02  0.57692881555E+01 -0.16694653917E+03  0.17014681088E+03  0.00000000000E+00 0. -1.
</event>
<event>
 7    1  0.2612213E-009  0.1491180E+03  0.7561462E-02  0.1201561E+00
          1   -1    0    0  501    0  0.00000000000E+00  0.00000000000E+00  0.26896195655E+03  0.26896195655E+03  0.00000000000E+00 0. -1.
         -1   -1    0    0    0  501 -0.00000000000E+00 -0.00000000000E+00 -0.12088912965E+03  0.12088912965E+03  0.00000000000E+00 0.  1.
         25    2    1    2    0    0 -0.35062391473E+02  0.11254436797E+03 -0.10961545990E+02  0.17222398250E+03  0.12508132795E+03 0.  0.
          5    1    3    3  502    0 -0.19294764925E+02  0.12660903178E+03 -0.41644229648E+02  0.13473622061E+03  0.41800000000E+01 0.  1.
         -5    1    3    3    0  502 -0.15767626548E+02 -0.14064663813E+02  0.30682683657E+02  0.37487761890E+02  0.41800000000E+01 0.  1.
        -11    1    1    2    0    0  0.42871426030E+02 -0.12594876916E+03  0.14243723236E+03  0.19490873964E+03  0.00000000000E+00 0. -1.
         11    1    1    2    0    0 -0.78090345565E+01  0.13404401195E+02  0.16597140525E+02  0.22718364064E+02  0.00000000000E+00 0.  1.
</event>
<event>
 7    1  0.2612213E-009  0.1460963E+03  0.7561462E-02  0.1205354E+00
          1   -1    0    0  501    0  0.00000000000E+00  0.00000000000E+00  0.34970948780E+02  0.34970948780E+02  0.00000000000E+00 0. -1.
         -1   -1    0    0    0  501 -0.00000000000E+00 -0.00000000000E+00 -0.83234083211E+03  0.83234083211E+03  0.00000000000E+00 0.  1.
         25    2    1    2    0    0  0.36036499634E+02 -0.12758381376E+03 -0.43556103189E+03  0.47216163546E+03  0.12508772387E+03 0.  0.
          5    1    3    3  502    0  0.36956965189E+02 -0.12424661533E+03 -0.21193140200E+03  0.24846615514E+03  0.41800000000E+01 0. -1.
         -5    1    3    3    0  502 -0.92046555548E+00 -0.33371984250E+01 -0.22362962989E+03  0.22369548032E+03  0.41800000000E+01 0. -1.
        -11    1    1    2    0    0 -0.51541734645E+02  0.13136248687E+03 -0.34004567811E+03  0.36816262244E+03  0.00000000000E+00 0. -1.
         11    1    1    2    0    0  0.15505235011E+02 -0.37786731073E+01 -0.21763173333E+02  0.26987522982E+02  0.00000000000E+00 0.  1.
</event>
<event>
 7    1  0.2612213E-009  0.8157004E+02  0.7561462E-02  0.1324654E+00
          2   -1    0    0  501    0  0.00000000000E+00  0.00000000000E+00  0.13993423375E+04  0.13993423375E+04  0.00000000000E+00 0. -1.
         -2   -1    0    0    0  501 -0.00000000000E+00 -0.00000000000E+00 -0.57238447802E+02  0.57238447802E+02  0.00000000000E+00 0.  1.
         25    2    1    2    0    0 -0.41426111284E+02  0.63967381069E+01  0.13481169093E+04  0.13545566109E+04  0.12508944782E+03 0.  0.
          5    1    3    3  502    0 -0.58876885403E+02 -0.20610816254E+02  0.12425548764E+04  0.12441267567E+04  0.41800000000E+01 0.  1.
         -5    1    3    3    0  502  0.17450774119E+02  0.27007554361E+02  0.10556203289E+03  0.11042985420E+03  0.41800000000E+01 0.  1.
        -11    1    1    2    0    0  0.17573516893E+02 -0.29916618493E+02 -0.40916321125E+02  0.53646788277E+02  0.00000000000E+00 0.  1.
         11    1    1    2    0    0  0.23852594391E+02  0.23519880386E+02  0.34903301465E+02  0.48377386099E+02  0.00000000000E+00 0. -1.
</event>
<event>
 7    1  0.2612213E-009  0.5913169E+02  0.7561462E-02  0.1401512E+00
          1   -1    0    0  501    0  0.00000000000E+00  0.00000000000E+00  0.39160270979E+03  0.39160270979E+03  0.00000000000E+00 0. -1.
         -1   -1    0    0    0  501 -0.00000000000E+00 -0.00000000000E+00 -0.31650644099E+02  0.31650644099E+02  0.00000000000E+00 0.  1.
         25    2    1    2    0    0 -0.33071517810E+01 -0.25380906627E+02  0.18137861438E+03  0.22180980668E+03  0.12508501472E+03 0.  0.
          5    1    3    3  502    0 -0.29473814142E+00 -0.50586532607E+01  0.19608871809E+03  0.19619871203E+03  0.41800000000E+01 0. -1.
         -5    1    3    3    0  502 -0.30124136396E+01 -0.20322253366E+02 -0.14710103703E+02  0.25611094642E+02  0.41800000000E+01 0. -1.
        -11    1    1    2    0    0 -0.32654940007E+02  0.40236167269E+02  0.78391241115E+02  0.93970638749E+02  0.00000000000E+00 0. -1.
         11    1    1    2    0    0  0.35962091788E+02 -0.14855260642E+02  0.10018221019E+03  0.10747290846E+03  0.00000000000E+00 0.  1.
</event>
<event>
 7    1  0.2612213E-009  0.1027821E+03  0.7561462E-02  0.1274552E+00
         -2   -1    0    0    0  501 -0.00000000000E+00  0.00000000000E+00  0.36661948501E+02  0.36661948501E+02  0.00000000000E+00 0.  1.
          2   -1    0    0  501    0  0.00000000000E+00 -0.00000000000E+00 -0.44863514715E+03  0.44863514715E+03  0.00000000000E+00 0. -1.
         25    2    1    2    0    0 -0.76891042960E+01  0.17483743921E+02 -0.35220219662E+03  0.37424411440E+03  0.12508983265E+03 0.  0.
          5    1    3    3  502    0 -0.28706529354E+02  0.66442616751E+02 -0.22044439300E+03  0.23206009772E+03  0.41800000000E+01 0.  1.
         -5    1    3    3    0  502  0.21017425058E+02 -0.48958872830E+02 -0.13175780362E+03  0.14218401668E+03  0.41800000000E+01 0.  1.
        -11    1    1    2    0    0  0.35477140446E+02  0.13539537303E+02 -0.58052401009E+02  0.69368781361E+02  0.00000000000E+00 0. -1.
         11    1    1    2    0    0 -0.27788036150E+02 -0.31023281224E+02 -0.17186010198E+01  0.41684199890E+02  0.00000000000E+00 0.  1.
</event>
<event>
 7    1  0.2612213E-009  0.1090279E+03  0.7561462E-02  0.1262381E+00
          1   -1    0    0  501    0  0.00000000000E+00  0.00000000000E+00  0.17577371841E+03  0.17577371841E+03  0.00000000000E+00 0. -1.
         -1   -1    0    0    0  501 -0.00000000000E+00 -0.00000000000E+00 -0.10774563484E+03  0.10774563484E+03  0.00000000000E+00 0.  1.
         25    2    1    2    0    0  0.83164274300E+01 -0.84421329775E+02  0.33956803988E+02  0.15490615491E+03  0.12508688342E+03 0.  0.
          5    1    3    3  502    0  0.28237888654E+02 -0.71281960057E+02  0.74942211163E+02  0.10729540344E+03  0.41800000000E+01 0.  1.
         -5    1    3    3    0  502 -0.19921461224E+02 -0.13139369719E+02 -0.40985407175E+02  0.47610751467E+02  0.41800000000E+01 0.  1.
        -11    1    1    2    0    0  0.20067631095E+02  0.86294558856E+02  0.43427541865E+02  0.98668191928E+02  0.00000000000E+00 0. -1.
         11    1    1    2    0    0 -0.28384058524E+02 -0.18732290807E+01 -0.93562622800E+01  0.29945006418E+02  0.00000000000E+00 0.  1.
</event>
<event>
 7    1  0.2612213E-009  0.1205705E+03  0.7561462E-02  0.1242159E+00
         -1   -1    0    0    0  501 -0.00000000000E+00  0.00000000000E+00  0.25964000875E+03  0.25964000875E+03  0.00000000000E+00 0.  1.
          1   -1    0    0  501    0  0.00000000000E+00 -0.00000000000E+00 -0.82227764658E+02  0.82227764658E+02  0.00000000000E+00 0. -1.
         25    2    1    2    0    0  0.31471669020E+02 -0.91304870897E+02  0.11143713617E+03  0.19337203075E+03  0.12508981397E+03 0.  0.
          5    1    3    3  502    0  0.41012891706E+02 -0.41694889146E+02 -0.12072555557E+02  0.59864347191E+02  0.41800000000E+01 0. -1.
         -5    1    3    3    0  502 -0.95412226859E+01 -0.49609981750E+02  0.12350969173E+03  0.13350768356E+03  0.41800000000E+01 0. -1.
        -11    1    1    2    0    0 -0.57976522222E+02  0.30556428961E+02  0.42837155326E+02  0.78294280482E+02  0.00000000000E+00 0.  1.
         11    1    1    2    0    0  0.26504853203E+02  0.60748441936E+02  0.23137952596E+02  0.70201462173E+02  0.00000000000E+00 0. -1.
</event>
<event>
 7    1  0.2612213E-009  0.2082488E+03  0.7561462E-02  0.1142960E+00
          2   -1    0    0  501    0  0.00000000000E+00  0.00000000000E+00  0.39424371213E+03  0.39424371213E+03  0.00000000000E+00 0. -1.
         -2   -1    0    0    0  501 -0.00000000000E+00 -0.00000000000E+00 -0.11302050612E+03  0.11302050612E+03  0.00000000000E+00 0.  1.
         25    2    1    2    0    0 -0.10010147692E+03 -0.14837652364E+03  0.11497748307E+03  0.24678698622E+03  0.12509235190E+03 0.  0.
          5    1    3    3  502    0 -0.73095407594E+02 -0.16876617611E+03  0.10164937782E+03  0.21017856509E+03  0.41800000000E+01 0. -1.
         -5    1    3    3    0  502 -0.27006069323E+02  0.20389652471E+02  0.13328105248E+02  0.36608421131E+02  0.41800000000E+01 0. -1.
        -11    1    1    2    0    0  0.87213542472E+02  0.52703405859E+02  0.66585439944E+02  0.12172703805E+03  0.00000000000E+00 0.  1.
         11    1    1    2    0    0  0.12887934446E+02  0.95673117785E+02  0.99660283000E+02  0.13875019398E+03  0.00000000000E+00 0. -1.
</event>
<event>
 7    1  0.2612213E-009  0.1027515E+03  0.7561462E-02  0.1274614E+00
          2   -1    0    0  501    0  0.00000000000E+00  0.00000000000E+00  0.22640606546E+03  0.22640606546E+03  0.00000000000E+00 0. -1.
         -2   -1    0    0    0  501 -0.00000000000E+00 -0.00000000000E+00 -0.54450168675E+02  0.54450168675E+02  0.00000000000E+00 0.  1.
         25    2    1    2    0    0 -0.15430164010E+02  0.19771166144E+02  0.10394758031E+03  0.16456548568E+03  0.12509080963E+03 0.  0.
          5    1    3    3  502    0 -0.56810967024E+01 -0.47390915606E+02  0.78496232833E+02  0.91963605359E+02  0.41800000000E+01 0. -1.
         -5    1    3    3    0  502 -0.97490673075E+01  0.67162081750E+02  0.25451347473E+02  0.72601880324E+02  0.41800000000E+01 0. -1.
        -11    1    1    2    0    0 -0.18267909157E+02 -0.44297896501E+02  0.54291988023E+02  0.72412982972E+02  0.00000000000E+00 0.  1.
         11    1    1    2    0    0  0.33698073167E+02  0.24526730357E+02  0.13716328455E+02  0.43877765480E+02  0.00000000000E+00 0. -1.
</event>
<event>
 7    1  0.2612213E-009  0.8636385E+02  0.7561462E-02  0.1311904E+00
         -1   -1    0    0    0  501 -0.00000000000E+00  0.00000000000E+00  0.45437876482E+02  0.45437876482E+02  0.00000000000E+00 0.  1.
          1   -1    0    0  501    0  0.00000000000E+00 -0.00000000000E+00 -0.39984518625E+03  0.39984518625E+03  0.00000000000E+00 0. -1.
         25    2    1    2    0    0  0.39543646965E+02 -0.32703259744E+02 -0.29528776926E+03  0.32477146912E+03  0.12509371394E+03 0.  0.
          5    1    3    3  502    0  0.10494098878E+02  0.20712118948E+02 -0.34213711511E+00  0.23594648554E+02  0.41800000000E+01 0. -1.
         -5    1    3    3    0  502  0.29049548088E+02 -0.53415378693E+02 -0.29494563215E+03  0.30117682057E+03  0.41800000000E+01 0. -1.
        -11    1    1    2    0    0 -0.52976337374E+02  0.45352288649E+02 -0.13135299367E+02  0.70963782993E+02  0.00000000000E+00 0.  1.
         11    1    1    2    0    0  0.13432690408E+02 -0.12649028904E+02 -0.45984241136E+02  0.49547810615E+02  0.00000000000E+00 0. -1.
</event>
<event>
 7    1  0.2612213E-009  0.9278733E+02  0.7561462E-02  0.1296239E+00
          2   -1    0    0  501    0  0.00000000000E+00  0.00000000000E+00  0.49764613236E+03  0.49764613236E+03  0.00000000000E+00 0. -1.
         -2   -1    0    0    0  501 -0.00000000000E+00 -0.00000000000E+00 -0.23479802541E+02  0.23479802541E+02  0.00000000000E+00 0.  1.
         25    2    1    2    0    0  0.92028690409E+01  0.14584454874E+02  0.25735041334E+03  0.28665931093E+03  0.12508767394E+03 0.  0.
          5    1    3    3  502    0  0.58066168720E+02  0.38817966731E+02  0.16659521408E+03  0.18069297785E+03  0.41800000000E+01 0.  1.
         -5    1    3    3    0  502 -0.48863299679E+02 -0.24233511856E+02  0.90755199267E+02  0.10596633308E+03  0.41800000000E+01 0.  1.
        -11    1    1    2    0    0 -0.38864747880E+01  0.22805791231E+02  0.11741361318E+02  0.25943561158E+02  0.00000000000E+00 0.  1.
         11    1    1    2    0    0 -0.53163942529E+01 -0.37390246106E+02  0.20507455516E+03  0.20852306281E+03  0.00000000000E+00 0. -1.
</event>
<event>
 7    1  0.2612213E-009  0.1330414E+03  0.7561462E-02  0.1223011E+00
         -2   -1    0    0    0  501 -0.00000000000E+00  0.00000000000E+00  0.28844328480E+03  0.28844328480E+03  0.00000000000E+00 0.  1.
          2   -1    0    0  501    0  0.00000000000E+00 -0.00000000000E+00 -0.10207735007E+03  0.10207735007E+03  0.00000000000E+00 0. -1.
         25    2    1    2    0    0  0.61852147503E+02 -0.11404202798E+03  0.66462653114E+02  0.19207747411E+03  0.12508077193E+03 0.  0.
          5    1    3    3  502    0  0.50778499147E+02 -0.51226659468E+02  0.97231638220E+02  0.12113666038E+03  0.41800000000E+01 0.  1.
         -5    1    3    3    0  502  0.11073648356E+02 -0.62815368515E+02 -0.30768985106E+02  0.70940813740E+02  0.41800000000E+01 0.  1.
        -11    1    1    2    0    0 -0.23626399643E+02  0.36854555029E+02 -0.77399922572E+01  0.44456410861E+02  0.00000000000E+00 0.  1.
         11    1    1    2    0    0 -0.38225747860E+02  0.77187472954E+02  0.12764327387E+03  0.15398674990E+03  0.00000000000E+00 0. -1.
</event>
<event>
 7    1  0.2612213E-009  0.1144955E+03  0.7561462E-02  0.1252464E+00
          1   -1    0    0  501    0  0.00000000000E+00  0.00000000000E+00  0.53778741862E+02  0.53778741862E+02  0.00000000000E+00 0. -1.
         -1   -1    0    0    0  501 -0.00000000000E+00 -0.00000000000E+00 -0.36944708658E+03  0.36944708658E+03  0.00000000000E+00 0.  1.
         25    2    1    2    0    0  0.62939018848E+01 -0.68514068926E+02 -0.88917654804E+02  0.16819224580E+03  0.12509393019E+03 0.  0.
          5    1    3    3  502    0 -0.23078530015E+00  0.34922544088E+02 -0.66352607418E+01  0.35792966244E+02  0.41800000000E+01 0.  1.
         -5    1    3    3    0  502  0.65246871850E+01 -0.10343661301E+03 -0.82282394063E+02  0.13239927956E+03  0.41800000000E+01 0.  1.
        -11    1    1    2    0    0  0.19417019255E+02  0.59912415694E+02 -0.21742503786E+03  0.22636290615E+03  0.00000000000E+00 0.  1.
         11    1    1    2    0    0 -0.25710921140E+02  0.86016532317E+01 -0.93256520495E+01  0.28670676489E+02  0.00000000000E+00 0. -1.
</event>
<event>
 7    1  0.2612213E-009  0.7372759E+02  0.7561462E-02  0.1347857E+00
          1   -1    0    0  501    0  0.00000000000E+00  0.00000000000E+00  0.43126419916E+03  0.43126419916E+03  0.00000000000E+00 0. -1.
         -1   -1    0    0    0  501 -0.00000000000E+00 -0.00000000000E+00 -0.31589026850E+02  0.31589026850E+02  0.00000000000E+00 0.  1.
         25    2    1    2    0    0 -0.46583951107E+01 -0.39143367920E+02  0.33826194549E+03  0.36279824634E+03  0.12509004712E+03 0.  0.
          5    1    3    3  502    0  0.18620797266E+02  0.41981446384E+01 -0.13771739618E+01  0.19588964173E+02  0.41800000000E+01 0. -1.
         -5    1    3    3    0  502 -0.23279192377E+02 -0.43341512558E+02  0.33963911945E+03  0.34320928217E+03  0.41800000000E+01 0. -1.
        -11    1    1    2    0    0 -0.23064535481E+02 -0.75225261064E+01  0.14170197344E+02  0.28095474524E+02  0.00000000000E+00 0. -1.
         11    1    1    2    0    0  0.27722930592E+02  0.46665894026E+02  0.47243029480E+02  0.71959505142E+02  0.00000000000E+00 0.  1.
</event>
<event>
 7    1  0.2612213E-009  0.1080278E+03  0.7561462E-02  0.1264266E+00
         -1   -1    0    0    0  501 -0.00000000000E+00  0.00000000000E+00  0.97375422309E+02  0.97375422309E+02  0.00000000000E+00 0.  1.
          1   -1    0    0  501    0  0.00000000000E+00 -0.00000000000E+00 -0.13333837270E+03  0.13333837270E+03  0.00000000000E+00 0. -1.
         25    2    1    2    0    0 -0.15337291890E+02 -0.24639471411E+02 -0.26799080980E+00  0.12841264270E+03  0.12508956357E+03 0.  0.
          5    1    3    3  502    0 -0.19444843216E+02  0.46328003583E+02 -0.20438305404E+02  0.54402045655E+02  0.41800000000E+01 0.  1.
         -5    1    3    3    0  502  0.41075513261E+01 -0.70967474993E+02  0.20170314594E+02  0.74010597050E+02  0.41800000000E+01 0.  1.
        -11    1    1    2    0    0  0.37743927774E+02  0.48658990017E+02 -0.14684017787E+02  0.63308149331E+02  0.00000000000E+00 0.  1.
         11    1    1    2    0    0 -0.22406635884E+02 -0.24019518607E+02 -0.21010941792E+02  0.38993002971E+02  0.00000000000E+00 0. -1.
</event>
<event>
 7    1  0.2612213E-009  0.1523907E+03  0.7561462E-02  0.1197566E+00
         -3   -1    0    0    0  501 -0.00000000000E+00  0.00000000000E+00  0.15693467177E+03  0.15693467177E+03  0.00000000000E+00 0.  1.
          3   -1    0    0  501    0  0.00000000000E+00 -0.00000000000E+00 -0.22904782935E+03  0.22904782935E+03  0.00000000000E+00 0. -1.
         25    2    1    2    0    0 -0.11589006345E+03  0.67438216113E+01 -0.15013631544E+03  0.22729566672E+03  0.12508565449E+03 0.  0.
          5    1    3    3  502    0 -0.54508986338E+02 -0.56758937349E+02 -0.48290406946E+02  0.92424252032E+02  0.41800000000E+01 0.  1.
         -5    1    3    3    0  502 -0.61381077112E+02  0.63502758960E+02 -0.10184590850E+03  0.13487141469E+03  0.41800000000E+01 0.  1.
        -11    1    1    2    0    0  0.52178212041E+02  0.33680415357E+02  0.27772822485E+02  0.68031359381E+02  0.00000000000E+00 0.  1.
         11    1    1    2    0    0  0.63711851409E+02 -0.40424236968E+02  0.50250335382E+02  0.90655475017E+02  0.00000000000E+00 0. -1.
</event>
<event>
 7    1  0.2612213E-009  0.1029206E+03  0.7561462E-02  0.1274271E+00
          2   -1    0    0  501    0  0.00000000000E+00  0.00000000000E+00  0.28855315028E+03  0.28855315028E+03  0.00000000000E+00 0. -1.
         -2   -1    0    0    0  501 -0.00000000000E+00 -0.00000000000E+00 -0.49382043597E+02  0.49382043597E+02  0.00000000000E+00 0.  1.
         25    2    1    2    0    0  0.38645359170E+02  0.13133041360E+01  0.93068781085E+02  0.16063840586E+03  0.12509081050E+03 0.  0.
          5    1    3    3  502    0  0.54196033371E+00  0.47455524024E+02 -0.26055605228E+01  0.47713539242E+02  0.41800000000E+01 0.  1.
         -5    1    3    3    0  502  0.38103398836E+02 -0.46142219888E+02  0.95674341608E+02  0.11292486662E+03  0.41800000000E+01 0.  1.
        -11    1    1    2    0    0  0.14651963403E+02 -0.33070201998E+02  0.36709217663E+02  0.51535278724E+02  0.00000000000E+00 0. -1.
         11    1    1    2    0    0 -0.53297322573E+02  0.31756897862E+02  0.10939310794E+03  0.12576150929E+03  0.00000000000E+00 0.  1.
</event>
<event>
 7    1  0.2612213E-009  0.1112432E+03  0.7561462E-02  0.1258285E+00
          1   -1    0    0  501    0  0.00000000000E+00  0.00000000000E+00  0.54685165732E+02  0.54685165732E+02  0.00000000000E+00 0. -1.
         -1   -1    0    0    0  501 -0.00000000000E+00 -0.00000000000E+00 -0.26871285178E+03  0.26871285178E+03  0.00000000000E+00 0.  1.
         25    2    1    2    0    0  0.39408935887E+02  0.13434528382E+02 -0.15814691994E+03  0.20588232940E+03  0.12507411600E+03 0.  0.
          5    1    3    3  502    0 -0.12131541429E+02  0.54937302961E+02 -0.11103126289E+03  0.12454194190E+03  0.41800000000E+01 0. -1.
         -5    1    3    3    0  502  0.51540477316E+02 -0.41502774578E+02 -0.47115657051E+02  0.81340387502E+02  0.41800000000E+01 0. -1.
        -11    1    1    2    0    0 -0.14348930470E+02 -0.51905438867E+02 -0.14656485993E+02  0.55811100789E+02  0.00000000000E+00 0. -1.
         11    1    1    2    0    0 -0.25060005417E+02  0.38470910485E+02 -0.41224280118E+02  0.61704587320E+02  0.00000000000E+00 0.  1.
</event>
<event>
 7    1  0.2612213E-009  0.1618160E+03  0.7561462E-02  0.1186662E+00
          1   -1    0    0  501    0  0.00000000000E+00  0.00000000000E+00  0.26677115795E+03  0.26677115795E+03  0.00000000000E+00 0. -1.
         -1   -1    0    0    0  501 -0.00000000000E+00 -0.00000000000E+00 -0.14992349328E+03  0.14992349328E+03  0.00000000000E+00 0.  1.
         25    2    1    2    0    0  0.27994258917E+02  0.13047643240E+03  0.16626531945E+03  0.24717706686E+03  0.12507824746E+03 0.  0.
          5    1    3    3  502    0  0.49785234811E+01 -0.14445776043E+02  0.69672211228E+02  0.71450371301E+02  0.41800000000E+01 0.  1.
         -5    1    3    3    0  502  0.23015735436E+02  0.14492220844E+03  0.96593108226E+02  0.17572669556E+03  0.41800000000E+01 0.  1.
        -11    1    1    2    0    0  0.32003442686E+02 -0.29437886153E+02 -0.44997678859E+01  0.43715642462E+02  0.00000000000E+00 0. -1.
         11    1    1    2    0    0 -0.59997701603E+02 -0.10103854624E+03 -0.44917886902E+02  0.12580194191E+03  0.00000000000E+00 0.  1.
</event>
<event>
 7    1  0.2830246E-009  0.1536806E+03  0.7561462E-02  0.1196022E+00
         -1   -1    0    0    0  501 -0.00000000000E+00  0.00000000000E+00  0.20348626693E+03  0.20348626693E+03  0.00000000000E+00 0.  1.
          1   -1    0    0  501    0  0.00000000000E+00 -0.00000000000E+00 -0.28667914931E+03  0.28667914931E+03  0.00000000000E+00 0. -1.
         25    2    1    2    0    0  0.14115270294E+03  0.57263258506E+02  0.11185273082E+03  0.22663062424E+03  0.12508892889E+03 0.  0.
          5    1    3    3  502    0  0.97666467869E+01  0.78698587708E+01  0.82009629533E+02  0.83068488626E+02  0.41800000000E+01 0.  1.
         -5    1    3    3    0  502  0.13138605615E+03  0.49393399735E+02  0.29843101288E+02  0.14356213561E+03  0.41800000000E+01 0.  1.
        -11    1    1    2    0    0 -0.73988227779E+02 -0.41080112061E+02 -0.17026774888E+03  0.19013926413E+03  0.00000000000E+00 0. -1.
         11    1    1    2    0    0 -0.67164475157E+02 -0.16183146445E+02 -0.24777864325E+02  0.73395527878E+02  0.00000000000E+00 0.  1.
</event>
<event>
 7    1  0.2612213E-009  0.8250540E+02  0.7561462E-02  0.1322088E+00
          2   -1    0    0  501    0  0.00000000000E+00  0.00000000000E+00  0.48916652766E+03  0.48916652766E+03  0.00000000000E+00 0.  1.
         -2   -1    0    0    0  501 -0.00000000000E+00 -0.00000000000E+00 -0.25179307212E+02  0.25179307212E+02  0.00000000000E+00 0. -1.
         25    2    1    2    0    0  0.19281307604E+01  0.23135137673E+02  0.23871950370E+03  0.27050512753E+03  0.12508825001E+03 0.  0.
          5    1    3    3  502    0 -0.29214191033E+02  0.46204473288E+02  0.22097650498E+03  0.22767610868E+03  0.41800000000E+01 0. -1.
         -5    1    3    3    0  502  0.31142321793E+02 -0.23069335615E+02  0.17742998717E+02  0.42829018852E+02  0.41800000000E+01 0. -1.
        -11    1    1    2    0    0 -0.14223344414E+02 -0.44410275685E+02  0.20953943646E+03  0.21466567389E+03  0.00000000000E+00 0. -1.
         11    1    1    2    0    0  0.12295213653E+02  0.21275138012E+02  0.15728280290E+02  0.29175033455E+02  0.00000000000E+00 0.  1.
</event>
<event>
 7    1  0.2612213E-009  0.1611699E+03  0.7561462E-02  0.1187382E+00
          2   -1    0    0  501    0  0.00000000000E+00  0.00000000000E+00  0.10953309344E+03  0.10953309344E+03  0.00000000000E+00 0. -1.
         -2   -1    0    0    0  501 -0.00000000000E+00 -0.00000000000E+00 -0.30337670413E+03  0.30337670413E+03  0.00000000000E+00 0.  1.
         25    2    1    2    0    0 -0.40447035593E+02  0.13204673019E+03 -0.47117758761E+02  0.19219941322E+03  0.12509288393E+03 0.  0.
          5    1    3    3  502    0  0.40704340987E+02  0.29289164198E+02 -0.33582820879E+02  0.60497741882E+02  0.41800000000E+01 0. -1.
         -5    1    3    3    0  502 -0.81151376580E+02  0.10275756599E+03 -0.13534937881E+02  0.13170167133E+03  0.41800000000E+01 0. -1.
        -11    1    1    2    0    0  0.24963666387E+02 -0.36492245026E+02  0.84701984258E+00  0.44222008425E+02  0.00000000000E+00 0. -1.
         11    1    1    2    0    0  0.15483369206E+02 -0.95554485161E+02 -0.14757287177E+03  0.17648837593E+03  0.00000000000E+00 0.  1.
</event>
<event>
 7    1  0.2612213E-009  0.1594656E+03  0.7561462E-02  0.1189301E+00
          1   -1    0    0  501    0  0.00000000000E+00  0.00000000000E+00  0.22515236417E+03  0.22515236417E+03  0.00000000000E+00 0. -1.
         -1   -1    0    0    0  501 -0.00000000000E+00 -0.00000000000E+00 -0.18999637145E+03  0.18999637145E+03  0.00000000000E+00 0.  1.
         25    2    1    2    0    0 -0.45360804709E+01  0.12953648517E+03 -0.10100843475E+03  0.20651292046E+03  0.12507839706E+03 0.  0.
          5    1    3    3  502    0 -0.24761364570E+02  0.14859379665E+03 -0.93775197328E+02  0.17749507490E+03  0.41800000000E+01 0.  1.
         -5    1    3    3    0  502  0.20225284099E+02 -0.19057311481E+02 -0.72332374203E+01  0.29017845567E+02  0.41800000000E+01 0.  1.
        -11    1    1    2    0    0  0.24621962902E+02 -0.10761815005E+03  0.57362011686E+02  0.12441184695E+03  0.00000000000E+00 0.  1.
         11    1    1    2    0    0 -0.20085882431E+02 -0.21918335117E+02  0.78802415775E+02  0.84223968200E+02  0.00000000000E+00 0. -1.
</event>
<event>
 7    1  0.2612213E-009  0.1839821E+03  0.7561462E-02  0.1164004E+00
          1   -1    0    0  501    0  0.00000000000E+00  0.00000000000E+00  0.73562582043E+03  0.73562582043E+03  0.00000000000E+00 0. -1.
         -1   -1    0    0    0  501 -0.00000000000E+00 -0.00000000000E+00 -0.58923540515E+02  0.58923540515E+02  0.00000000000E+00 0.  1.
         25    2    1    2    0    0  0.93412848609E+02  0.13966870217E+03  0.23647424743E+03  0.31591328149E+03  0.12509126696E+03 0.  0.
          5    1    3    3  502    0 -0.17390249630E+02  0.51536623043E+02  0.21851900740E+02  0.58765825638E+02  0.41800000000E+01 0. -1.
         -5    1    3    3    0  502  0.11080309824E+03  0.88132079126E+02  0.21462234669E+03  0.25714745585E+03  0.41800000000E+01 0. -1.
        -11    1    1    2    0    0 -0.46445245363E+02 -0.10012915098E+03  0.17903822624E+03  0.21032758770E+03  0.00000000000E+00 0.  1.
         11    1    1    2    0    0 -0.46967603246E+02 -0.39539551187E+02  0.26118980624E+03  0.26830849176E+03  0.00000000000E+00 0. -1.
</event>
<event>
 7    1  0.2612213E-009  0.1388425E+03  0.7561462E-02  0.1214895E+00
          3   -1    0    0  501    0  0.00000000000E+00  0.00000000000E+00  0.43746892675E+02  0.43746892675E+02  0.00000000000E+00 0. -1.
         -3   -1    0    0    0  501 -0.00000000000E+00 -0.00000000000E+00 -0.47511066039E+03  0.47511066039E+03  0.00000000000E+00 0.  1.
         25    2    1    2    0    0 -0.85200804888E+02 -0.39149533010E+02 -0.25208694165E+03  0.29662588205E+03  0.12508886707E+03 0.  0.
          5    1    3    3  502    0 -0.18501951174E+02 -0.76947906840E+02 -0.11884625489E+03  0.14284679649E+03  0.41800000000E+01 0.  1.
         -5    1    3    3    0  502 -0.66698853714E+02  0.37798373830E+02 -0.13324068675E+03  0.15377908557E+03  0.41800000000E+01 0.  1.
        -11    1    1    2    0    0  0.31862848462E+02  0.57091042627E+02 -0.13714725132E+03  0.15193418577E+03  0.00000000000E+00 0.  1.
         11    1    1    2    0    0  0.53337956427E+02 -0.17941509617E+02 -0.42129574746E+02  0.70297485242E+02  0.00000000000E+00 0. -1.
</event>
<event>
 7    1  0.2612213E-009  0.7539659E+02  0.7561462E-02  0.1342647E+00
          1   -1    0    0  501    0  0.00000000000E+00  0.00000000000E+00  0.89781910349E+02  0.89781910349E+02  0.00000000000E+00 0. -1.
         -1   -1    0    0    0  501 -0.00000000000E+00 -0.00000000000E+00 -0.14485373203E+03  0.14485373203E+03  0.00000000000E+00 0.  1.
         25    2    1    2    0    0  0.40542977315E+01 -0.31342087788E+02 -0.47729787223E+02  0.13756134146E+03  0.12508487630E+03 0.  0.
          5    1    3    3  502    0 -0.56682621190E+00 -0.42060018262E+02 -0.86813807430E+02  0.96558148225E+02  0.41800000000E+01 0.  1.
         -5    1    3    3    0  502  0.46211239434E+01  0.10717930475E+02  0.39084020207E+02  0.41003193238E+02  0.41800000000E+01 0.  1.
        -11    1    1    2    0    0 -0.14242854160E+02  0.62105540334E+02  0.55106494467E+00  0.63720175042E+02  0.00000000000E+00 0. -1.
         11    1    1    2    0    0  0.10188556429E+02 -0.30763452546E+02 -0.78930994043E+01  0.33354125875E+02  0.00000000000E+00 0.  1.
</event>
<event>
 7    1  0.2612213E-009  0.9841631E+02  0.7561462E-02  0.1283662E+00
         -1   -1    0    0    0  501 -0.00000000000E+00  0.00000000000E+00  0.86372447539E+02  0.86372447539E+02  0.00000000000E+00 0.  1.
          1   -1    0    0  501    0  0.00000000000E+00 -0.00000000000E+00 -0.14890797462E+03  0.14890797462E+03  0.00000000000E+00 0. -1.
         25    2    1    2    0    0  0.27917228273E+02  0.65920338332E+01 -0.12639671240E+02  0.12895793067E+03  0.12509020765E+03 0.  0.
          5    1    3    3  502    0 -0.41049788130E+02 -0.21403859993E+02  0.15906648131E+02  0.49129463491E+02  0.41800000000E+01 0. -1.
         -5    1    3    3    0  502  0.68967016403E+02  0.27995893827E+02 -0.28546319371E+02  0.79828467180E+02  0.41800000000E+01 0. -1.
        -11    1    1    2    0    0 -0.27199492625E+02 -0.36701438110E+02  0.26486778637E+01  0.45758315669E+02  0.00000000000E+00 0.  1.
         11    1    1    2    0    0 -0.71773564799E+00  0.30109404277E+02 -0.52544533709E+02  0.60564175823E+02  0.00000000000E+00 0. -1.
</event>
<event>
 7    1  0.2612213E-009  0.7081017E+02  0.7561462E-02  0.1357360E+00
         -1   -1    0    0    0  501 -0.00000000000E+00  0.00000000000E+00  0.76873281170E+02  0.76873281170E+02  0.00000000000E+00 0.  1.
          1   -1    0    0  501    0  0.00000000000E+00 -0.00000000000E+00 -0.16316448396E+03  0.16316448396E+03  0.00000000000E+00 0. -1.
         25    2    1    2    0    0  0.22773224119E+02  0.72140812869E+01 -0.27870110876E+02  0.13036456878E+03  0.12509002761E+03 0.  0.
          5    1    3    3  502    0 -0.14972533920E+02  0.41155447790E+02  0.30018169312E+02  0.53258901074E+02  0.41800000000E+01 0.  1.
         -5    1    3    3    0  502  0.37745758040E+02 -0.33941366503E+02 -0.57888280188E+02  0.77105667711E+02  0.41800000000E+01 0.  1.
        -11    1    1    2    0    0 -0.92724787262E+01 -0.23662105478E+02  0.17480308510E+02  0.30845344591E+02  0.00000000000E+00 0.  1.
         11    1    1    2    0    0 -0.13500745393E+02  0.16448024191E+02 -0.75901400427E+02  0.78827851758E+02  0.00000000000E+00 0. -1.
</event>
<event>
 7    1  0.2612213E-009  0.9371605E+02  0.7561462E-02  0.1294094E+00
         -1   -1    0    0    0  501 -0.00000000000E+00  0.00000000000E+00  0.41159522099E+03  0.41159522099E+03  0.00000000000E+00 0.  1.
          1   -1    0    0  501    0  0.00000000000E+00 -0.00000000000E+00 -0.47775869230E+02  0.47775869230E+02  0.00000000000E+00 0. -1.
         25    2    1    2    0    0 -0.64753416582E+02  0.15709670662E+01  0.30328802105E+03  0.33440466274E+03  0.12508949537E+03 0.  0.
          5    1    3    3  502    0 -0.44729864343E+02 -0.37628629955E+02  0.27664192042E+03  0.28278065544E+03  0.41800000000E+01 0. -1.
         -5    1    3    3    0  502 -0.20023552239E+02  0.39199597022E+02  0.26646100629E+02  0.51624007300E+02  0.41800000000E+01 0. -1.
        -11    1    1    2    0    0  0.71564575841E+02 -0.11592902724E+02  0.76187669053E+02  0.10516864944E+03  0.00000000000E+00 0.  1.
         11    1    1    2    0    0 -0.68111592583E+01  0.10021935658E+02 -0.15656338348E+02  0.19797778038E+02  0.00000000000E+00 0. -1.
</event>
<event>
 7    1  0.2612213E-009  0.1102612E+03  0.7561462E-02  0.1260087E+00
          1   -1    0    0  501    0  0.00000000000E+00  0.00000000000E+00  0.31728692093E+03  0.31728692093E+03  0.00000000000E+00 0. -1.
         -1   -1    0    0    0  501 -0.00000000000E+00 -0.00000000000E+00 -0.39691782867E+02  0.39691782867E+02  0.00000000000E+00 0.  1.
         25    2    1    2    0    0 -0.28470663175E+02  0.51494024246E+01  0.14900965638E+03  0.19669649810E+03  0.12509412321E+03 0.  0.
          5    1    3    3  502    0  0.10264581624E+02  0.59839810675E+02  0.78518743814E+02  0.99341985624E+02  0.41800000000E+01 0. -1.
         -5    1    3    3    0  502 -0.38735244799E+02 -0.54690408250E+02  0.70490912566E+02  0.97354512472E+02  0.41800000000E+01 0. -1.
        -11    1    1    2    0    0 -0.31048909723E+02 -0.10451965947E+02  0.27125326247E+02  0.42533066092E+02  0.00000000000E+00 0.  1.
         11    1    1    2    0    0  0.59519572898E+02  0.53025635229E+01  0.10146015544E+03  0.11774913961E+03  0.00000000000E+00 0. -1.
</event>
<event>
 7    1  0.3027411E-009  0.1109934E+03  0.7561462E-02  0.1258741E+00
          1   -1    0    0  501    0  0.00000000000E+00  0.00000000000E+00  0.37865071449E+03  0.37865071449E+03  0.00000000000E+00 0. -1.
         -1   -1    0    0    0  501 -0.00000000000E+00 -0.00000000000E+00 -0.40836203837E+02  0.40836203837E+02  0.00000000000E+00 0.  1.
         25    2    1    2    0    0 -0.48232177727E+02 -0.16240945566E+02  0.13194689063E+03  0.18880532468E+03  0.12508939764E+03 0.  0.
          5    1    3    3  502    0 -0.84033454148E+02 -0.38662671891E+02  0.90897735392E+02  0.12975474678E+03  0.41800000000E+01 0. -1.
         -5    1    3    3    0  502  0.35801276421E+02  0.22421726325E+02  0.41049155236E+02  0.59050577900E+02  0.41800000000E+01 0. -1.
        -11    1    1    2    0    0 -0.15883512612E+02 -0.87428560602E+01  0.56830725205E+01  0.19000547841E+02  0.00000000000E+00 0.  1.
         11    1    1    2    0    0  0.64115690339E+02  0.24983801626E+02  0.20018454751E+03  0.21168104580E+03  0.00000000000E+00 0. -1.
</event>
<event>
 7    1  0.2612213E-009  0.1111603E+03  0.7561462E-02  0.1258436E+00
         -1   -1    0    0    0  501 -0.00000000000E+00  0.00000000000E+00  0.11105103679E+03  0.11105103679E+03  0.00000000000E+00 0.  1.
          1   -1    0    0  501    0  0.00000000000E+00 -0.00000000000E+00 -0.11834285054E+03  0.11834285054E+03  0.00000000000E+00 0. -1.
         25    2    1    2    0    0 -0.15245601745E+02 -0.33291051402E+02 -0.19493782574E+02  0.13179190228E+03  0.12509346694E+03 0.  0.
          5    1    3    3  502    0 -0.99071002130E+01 -0.80769447309E+02 -0.47656300557E+01  0.81621307776E+02  0.41800000000E+01 0.  1.
         -5    1    3    3    0  502 -0.53385015322E+01  0.47478395907E+02 -0.14728152518E+02  0.50170594506E+02  0.41800000000E+01 0.  1.
        -11    1    1    2    0    0  0.40203409992E+02  0.49004712281E+02  0.21084744717E+02  0.66800766916E+02  0.00000000000E+00 0. -1.
         11    1    1    2    0    0 -0.24957808247E+02 -0.15713660879E+02 -0.88827759019E+01  0.30801218132E+02  0.00000000000E+00 0.  1.
</event>
<event>
 7    1  0.2612213E-009  0.1706186E+03  0.7561462E-02  0.1177204E+00
          2   -1    0    0  501    0  0.00000000000E+00  0.00000000000E+00  0.34187782047E+03  0.34187782047E+03  0.00000000000E+00 0.  1.
         -2   -1    0    0    0  501 -0.00000000000E+00 -0.00000000000E+00 -0.92713147758E+02  0.92713147758E+02  0.00000000000E+00 0. -1.
         25    2    1    2    0    0 -0.60036062326E+02  0.11998205914E+03  0.79369170051E+02  0.19984752063E+03  0.12505815869E+03 0.  0.
          5    1    3    3  502    0  0.30485122293E+02  0.21214061718E+01  0.30435592659E+02  0.43331752167E+02  0.41800000000E+01 0.  1.
         -5    1    3    3    0  502 -0.90521184618E+02  0.11786065297E+03  0.48933577391E+02  0.15651576847E+03  0.41800000000E+01 0.  1.
        -11    1    1    2    0    0 -0.23384493676E+02 -0.38922955181E+02  0.54954765677E+02  0.71287146493E+02  0.00000000000E+00 0.  1.
         11    1    1    2    0    0  0.83420556002E+02 -0.81059103958E+02  0.11484073698E+03  0.16345630110E+03  0.00000000000E+00 0. -1.
</event>
<event>
 7    1  0.2612213E-009  0.6193111E+02  0.7561462E-02  0.1389902E+00
          1   -1    0    0  501    0  0.00000000000E+00  0.00000000000E+00  0.11207397005E+03  0.11207397005E+03  0.00000000000E+00 0. -1.
         -1   -1    0    0    0  501 -0.00000000000E+00 -0.00000000000E+00 -0.12343570068E+03  0.12343570068E+03  0.00000000000E+00 0.  1.
         25    2    1    2    0    0  0.22513848681E+02  0.83894176014E+01 -0.52870224889E+02  0.13791200567E+03  0.12508878814E+03 0.  0.
          5    1    3    3  502    0  0.30247953687E+02 -0.55290852395E+01  0.36000644805E+02  0.47529236394E+02  0.41800000000E+01 0.  1.
         -5    1    3    3    0  502 -0.77341050058E+01  0.13918502841E+02 -0.88870869694E+02  0.90382769275E+02  0.41800000000E+01 0.  1.
        -11    1    1    2    0    0 -0.41717208938E+02  0.16559940321E+02  0.47714932918E+02  0.65507800821E+02  0.00000000000E+00 0. -1.
         11    1    1    2    0    0  0.19203360257E+02 -0.24949357922E+02 -0.62064386600E+01  0.32089864237E+02  0.00000000000E+00 0.  1.
</event>
<event>
 7    1  0.2612213E-009  0.1186781E+03  0.7561462E-02  0.1245294E+00
         -1   -1    0    0    0  501 -0.00000000000E+00  0.00000000000E+00  0.57770354783E+02  0.57770354783E+02  0.00000000000E+00 0.  1.
          1   -1    0    0  501    0  0.00000000000E+00 -0.00000000000E+00 -0.38526188278E+03  0.38526188278E+03  0.00000000000E+00 0. -1.
         25    2    1    2    0    0 -0.71552114273E+01 -0.85146155432E+02 -0.86422175071E+02  0.17440734364E+03  0.12509222332E+03 0.  0.
          5    1    3    3  502    0  0.36484825119E+01 -0.10684403444E+03 -0.27364113141E+02  0.11043199812E+03  0.41800000000E+01 0. -1.
         -5    1    3    3    0  502 -0.10803693939E+02  0.21697879007E+02 -0.59058061929E+02  0.63975345524E+02  0.41800000000E+01 0. -1.
        -11    1    1    2    0    0  0.33234396959E+02  0.30008551208E+02 -0.45804012556E+02  0.64055022075E+02  0.00000000000E+00 0.  1.
         11    1    1    2    0    0 -0.26079185532E+02  0.55137604224E+02 -0.19526534037E+03  0.20456987185E+03  0.00000000000E+00 0. -1.
</event>
<event>
 7    1  0.2612213E-009  0.1246228E+03  0.7561462E-02  0.1235660E+00
         -2   -1    0    0    0  501 -0.00000000000E+00  0.00000000000E+00  0.49001374735E+02  0.49001374735E+02  0.00000000000E+00 0.  1.
          2   -1    0    0  501    0  0.00000000000E+00 -0.00000000000E+00 -0.34704740922E+03  0.34704740922E+03  0.00000000000E+00 0. -1.
         25    2    1    2    0    0 -0.67468916866E+02  0.23362003600E+02 -0.20590794120E+03  0.25128156102E+03  0.12508598924E+03 0.  0.
          5    1    3    3  502    0 -0.10103793550E+03  0.10627963438E+02 -0.11530484169E+03  0.15373450144E+03  0.41800000000E+01 0. -1.
         -5    1    3    3    0  502  0.33569018637E+02  0.12734040162E+02 -0.90603099510E+02  0.97547059576E+02  0.41800000000E+01 0. -1.
        -11    1    1    2    0    0 -0.20728519563E+02 -0.37013980387E+01 -0.13801279413E+02  0.25176321895E+02  0.00000000000E+00 0.  1.
         11    1    1    2    0    0  0.88197436429E+02 -0.19660605561E+02 -0.78336813873E+02  0.11959090104E+03  0.00000000000E+00 0. -1.
</event>
<event>
 7    1  0.2736713E-009  0.1888617E+03  0.7561462E-02  0.1159492E+00
         -1   -1    0    0    0  501 -0.00000000000E+00  0.00000000000E+00  0.16160205250E+03  0.16160205250E+03  0.00000000000E+00 0.  1.
          1   -1    0    0  501    0  0.00000000000E+00 -0.00000000000E+00 -0.28028794987E+03  0.28028794987E+03  0.00000000000E+00 0. -1.
         25    2    1    2    0    0  0.13666788807E+03 -0.11588202839E+03 -0.24035170355E+02  0.21984774592E+03  0.12509430778E+03 0.  0.
          5    1    3    3  502    0  0.47883624441E+02  0.27923448444E+01  0.35761309198E+02  0.59974847352E+02  0.41800000000E+01 0.  1.
         -5    1    3    3    0  502  0.88784263631E+02 -0.11867437323E+03 -0.59796479552E+02  0.15987289857E+03  0.41800000000E+01 0.  1.
        -11    1    1    2    0    0 -0.84659216487E+02  0.53748802532E+02 -0.38627545186E+01  0.10035455935E+03  0.00000000000E+00 0.  1.
         11    1    1    2    0    0 -0.52008671586E+02  0.62133225854E+02 -0.90787972498E+02  0.12168769710E+03  0.00000000000E+00 0. -1.
</event>
<event>
 7    1  0.2612213E-009  0.1336502E+03  0.7561462E-02  0.1222138E+00
         -2   -1    0    0    0  501 -0.00000000000E+00  0.00000000000E+00  0.31948349056E+02  0.31948349056E+02  0.00000000000E+00 0.  1.
          2   -1    0    0  501    0  0.00000000000E+00 -0.00000000000E+00 -0.68551492008E+03  0.68551492008E+03  0.00000000000E+00 0. -1.
         25    2    1    2    0    0 -0.69047625910E+02 -0.64122730583E+02 -0.44292586244E+03  0.46979852986E+03  0.12509212535E+03 0.  0.
          5    1    3    3  502    0 -0.53152030385E+02 -0.97749769962E+02 -0.38545085087E+03  0.40121065128E+03  0.41800000000E+01 0. -1.
         -5    1    3    3    0  502 -0.15895595526E+02  0.33627039379E+02 -0.57475011567E+02  0.68587878587E+02  0.41800000000E+01 0. -1.
        -11    1    1    2    0    0  0.82384263542E+02  0.41453679236E+02 -0.19812288290E+03  0.21853661279E+03  0.00000000000E+00 0. -1.
         11    1    1    2    0    0 -0.13336637632E+02  0.22669051348E+02 -0.12517825685E+02  0.29128126480E+02  0.00000000000E+00 0.  1.
</event>
<event>
 7    1  0.2612213E-009  0.1948725E+03  0.7561462E-02  0.1154139E+00
          2   -1    0    0  501    0  0.00000000000E+00  0.00000000000E+00  0.40548290923E+02  0.40548290923E+02  0.00000000000E+00 0. -1.
         -2   -1    0    0    0  501 -0.00000000000E+00 -0.00000000000E+00 -0.96716222577E+03  0.96716222577E+03  0.00000000000E+00 0.  1.
         25    2    1    2    0    0 -0.10994484929E+03 -0.12256224503E+03 -0.49100492765E+03  0.53276863969E+03  0.12508881110E+03 0.  0.
          5    1    3    3  502    0 -0.21089937538E+02  0.22187560966E+02 -0.13234265719E+03  0.13590115761E+03  0.41800000000E+01 0. -1.
         -5    1    3    3    0  502 -0.88854911755E+02 -0.14474980600E+03 -0.35866227047E+03  0.39686748208E+03  0.41800000000E+01 0. -1.
        -11    1    1    2    0    0  0.65263874677E+01  0.74718004206E+02 -0.18603386604E+03  0.20058408013E+03  0.00000000000E+00 0. -1.
         11    1    1    2    0    0  0.10341846183E+03  0.47844240826E+02 -0.24957514115E+03  0.27435779688E+03  0.00000000000E+00 0.  1.
</event>
<event>
 7    1  0.2612213E-009  0.1343131E+03  0.7561462E-02  0.1221193E+00
         -2   -1    0    0    0  501 -0.00000000000E+00  0.00000000000E+00  0.31820898176E+02  0.31820898176E+02  0.00000000000E+00 0.  1.
          2   -1    0    0  501    0  0.00000000000E+00 -0.00000000000E+00 -0.80770435230E+03  0.80770435230E+03  0.00000000000E+00 0. -1.
         25    2    1    2    0    0  0.82269581263E+02 -0.65584013454E+02 -0.27862684345E+03  0.32302392410E+03  0.12506794485E+03 0.  0.
          5    1    3    3  502    0 -0.33481968802E+02 -0.13391906430E+02 -0.57517638459E+02  0.68015707940E+02  0.41800000000E+01 0.  1.
         -5    1    3    3    0  502  0.11575155007E+03 -0.52192107024E+02 -0.22110920499E+03  0.25500821616E+03  0.41800000000E+01 0.  1.
        -11    1    1    2    0    0 -0.16202539605E+02  0.11019383201E+02 -0.10442064965E+02  0.22203283913E+02  0.00000000000E+00 0.  1.
         11    1    1    2    0    0 -0.66067041658E+02  0.54564630252E+02 -0.48681454571E+03  0.49429804246E+03  0.00000000000E+00 0. -1.
</event>
<event>
 7    1  0.2612213E-009  0.8681424E+02  0.7561462E-02  0.1310755E+00
          2   -1    0    0  501    0  0.00000000000E+00  0.00000000000E+00  0.53874940508E+03  0.53874940508E+03  0.00000000000E+00 0. -1.
         -2   -1    0    0    0  501 -0.00000000000E+00 -0.00000000000E+00 -0.28696434562E+02  0.28696434562E+02  0.00000000000E+00 0.  1.
         25    2    1    2    0    0  0.13934681622E+02 -0.50492000238E+02  0.32008777540E+03  0.34763593740E+03  0.12510373123E+03 0.  0.
          5    1    3    3  502    0  0.17381070298E+02 -0.56380080776E+02  0.50053538010E+02  0.77483186436E+02  0.41800000000E+01 0. -1.
         -5    1    3    3    0  502 -0.34463886763E+01  0.58880805379E+01  0.27003423739E+03  0.27015275096E+03  0.41800000000E+01 0. -1.
        -11    1    1    2    0    0 -0.53264244190E+02  0.37189625148E+02  0.14336898985E+03  0.15740017528E+03  0.00000000000E+00 0. -1.
         11    1    1    2    0    0  0.39329562568E+02  0.13302375091E+02  0.46596205273E+02  0.62409726971E+02  0.00000000000E+00 0.  1.
</event>
<event>
 7    1  0.2612213E-009  0.1243164E+03  0.7561462E-02  0.1236142E+00
         -1   -1    0    0    0  501 -0.00000000000E+00  0.00000000000E+00  0.13910445594E+03  0.13910445594E+03  0.00000000000E+00 0.  1.
          1   -1    0    0  501    0  0.00000000000E+00 -0.00000000000E+00 -0.14576772595E+03  0.14576772595E+03  0.00000000000E+00 0. -1.
         25    2    1    2    0    0  0.85977560061E+02  0.26505774222E+02 -0.23331957572E+02  0.15584297071E+03  0.12509178380E+03 0.  0.
          5    1    3    3  502    0 -0.84553808654E+01  0.46946426037E+02  0.17341169839E+02  0.50927879934E+02  0.41800000000E+01 0. -1.
         -5    1    3    3    0  502  0.94432940927E+02 -0.20440651815E+02 -0.40673127411E+02  0.10491509077E+03  0.41800000000E+01 0. -1.
        -11    1    1    2    0    0 -0.70763875965E+02 -0.42027717372E+02 -0.21536404309E+02  0.85074507814E+02  0.00000000000E+00 0. -1.
         11    1    1    2    0    0 -0.15213684096E+02  0.15521943151E+02  0.38205091878E+02  0.43954703370E+02  0.00000000000E+00 0.  1.
</event>
<event>
 7    1  0.2612213E-009  0.1254078E+03  0.7561462E-02  0.1234433E+00
          1   -1    0    0  501    0  0.00000000000E+00  0.00000000000E+00  0.19576921830E+03  0.19576921830E+03  0.00000000000E+00 0. -1.
         -1   -1    0    0    0  501 -0.00000000000E+00 -0.00000000000E+00 -0.91914409095E+02  0.91914409095E+02  0.00000000000E+00 0.  1.
         25    2    1    2    0    0 -0.14317725069E+02  0.66755726643E+02  0.16102358906E+02  0.14341359424E+03  0.12508736451E+03 0.  0.
          5    1    3    3  502    0 -0.25952916313E+02  0.99711673822E+02 -0.33973052346E+01  0.10317454068E+03  0.41800000000E+01 0.  1.
         -5    1    3    3    0  502  0.11635191244E+02 -0.32955947179E+02  0.19499664141E+02  0.40239053559E+02  0.41800000000E+01 0.  1.
        -11    1    1    2    0    0 -0.44348609403E+01  0.21663324586E+02  0.28994147466E+02  0.36464067395E+02  0.00000000000E+00 0.  1.
         11    1    1    2    0    0  0.18752586010E+02 -0.88419051229E+02  0.58758302837E+02  0.10780596577E+03  0.00000000000E+00 0. -1.
</event>
<event>
 7    1  0.2612213E-009  0.1079469E+03  0.7561462E-02  0.1264420E+00
          2   -1    0    0  501    0  0.00000000000E+00  0.00000000000E+00  0.11838166223E+03  0.11838166223E+03  0.00000000000E+00 0. -1.
         -2   -1    0    0    0  501 -0.00000000000E+00 -0.00000000000E+00 -0.12420388676E+03  0.12420388676E+03  0.00000000000E+00 0.  1.
         25    2    1    2    0    0 -0.36066764915E+02 -0.23553749876E+02  0.30650307709E+02  0.13581532741E+03  0.12510304205E+03 0.  0.
          5    1    3    3  502    0  0.20083041301E+02  0.34368713442E+02 -0.15337164174E+02  0.42863014552E+02  0.41800000000E+01 0. -1.
         -5    1    3    3    0  502 -0.56149806215E+02 -0.57922463318E+02  0.45987471883E+02  0.92952312855E+02  0.41800000000E+01 0. -1.
        -11    1    1    2    0    0  0.30276351270E+02  0.55178434222E+02 -0.39770028899E+02  0.74451140005E+02  0.00000000000E+00 0.  1.
         11    1    1    2    0    0  0.57904136453E+01 -0.31624684345E+02  0.32974966584E+01  0.32319081583E+02  0.00000000000E+00 0. -1.
</event>
<event>
 7    1  0.2612213E-009  0.1285149E+03  0.7561462E-02  0.1229676E+00
         -2   -1    0    0    0  501 -0.00000000000E+00  0.00000000000E+00  0.38816571160E+02  0.38816571160E+02  0.00000000000E+00 0.  1.
          2   -1    0    0  501    0  0.00000000000E+00 -0.00000000000E+00 -0.62857696204E+03  0.62857696204E+03  0.00000000000E+00 0. -1.
         25    2    1    2    0    0 -0.10443112936E+03 -0.42938990385E+02 -0.28515486375E+03  0.33122610503E+03  0.12509124131E+03 0.  0.
          5    1    3    3  502    0 -0.30942961820E+02 -0.58204834043E+02 -0.45884405834E+02  0.80424627390E+02  0.41800000000E+01 0. -1.
         -5    1    3    3    0  502 -0.73488167538E+02  0.15265843658E+02 -0.23927045792E+03  0.25080147764E+03  0.41800000000E+01 0. -1.
        -11    1    1    2    0    0  0.34720831935E+02  0.15959009433E+01 -0.20417785848E+03  0.20711513938E+03  0.00000000000E+00 0. -1.
         11    1    1    2    0    0  0.69710297422E+02  0.41343089441E+02 -0.10042766865E+03  0.12905228879E+03  0.00000000000E+00 0.  1.
</event>
<event>
 7    1  0.2612213E-009  0.8924713E+02  0.7561462E-02  0.1304685E+00
         -1   -1    0    0    0  501 -0.00000000000E+00  0.00000000000E+00  0.29202614889E+02  0.29202614889E+02  0.00000000000E+00 0.  1.
          1   -1    0    0  501    0  0.00000000000E+00 -0.00000000000E+00 -0.42933714538E+03  0.42933714538E+03  0.00000000000E+00 0. -1.
         25    2    1    2    0    0  0.26300021905E+02  0.24648455476E+02 -0.24237980345E+03  0.27512899316E+03  0.12509498890E+03 0.  0.
          5    1    3    3  502    0  0.49804497179E+02 -0.13758877442E+02 -0.34223337428E+02  0.62116856588E+02  0.41800000000E+01 0.  1.
         -5    1    3    3    0  502 -0.23504475274E+02  0.38407332918E+02 -0.20815646602E+03  0.21301213657E+03  0.41800000000E+01 0.  1.
        -11    1    1    2    0    0  0.25450099647E+02 -0.12116724936E+02 -0.10398802676E+03  0.10774057873E+03  0.00000000000E+00 0. -1.
         11    1    1    2    0    0 -0.51750121551E+02 -0.12531730539E+02 -0.53766700287E+02  0.75670188388E+02  0.00000000000E+00 0.  1.
</event>
<event>
 7    1  0.2612213E-009  0.7554048E+02  0.7561462E-02  0.1342205E+00
         -1   -1    0    0    0  501 -0.00000000000E+00  0.00000000000E+00  0.18239379778E+02  0.18239379778E+02  0.00000000000E+00 0.  1.
          1   -1    0    0  501    0  0.00000000000E+00 -0.00000000000E+00 -0.60304735032E+03  0.60304735032E+03  0.00000000000E+00 0. -1.
         25    2    1    2    0    0  0.10571744815E+02  0.20968654737E+02 -0.41233014495E+03  0.43152657120E+03  0.12509031519E+03 0.  0.
          5    1    3    3  502    0  0.18605196757E+02  0.54387768904E+02 -0.86994985581E+02  0.10435412148E+03  0.41800000000E+01 0.  1.
         -5    1    3    3    0  502 -0.80334519411E+01 -0.33419114167E+02 -0.32533515936E+03  0.32717244973E+03  0.41800000000E+01 0.  1.
        -11    1    1    2    0    0 -0.18864886880E+02  0.13611063873E+02 -0.13589285156E+02  0.26940929601E+02  0.00000000000E+00 0.  1.
         11    1    1    2    0    0  0.82931420645E+01 -0.34579718610E+02 -0.15888854044E+03  0.16281922929E+03  0.00000000000E+00 0. -1.
</event>
<event>
 7    1  0.2612213E-009  0.1408392E+03  0.7561462E-02  0.1212204E+00
          2   -1    0    0  501    0  0.00000000000E+00  0.00000000000E+00  0.29743526560E+03  0.29743526560E+03  0.00000000000E+00 0. -1.
         -2   -1    0    0    0  501 -0.00000000000E+00 -0.00000000000E+00 -0.26724319216E+03  0.26724319216E+03  0.00000000000E+00 0.  1.
         25    2    1    2    0    0 -0.55516988210E+02 -0.62743217516E+02 -0.22745708312E+03  0.27276777736E+03  0.12508672345E+03 0.  0.
          5    1    3    3  502    0  0.65610765975E+01 -0.83608941114E+02 -0.11226453895E+03  0.14019380110E+03  0.41800000000E+01 0.  1.
         -5    1    3    3    0  502 -0.62078064807E+02  0.20865723597E+02 -0.11519254417E+03  0.13257397627E+03  0.41800000000E+01 0.  1.
        -11    1    1    2    0    0  0.22570265049E+02  0.87823626157E+02  0.13643852973E+03  0.16382270468E+03  0.00000000000E+00 0.  1.
         11    1    1    2    0    0  0.32946723161E+02 -0.25080408641E+02  0.12121062683E+03  0.12808797571E+03  0.00000000000E+00 0. -1.
</event>
<event>
 7    1  0.2612213E-009  0.9744223E+02  0.7561462E-02  0.1285768E+00
         -1   -1    0    0    0  501 -0.00000000000E+00  0.00000000000E+00  0.19131530636E+03  0.19131530636E+03  0.00000000000E+00 0.  1.
          1   -1    0    0  501    0  0.00000000000E+00 -0.00000000000E+00 -0.71385856741E+02  0.71385856741E+02  0.00000000000E+00 0. -1.
         25    2    1    2    0    0  0.70722636632E+01  0.36310974485E+02  0.35083296460E+02  0.13508548994E+03  0.12509495642E+03 0.  0.
          5    1    3    3  502    0  0.28004329767E+02 -0.30328806683E+02  0.48510171792E+02  0.63834067455E+02  0.41800000000E+01 0.  1.
         -5    1    3    3    0  502 -0.20932066103E+02  0.66639781169E+02 -0.13426875333E+02  0.71251422489E+02  0.41800000000E+01 0.  1.
        -11    1    1    2    0    0 -0.41058846848E+02 -0.21453008328E+02  0.76754285062E+02  0.89650882574E+02  0.00000000000E+00 0.  1.
         11    1    1    2    0    0  0.33986583185E+02 -0.14857966157E+02  0.80918681001E+01  0.37964790586E+02  0.00000000000E+00 0. -1.
</event>
<event>
 7    1  0.2612213E-009  0.1140914E+03  0.7561462E-02  0.1253175E+00
          4   -1    0    0  501    0  0.00000000000E+00  0.00000000000E+00  0.83976078975E+02  0.83976078975E+02  0.00000000000E+00 0.  1.
         -4   -1    0    0    0  501 -0.00000000000E+00 -0.00000000000E+00 -0.16413194390E+03  0.16413194390E+03  0.00000000000E+00 0. -1.
         25    2    1    2    0    0 -0.36465484585E+02  0.22416520647E+02 -0.60754266804E+02  0.14550199699E+03  0.12509004049E+03 0.  0.
          5    1    3    3  502    0 -0.65092100445E+02  0.56345936244E+02 -0.49957512130E+02  0.99624653022E+02  0.41800000000E+01 0. -1.
         -5    1    3    3    0  502  0.28626615859E+02 -0.33929415597E+02 -0.10796754674E+02  0.45877343971E+02  0.41800000000E+01 0. -1.
        -11    1    1    2    0    0  0.35249651103E+02 -0.54710929271E+02 -0.33619012590E+00  0.65084074153E+02  0.00000000000E+00 0.  1.
         11    1    1    2    0    0  0.12158334825E+01  0.32294408624E+02 -0.19065407990E+02  0.37521951725E+02  0.00000000000E+00 0. -1.
</event>
<event>
 7    1  0.2612213E-009  0.1185621E+03  0.7561462E-02  0.1245488E+00
          1   -1    0    0  501    0  0.00000000000E+00  0.00000000000E+00  0.13934162252E+03  0.13934162252E+03  0.00000000000E+00 0. -1.
         -1   -1    0    0    0  501 -0.00000000000E+00 -0.00000000000E+00 -0.13005633702E+03  0.13005633702E+03  0.00000000000E+00 0.  1.
         25    2    1    2    0    0  0.28766961329E+02  0.54511375229E+02  0.55997317782E+02  0.15027810768E+03  0.12509509165E+03 0.  0.
          5    1    3    3  502    0  0.78157599746E+02  0.27430374854E+02  0.31632388109E+02  0.88764386103E+02  0.41800000000E+01 0. -1.
         -5    1    3    3    0  502 -0.49390638417E+02  0.27081000375E+02  0.24364929673E+02  0.61513721579E+02  0.41800000000E+01 0. -1.
        -11    1    1    2    0    0  0.26155768530E+02 -0.18149333815E+02  0.87439753516E+01  0.33014839849E+02  0.00000000000E+00 0.  1.
         11    1    1    2    0    0 -0.54922729859E+02 -0.36362041414E+02 -0.55456007632E+02  0.86105012011E+02  0.00000000000E+00 0. -1.
</event>
<event>
 7    1  0.2612213E-009  0.1425193E+03  0.7561462E-02  0.1209979E+00
          4   -1    0    0  501    0  0.00000000000E+00  0.00000000000E+00  0.23634902852E+03  0.23634902852E+03  0.00000000000E+00 0. -1.
         -4   -1    0    0    0  501 -0.00000000000E+00 -0.00000000000E+00 -0.10244503992E+03  0.10244503992E+03  0.00000000000E+00 0.  1.
         25    2    1    2    0    0  0.64870410661E+02  0.70948256047E+02  0.13098300371E+03  0.20505141398E+03  0.12509080662E+03 0.  0.
          5    1    3    3  502    0  0.30560495622E+02  0.10395392622E+03  0.77230673183E+02  0.13312554958E+03  0.41800000000E+01 0. -1.
         -5    1    3    3    0  502  0.34309915040E+02 -0.33005670175E+02  0.53752330525E+02  0.71925864406E+02  0.41800000000E+01 0. -1.
        -11    1    1    2    0    0 -0.77328323280E+02 -0.25095389874E+02 -0.15534245327E+02  0.82769323738E+02  0.00000000000E+00 0.  1.
         11    1    1    2    0    0  0.12457912618E+02 -0.45852866173E+02  0.18455230219E+02  0.50973330728E+02  0.00000000000E+00 0. -1.
</event>
<event>
 7    1  0.2612213E-009  0.9992504E+02  0.7561462E-02  0.1280454E+00
          1   -1    0    0  501    0  0.00000000000E+00  0.00000000000E+00  0.11304541628E+03  0.11304541628E+03  0.00000000000E+00 0. -1.
         -1   -1    0    0    0  501 -0.00000000000E+00 -0.00000000000E+00 -0.10309113352E+03  0.10309113352E+03  0.00000000000E+00 0.  1.
         25    2    1    2    0    0  0.14102506260E+01  0.36866890295E+01 -0.16229888498E+01  0.12516088090E+03  0.12508809509E+03 0.  0.
          5    1    3    3  502    0  0.55755503758E+02  0.29422302322E+01 -0.30198606208E+02  0.63614158290E+02  0.41800000000E+01 0.  1.
         -5    1    3    3    0  502 -0.54345253132E+02  0.74445879726E+00  0.28575617358E+02  0.61546722612E+02  0.41800000000E+01 0.  1.
        -11    1    1    2    0    0  0.15337591502E+02  0.39851760901E+02 -0.81517553794E+00  0.42709121639E+02  0.00000000000E+00 0.  1.
         11    1    1    2    0    0 -0.16747842128E+02 -0.43538449931E+02  0.12392447148E+02  0.48266547262E+02  0.00000000000E+00 0. -1.
</event>
<event>
 7    1  0.2612213E-009  0.1432789E+03  0.7561462E-02  0.1208984E+00
         -1   -1    0    0    0  501 -0.00000000000E+00  0.00000000000E+00  0.88288596836E+02  0.88288596836E+02  0.00000000000E+00 0.  1.
          1   -1    0    0  501    0  0.00000000000E+00 -0.00000000000E+00 -0.32684941664E+03  0.32684941664E+03  0.00000000000E+00 0. -1.
         25    2    1    2    0    0  0.12829670472E+03  0.24099930491E+02 -0.11318828921E+03  0.21330957325E+03  0.12509410112E+03 0.  0.
          5    1    3    3  502    0  0.98201185172E+02  0.20168901553E+02 -0.14023996253E+03  0.17243832767E+03  0.41800000000E+01 0. -1.
         -5    1    3    3    0  502  0.30095519546E+02  0.39310289386E+01  0.27051673327E+02  0.40871245577E+02  0.41800000000E+01 0. -1.
        -11    1    1    2    0    0 -0.29157261402E+02  0.30671565717E+02 -0.18792025164E+02  0.46303682853E+02  0.00000000000E+00 0.  1.
         11    1    1    2    0    0 -0.99139443316E+02 -0.54771496208E+02 -0.10658050543E+03  0.15552475737E+03  0.00000000000E+00 0. -1.
</event>
<event>
 7    1  0.2612213E-009  0.2525037E+03  0.7561462E-02  0.1111733E+00
         -2   -1    0    0    0  501 -0.00000000000E+00  0.00000000000E+00  0.26904966657E+03  0.26904966657E+03  0.00000000000E+00 0.  1.
          2   -1    0    0  501    0  0.00000000000E+00 -0.00000000000E+00 -0.25840036812E+03  0.25840036812E+03  0.00000000000E+00 0. -1.
         25    2    1    2    0    0 -0.14909848567E+03 -0.18658193147E+03 -0.14558287640E+02  0.27000483403E+03  0.12508993196E+03 0.  0.
          5    1    3    3  502    0 -0.70854902954E+02 -0.14176704216E+03 -0.59286354605E+02  0.16926504589E+03  0.41800000000E+01 0. -1.
         -5    1    3    3    0  502 -0.78243582719E+02 -0.44814889310E+02  0.44728066965E+02  0.10073978814E+03  0.41800000000E+01 0. -1.
        -11    1    1    2    0    0  0.15771000307E+03  0.14667728352E+03  0.21989662872E+02  0.21649530213E+03  0.00000000000E+00 0.  1.
         11    1    1    2    0    0 -0.86115174024E+01  0.39904647953E+02  0.32179232226E+01  0.40949898536E+02  0.00000000000E+00 0. -1.
</event>
<event>
 7    1  0.2612213E-009  0.1643783E+03  0.7561462E-02  0.1183841E+00
         -2   -1    0    0    0  501 -0.00000000000E+00  0.00000000000E+00  0.17809368861E+03  0.17809368861E+03  0.00000000000E+00 0.  1.
          2   -1    0    0  501    0  0.00000000000E+00 -0.00000000000E+00 -0.24585823932E+03  0.24585823932E+03  0.00000000000E+00 0. -1.
         25    2    1    2    0    0  0.57917658085E+02  0.13333492689E+03  0.70502151619E+02  0.20433290609E+03  0.12509486514E+03 0.  0.
          5    1    3    3  502    0  0.88975835886E+02  0.83397022738E+02  0.78120241355E+02  0.14488618734E+03  0.41800000000E+01 0. -1.
         -5    1    3    3    0  502 -0.31058177800E+02  0.49937904149E+02 -0.76180897364E+01  0.59446718751E+02  0.41800000000E+01 0. -1.
        -11    1    1    2    0    0 -0.56054404455E+01 -0.43206692340E+02  0.34576898094E+01  0.43705775869E+02  0.00000000000E+00 0.  1.
         11    1    1    2    0    0 -0.52312217640E+02 -0.90128234547E+02 -0.14172439215E+03  0.17591324597E+03  0.00000000000E+00 0. -1.
</event>
<event>
 7    1  0.2612213E-009  0.2055193E+03  0.7561462E-02  0.1145164E+00
          2   -1    0    0  501    0  0.00000000000E+00  0.00000000000E+00  0.24025056905E+03  0.24025056905E+03  0.00000000000E+00 0. -1.
         -2   -1    0    0    0  501 -0.00000000000E+00 -0.00000000000E+00 -0.21164486959E+03  0.21164486959E+03  0.00000000000E+00 0.  1.
         25    2    1    2    0    0 -0.55614450840E+02  0.18614544616E+03 -0.19225406858E+02  0.23186620319E+03  0.12509686504E+03 0.  0.
          5    1    3    3  502    0 -0.48501208147E+02  0.44184581021E+02 -0.54455151196E+02  0.85366739914E+02  0.41800000000E+01 0.  1.
         -5    1    3    3    0  502 -0.71132426925E+01  0.14196086514E+03  0.35229744339E+02  0.14649946328E+03  0.41800000000E+01 0.  1.
        -11    1    1    2    0    0  0.21399788893E+02 -0.15610300294E+03  0.66234439454E+02  0.17091840001E+03  0.00000000000E+00 0.  1.
         11    1    1    2    0    0  0.34214661946E+02 -0.30042443225E+02 -0.18403333143E+02  0.49110835442E+02  0.00000000000E+00 0. -1.
</event>
<event>
 7    1  0.2612213E-009  0.1052033E+03  0.7561462E-02  0.1269720E+00
         -2   -1    0    0    0  501 -0.00000000000E+00  0.00000000000E+00  0.13998158251E+02  0.13998158251E+02  0.00000000000E+00 0.  1.
          2   -1    0    0  501    0  0.00000000000E+00 -0.00000000000E+00 -0.10442120774E+04  0.10442120774E+04  0.00000000000E+00 0. -1.
         25    2    1    2    0    0 -0.25885222933E+02 -0.36674343587E+02 -0.45977611318E+03  0.47859481936E+03  0.12507547571E+03 0.  0.
          5    1    3    3  502    0 -0.58447980823E+02 -0.44904958191E+02 -0.15217245467E+03  0.16913470990E+03  0.41800000000E+01 0. -1.
         -5    1    3    3    0  502  0.32562757890E+02  0.82306146036E+01 -0.30760365852E+03  0.30946010947E+03  0.41800000000E+01 0. -1.
        -11    1    1    2    0    0 -0.34906244748E+02  0.97023320603E+01 -0.20191100593E+03  0.20513565142E+03  0.00000000000E+00 0. -1.
         11    1    1    2    0    0  0.60791467681E+02  0.26972011527E+02 -0.36852680009E+03  0.37447976491E+03  0.00000000000E+00 0.  1.
</event>
<event>
 7    1  0.2612213E-009  0.2323450E+03  0.7561462E-02  0.1125000E+00
          2   -1    0    0  501    0  0.00000000000E+00  0.00000000000E+00  0.38245359228E+03  0.38245359228E+03  0.00000000000E+00 0. -1.
         -2   -1    0    0    0  501 -0.00000000000E+00 -0.00000000000E+00 -0.14939012106E+03  0.14939012106E+03  0.00000000000E+00 0.  1.
         25    2    1    2    0    0 -0.93401902123E+02  0.18958318791E+03  0.15083389788E+03  0.28821828913E+03  0.12511281702E+03 0.  0.
          5    1    3    3  502    0  0.18495811273E+02  0.92255694334E+02  0.36893329401E+02  0.10115235205E+03  0.41800000000E+01 0.  1.
         -5    1    3    3    0  502 -0.11189771340E+03  0.97327493571E+02  0.11394056848E+03  0.18706593707E+03  0.41800000000E+01 0.  1.
        -11    1    1    2    0    0  0.67984716853E+02 -0.18394868528E+03  0.50357666370E+02  0.20247206006E+03  0.00000000000E+00 0.  1.
         11    1    1    2    0    0  0.25417185269E+02 -0.56345026237E+01  0.31871906975E+02  0.41153364153E+02  0.00000000000E+00 0. -1.
</event>
<event>
 7    1  0.2612213E-009  0.1081774E+03  0.7561462E-02  0.1263983E+00
          1   -1    0    0  501    0  0.00000000000E+00  0.00000000000E+00  0.19969720449E+03  0.19969720449E+03  0.00000000000E+00 0. -1.
         -1   -1    0    0    0  501 -0.00000000000E+00 -0.00000000000E+00 -0.77159379329E+02  0.77159379329E+02  0.00000000000E+00 0.  1.
         25    2    1    2    0    0 -0.33371122742E+02 -0.15576153439E+00  0.94924175448E+01  0.12981535771E+03  0.12509302543E+03 0.  0.
          5    1    3    3  502    0 -0.22155283040E+01  0.59171667539E+02 -0.93226039313E+01  0.60088086582E+02  0.41800000000E+01 0.  1.
         -5    1    3    3    0  502 -0.31155594438E+02 -0.59327429073E+02  0.18815021476E+02  0.69727271124E+02  0.41800000000E+01 0.  1.
        -11    1    1    2    0    0 -0.58236461167E+01  0.36163571426E+02  0.68321656281E+02  0.77521400073E+02  0.00000000000E+00 0. -1.
         11    1    1    2    0    0  0.39194768858E+02 -0.36007809891E+02  0.44723751332E+02  0.69519826037E+02  0.00000000000E+00 0.  1.
</event>
<event>
 7    1  0.2612213E-009  0.1201909E+03  0.7561462E-02  0.1242782E+00
         -2   -1    0    0    0  501 -0.00000000000E+00  0.00000000000E+00  0.21047362019E+02  0.21047362019E+02  0.00000000000E+00 0.  1.
          2   -1    0    0  501    0  0.00000000000E+00 -0.00000000000E+00 -0.10041263141E+04  0.10041263141E+04  0.00000000000E+00 0. -1.
         25    2    1    2    0    0 -0.26185724852E+02  0.93239510753E+02 -0.52414475926E+03  0.54749726200E+03  0.12508486993E+03 0.  0.
          5    1    3    3  502    0  0.14417350327E+02  0.26371205150E+02 -0.39697657417E+03  0.39813461705E+03  0.41800000000E+01 0. -1.
         -5    1    3    3    0  502 -0.40603075179E+02  0.66868305603E+02 -0.12716818509E+03  0.14936264495E+03  0.41800000000E+01 0. -1.
        -11    1    1    2    0    0  0.28276771270E+02 -0.11062661852E+03 -0.41376915369E+03  0.42923506038E+03  0.00000000000E+00 0. -1.
         11    1    1    2    0    0 -0.20910464180E+01  0.17387107771E+02 -0.45165039135E+02  0.48441353737E+02  0.00000000000E+00 0.  1.
</event>
<event>
 7    1  0.2612213E-009  0.1217326E+03  0.7561462E-02  0.1240266E+00
         -2   -1    0    0    0  501 -0.00000000000E+00  0.00000000000E+00  0.24439298022E+02  0.24439298022E+02  0.00000000000E+00 0.  1.
          2   -1    0    0  501    0  0.00000000000E+00 -0.00000000000E+00 -0.68611558689E+03  0.68611558689E+03  0.00000000000E+00 0. -1.
         25    2    1    2    0    0  0.52518096749E+02 -0.32611899733E+02 -0.30425014566E+03  0.33471998544E+03  0.12509049135E+03 0.  0.
          5    1    3    3  502    0  0.18069624601E+02  0.45614006562E+02 -0.15549730801E+03  0.16310743124E+03  0.41800000000E+01 0. -1.
         -5    1    3    3    0  502  0.34448472148E+02 -0.78225906295E+02 -0.14875283765E+03  0.17161255420E+03  0.41800000000E+01 0. -1.
        -11    1    1    2    0    0  0.85814785786E+01  0.45416953768E+02 -0.22132338612E+03  0.22609817051E+03  0.00000000000E+00 0.  1.
         11    1    1    2    0    0 -0.61099575327E+02 -0.12805054035E+02 -0.13610275709E+03  0.14973672897E+03  0.00000000000E+00 0. -1.
</event>
<event>
 7    1  0.2612213E-009  0.9582637E+02  0.7561462E-02  0.1289326E+00
         -1   -1    0    0    0  501 -0.00000000000E+00  0.00000000000E+00  0.33671170169E+02  0.33671170169E+02  0.00000000000E+00 0.  1.
          1   -1    0    0  501    0  0.00000000000E+00 -0.00000000000E+00 -0.37757544514E+03  0.37757544514E+03  0.00000000000E+00 0. -1.
         25    2    1    2    0    0 -0.12817469318E+02 -0.31781054712E+02 -0.20770370864E+03  0.24487412666E+03  0.12509270309E+03 0.  0.
          5    1    3    3  502    0 -0.32134049513E+02 -0.56507259525E+02 -0.20259608024E+03  0.21281050642E+03  0.41800000000E+01 0.  1.
         -5    1    3    3    0  502  0.19316580195E+02  0.24726204813E+02 -0.51076284074E+01  0.32063620239E+02  0.41800000000E+01 0.  1.
        -11    1    1    2    0    0  0.50857113522E+02  0.23015864410E+02 -0.89786507299E+02  0.10572508171E+03  0.00000000000E+00 0.  1.
         11    1    1    2    0    0 -0.38039644204E+02  0.87651903018E+01 -0.46414059026E+02  0.60647406931E+02  0.00000000000E+00 0. -1.
</event>
<event>
 7    1  0.2612213E-009  0.8625926E+02  0.7561462E-02  0.1312172E+00
         -1   -1    0    0    0  501 -0.00000000000E+00  0.00000000000E+00  0.48561410313E+02  0.48561410313E+02  0.00000000000E+00 0.  1.
          1   -1    0    0  501    0  0.00000000000E+00 -0.00000000000E+00 -0.43779216406E+03  0.43779216406E+03  0.00000000000E+00 0. -1.
         25    2    1    2    0    0 -0.15954164324E+01 -0.40743800699E+01 -0.36278587583E+03  0.38377083600E+03  0.12508923588E+03 0.  0.
          5    1    3    3  502    0  0.54329812193E+02 -0.19685557189E+02 -0.25252565646E+03  0.25908672144E+03  0.41800000000E+01 0.  1.
         -5    1    3    3    0  502 -0.55925228625E+02  0.15611177119E+02 -0.11026021937E+03  0.12468411455E+03  0.41800000000E+01 0.  1.
        -11    1    1    2    0    0  0.19730061680E+02 -0.18748519302E+02  0.29105377416E+02  0.39848529514E+02  0.00000000000E+00 0.  1.
         11    1    1    2    0    0 -0.18134645247E+02  0.22822899372E+02 -0.55550255332E+02  0.62734208861E+02  0.00000000000E+00 0. -1.
</event>
<event>
 7    1  0.2612213E-009  0.9161564E+02  0.7561462E-02  0.1298986E+00
          1   -1    0    0  501    0  0.00000000000E+00  0.00000000000E+00  0.11016900853E+04  0.11016900853E+04  0.00000000000E+00 0.  1.
         -1   -1    0    0    0  501 -0.00000000000E+00 -0.00000000000E+00 -0.12339055061E+02  0.12339055061E+02  0.00000000000E+00 0. -1.
         25    2    1    2    0    0 -0.34309453352E+02 -0.19399323620E+02  0.68811791325E+03  0.70050505258E+03  0.12509034255E+03 0.  0.
          5    1    3    3  502    0 -0.49493453099E+02  0.12810707506E+02  0.63089918109E+03  0.63298101491E+03  0.41800000000E+01 0. -1.
         -5    1    3    3    0  502  0.15183999748E+02 -0.32210031126E+02  0.57218732158E+02  0.67524037670E+02  0.41800000000E+01 0. -1.
        -11    1    1    2    0    0  0.29554715027E+02 -0.32521169791E+02  0.24244429927E+03  0.24639469539E+03  0.00000000000E+00 0.  1.
         11    1    1    2    0    0  0.47547383246E+01  0.51920493411E+02  0.15878881775E+03  0.16712939243E+03  0.00000000000E+00 0. -1.
</event>
<event>
 7    1  0.2612213E-009  0.1068721E+03  0.7561462E-02  0.1266474E+00
          2   -1    0    0  501    0  0.00000000000E+00  0.00000000000E+00  0.47589770712E+03  0.47589770712E+03  0.00000000000E+00 0.  1.
         -2   -1    0    0    0  501 -0.00000000000E+00 -0.00000000000E+00 -0.36344269481E+02  0.36344269481E+02  0.00000000000E+00 0. -1.
         25    2    1    2    0    0  0.90853026455E+01  0.71475583299E+02  0.26732795737E+03  0.30381393624E+03  0.12508944533E+03 0.  0.
          5    1    3    3  502    0  0.32601772913E+02  0.38599069840E+01  0.70487741733E+01  0.33836845248E+02  0.41800000000E+01 0.  1.
         -5    1    3    3    0  502 -0.23516470267E+02  0.67615676315E+02  0.26027918319E+03  0.26997709099E+03  0.41800000000E+01 0.  1.
        -11    1    1    2    0    0 -0.42663361617E+02 -0.59656129292E+02  0.75041630687E+02  0.10492979807E+03  0.00000000000E+00 0. -1.
         11    1    1    2    0    0  0.33578058972E+02 -0.11819454007E+02  0.97183849589E+02  0.10349824230E+03  0.00000000000E+00 0.  1.
</event>
<event>
 7    1  0.2612213E-009  0.8421265E+02  0.7561462E-02  0.1317504E+00
          1   -1    0    0  501    0  0.00000000000E+00  0.00000000000E+00  0.39134874054E+03  0.39134874054E+03  0.00000000000E+00 0. -1.
         -1   -1    0    0    0  501 -0.00000000000E+00 -0.00000000000E+00 -0.32301581520E+02  0.32301581520E+02  0.00000000000E+00 0.  1.
         25    2    1    2    0    0  0.18988844403E+02 -0.99383737504E+01  0.24386678847E+03  0.27491521466E+03  0.12509203512E+03 0.  0.
          5    1    3    3  502    0  0.66176732962E+02 -0.29950647920E+02  0.16993919595E+03  0.18485995785E+03  0.41800000000E+01 0. -1.
         -5    1    3    3    0  502 -0.47187888558E+02  0.20012274170E+02  0.73927592522E+02  0.90055256816E+02  0.41800000000E+01 0. -1.
        -11    1    1    2    0    0 -0.30245922837E+02  0.12446796799E+02  0.12763598129E+03  0.13175994201E+03  0.00000000000E+00 0. -1.
         11    1    1    2    0    0  0.11257078434E+02 -0.25084230489E+01 -0.12455610738E+02  0.16975165387E+02  0.00000000000E+00 0.  1.
</event>
<event>
 7    1  0.2612213E-009  0.1618749E+03  0.7561462E-02  0.1186596E+00
          1   -1    0    0  501    0  0.00000000000E+00  0.00000000000E+00  0.65889344626E+02  0.65889344626E+02  0.00000000000E+00 0. -1.
         -1   -1    0    0    0  501 -0.00000000000E+00 -0.00000000000E+00 -0.45013972246E+03  0.45013972246E+03  0.00000000000E+00 0.  1.
         25    2    1    2    0    0 -0.50721775577E+02  0.12344986349E+03 -0.19573744722E+03  0.26790513534E+03  0.12508975170E+03 0.  0.
          5    1    3    3  502    0 -0.83864575373E+02  0.11844164200E+03 -0.17816117141E+03  0.22982725025E+03  0.41800000000E+01 0.  1.
         -5    1    3    3    0  502  0.33142799796E+02  0.50082214920E+01 -0.17576275817E+02  0.38077885083E+02  0.41800000000E+01 0.  1.
        -11    1    1    2    0    0  0.38525856591E+02 -0.25779161256E+02 -0.11875615259E+03  0.12748266769E+03  0.00000000000E+00 0.  1.
         11    1    1    2    0    0  0.12195918986E+02 -0.97670702238E+02 -0.69756778018E+02  0.12064126406E+03  0.00000000000E+00 0. -1.
</event>
<event>
 7    1  0.2612213E-009  0.1266222E+03  0.7561462E-02  0.1232556E+00
          1   -1    0    0  501    0  0.00000000000E+00  0.00000000000E+00  0.82951925849E+03  0.82951925849E+03  0.00000000000E+00 0. -1.
         -1   -1    0    0    0  501 -0.00000000000E+00 -0.00000000000E+00 -0.21367342735E+02  0.21367342735E+02  0.00000000000E+00 0.  1.
         25    2    1    2    0    0  0.76049936887E+02 -0.15655906329E+02  0.44180896899E+03  0.46569581848E+03  0.12509488384E+03 0.  0.
          5    1    3    3  502    0  0.56308839914E+02 -0.66482697377E+02  0.32846577766E+03  0.33984978152E+03  0.41800000000E+01 0.  1.
         -5    1    3    3    0  502  0.19741096974E+02  0.50826791048E+02  0.11334319133E+03  0.12584603696E+03  0.41800000000E+01 0.  1.
        -11    1    1    2    0    0 -0.18174664912E+02 -0.31708716549E+02  0.19258231098E+03  0.19601966139E+03  0.00000000000E+00 0. -1.
         11    1    1    2    0    0 -0.57875271976E+02  0.47364622878E+02  0.17376063579E+03  0.18917112136E+03  0.00000000000E+00 0.  1.
</event>
<event>
 7    1  0.2612213E-009  0.1036738E+03  0.7561462E-02  0.1272755E+00
          1   -1    0    0  501    0  0.00000000000E+00  0.00000000000E+00  0.24344094471E+03  0.24344094471E+03  0.00000000000E+00 0. -1.
         -1   -1    0    0    0  501 -0.00000000000E+00 -0.00000000000E+00 -0.75164408706E+02  0.75164408706E+02  0.00000000000E+00 0.  1.
         25    2    1    2    0    0  0.44996756921E+02 -0.28514350023E+02  0.22126611395E+02  0.13775864059E+03  0.12510027911E+03 0.  0.
          5    1    3    3  502    0  0.49129792947E+02 -0.56326159659E+02  0.56037313458E+02  0.93509495328E+02  0.41800000000E+01 0.  1.
         -5    1    3    3    0  502 -0.41330360254E+01  0.27811809636E+02 -0.33910702063E+02  0.44249145262E+02  0.41800000000E+01 0.  1.
        -11    1    1    2    0    0 -0.72538156876E+02  0.20592446935E+02  0.12174574662E+03  0.14320565594E+03  0.00000000000E+00 0. -1.
         11    1    1    2    0    0  0.27541399955E+02  0.79219030884E+01  0.24404177989E+02  0.37641056884E+02  0.00000000000E+00 0.  1.
</event>
<event>
 7    1  0.2612213E-009  0.1052920E+03  0.7561462E-02  0.1269545E+00
          2   -1    0    0  501    0  0.00000000000E+00  0.00000000000E+00  0.83910542799E+03  0.83910542799E+03  0.00000000000E+00 0. -1.
         -2   -1    0    0    0  501 -0.00000000000E+00 -0.00000000000E+00 -0.15637798309E+02  0.15637798309E+02  0.00000000000E+00 0.  1.
         25    2    1    2    0    0 -0.30065917450E+02 -0.82436552945E+01  0.53937233020E+03  0.55456409276E+03  0.12508758991E+03 0.  0.
          5    1    3    3  502    0  0.91679963257E+01  0.45786518299E+02  0.36147026378E+03  0.36449784829E+03  0.41800000000E+01 0. -1.
         -5    1    3    3    0  502 -0.39233913776E+02 -0.54030173593E+02  0.17790206642E+03  0.19006624447E+03  0.41800000000E+01 0. -1.
        -11    1    1    2    0    0  0.38970331110E+02  0.44681664256E+02  0.16602172711E+03  0.17629053208E+03  0.00000000000E+00 0.  1.
         11    1    1    2    0    0 -0.89044136597E+01 -0.36438008962E+02  0.11807357238E+03  0.12388860147E+03  0.00000000000E+00 0. -1.
</event>
<event>
 7    1  0.2612213E-009  0.1185167E+03  0.7561462E-02  0.1245564E+00
         -4   -1    0    0    0  501 -0.00000000000E+00  0.00000000000E+00  0.38057956907E+03  0.38057956907E+03  0.00000000000E+00 0.  1.
          4   -1    0    0  501    0  0.00000000000E+00 -0.00000000000E+00 -0.40334325210E+02  0.40334325210E+02  0.00000000000E+00 0. -1.
         25    2    1    2    0    0  0.75106801463E+01 -0.58421331201E+02  0.21305372253E+03  0.25398667081E+03  0.12509147857E+03 0.  0.
          5    1    3    3  502    0 -0.20457073176E+00  0.39471704987E+02  0.54070246852E+02  0.67075489848E+02  0.41800000000E+01 0. -1.
         -5    1    3    3    0  502  0.77152508781E+01 -0.97893036188E+02  0.15898347567E+03  0.18691118096E+03  0.41800000000E+01 0. -1.
        -11    1    1    2    0    0 -0.29473870053E+02  0.68737178498E+02  0.12038535812E+03  0.14172559110E+03  0.00000000000E+00 0.  1.
         11    1    1    2    0    0  0.21963189906E+02 -0.10315847297E+02  0.68061632131E+01  0.25201632368E+02  0.00000000000E+00 0. -1.
</event>
<event>
 7    1  0.2612213E-009  0.2147152E+03  0.7561462E-02  0.1137886E+00
          2   -1    0    0  501    0  0.00000000000E+00  0.00000000000E+00  0.30151896964E+03  0.30151896964E+03  0.00000000000E+00 0. -1.
         -2   -1    0    0    0  501 -0.00000000000E+00 -0.00000000000E+00 -0.22080508974E+03  0.22080508974E+03  0.00000000000E+00 0.  1.
         25    2    1    2    0    0  0.18557821094E+03 -0.85452030790E+02 -0.74172335487E+02  0.25078017093E+03  0.12509131400E+03 0.  0.
          5    1    3    3  502    0  0.22078681988E+02  0.11364076239E+01  0.30706606789E+02  0.38067410223E+02  0.41800000000E+01 0. -1.
         -5    1    3    3    0  502  0.16349952896E+03 -0.86588438414E+02 -0.10487894228E+03  0.21271276071E+03  0.41800000000E+01 0. -1.
        -11    1    1    2    0    0 -0.14075410398E+03  0.10228106048E+03  0.13244751188E+03  0.21866750221E+03  0.00000000000E+00 0. -1.
         11    1    1    2    0    0 -0.44824106967E+02 -0.16829029690E+02  0.22438703505E+02  0.52876386230E+02  0.00000000000E+00 0.  1.
</event>
<event>
 7    1  0.2612213E-009  0.7360810E+02  0.7561462E-02  0.1348236E+00
          2   -1    0    0  501    0  0.00000000000E+00  0.00000000000E+00  0.45239957938E+02  0.45239957938E+02  0.00000000000E+00 0.  1.
         -2   -1    0    0    0  501 -0.00000000000E+00 -0.00000000000E+00 -0.29520992089E+03  0.29520992089E+03  0.00000000000E+00 0. -1.
         25    2    1    2    0    0  0.22302767554E+02  0.31156256824E+02 -0.16328580265E+03  0.20923157356E+03  0.12508985670E+03 0.  0.
          5    1    3    3  502    0 -0.89122677928E+01  0.36102973490E+02 -0.17212762898E+03  0.17614836437E+03  0.41800000000E+01 0.  1.
         -5    1    3    3    0  502  0.31215035346E+02 -0.49467166653E+01  0.88418263313E+01  0.33083209190E+02  0.41800000000E+01 0.  1.
        -11    1    1    2    0    0 -0.44721551246E+02 -0.75398755145E+01 -0.79873340613E+01  0.46050671809E+02  0.00000000000E+00 0.  1.
         11    1    1    2    0    0  0.22418783692E+02 -0.23616381310E+02 -0.78696826242E+02  0.85167633459E+02  0.00000000000E+00 0. -1.
</event>
<event>
 7    1  0.2612213E-009  0.2277687E+03  0.7561462E-02  0.1128220E+00
          2   -1    0    0  501    0  0.00000000000E+00  0.00000000000E+00  0.12824928657E+04  0.12824928657E+04  0.00000000000E+00 0. -1.
         -2   -1    0    0    0  501 -0.00000000000E+00 -0.00000000000E+00 -0.45014597087E+02  0.45014597087E+02  0.00000000000E+00 0.  1.
         25    2    1    2    0    0 -0.18390856887E+03  0.98835028797E+02  0.72928583010E+03  0.76882745621E+03  0.12508841201E+03 0.  0.
          5    1    3    3  502    0 -0.20051627111E+02  0.54535927778E+02  0.32746190246E+03  0.33260337510E+03  0.41800000000E+01 0. -1.
         -5    1    3    3    0  502 -0.16385694176E+03  0.44299101019E+02  0.40182392765E+03  0.43622408111E+03  0.41800000000E+01 0. -1.
        -11    1    1    2    0    0  0.19430698495E+03 -0.95912139637E+02  0.50057485184E+03  0.54546267079E+03  0.00000000000E+00 0. -1.
         11    1    1    2    0    0 -0.10398416087E+02 -0.29228891604E+01  0.76175866385E+01  0.13217335751E+02  0.00000000000E+00 0.  1.
</event>
<event>
 7    1  0.2612213E-009  0.1214048E+03  0.7561462E-02  0.1240797E+00
         -1   -1    0    0    0  501 -0.00000000000E+00  0.00000000000E+00  0.13435366755E+02  0.13435366755E+02  0.00000000000E+00 0.  1.
          1   -1    0    0  501    0  0.00000000000E+00 -0.00000000000E+00 -0.11203965561E+04  0.11203965561E+04  0.00000000000E+00 0. -1.
         25    2    1    2    0    0  0.78419201032E+01  0.53814179247E+02 -0.67208517183E+03  0.68578699752E+03  0.12509143121E+03 0.  0.
          5    1    3    3  502    0 -0.21177995590E+02  0.88411960758E+02 -0.45652436501E+03  0.46550741191E+03  0.41800000000E+01 0.  1.
         -5    1    3    3    0  502  0.29019915693E+02 -0.34597781511E+02 -0.21556080683E+03  0.22027958560E+03  0.41800000000E+01 0.  1.
        -11    1    1    2    0    0 -0.43706317031E+02 -0.55383237222E+02 -0.25260847578E+03  0.26227578453E+03  0.00000000000E+00 0.  1.
         11    1    1    2    0    0  0.35864396928E+02  0.15690579745E+01 -0.18226754177E+03  0.18576914085E+03  0.00000000000E+00 0. -1.
</event>
<event>
 7    1  0.2612213E-009  0.2379243E+03  0.7561462E-02  0.1121183E+00
          1   -1    0    0  501    0  0.00000000000E+00  0.00000000000E+00  0.10568776911E+04  0.10568776911E+04  0.00000000000E+00 0. -1.
         -1   -1    0    0    0  501 -0.00000000000E+00 -0.00000000000E+00 -0.58801221397E+02  0.58801221397E+02  0.00000000000E+00 0.  1.
         25    2    1    2    0    0  0.20274284435E+03  0.85408961841E+02  0.60164897368E+03  0.65270914762E+03  0.12509353368E+03 0.  0.
          5    1    3    3  502    0  0.72270533924E+02 -0.12961924524E+02  0.93733855818E+02  0.11914088168E+03  0.41800000000E+01 0. -1.
         -5    1    3    3    0  502  0.13047231042E+03  0.98370886365E+02  0.50791511786E+03  0.53356826594E+03  0.41800000000E+01 0. -1.
        -11    1    1    2    0    0 -0.11282727451E+03  0.28423656614E+01  0.19862583934E+03  0.22845195769E+03  0.00000000000E+00 0. -1.
         11    1    1    2    0    0 -0.89915569834E+02 -0.88251327502E+02  0.19780165672E+03  0.23451780723E+03  0.00000000000E+00 0.  1.
</event>
<event>
 7    1  0.2612213E-009  0.2707524E+03  0.7561462E-02  0.1100850E+00
          2   -1    0    0  501    0  0.00000000000E+00  0.00000000000E+00  0.10118262333E+04  0.10118262333E+04  0.00000000000E+00 0. -1.
         -2   -1    0    0    0  501 -0.00000000000E+00 -0.00000000000E+00 -0.76923898426E+02  0.76923898426E+02  0.00000000000E+00 0.  1.
         25    2    1    2    0    0 -0.51771457568E+02 -0.24567611716E+03  0.37556566542E+03  0.46875834365E+03  0.12509107616E+03 0.  0.
          5    1    3    3  502    0 -0.88656697565E+02 -0.18395486850E+03  0.31075125798E+03  0.37186451888E+03  0.41800000000E+01 0. -1.
         -5    1    3    3    0  502  0.36885239996E+02 -0.61721248663E+02  0.64814407443E+02  0.96893824768E+02  0.41800000000E+01 0. -1.
        -11    1    1    2    0    0 -0.49496780478E+01  0.17286674406E+03  0.32527195383E+03  0.36838737012E+03  0.00000000000E+00 0.  1.
         11    1    1    2    0    0  0.56721135616E+02  0.72809373107E+02  0.23406471566E+03  0.25160441800E+03  0.00000000000E+00 0. -1.
</event>
<event>
 7    1  0.2612213E-009  0.1269426E+03  0.7561462E-02  0.1232064E+00
         -2   -1    0    0    0  501 -0.00000000000E+00  0.00000000000E+00  0.61957386111E+02  0.61957386111E+02  0.00000000000E+00 0.  1.
          2   -1    0    0  501    0  0.00000000000E+00 -0.00000000000E+00 -0.10606641347E+04  0.10606641347E+04  0.00000000000E+00 0. -1.
         25    2    1    2    0    0  0.19633097131E+02  0.64900215704E+02 -0.10008285154E+04  0.10108921043E+04  0.12509049889E+03 0.  0.
          5    1    3    3  502    0 -0.46842593706E+02 -0.29540508880E+01 -0.31573656361E+03  0.31923346473E+03  0.41800000000E+01 0.  1.
         -5    1    3    3    0  502  0.66475690838E+02  0.67854266592E+02 -0.68509195176E+03  0.69165863960E+03  0.41800000000E+01 0.  1.
        -11    1    1    2    0    0  0.26537523586E+02  0.58726712417E+01  0.15914051283E+01  0.27226108717E+02  0.00000000000E+00 0. -1.
         11    1    1    2    0    0 -0.46170620717E+02 -0.70772886946E+02  0.53036162888E+00  0.84503307790E+02  0.00000000000E+00 0.  1.
</event>
<event>
 7    1  0.2612213E-009  0.1486209E+03  0.7561462E-02  0.1202178E+00
         -2   -1    0    0    0  501 -0.00000000000E+00  0.00000000000E+00  0.12983758244E+03  0.12983758244E+03  0.00000000000E+00 0.  1.
          2   -1    0    0  501    0  0.00000000000E+00 -0.00000000000E+00 -0.19250877329E+03  0.19250877329E+03  0.00000000000E+00 0. -1.
         25    2    1    2    0    0 -0.10350294268E+03 -0.55163818362E+02 -0.22570868223E+02  0.17295460007E+03  0.12509174070E+03 0.  0.
          5    1    3    3  502    0  0.18949574638E+02 -0.48780983634E+00 -0.33100272895E+02  0.38372187886E+02  0.41800000000E+01 0.  1.
         -5    1    3    3    0  502 -0.12245251732E+03 -0.54676008526E+02  0.10529404672E+02  0.13458241218E+03  0.41800000000E+01 0.  1.
        -11    1    1    2    0    0  0.81055749677E+02  0.77392400067E+02 -0.27605371477E+02  0.11541955934E+03  0.00000000000E+00 0.  1.
         11    1    1    2    0    0  0.22447193005E+02 -0.22228581705E+02 -0.12494951150E+02  0.33972196318E+02  0.00000000000E+00 0. -1.
</event>
<event>
 7    1  0.2612213E-009  0.1067129E+03  0.7561462E-02  0.1266781E+00
          1   -1    0    0  501    0  0.00000000000E+00  0.00000000000E+00  0.70825017408E+03  0.70825017408E+03  0.00000000000E+00 0. -1.
         -1   -1    0    0    0  501 -0.00000000000E+00 -0.00000000000E+00 -0.20057699299E+02  0.20057699299E+02  0.00000000000E+00 0.  1.
         25    2    1    2    0    0 -0.46567068477E+02 -0.24635397503E+01  0.36682754101E+03  0.39036300429E+03  0.12508504859E+03 0.  0.
          5    1    3    3  502    0 -0.76072574834E+02  0.10589585362E+02  0.33879820145E+03  0.34742030693E+03  0.41800000000E+01 0. -1.
         -5    1    3    3    0  502  0.29505506357E+02 -0.13053125112E+02  0.28029339557E+02  0.42942697360E+02  0.41800000000E+01 0. -1.
        -11    1    1    2    0    0  0.26413806108E+02 -0.45127912098E+02  0.14382955067E+03  0.15303972441E+03  0.00000000000E+00 0.  1.
         11    1    1    2    0    0  0.20153262369E+02  0.47591451849E+02  0.17753538310E+03  0.18490514467E+03  0.00000000000E+00 0. -1.
</event>
<event>
 7    1  0.2612213E-009  0.1061205E+03  0.7561462E-02  0.1267928E+00
         -1   -1    0    0    0  501 -0.00000000000E+00  0.00000000000E+00  0.26573766227E+02  0.26573766227E+02  0.00000000000E+00 0.  1.
          1   -1    0    0  501    0  0.00000000000E+00 -0.00000000000E+00 -0.46841583503E+03  0.46841583503E+03  0.00000000000E+00 0. -1.
         25    2    1    2    0    0 -0.18377026557E+02 -0.86432276866E+01 -0.29109942043E+03  0.31748667584E+03  0.12508595554E+03 0.  0.
          5    1    3    3  502    0 -0.37837314565E+02 -0.59415990549E+02 -0.18885506098E+03  0.20160761088E+03  0.41800000000E+01 0.  1.
         -5    1    3    3    0  502  0.19460288008E+02  0.50772762863E+02 -0.10224435944E+03  0.11587906496E+03  0.41800000000E+01 0.  1.
        -11    1    1    2    0    0  0.40270169470E+02  0.34664734088E+02 -0.12165777864E+03  0.13275520872E+03  0.00000000000E+00 0. -1.
         11    1    1    2    0    0 -0.21893142913E+02 -0.26021506401E+02 -0.29084869737E+02  0.44747716697E+02  0.00000000000E+00 0.  1.
</event>
<event>
 7    1  0.2612213E-009  0.1624220E+03  0.7561462E-02  0.1185989E+00
          1   -1    0    0  501    0  0.00000000000E+00  0.00000000000E+00  0.42271198276E+03  0.42271198276E+03  0.00000000000E+00 0. -1.
         -1   -1    0    0    0  501 -0.00000000000E+00 -0.00000000000E+00 -0.75078751752E+02  0.75078751752E+02  0.00000000000E+00 0.  1.
         25    2    1    2    0    0 -0.62966075777E+02 -0.12426179388E+03  0.16356906949E+03  0.24861406818E+03  0.12509354215E+03 0.  0.
          5    1    3    3  502    0 -0.14837083470E+02  0.22835649000E+02  0.48241074339E+02  0.55554293844E+02  0.41800000000E+01 0. -1.
         -5    1    3    3    0  502 -0.48128992307E+02 -0.14709744288E+03  0.11532799515E+03  0.19305977434E+03  0.41800000000E+01 0. -1.
        -11    1    1    2    0    0  0.58606289421E+02  0.86691036907E+02  0.62549692770E+02  0.12191184153E+03  0.00000000000E+00 0.  1.
         11    1    1    2    0    0  0.43597863555E+01  0.37570756971E+02  0.12151446874E+03  0.12726482480E+03  0.00000000000E+00 0. -1.
</event>
<event>
 7    1  0.2612213E-009  0.1028202E+03  0.7561462E-02  0.1274475E+00
         -1   -1    0    0    0  501 -0.00000000000E+00  0.00000000000E+00  0.51236803402E+03  0.51236803402E+03  0.00000000000E+00 0.  1.
          1   -1    0    0  501    0  0.00000000000E+00 -0.00000000000E+00 -0.35093202787E+02  0.35093202787E+02  0.00000000000E+00 0. -1.
         25    2    1    2    0    0 -0.62888264044E+02  0.46422502720E+02  0.28515698066E+03  0.32104807760E+03  0.12508949595E+03 0.  0.
          5    1    3    3  502    0 -0.37372437448E+02  0.47096794044E+00  0.25985976984E+03  0.26256712146E+03  0.41800000000E+01 0.  1.
         -5    1    3    3    0  502 -0.25515826596E+02  0.45951534780E+02  0.25297210827E+02  0.58480956141E+02  0.41800000000E+01 0.  1.
        -11    1    1    2    0    0  0.53551530059E+01  0.23873858403E+02  0.70433626469E+02  0.74562286152E+02  0.00000000000E+00 0.  1.
         11    1    1    2    0    0  0.57533111038E+02 -0.70296361124E+02  0.12168422410E+03  0.15185087306E+03  0.00000000000E+00 0. -1.
</event>
<event>
 7    1  0.3103206E-009  0.1574295E+03  0.7561462E-02  0.1191630E+00
          1   -1    0    0  501    0  0.00000000000E+00  0.00000000000E+00  0.59550559700E+03  0.59550559700E+03  0.00000000000E+00 0. -1.
         -1   -1    0    0    0  501 -0.00000000000E+00 -0.00000000000E+00 -0.54603349964E+02  0.54603349964E+02  0.00000000000E+00 0.  1.
         25    2    1    2    0    0 -0.12029958227E+03 -0.64282344213E+02  0.20561336286E+03  0.27663590698E+03  0.12508541391E+03 0.  0.
          5    1    3    3  502    0 -0.19951129224E+02  0.18415309183E+02 -0.61028892172E+01  0.28140519299E+02  0.41800000000E+01 0. -1.
         -5    1    3    3    0  502 -0.10034845304E+03 -0.82697653395E+02  0.21171625207E+03  0.24849538768E+03  0.41800000000E+01 0. -1.
        -11    1    1    2    0    0  0.45044907095E+02 -0.15477105946E+02  0.15789323041E+03  0.16492075876E+03  0.00000000000E+00 0. -1.
         11    1    1    2    0    0  0.75254675173E+02  0.79759450158E+02  0.17739565377E+03  0.20855228122E+03  0.00000000000E+00 0.  1.
</event>
<event>
 7    1  0.2612213E-009  0.1219963E+03  0.7561462E-02  0.1239840E+00
         -1   -1    0    0    0  501 -0.00000000000E+00  0.00000000000E+00  0.69047554447E+03  0.69047554447E+03  0.00000000000E+00 0.  1.
          1   -1    0    0  501    0  0.00000000000E+00 -0.00000000000E+00 -0.94334217887E+02  0.94334217887E+02  0.00000000000E+00 0. -1.
         25    2    1    2    0    0  0.42621042754E+02  0.40741998248E+02  0.64903822860E+03  0.66360866921E+03  0.12509748184E+03 0.  0.
          5    1    3    3  502    0 -0.35015770598E+02  0.45082301535E+02  0.20715940544E+03  0.21492093840E+03  0.41800000000E+01 0. -1.
         -5    1    3    3    0  502  0.77636813352E+02 -0.43403032874E+01  0.44187882316E+03  0.44868773081E+03  0.41800000000E+01 0. -1.
        -11    1    1    2    0    0  0.19808840022E+00  0.27944805539E+02 -0.10721661613E+02  0.29931679261E+02  0.00000000000E+00 0.  1.
         11    1    1    2    0    0 -0.42819131155E+02 -0.68686803787E+02 -0.42175240405E+02  0.91269413883E+02  0.00000000000E+00 0. -1.
</event>
<event>
 6    1  0.2612213E-009  0.1056279E+03  0.7561462E-02  0.1268887E+00
         -1   -1    0    0    0  501 -0.00000000000E+00  0.00000000000E+00  0.69236177052E+03  0.69236177052E+03  0.00000000000E+00 0.  1.
          1   -1    0    0  501    0  0.00000000000E+00 -0.00000000000E+00 -0.18266778519E+02  0.18266778519E+02  0.00000000000E+00 0. -1.
          5    1    1    2  502    0 -0.63063220679E+02  0.47486780037E+02  0.21057296284E+03  0.22492311833E+03  0.41800000000E+01 0.  1.
         -5    1    1    2    0  502  0.36004738337E+02 -0.27023352711E+02  0.22410590211E+03  0.22862093197E+03  0.41800000000E+01 0.  1.
        -11    1    1    2    0    0 -0.20193823834E+02 -0.32469863215E+02  0.15456217688E+03  0.15922169783E+03  0.00000000000E+00 0.  1.
         11    1    1    2    0    0  0.47252306176E+02  0.12006435889E+02  0.84853950178E+02  0.97862800913E+02  0.00000000000E+00 0. -1.
</event>
<event>
 7    1  0.2612213E-009  0.1068570E+03  0.7561462E-02  0.1266503E+00
          2   -1    0    0  501    0  0.00000000000E+00  0.00000000000E+00  0.45358948253E+03  0.45358948253E+03  0.00000000000E+00 0. -1.
         -2   -1    0    0    0  501 -0.00000000000E+00 -0.00000000000E+00 -0.56815011992E+02  0.56815011992E+02  0.00000000000E+00 0.  1.
         25    2    1    2    0    0  0.50729687705E+02  0.56560746002E+02  0.69136320159E+02  0.16186634262E+03  0.12509301702E+03 0.  0.
          5    1    3    3  502    0  0.28319326785E+02 -0.20028238126E+02 -0.21508921983E+02  0.41027072974E+02  0.41800000000E+01 0.  1.
         -5    1    3    3    0  502  0.22410360919E+02  0.76588984128E+02  0.90645242141E+02  0.12083926965E+03  0.41800000000E+01 0.  1.
        -11    1    1    2    0    0 -0.29507922828E+02  0.82755105234E+01  0.28949823934E+02  0.42157963540E+02  0.00000000000E+00 0.  1.
         11    1    1    2    0    0 -0.21221764877E+02 -0.64836256525E+02  0.29868832644E+03  0.30638018836E+03  0.00000000000E+00 0. -1.
</event>
<event>
 7    1  0.4227050E-009  0.1912358E+03  0.7561462E-02  0.1157351E+00
         -3   -1    0    0    0  501 -0.00000000000E+00  0.00000000000E+00  0.67035428898E+02  0.67035428898E+02  0.00000000000E+00 0.  1.
          3   -1    0    0  501    0  0.00000000000E+00 -0.00000000000E+00 -0.76663082161E+03  0.76663082161E+03  0.00000000000E+00 0. -1.
         25    2    1    2    0    0  0.17534519550E+03  0.74477626677E+02 -0.25855689522E+03  0.34466268736E+03  0.12509134875E+03 0.  0.
          5    1    3    3  502    0  0.34934635117E+02  0.19867925971E+02  0.53435274571E+01  0.40757685151E+02  0.41800000000E+01 0. -1.
         -5    1    3    3    0  502  0.14041056038E+03  0.54609700707E+02 -0.26390042267E+03  0.30390500221E+03  0.41800000000E+01 0. -1.
        -11    1    1    2    0    0 -0.12087847922E+03 -0.42167854825E+02 -0.38024247545E+03  0.40121574602E+03  0.00000000000E+00 0. -1.
         11    1    1    2    0    0 -0.54466716282E+02 -0.32309771852E+02 -0.60796022040E+02  0.87787817125E+02  0.00000000000E+00 0.  1.
</event>
<event>
 7    1  0.2612213E-009  0.9315852E+02  0.7561462E-02  0.1295378E+00
          2   -1    0    0  501    0  0.00000000000E+00  0.00000000000E+00  0.26236436181E+03  0.26236436181E+03  0.00000000000E+00 0. -1.
         -2   -1    0    0    0  501 -0.00000000000E+00 -0.00000000000E+00 -0.56039691927E+02  0.56039691927E+02  0.00000000000E+00 0.  1.
         25    2    1    2    0    0 -0.12607446867E+01  0.51582610222E+02  0.93387987742E+02  0.16441202994E+03  0.12509054393E+03 0.  0.
          5    1    3    3  502    0  0.10003845699E+01  0.90361236478E+02  0.85663938330E+02  0.12458706416E+03  0.41800000000E+01 0. -1.
         -5    1    3    3    0  502 -0.22611292567E+01 -0.38778626256E+02  0.77240494127E+01  0.39824965777E+02  0.41800000000E+01 0. -1.
        -11    1    1    2    0    0  0.11399897665E+02 -0.15102854157E+02 -0.12690066284E+02  0.22783582965E+02  0.00000000000E+00 0.  1.
         11    1    1    2    0    0 -0.10139152978E+02 -0.36479756065E+02  0.12562674843E+03  0.13120844083E+03  0.00000000000E+00 0. -1.
</event>
<event>
 7    1  0.2612213E-009  0.1107028E+03  0.7561462E-02  0.1259274E+00
         -1   -1    0    0    0  501 -0.00000000000E+00  0.00000000000E+00  0.19749146161E+03  0.19749146161E+03  0.00000000000E+00 0.  1.
          1   -1    0    0  501    0  0.00000000000E+00 -0.00000000000E+00 -0.99290551870E+02  0.99290551870E+02  0.00000000000E+00 0. -1.
         25    2    1    2    0    0  0.59174754564E+02  0.57727119913E+02  0.13542279394E+02  0.15054194344E+03  0.12508161916E+03 0.  0.
          5    1    3    3  502    0 -0.31923555176E+02  0.68778580945E+01  0.30359168316E+02  0.44783588600E+02  0.41800000000E+01 0.  1.
         -5    1    3    3    0  502  0.91098309740E+02  0.50849261818E+02 -0.16816888922E+02  0.10575835484E+03  0.41800000000E+01 0.  1.
        -11    1    1    2    0    0 -0.67083487701E+01 -0.14912013030E+02  0.76270500596E+02  0.78003585411E+02  0.00000000000E+00 0.  1.
         11    1    1    2    0    0 -0.52466405794E+02 -0.42815106883E+02  0.83881297515E+01  0.68236484633E+02  0.00000000000E+00 0. -1.
</event>
<event>
 7    1  0.2612213E-009  0.9005870E+02  0.7561462E-02  0.1302710E+00
          2   -1    0    0  501    0  0.00000000000E+00  0.00000000000E+00  0.87630061278E+03  0.87630061278E+03  0.00000000000E+00 0. -1.
         -2   -1    0    0    0  501 -0.00000000000E+00 -0.00000000000E+00 -0.14348858652E+02  0.14348858652E+02  0.00000000000E+00 0.  1.
         25    2    1    2    0    0  0.29135876057E+01 -0.20221646013E+02  0.57614044820E+03  0.58991706696E+03  0.12508767276E+03 0.  0.
          5    1    3    3  502    0 -0.46923326975E+02 -0.54861257606E+01  0.97268292121E+02  0.10821501394E+03  0.41800000000E+01 0.  1.
         -5    1    3    3    0  502  0.49836914581E+02 -0.14735520253E+02  0.47887215608E+03  0.48170205301E+03  0.41800000000E+01 0.  1.
        -11    1    1    2    0    0 -0.33334270690E+01 -0.30072369443E+02  0.41858117630E+02  0.51648438035E+02  0.00000000000E+00 0.  1.
         11    1    1    2    0    0  0.41983946321E+00  0.50294015457E+02  0.24395318830E+03  0.24908396644E+03  0.00000000000E+00 0. -1.
</event>
<event>
 7    1  0.2612213E-009  0.6410878E+02  0.7561462E-02  0.1381356E+00
          2   -1    0    0  501    0  0.00000000000E+00  0.00000000000E+00  0.40205743903E+03  0.40205743903E+03  0.00000000000E+00 0. -1.
         -2   -1    0    0    0  501 -0.00000000000E+00 -0.00000000000E+00 -0.30461595006E+02  0.30461595006E+02  0.00000000000E+00 0.  1.
         25    2    1    2    0    0  0.17979760788E+02  0.24005581772E+02  0.22828597394E+03  0.26203422789E+03  0.12509161016E+03 0.  0.
          5    1    3    3  502    0 -0.58845647845E+00  0.13685575217E+02  0.23791012783E+03  0.23834081181E+03  0.41800000000E+01 0. -1.
         -5    1    3    3    0  502  0.18568217266E+02  0.10320006554E+02 -0.96241538831E+01  0.23693416083E+02  0.41800000000E+01 0. -1.
        -11    1    1    2    0    0 -0.21581430506E+02 -0.56017591574E+02  0.89461535891E+02  0.10773622934E+03  0.00000000000E+00 0. -1.
         11    1    1    2    0    0  0.36016697186E+01  0.32012009803E+02  0.53848334191E+02  0.62748576809E+02  0.00000000000E+00 0.  1.
</event>
<event>
 7    1  0.2612213E-009  0.1343150E+03  0.7561462E-02  0.1221190E+00
          3   -1    0    0  501    0  0.00000000000E+00  0.00000000000E+00  0.41076195176E+03  0.41076195176E+03  0.00000000000E+00 0. -1.
         -3   -1    0    0    0  501 -0.00000000000E+00 -0.00000000000E+00 -0.51818242102E+02  0.51818242102E+02  0.00000000000E+00 0.  1.
         25    2    1    2    0    0  0.25166968786E+02 -0.95839647912E+02  0.20074178986E+03  0.25644706395E+03  0.12509682643E+03 0.  0.
          5    1    3    3  502    0  0.39010602183E+02  0.15484431837E+02  0.28692277342E+02  0.51012879658E+02  0.41800000000E+01 0.  1.
         -5    1    3    3    0  502 -0.13843633396E+02 -0.11132407975E+03  0.17204951251E+03  0.20543418429E+03  0.41800000000E+01 0.  1.
        -11    1    1    2    0    0  0.18321758448E+02  0.23682235655E+02  0.98299949778E+02  0.10275901539E+03  0.00000000000E+00 0.  1.
         11    1    1    2    0    0 -0.43488727234E+02  0.72157412257E+02  0.59901970020E+02  0.10337411452E+03  0.00000000000E+00 0. -1.
</event>
<event>
 7    1  0.2612213E-009  0.1530576E+03  0.7561462E-02  0.1196765E+00
          2   -1    0    0  501    0  0.00000000000E+00  0.00000000000E+00  0.10735340194E+03  0.10735340194E+03  0.00000000000E+00 0. -1.
         -2   -1    0    0    0  501 -0.00000000000E+00 -0.00000000000E+00 -0.24306865070E+03  0.24306865070E+03  0.00000000000E+00 0.  1.
         25    2    1    2    0    0  0.45658860613E+02  0.10216051140E+03 -0.27937412029E+02  0.17014031782E+03  0.12508288098E+03 0.  0.
          5    1    3    3  502    0 -0.13084741069E+02  0.10199018100E+03  0.43021212201E+01  0.10300091318E+03  0.41800000000E+01 0.  1.
         -5    1    3    3    0  502  0.58743601682E+02  0.17033040518E+00 -0.32239533249E+02  0.67139404638E+02  0.41800000000E+01 0.  1.
        -11    1    1    2    0    0 -0.55624016211E+02 -0.16424037981E+02 -0.48065751359E+02  0.75326599928E+02  0.00000000000E+00 0. -1.
         11    1    1    2    0    0  0.99651555981E+01 -0.85736473420E+02 -0.59712085372E+02  0.10495513489E+03  0.00000000000E+00 0.  1.
</event>
<event>
 7    1  0.2612213E-009  0.1039848E+03  0.7561462E-02  0.1272133E+00
         -1   -1    0    0    0  501 -0.00000000000E+00  0.00000000000E+00  0.94345906871E+02  0.94345906871E+02  0.00000000000E+00 0.  1.
          1   -1    0    0  501    0  0.00000000000E+00 -0.00000000000E+00 -0.19310178988E+03  0.19310178988E+03  0.00000000000E+00 0. -1.
         25    2    1    2    0    0 -0.38551760829E+02  0.59842969229E+02 -0.94900278139E+02  0.17239207445E+03  0.12508215425E+03 0.  0.
          5    1    3    3  502    0 -0.64570670021E+02  0.80476180141E+02 -0.92836736171E+02  0.13885934963E+03  0.41800000000E+01 0. -1.
         -5    1    3    3    0  502  0.26018909192E+02 -0.20633210912E+02 -0.20635419676E+01  0.33532724815E+02  0.41800000000E+01 0. -1.
        -11    1    1    2    0    0  0.12990561257E+02 -0.17852634875E+02  0.42242364646E+02  0.47664332835E+02  0.00000000000E+00 0.  1.
         11    1    1    2    0    0  0.25561199572E+02 -0.41990334354E+02 -0.46097969513E+02  0.67391289466E+02  0.00000000000E+00 0. -1.
</event>
<event>
 7    1  0.2612213E-009  0.1961429E+03  0.7561462E-02  0.1153035E+00
          1   -1    0    0  501    0  0.00000000000E+00  0.00000000000E+00  0.27994325904E+03  0.27994325904E+03  0.00000000000E+00 0. -1.
         -1   -1    0    0    0  501 -0.00000000000E+00 -0.00000000000E+00 -0.20301844216E+03  0.20301844216E+03  0.00000000000E+00 0.  1.
         25    2    1    2    0    0  0.14536912758E+03  0.11248739438E+03 -0.66698150614E+02  0.23212522800E+03  0.12509149063E+03 0.  0.
          5    1    3    3  502    0  0.13815597634E+02  0.15423016086E+01 -0.57973208203E+02  0.59762987723E+02  0.41800000000E+01 0. -1.
         -5    1    3    3    0  502  0.13155352994E+03  0.11094509277E+03 -0.87249424103E+01  0.17236224027E+03  0.41800000000E+01 0. -1.
        -11    1    1    2    0    0 -0.11515539176E+03 -0.31793924019E+02  0.85181129076E+02  0.14672233165E+03  0.00000000000E+00 0.  1.
         11    1    1    2    0    0 -0.30213735822E+02 -0.80693470364E+02  0.58441838422E+02  0.10411414155E+03  0.00000000000E+00 0. -1.
</event>
<event>
 7    1  0.2612213E-009  0.1569357E+03  0.7561462E-02  0.1192200E+00
          3   -1    0    0  501    0  0.00000000000E+00  0.00000000000E+00  0.65750800163E+02  0.65750800163E+02  0.00000000000E+00 0. -1.
         -3   -1    0    0    0  501 -0.00000000000E+00 -0.00000000000E+00 -0.10819758665E+04  0.10819758665E+04  0.00000000000E+00 0.  1.
         25    2    1    2    0    0 -0.12201054719E+03  0.33460526945E+02 -0.97066482272E+03  0.98683590499E+03  0.12509486328E+03 0.  0.
          5    1    3    3  502    0 -0.11458733851E+03  0.67921140829E+02 -0.86882054823E+03  0.87898245543E+03  0.41800000000E+01 0. -1.
         -5    1    3    3    0  502 -0.74232086748E+01 -0.34460613884E+02 -0.10184427449E+03  0.10785344956E+03  0.41800000000E+01 0. -1.
        -11    1    1    2    0    0  0.34981813304E+02  0.22538955821E+02 -0.39259167158E+02  0.57210261295E+02  0.00000000000E+00 0.  1.
         11    1    1    2    0    0  0.87028733882E+02 -0.55999482767E+02 -0.63010764428E+01  0.10368050036E+03  0.00000000000E+00 0. -1.
</event>
<event>
 7    1  0.2612213E-009  0.1748391E+03  0.7561462E-02  0.1172893E+00
         -2   -1    0    0    0  501 -0.00000000000E+00  0.00000000000E+00  0.39232683863E+02  0.39232683863E+02  0.00000000000E+00 0.  1.
          2   -1    0    0  501    0  0.00000000000E+00 -0.00000000000E+00 -0.83484579390E+03  0.83484579390E+03  0.00000000000E+00 0. -1.
         25    2    1    2    0    0 -0.13635943118E+03 -0.21544208570E+02 -0.31557103746E+03  0.36645588097E+03  0.12508711211E+03 0.  0.
          5    1    3    3  502    0 -0.13104302015E+03 -0.61176743362E+02 -0.22699686559E+03  0.26918379677E+03  0.41800000000E+01 0. -1.
         -5    1    3    3    0  502 -0.53164110277E+01  0.39632534792E+02 -0.88574171873E+02  0.97272084193E+02  0.41800000000E+01 0. -1.
        -11    1    1    2    0    0  0.14690782612E+03  0.31545723286E+02 -0.42908669139E+03  0.45463439241E+03  0.00000000000E+00 0.  1.
         11    1    1    2    0    0 -0.10548394941E+02 -0.10001514716E+02 -0.50955381180E+02  0.52988204382E+02  0.00000000000E+00 0. -1.
</event>
<event>
 7    1  0.2612213E-009  0.1084613E+03  0.7561462E-02  0.1263446E+00
         -1   -1    0    0    0  501 -0.00000000000E+00  0.00000000000E+00  0.38552464614E+02  0.38552464614E+02  0.00000000000E+00 0.  1.
          1   -1    0    0  501    0  0.00000000000E+00 -0.00000000000E+00 -0.47465345181E+03  0.47465345181E+03  0.00000000000E+00 0. -1.
         25    2    1    2    0    0 -0.10304864522E+02  0.62408247879E+02 -0.15410876172E+03  0.20832201723E+03  0.12509025857E+03 0.  0.
          5    1    3    3  502    0  0.36183173080E+02  0.49562545107E+02 -0.14705500557E+03  0.15939985870E+03  0.41800000000E+01 0.  1.
         -5    1    3    3    0  502 -0.46488037602E+02  0.12845702772E+02 -0.70537561552E+01  0.48922158535E+02  0.41800000000E+01 0.  1.
        -11    1    1    2    0    0  0.39374219654E+02 -0.13706177513E+01 -0.52488262917E+02  0.65629456118E+02  0.00000000000E+00 0.  1.
         11    1    1    2    0    0 -0.29069355132E+02 -0.61037630128E+02 -0.22950396255E+03  0.23925444307E+03  0.00000000000E+00 0. -1.
</event>
<event>
 7    1  0.2612213E-009  0.1259692E+03  0.7561462E-02  0.1233562E+00
         -2   -1    0    0    0  501 -0.00000000000E+00  0.00000000000E+00  0.11143241548E+03  0.11143241548E+03  0.00000000000E+00 0. -1.
          2   -1    0    0  501    0  0.00000000000E+00 -0.00000000000E+00 -0.19276875750E+03  0.19276875750E+03  0.00000000000E+00 0.  1.
         25    2    1    2    0    0 -0.69645530614E+02 -0.56223625701E+02 -0.87349772140E+02  0.17690361613E+03  0.12511319149E+03 0.  0.
          5    1    3    3  502    0 -0.79676174550E+02  0.42259692866E+01 -0.83190786353E+02  0.11534440143E+03  0.41800000000E+01 0. -1.
         -5    1    3    3    0  502  0.10030643935E+02 -0.60449594988E+02 -0.41589857874E+01  0.61559214702E+02  0.41800000000E+01 0. -1.
        -11    1    1    2    0    0  0.33335509547E+02  0.65192475531E+02 -0.26370142577E+02  0.77824799917E+02  0.00000000000E+00 0.  1.
         11    1    1    2    0    0  0.36310021068E+02 -0.89688498304E+01  0.32383572699E+02  0.49472756927E+02  0.00000000000E+00 0. -1.
</event>
<event>
 7    1  0.2612213E-009  0.1724616E+03  0.7561462E-02  0.1175305E+00
          1   -1    0    0  501    0  0.00000000000E+00  0.00000000000E+00  0.41954227819E+03  0.41954227819E+03  0.00000000000E+00 0. -1.
         -1   -1    0    0    0  501 -0.00000000000E+00 -0.00000000000E+00 -0.85222672760E+02  0.85222672760E+02  0.00000000000E+00 0.  1.
         25    2    1    2    0    0 -0.13971703684E+03 -0.15771933633E+02  0.26604135430E+03  0.32587527619E+03  0.12508832544E+03 0.  0.
          5    1    3    3  502    0 -0.72565720201E+02  0.54540851277E+02  0.12932180701E+03  0.15805723765E+03  0.41800000000E+01 0.  1.
         -5    1    3    3    0  502 -0.67151316635E+02 -0.70312784910E+02  0.13671954729E+03  0.16781803854E+03  0.41800000000E+01 0.  1.
        -11    1    1    2    0    0  0.89533193887E+02 -0.24006160451E+02  0.11685321263E+02  0.93429306324E+02  0.00000000000E+00 0.  1.
         11    1    1    2    0    0  0.50183842949E+02  0.39778094084E+02  0.56592929870E+02  0.85460368437E+02  0.00000000000E+00 0. -1.
</event>
<event>
 7    1  0.2612213E-009  0.1390728E+03  0.7561462E-02  0.1214582E+00
          2   -1    0    0  501    0  0.00000000000E+00  0.00000000000E+00  0.20181605006E+03  0.20181605006E+03  0.00000000000E+00 0. -1.
         -2   -1    0    0    0  501 -0.00000000000E+00 -0.00000000000E+00 -0.12713616865E+03  0.12713616865E+03  0.00000000000E+00 0.  1.
         25    2    1    2    0    0 -0.95115523914E+02 -0.67368986987E+02  0.43064857128E+02  0.17631685017E+03  0.12508999336E+03 0.  0.
          5    1    3    3  502    0 -0.95346328566E+02 -0.25567254854E+01  0.55147664879E+02  0.11025514300E+03  0.41800000000E+01 0.  1.
         -5    1    3    3    0  502  0.23080465193E+00 -0.64812261502E+02 -0.12082807751E+02  0.66061707175E+02  0.41800000000E+01 0.  1.
        -11    1    1    2    0    0  0.32089468466E+02  0.32609205457E+02 -0.32600512775E+02  0.56177288117E+02  0.00000000000E+00 0.  1.
         11    1    1    2    0    0  0.63026055448E+02  0.34759781530E+02  0.64215537061E+02  0.96458080415E+02  0.00000000000E+00 0. -1.
</event>
<event>
 7    1  0.3322583E-009  0.1090729E+03  0.7561462E-02  0.1262296E+00
         -1   -1    0    0    0  501 -0.00000000000E+00  0.00000000000E+00  0.79639262884E+02  0.79639262884E+02  0.00000000000E+00 0.  1.
          1   -1    0    0  501    0  0.00000000000E+00 -0.00000000000E+00 -0.31280333034E+03  0.31280333034E+03  0.00000000000E+00 0. -1.
         25    2    1    2    0    0  0.75436423139E+02 -0.88181101023E+01 -0.19071887957E+02  0.14757778331E+03  0.12508817776E+03 0.  0.
          5    1    3    3  502    0 -0.10425838150E+02  0.34525072842E+02 -0.34491467661E+02  0.50078064033E+02  0.41800000000E+01 0.  1.
         -5    1    3    3    0  502  0.85862261289E+02 -0.43343182944E+02  0.15419579704E+02  0.97499719280E+02  0.41800000000E+01 0.  1.
        -11    1    1    2    0    0 -0.40119986212E+02 -0.15150063336E+02 -0.19214188771E+03  0.19686960844E+03  0.00000000000E+00 0. -1.
         11    1    1    2    0    0 -0.35316436926E+02  0.23968173438E+02 -0.21950291792E+02  0.47995201478E+02  0.00000000000E+00 0.  1.
</event>
<event>
 7    1  0.2612213E-009  0.8613337E+02  0.7561462E-02  0.1312495E+00
         -2   -1    0    0    0  501 -0.00000000000E+00  0.00000000000E+00  0.16175928621E+03  0.16175928621E+03  0.00000000000E+00 0.  1.
          2   -1    0    0  501    0  0.00000000000E+00 -0.00000000000E+00 -0.10121612761E+03  0.10121612761E+03  0.00000000000E+00 0. -1.
         25    2    1    2    0    0  0.24260884867E+02 -0.61545823218E+02  0.45003253810E+02  0.14849097006E+03  0.12509115255E+03 0.  0.
          5    1    3    3  502    0  0.24554101937E+02 -0.77353580256E+02  0.77383826168E+02  0.11221501349E+03  0.41800000000E+01 0.  1.
         -5    1    3    3    0  502 -0.29321707072E+00  0.15807757038E+02 -0.32380572358E+02  0.36275956570E+02  0.41800000000E+01 0.  1.
        -11    1    1    2    0    0 -0.47636024733E+00  0.46504247120E+02 -0.33931299436E+02  0.57569132361E+02  0.00000000000E+00 0. -1.
         11    1    1    2    0    0 -0.23784524619E+02  0.15041576098E+02  0.49471204228E+02  0.56915311390E+02  0.00000000000E+00 0.  1.
</event>
<event>
 7    1  0.2612213E-009  0.7169454E+02  0.7561462E-02  0.1354424E+00
         -2   -1    0    0    0  501 -0.00000000000E+00  0.00000000000E+00  0.86659296308E+02  0.86659296308E+02  0.00000000000E+00 0. -1.
          2   -1    0    0  501    0  0.00000000000E+00 -0.00000000000E+00 -0.20866218141E+03  0.20866218141E+03  0.00000000000E+00 0.  1.
         25    2    1    2    0    0 -0.54774571455E+01 -0.49344483029E+02 -0.13495298727E+03  0.19060023304E+03  0.12510499398E+03 0.  0.
          5    1    3    3  502    0 -0.69556483038E+01 -0.43444185397E+02  0.10120153629E+02  0.45339477254E+02  0.41800000000E+01 0.  1.
         -5    1    3    3    0  502  0.14781911584E+01 -0.59002976319E+01 -0.14507314090E+03  0.14526075578E+03  0.41800000000E+01 0.  1.
        -11    1    1    2    0    0 -0.31599425364E+02  0.44269595082E+02 -0.16787164613E+02  0.56922136536E+02  0.00000000000E+00 0.  1.
         11    1    1    2    0    0  0.37076882510E+02  0.50748879476E+01  0.29737266777E+02  0.47799108147E+02  0.00000000000E+00 0. -1.
</event>
<event>
 7    1  0.2612213E-009  0.4105549E+03  0.7561462E-02  0.1040185E+00
          1   -1    0    0  501    0  0.00000000000E+00  0.00000000000E+00  0.23994845857E+03  0.23994845857E+03  0.00000000000E+00 0. -1.
         -1   -1    0    0    0  501 -0.00000000000E+00 -0.00000000000E+00 -0.77793708909E+03  0.77793708909E+03  0.00000000000E+00 0.  1.
         25    2    1    2    0    0  0.40714528493E+03 -0.18981342952E+02 -0.16316487005E+03  0.45650611917E+03  0.12508991807E+03 0.  0.
          5    1    3    3  502    0  0.28274345556E+03 -0.28792317533E+02 -0.17046599933E+03  0.33143474250E+03  0.41800000000E+01 0. -1.
         -5    1    3    3    0  502  0.12440182937E+03  0.98109745810E+01  0.73011292836E+01  0.12507137667E+03  0.41800000000E+01 0. -1.
        -11    1    1    2    0    0 -0.22322061166E+03 -0.19627728498E+02 -0.25022006997E+03  0.33589101300E+03  0.00000000000E+00 0.  1.
         11    1    1    2    0    0 -0.18392467326E+03  0.38609071450E+02 -0.12460369050E+03  0.22548841549E+03  0.00000000000E+00 0. -1.
</event>
<event>
 7    1  0.2612213E-009  0.1357314E+03  0.7561462E-02  0.1219191E+00
         -2   -1    0    0    0  501 -0.00000000000E+00  0.00000000000E+00  0.73512787194E+03  0.73512787194E+03  0.00000000000E+00 0.  1.
          2   -1    0    0  501    0  0.00000000000E+00 -0.00000000000E+00 -0.41581714789E+02  0.41581714789E+02  0.00000000000E+00 0. -1.
         25    2    1    2    0    0  0.31890228000E+02  0.13028401332E+03  0.43554676463E+03  0.47258803927E+03  0.12509020710E+03 0.  0.
          5    1    3    3  502    0  0.16673965103E+02  0.98741627673E+02  0.42368343997E+03  0.43537691699E+03  0.41800000000E+01 0. -1.
         -5    1    3    3    0  502  0.15216262897E+02  0.31542385646E+02  0.11863324656E+02  0.37211122271E+02  0.41800000000E+01 0. -1.
        -11    1    1    2    0    0 -0.33817637534E+02 -0.98871858338E+02  0.25099790399E+03  0.27188090184E+03  0.00000000000E+00 0.  1.
         11    1    1    2    0    0  0.19274095340E+01 -0.31412154981E+02  0.70014885329E+01  0.32240645616E+02  0.00000000000E+00 0. -1.
</event>
<event>
 7    1  0.2612213E-009  0.1272729E+03  0.7561462E-02  0.1231559E+00
          2   -1    0    0  501    0  0.00000000000E+00  0.00000000000E+00  0.64940979157E+03  0.64940979157E+03  0.00000000000E+00 0. -1.
         -2   -1    0    0    0  501 -0.00000000000E+00 -0.00000000000E+00 -0.28531263218E+02  0.28531263218E+02  0.00000000000E+00 0.  1.
         25    2    1    2    0    0 -0.63349715992E+02 -0.31521570547E+02  0.45269666167E+03  0.47496171905E+03  0.12509025204E+03 0.  0.
          5    1    3    3  502    0 -0.61900485754E+00  0.43617565092E+02  0.17806558696E+03  0.18337857239E+03  0.41800000000E+01 0. -1.
         -5    1    3    3    0  502 -0.62730711134E+02 -0.75139135639E+02  0.27463107471E+03  0.29158314666E+03  0.41800000000E+01 0. -1.
        -11    1    1    2    0    0  0.73998060086E+02 -0.55264652016E+01  0.98202141146E+02  0.12308499194E+03  0.00000000000E+00 0.  1.
         11    1    1    2    0    0 -0.10648344095E+02  0.37048035748E+02  0.69979725535E+02  0.79894343797E+02  0.00000000000E+00 0. -1.
</event>
<event>
 7    1  0.2612213E-009  0.1409515E+03  0.7561462E-02  0.1212054E+00
         -1   -1    0    0    0  501 -0.00000000000E+00  0.00000000000E+00  0.12908255033E+02  0.12908255033E+02  0.00000000000E+00 0.  1.
          1   -1    0    0  501    0  0.00000000000E+00 -0.00000000000E+00 -0.20947057136E+04  0.20947057136E+04  0.00000000000E+00 0. -1.
         25    2    1    2    0    0 -0.98630310199E+02  0.63200752063E+02 -0.13844516654E+04  0.13950186863E+04  0.12509375684E+03 0.  0.
          5    1    3    3  502    0 -0.85348197762E+01 -0.13864897017E+02 -0.71094508980E+03  0.71114377704E+03  0.41800000000E+01 0.  1.
         -5    1    3    3    0  502 -0.90095490423E+02  0.77065649080E+02 -0.67350657562E+03  0.68387490923E+03  0.41800000000E+01 0.  1.
        -11    1    1    2    0    0 -0.70319458490E+01  0.13955096692E+02 -0.85688198486E+02  0.87101437106E+02  0.00000000000E+00 0. -1.
         11    1    1    2    0    0  0.10566225605E+03 -0.77155848755E+02 -0.61165759469E+03  0.62549384529E+03  0.00000000000E+00 0.  1.
</event>
<event>
 7    1  0.2612213E-009  0.1067586E+03  0.7561462E-02  0.1266693E+00
         -2   -1    0    0    0  501 -0.00000000000E+00  0.00000000000E+00  0.15348973356E+03  0.15348973356E+03  0.00000000000E+00 0.  1.
          2   -1    0    0  501    0  0.00000000000E+00 -0.00000000000E+00 -0.97912714488E+02  0.97912714488E+02  0.00000000000E+00 0. -1.
         25    2    1    2    0    0  0.46949789240E+02 -0.30333758231E+02  0.45167695974E+02  0.14426412021E+03  0.12509035144E+03 0.  0.
          5    1    3    3  502    0  0.86092471314E+02 -0.95787313801E+01  0.48979002398E+02  0.99599602347E+02  0.41800000000E+01 0. -1.
         -5    1    3    3    0  502 -0.39142682074E+02 -0.20755026850E+02 -0.38113064237E+01  0.44664517866E+02  0.41800000000E+01 0. -1.
        -11    1    1    2    0    0  0.74972950620E+01  0.26689047855E+02  0.37163088532E+02  0.46363885276E+02  0.00000000000E+00 0.  1.
         11    1    1    2    0    0 -0.54447084302E+02  0.36447103754E+01 -0.26753765439E+02  0.60774442555E+02  0.00000000000E+00 0. -1.
</event>
<event>
 7    1  0.2612213E-009  0.1052774E+03  0.7561462E-02  0.1269574E+00
          1   -1    0    0  501    0  0.00000000000E+00  0.00000000000E+00  0.35403745345E+02  0.35403745345E+02  0.00000000000E+00 0. -1.
         -1   -1    0    0    0  501 -0.00000000000E+00 -0.00000000000E+00 -0.45103895118E+03  0.45103895118E+03  0.00000000000E+00 0.  1.
         25    2    1    2    0    0  0.21442118387E+02  0.54716914924E+02 -0.29052788815E+03  0.32172587240E+03  0.12508947980E+03 0.  0.
          5    1    3    3  502    0 -0.46535220588E+02  0.46702642337E+02 -0.17900682901E+03  0.19080770631E+03  0.41800000000E+01 0.  1.
         -5    1    3    3    0  502  0.67977338975E+02  0.80142725867E+01 -0.11152105914E+03  0.13091816609E+03  0.41800000000E+01 0.  1.
        -11    1    1    2    0    0  0.14495918708E+02 -0.26577084611E+02 -0.11371042528E+03  0.11767129600E+03  0.00000000000E+00 0.  1.
         11    1    1    2    0    0 -0.35938037095E+02 -0.28139830313E+02 -0.11396892408E+02  0.47045528128E+02  0.00000000000E+00 0. -1.
</event>
<event>
 7    1  0.2612213E-009  0.1011476E+03  0.7561462E-02  0.1277901E+00
         -2   -1    0    0    0  501 -0.00000000000E+00  0.00000000000E+00  0.22741019571E+02  0.22741019571E+02  0.00000000000E+00 0.  1.
          2   -1    0    0  501    0  0.00000000000E+00 -0.00000000000E+00 -0.53418166413E+03  0.53418166413E+03  0.00000000000E+00 0. -1.
         25    2    1    2    0    0 -0.71015599541E+01 -0.14400054602E+02 -0.28701241633E+03  0.31349876013E+03  0.12509017449E+03 0.  0.
          5    1    3    3  502    0  0.18982443761E+02 -0.65457398436E+02 -0.16734307247E+03  0.18073787783E+03  0.41800000000E+01 0. -1.
         -5    1    3    3    0  502 -0.26084003715E+02  0.51057343833E+02 -0.11966934386E+03  0.13276088230E+03  0.41800000000E+01 0. -1.
        -11    1    1    2    0    0  0.37188700506E+02  0.24792228070E+02 -0.54230679665E+02  0.70275320241E+02  0.00000000000E+00 0.  1.
         11    1    1    2    0    0 -0.30087140552E+02 -0.10392173468E+02 -0.17019754857E+03  0.17314860333E+03  0.00000000000E+00 0. -1.
</event>
<event>
 7    1  0.2612213E-009  0.1307638E+03  0.7561462E-02  0.1226327E+00
          1   -1    0    0  501    0  0.00000000000E+00  0.00000000000E+00  0.11494627434E+03  0.11494627434E+03  0.00000000000E+00 0. -1.
         -1   -1    0    0    0  501 -0.00000000000E+00 -0.00000000000E+00 -0.20799884308E+03  0.20799884308E+03  0.00000000000E+00 0.  1.
         25    2    1    2    0    0  0.99387353249E+02  0.40445353309E+02 -0.54824103805E+02  0.17369002963E+03  0.12509544933E+03 0.  0.
          5    1    3    3  502    0  0.92446238645E+02 -0.20296328070E+01  0.12778792133E+02  0.93440871022E+02  0.41800000000E+01 0.  1.
         -5    1    3    3    0  502  0.69411146038E+01  0.42474986116E+02 -0.67602895938E+02  0.80249158604E+02  0.41800000000E+01 0.  1.
        -11    1    1    2    0    0 -0.10473712794E+03 -0.22672366206E+02 -0.58235648472E+02  0.12196430999E+03  0.00000000000E+00 0.  1.
         11    1    1    2    0    0  0.53497746907E+01 -0.17772987102E+02  0.20007183539E+02  0.27290777800E+02  0.00000000000E+00 0. -1.
</event>
<event>
 7    1  0.2612213E-009  0.1175887E+03  0.7561462E-02  0.1247129E+00
          2   -1    0    0  501    0  0.00000000000E+00  0.00000000000E+00  0.53560526738E+03  0.53560526738E+03  0.00000000000E+00 0. -1.
         -2   -1    0    0    0  501 -0.00000000000E+00 -0.00000000000E+00 -0.35891292628E+02  0.35891292628E+02  0.00000000000E+00 0.  1.
         25    2    1    2    0    0 -0.35027306283E+02  0.50575455221E+02  0.14862966817E+03  0.20376946646E+03  0.12508568401E+03 0.  0.
          5    1    3    3  502    0 -0.58806137090E+02 -0.15784304630E+02  0.10290792621E+03  0.11964455570E+03  0.41800000000E+01 0.  1.
         -5    1    3    3    0  502  0.23778830807E+02  0.66359759851E+02  0.45721741957E+02  0.84124910756E+02  0.41800000000E+01 0.  1.
        -11    1    1    2    0    0  0.52986993597E+02 -0.34497485055E+01  0.12031340966E+03  0.13150984297E+03  0.00000000000E+00 0.  1.
         11    1    1    2    0    0 -0.17959687314E+02 -0.47125706716E+02  0.23077089692E+03  0.23621725058E+03  0.00000000000E+00 0. -1.
</event>
<event>
 7    1  0.2612213E-009  0.1627780E+03  0.7561462E-02  0.1185596E+00
          2   -1    0    0  501    0  0.00000000000E+00  0.00000000000E+00  0.24517259713E+03  0.24517259713E+03  0.00000000000E+00 0. -1.
         -2   -1    0    0    0  501 -0.00000000000E+00 -0.00000000000E+00 -0.14293450049E+03  0.14293450049E+03  0.00000000000E+00 0.  1.
         25    2    1    2    0    0 -0.49467213124E+02  0.13239674353E+03 -0.61758595761E+01  0.18884167165E+03  0.12508850003E+03 0.  0.
          5    1    3    3  502    0  0.40482310066E+01 -0.19743874111E+02  0.15895264780E+02  0.26006548822E+02  0.41800000000E+01 0. -1.
         -5    1    3    3    0  502 -0.53515444131E+02  0.15214061764E+03 -0.22071124356E+02  0.16283512283E+03  0.41800000000E+01 0. -1.
        -11    1    1    2    0    0  0.49349806496E+01 -0.47654052725E+02  0.89743286066E+02  0.10173062552E+03  0.00000000000E+00 0. -1.
         11    1    1    2    0    0  0.44532232474E+02 -0.84742690804E+02  0.18670670157E+02  0.97534800446E+02  0.00000000000E+00 0.  1.
</event>
<event>
 7    1  0.2612213E-009  0.1692140E+03  0.7561462E-02  0.1178670E+00
          2   -1    0    0  501    0  0.00000000000E+00  0.00000000000E+00  0.66651600084E+03  0.66651600084E+03  0.00000000000E+00 0. -1.
         -2   -1    0    0    0  501 -0.00000000000E+00 -0.00000000000E+00 -0.49790238671E+02  0.49790238671E+02  0.00000000000E+00 0.  1.
         25    2    1    2    0    0 -0.12957125128E+03 -0.71315790532E+01  0.19623926454E+03  0.26645087040E+03  0.12508656528E+03 0.  0.
          5    1    3    3  502    0 -0.32635369635E+02 -0.59727872567E+02  0.93038891264E+02  0.11535247635E+03  0.41800000000E+01 0. -1.
         -5    1    3    3    0  502 -0.96935881643E+02  0.52596293514E+02  0.10320037327E+03  0.15109839405E+03  0.41800000000E+01 0. -1.
        -11    1    1    2    0    0  0.13347552657E+03 -0.17781982035E+02  0.35551308988E+03  0.38015979818E+03  0.00000000000E+00 0.  1.
         11    1    1    2    0    0 -0.39042752928E+01  0.24913561088E+02  0.64973407752E+02  0.69695570925E+02  0.00000000000E+00 0. -1.
</event>
<event>
 7    1  0.2612213E-009  0.6526643E+02  0.7561462E-02  0.1376972E+00
         -1   -1    0    0    0  501 -0.00000000000E+00  0.00000000000E+00  0.23874598735E+02  0.23874598735E+02  0.00000000000E+00 0.  1.
          1   -1    0    0  501    0  0.00000000000E+00 -0.00000000000E+00 -0.66548846573E+03  0.66548846573E+03  0.00000000000E+00 0. -1.
         25    2    1    2    0    0 -0.15045671418E+02 -0.28909854925E+02 -0.20592020869E+03  0.24313210598E+03  0.12509171304E+03 0.  0.
          5    1    3    3  502    0 -0.45228623925E+01 -0.28683549249E+01 -0.21360588097E+03  0.21371389409E+03  0.41800000000E+01 0.  1.
         -5    1    3    3    0  502 -0.10522809025E+02 -0.26041500000E+02  0.76856722815E+01  0.29418211884E+02  0.41800000000E+01 0.  1.
        -11    1    1    2    0    0  0.19843452890E+02 -0.30146721437E+02 -0.13408186077E+03  0.13885435832E+03  0.00000000000E+00 0. -1.
         11    1    1    2    0    0 -0.47977814716E+01  0.59056576363E+02 -0.30161179754E+03  0.30737660017E+03  0.00000000000E+00 0.  1.
</event>
<event>
 7    1  0.2612213E-009  0.1220930E+03  0.7561462E-02  0.1239684E+00
          1   -1    0    0  501    0  0.00000000000E+00  0.00000000000E+00  0.17968294167E+03  0.17968294167E+03  0.00000000000E+00 0. -1.
         -1   -1    0    0    0  501 -0.00000000000E+00 -0.00000000000E+00 -0.10478836107E+03  0.10478836107E+03  0.00000000000E+00 0.  1.
         25    2    1    2    0    0 -0.25582293506E+02 -0.76596953021E+02  0.71125777107E+02  0.16500844725E+03  0.12508942618E+03 0.  0.
          5    1    3    3  502    0 -0.39982055982E+02 -0.98097177641E+02  0.20470276215E+02  0.10797280060E+03  0.41800000000E+01 0.  1.
         -5    1    3    3    0  502  0.14399762476E+02  0.21500224620E+02  0.50655500892E+02  0.57035646649E+02  0.41800000000E+01 0.  1.
        -11    1    1    2    0    0  0.15796462142E+02 -0.13835416075E+02  0.17673017762E+02  0.27445992622E+02  0.00000000000E+00 0. -1.
         11    1    1    2    0    0  0.97858313638E+01  0.90432369096E+02 -0.13904214269E+02  0.92016862858E+02  0.00000000000E+00 0.  1.
</event>
<event>
 7    1  0.2612213E-009  0.1029299E+03  0.7561462E-02  0.1274253E+00
         -3   -1    0    0    0  501 -0.00000000000E+00  0.00000000000E+00  0.18889728583E+03  0.18889728583E+03  0.00000000000E+00 0.  1.
          3   -1    0    0  501    0  0.00000000000E+00 -0.00000000000E+00 -0.11136113217E+03  0.11136113217E+03  0.00000000000E+00 0. -1.
         25    2    1    2    0    0 -0.26791089183E+02  0.42175948496E+02 -0.51107762148E+02  0.14406932417E+03  0.12508954282E+03 0.  0.
          5    1    3    3  502    0 -0.64636133536E+02  0.57890052007E+01 -0.62489471208E+02  0.90187298172E+02  0.41800000000E+01 0.  1.
         -5    1    3    3    0  502  0.37845044352E+02  0.36386943295E+02  0.11381709060E+02  0.53882025997E+02  0.41800000000E+01 0.  1.
        -11    1    1    2    0    0 -0.57931506912E+01 -0.53390749727E+02  0.85575879548E+02  0.10103149960E+03  0.00000000000E+00 0.  1.
         11    1    1    2    0    0  0.32584239875E+02  0.11214801231E+02  0.43068036260E+02  0.55157594238E+02  0.00000000000E+00 0. -1.
</event>
<event>
 7    1  0.2612213E-009  0.1172742E+03  0.7561462E-02  0.1247663E+00
         -1   -1    0    0    0  501 -0.00000000000E+00  0.00000000000E+00  0.12033541806E+03  0.12033541806E+03  0.00000000000E+00 0.  1.
          1   -1    0    0  501    0  0.00000000000E+00 -0.00000000000E+00 -0.14490148506E+03  0.14490148506E+03  0.00000000000E+00 0. -1.
         25    2    1    2    0    0  0.37799158963E+02  0.65446600299E+02 -0.13017000443E+01  0.14615636167E+03  0.12509178121E+03 0.  0.
          5    1    3    3  502    0  0.68841131869E+02 -0.36684851850E+01  0.87294291991E+01  0.69614901815E+02  0.41800000000E+01 0.  1.
         -5    1    3    3    0  502 -0.31041972906E+02  0.69115085484E+02 -0.10031129243E+02  0.76541459859E+02  0.41800000000E+01 0.  1.
        -11    1    1    2    0    0 -0.48545348571E+02 -0.43579508591E+02 -0.50528039969E+02  0.82516103035E+02  0.00000000000E+00 0. -1.
         11    1    1    2    0    0  0.10746189607E+02 -0.21867091708E+02  0.27263673009E+02  0.36564438418E+02  0.00000000000E+00 0.  1.
</event>
<event>
 7    1  0.2612213E-009  0.1633253E+03  0.7561462E-02  0.1184993E+00
         -1   -1    0    0    0  501 -0.00000000000E+00  0.00000000000E+00  0.98825479778E+02  0.98825479778E+02  0.00000000000E+00 0.  1.
          1   -1    0    0  501    0  0.00000000000E+00 -0.00000000000E+00 -0.37417324012E+03  0.37417324012E+03  0.00000000000E+00 0. -1.
         25    2    1    2    0    0  0.15230267478E+03 -0.26740743184E+02 -0.18826787068E+03  0.27386796950E+03  0.12509077301E+03 0.  0.
          5    1    3    3  502    0  0.98966176589E+02 -0.38647281764E+02 -0.36355148580E+02  0.11237030624E+03  0.41800000000E+01 0. -1.
         -5    1    3    3    0  502  0.53336498196E+02  0.11906538580E+02 -0.15191272210E+03  0.16149766326E+03  0.41800000000E+01 0. -1.
        -11    1    1    2    0    0 -0.13418795324E+03  0.11888063040E+01 -0.97772828338E+02  0.16603417123E+03  0.00000000000E+00 0.  1.
         11    1    1    2    0    0 -0.18114721549E+02  0.25551936880E+02  0.10692938681E+02  0.33096579170E+02  0.00000000000E+00 0. -1.
</event>
<event>
 7    1  0.2612213E-009  0.9122294E+02  0.7561462E-02  0.1299917E+00
          2   -1    0    0  501    0  0.00000000000E+00  0.00000000000E+00  0.53078893040E+03  0.53078893040E+03  0.00000000000E+00 0. -1.
         -2   -1    0    0    0  501 -0.00000000000E+00 -0.00000000000E+00 -0.24972222586E+02  0.24972222586E+02  0.00000000000E+00 0.  1.
         25    2    1    2    0    0  0.67322797999E+01 -0.21791365223E+02  0.22476654189E+03  0.25824222790E+03  0.12509541451E+03 0.  0.
          5    1    3    3  502    0 -0.27664642247E+02 -0.57872387015E+02  0.67498410079E+02  0.93209727886E+02  0.41800000000E+01 0.  1.
         -5    1    3    3    0  502  0.34396922047E+02  0.36081021792E+02  0.15726813181E+03  0.16503250002E+03  0.41800000000E+01 0.  1.
        -11    1    1    2    0    0 -0.81856316301E+01  0.44570056767E+02  0.26677755235E+03  0.27059888574E+03  0.00000000000E+00 0. -1.
         11    1    1    2    0    0  0.14533518302E+01 -0.22778691545E+02  0.14272613582E+02  0.26920039348E+02  0.00000000000E+00 0.  1.
</event>
<event>
 7    1  0.2612213E-009  0.1561386E+03  0.7561462E-02  0.1193126E+00
          2   -1    0    0  501    0  0.00000000000E+00  0.00000000000E+00  0.22611186409E+03  0.22611186409E+03  0.00000000000E+00 0. -1.
         -2   -1    0    0    0  501 -0.00000000000E+00 -0.00000000000E+00 -0.13769584027E+03  0.13769584027E+03  0.00000000000E+00 0.  1.
         25    2    1    2    0    0 -0.71267257871E+02  0.92034164609E+02 -0.30840203472E+02  0.17363341737E+03  0.12509250968E+03 0.  0.
          5    1    3    3  502    0  0.21425517915E+02  0.64520516365E+02  0.95185277593E+01  0.68775174450E+02  0.41800000000E+01 0. -1.
         -5    1    3    3    0  502 -0.92692775786E+02  0.27513648244E+02 -0.40358731232E+02  0.10485824292E+03  0.41800000000E+01 0. -1.
        -11    1    1    2    0    0  0.61107140473E+02 -0.67300353502E+01  0.40405675697E+02  0.73566260073E+02  0.00000000000E+00 0. -1.
         11    1    1    2    0    0  0.10160117397E+02 -0.85304129259E+02  0.78850551598E+02  0.11660802692E+03  0.00000000000E+00 0.  1.
</event>
<event>
 7    1  0.2612213E-009  0.8573245E+02  0.7561462E-02  0.1313528E+00
         -1   -1    0    0    0  501 -0.00000000000E+00  0.00000000000E+00  0.35149876682E+02  0.35149876682E+02  0.00000000000E+00 0.  1.
          1   -1    0    0  501    0  0.00000000000E+00 -0.00000000000E+00 -0.39033361683E+03  0.39033361683E+03  0.00000000000E+00 0. -1.
         25    2    1    2    0    0 -0.69292768814E+01  0.13786540938E+02 -0.18396397497E+03  0.22299710667E+03  0.12508749700E+03 0.  0.
          5    1    3    3  502    0  0.19333051643E+02 -0.38133847958E+02 -0.17111242212E+02  0.46240937014E+02  0.41800000000E+01 0. -1.
         -5    1    3    3    0  502 -0.26262328524E+02  0.51920388896E+02 -0.16685273276E+03  0.17675616965E+03  0.41800000000E+01 0. -1.
        -11    1    1    2    0    0 -0.27808057096E+01 -0.41094789485E+02 -0.16840268004E+03  0.17336659785E+03  0.00000000000E+00 0. -1.
         11    1    1    2    0    0  0.97100825910E+01  0.27308248547E+02 -0.28170851364E+01  0.29119788998E+02  0.00000000000E+00 0.  1.
</event>
<event>
 7    1  0.2612213E-009  0.1072254E+03  0.7561462E-02  0.1265796E+00
         -2   -1    0    0    0  501 -0.00000000000E+00  0.00000000000E+00  0.44189130445E+02  0.44189130445E+02  0.00000000000E+00 0. -1.
          2   -1    0    0  501    0  0.00000000000E+00 -0.00000000000E+00 -0.39873101331E+03  0.39873101331E+03  0.00000000000E+00 0.  1.
         25    2    1    2    0    0 -0.16393118642E+02 -0.73847376501E+02 -0.25739609466E+03  0.29601015219E+03  0.12508833398E+03 0.  0.
          5    1    3    3  502    0 -0.23601304616E+02 -0.10433323328E+03 -0.23185533624E+03  0.25537582988E+03  0.41800000000E+01 0. -1.
         -5    1    3    3    0  502  0.72081859734E+01  0.30485856779E+02 -0.25540758419E+02  0.40634322305E+02  0.41800000000E+01 0. -1.
        -11    1    1    2    0    0  0.49941186254E+01  0.33457962427E+02  0.70717802071E+01  0.34559897944E+02  0.00000000000E+00 0.  1.
         11    1    1    2    0    0  0.11399000017E+02  0.40389414075E+02 -0.10421756841E+03  0.11235009362E+03  0.00000000000E+00 0. -1.
</event>
<event>
 7    1  0.2612213E-009  0.1157569E+03  0.7561462E-02  0.1250266E+00
         -4   -1    0    0    0  501 -0.00000000000E+00  0.00000000000E+00  0.37299842230E+02  0.37299842230E+02  0.00000000000E+00 0.  1.
          4   -1    0    0  501    0  0.00000000000E+00 -0.00000000000E+00 -0.48545541751E+03  0.48545541751E+03  0.00000000000E+00 0. -1.
         25    2    1    2    0    0  0.61516431798E+02 -0.41774284089E+02 -0.30504085543E+03  0.33798245734E+03  0.12511137355E+03 0.  0.
          5    1    3    3  502    0 -0.10514829858E+02  0.21771513180E+02 -0.80604739370E+01  0.25826421997E+02  0.41800000000E+01 0.  1.
         -5    1    3    3    0  502  0.72031261656E+02 -0.63545797269E+02 -0.29698038149E+03  0.31215603534E+03  0.41800000000E+01 0.  1.
        -11    1    1    2    0    0 -0.39868472574E+02  0.66768367017E+02 -0.70422130476E+02  0.10491323272E+03  0.00000000000E+00 0.  1.
         11    1    1    2    0    0 -0.21647959224E+02 -0.24994082928E+02 -0.72692589367E+02  0.79859569677E+02  0.00000000000E+00 0. -1.
</event>
<event>
 7    1  0.2612213E-009  0.1727874E+03  0.7561462E-02  0.1174972E+00
         -2   -1    0    0    0  501 -0.00000000000E+00  0.00000000000E+00  0.62353892085E+02  0.62353892085E+02  0.00000000000E+00 0.  1.
          2   -1    0    0  501    0  0.00000000000E+00 -0.00000000000E+00 -0.66831779473E+03  0.66831779473E+03  0.00000000000E+00 0. -1.
         25    2    1    2    0    0 -0.23342068523E+01  0.16780297940E+03 -0.25805210211E+03  0.33226807471E+03  0.12509155705E+03 0.  0.
          5    1    3    3  502    0 -0.29422896307E+02  0.93248610073E+02 -0.50701074464E+02  0.11022287176E+03  0.41800000000E+01 0. -1.
         -5    1    3    3    0  502  0.27088689455E+02  0.74554369330E+02 -0.20735102765E+03  0.22204520294E+03  0.41800000000E+01 0. -1.
        -11    1    1    2    0    0  0.74429421002E+01 -0.97576611244E+02 -0.96956939010E+02  0.13775790529E+03  0.00000000000E+00 0.  1.
         11    1    1    2    0    0 -0.51087352479E+01 -0.70226368159E+02 -0.25095486152E+03  0.26064570681E+03  0.00000000000E+00 0. -1.
</event>
<event>
 7    1  0.2612213E-009  0.1120582E+03  0.7561462E-02  0.1256805E+00
         -2   -1    0    0    0  501 -0.00000000000E+00  0.00000000000E+00  0.49699224269E+02  0.49699224269E+02  0.00000000000E+00 0.  1.
          2   -1    0    0  501    0  0.00000000000E+00 -0.00000000000E+00 -0.37184202367E+03  0.37184202367E+03  0.00000000000E+00 0. -1.
         25    2    1    2    0    0  0.69670022435E+02 -0.45054245875E+02 -0.17860466988E+03  0.23330143482E+03  0.12508450860E+03 0.  0.
          5    1    3    3  502    0  0.70746345372E+02 -0.13873743843E+02 -0.18722098725E+03  0.20066563388E+03  0.41800000000E+01 0. -1.
         -5    1    3    3    0  502 -0.10763229370E+01 -0.31180502033E+02  0.86163173778E+01  0.32635800943E+02  0.41800000000E+01 0. -1.
        -11    1    1    2    0    0 -0.64824443117E+02  0.69770252094E+02 -0.10112012017E+03  0.13890779390E+03  0.00000000000E+00 0.  1.
         11    1    1    2    0    0 -0.48455793175E+01 -0.24716006219E+02 -0.42418009354E+02  0.49332019216E+02  0.00000000000E+00 0. -1.
</event>
<event>
 7    1  0.2612213E-009  0.1033937E+03  0.7561462E-02  0.1273317E+00
          3   -1    0    0  501    0  0.00000000000E+00  0.00000000000E+00  0.11869467543E+02  0.11869467543E+02  0.00000000000E+00 0. -1.
         -3   -1    0    0    0  501 -0.00000000000E+00 -0.00000000000E+00 -0.11021053868E+04  0.11021053868E+04  0.00000000000E+00 0.  1.
         25    2    1    2    0    0  0.17717128603E+02  0.30346989038E+02 -0.69344248046E+03  0.70551056048E+03  0.12509133001E+03 0.  0.
          5    1    3    3  502    0 -0.38971435708E+02  0.45327357118E+02 -0.49293288899E+03  0.49656182652E+03  0.41800000000E+01 0.  1.
         -5    1    3    3    0  502  0.56688564312E+02 -0.14980368080E+02 -0.20050959147E+03  0.20894873396E+03  0.41800000000E+01 0.  1.
        -11    1    1    2    0    0 -0.27515125121E+02  0.21748126254E+02 -0.81207705327E+02  0.88457642465E+02  0.00000000000E+00 0. -1.
         11    1    1    2    0    0  0.97979965174E+01 -0.52095115292E+02 -0.31558573348E+03  0.32000665141E+03  0.00000000000E+00 0.  1.
</event>
<event>
 7    1  0.2612213E-009  0.1252802E+03  0.7561462E-02  0.1234632E+00
         -2   -1    0    0    0  501 -0.00000000000E+00  0.00000000000E+00  0.27275019441E+02  0.27275019441E+02  0.00000000000E+00 0.  1.
          2   -1    0    0  501    0  0.00000000000E+00 -0.00000000000E+00 -0.69355241049E+03  0.69355241049E+03  0.00000000000E+00 0. -1.
         25    2    1    2    0    0  0.71466965340E+02  0.17206862039E+02 -0.26147308109E+03  0.29903072177E+03  0.12509035609E+03 0.  0.
          5    1    3    3  502    0  0.98372901148E+02  0.39688209589E+02 -0.22194981037E+03  0.24603164915E+03  0.41800000000E+01 0. -1.
         -5    1    3    3    0  502 -0.26905935808E+02 -0.22481347550E+02 -0.39523270721E+02  0.52999072613E+02  0.41800000000E+01 0. -1.
        -11    1    1    2    0    0 -0.49154113794E+02  0.29500594053E+02 -0.12882016695E+03  0.14100016796E+03  0.00000000000E+00 0.  1.
         11    1    1    2    0    0 -0.22312851547E+02 -0.46707456092E+02 -0.27598414301E+03  0.28079654020E+03  0.00000000000E+00 0. -1.
</event>
<event>
 7    1  0.2612213E-009  0.1417085E+03  0.7561462E-02  0.1211048E+00
          4   -1    0    0  501    0  0.00000000000E+00  0.00000000000E+00  0.64028220193E+02  0.64028220193E+02  0.00000000000E+00 0.  1.
         -4   -1    0    0    0  501 -0.00000000000E+00 -0.00000000000E+00 -0.46993001876E+03  0.46993001876E+03  0.00000000000E+00 0. -1.
         25    2    1    2    0    0  0.29515168197E+02  0.13238789030E+03 -0.17829134940E+03  0.25657944049E+03  0.12508998905E+03 0.  0.
          5    1    3    3  502    0  0.22223806826E+02  0.27753526317E+02  0.13239198475E+02  0.38169419555E+02  0.41800000000E+01 0. -1.
         -5    1    3    3    0  502  0.72913613713E+01  0.10463436398E+03 -0.19153054787E+03  0.21841002093E+03  0.41800000000E+01 0. -1.
        -11    1    1    2    0    0 -0.39514917897E+02 -0.12194423002E+03 -0.22942404291E+03  0.26280642199E+03  0.00000000000E+00 0. -1.
         11    1    1    2    0    0  0.99997496998E+01 -0.10443660272E+02  0.18135937413E+01  0.14572376478E+02  0.00000000000E+00 0.  1.
</event>
<event>
 7    1  0.3788113E-009  0.7525352E+02  0.7561462E-02  0.1343088E+00
          2   -1    0    0  501    0  0.00000000000E+00  0.00000000000E+00  0.65295935142E+03  0.65295935142E+03  0.00000000000E+00 0. -1.
         -2   -1    0    0    0  501 -0.00000000000E+00 -0.00000000000E+00 -0.26785163068E+02  0.26785163068E+02  0.00000000000E+00 0.  1.
         25    2    1    2    0    0 -0.41145099081E+02 -0.31764159292E+01  0.50707269904E+03  0.52390170966E+03  0.12508905019E+03 0.  0.
          5    1    3    3  502    0 -0.78090998682E+01 -0.21632329147E+02  0.46997956107E+03  0.47056051675E+03  0.41800000000E+01 0.  1.
         -5    1    3    3    0  502 -0.33335999213E+02  0.18455913218E+02  0.37093137970E+02  0.53341192907E+02  0.41800000000E+01 0.  1.
        -11    1    1    2    0    0 -0.95482608219E+01  0.29974390327E+02  0.10732876037E+02  0.33238952875E+02  0.00000000000E+00 0.  1.
         11    1    1    2    0    0  0.50693359903E+02 -0.26797974398E+02  0.10836861327E+03  0.12260385195E+03  0.00000000000E+00 0. -1.
</event>
<event>
 7    1  0.2612213E-009  0.1934798E+03  0.7561462E-02  0.1155360E+00
         -1   -1    0    0    0  501 -0.00000000000E+00  0.00000000000E+00  0.54924553964E+02  0.54924553964E+02  0.00000000000E+00 0.  1.
          1   -1    0    0  501    0  0.00000000000E+00 -0.00000000000E+00 -0.85463187543E+03  0.85463187543E+03  0.00000000000E+00 0. -1.
         25    2    1    2    0    0  0.41902930541E+01  0.18273346227E+03 -0.50954555097E+03  0.55560269433E+03  0.12509439896E+03 0.  0.
          5    1    3    3  502    0 -0.28080021911E+02  0.34603469795E+02 -0.33288707861E+02  0.55780805152E+02  0.41800000000E+01 0. -1.
         -5    1    3    3    0  502  0.32270314965E+02  0.14812999248E+03 -0.47625684311E+03  0.49982188918E+03  0.41800000000E+01 0. -1.
        -11    1    1    2    0    0 -0.24228096819E+02 -0.42831429771E+02 -0.13689862433E+03  0.14547427744E+03  0.00000000000E+00 0. -1.
         11    1    1    2    0    0  0.20037803765E+02 -0.13990203250E+03 -0.15326314616E+03  0.20847945762E+03  0.00000000000E+00 0.  1.
</event>
<event>
 7    1  0.2612213E-009  0.5430185E+02  0.7561462E-02  0.1423430E+00
         -1   -1    0    0    0  501 -0.00000000000E+00  0.00000000000E+00  0.87932668073E+02  0.87932668073E+02  0.00000000000E+00 0.  1.
          1   -1    0    0  501    0  0.00000000000E+00 -0.00000000000E+00 -0.14240619936E+03  0.14240619936E+03  0.00000000000E+00 0. -1.
         25    2    1    2    0    0  0.17692721384E+02 -0.92783555871E+01 -0.46073871185E+02  0.13479054590E+03  0.12508624779E+03 0.  0.
          5    1    3    3  502    0 -0.47904992609E+01 -0.19143841422E+02  0.40208892120E+02  0.44985141470E+02  0.41800000000E+01 0. -1.
         -5    1    3    3    0  502  0.22483220645E+02  0.98654858345E+01 -0.86282763305E+02  0.89805404430E+02  0.41800000000E+01 0. -1.
        -11    1    1    2    0    0  0.19441002311E+02 -0.98072944736E+01 -0.38394680246E+02  0.44139404923E+02  0.00000000000E+00 0. -1.
         11    1    1    2    0    0 -0.37133723695E+02  0.19085650061E+02  0.29995020143E+02  0.51408916611E+02  0.00000000000E+00 0.  1.
</event>
<event>
 7    1  0.2612213E-009  0.1175591E+03  0.7561462E-02  0.1247179E+00
          1   -1    0    0  501    0  0.00000000000E+00  0.00000000000E+00  0.28452707719E+03  0.28452707719E+03  0.00000000000E+00 0. -1.
         -1   -1    0    0    0  501 -0.00000000000E+00 -0.00000000000E+00 -0.57255384274E+02  0.57255384274E+02  0.00000000000E+00 0.  1.
         25    2    1    2    0    0  0.54805104745E+02 -0.24040432318E+02  0.87037666140E+02  0.16372152213E+03  0.12509052558E+03 0.  0.
          5    1    3    3  502    0 -0.18173183691E+02 -0.45684847096E+02  0.69936712500E+02  0.85591974010E+02  0.41800000000E+01 0.  1.
         -5    1    3    3    0  502  0.72978288436E+02  0.21644414778E+02  0.17100953640E+02  0.78129548121E+02  0.41800000000E+01 0.  1.
        -11    1    1    2    0    0  0.11557203806E+01  0.48466038378E+02  0.67273854104E+02  0.82922035743E+02  0.00000000000E+00 0.  1.
         11    1    1    2    0    0 -0.55960825125E+02 -0.24425606060E+02  0.72960172670E+02  0.95138903589E+02  0.00000000000E+00 0. -1.
</event>
<event>
 7    1  0.4002428E-009  0.1033264E+03  0.7561462E-02  0.1273452E+00
          1   -1    0    0  501    0  0.00000000000E+00  0.00000000000E+00  0.88886367449E+03  0.88886367449E+03  0.00000000000E+00 0. -1.
         -1   -1    0    0    0  501 -0.00000000000E+00 -0.00000000000E+00 -0.18002009483E+02  0.18002009483E+02  0.00000000000E+00 0.  1.
         25    2    1    2    0    0  0.64537799517E+02  0.51698062975E+00  0.47870995121E+03  0.49897688418E+03  0.12509723707E+03 0.  0.
          5    1    3    3  502    0  0.64170079313E+02  0.26195914008E+02  0.46383894692E+03  0.46900753307E+03  0.41800000000E+01 0.  1.
         -5    1    3    3    0  502  0.36772020454E+00 -0.25678933378E+02  0.14871004283E+02  0.29969351110E+02  0.41800000000E+01 0.  1.
        -11    1    1    2    0    0 -0.80899808423E+02 -0.22333505416E+02  0.27061926320E+03  0.28333434328E+03  0.00000000000E+00 0. -1.
         11    1    1    2    0    0  0.16362008905E+02  0.21816524786E+02  0.12153245061E+03  0.12455445652E+03  0.00000000000E+00 0.  1.
</event>
<event>
 7    1  0.2612213E-009  0.9215836E+02  0.7561462E-02  0.1297708E+00
         -2   -1    0    0    0  501 -0.00000000000E+00  0.00000000000E+00  0.39980816805E+02  0.39980816805E+02  0.00000000000E+00 0.  1.
          2   -1    0    0  501    0  0.00000000000E+00 -0.00000000000E+00 -0.39623665124E+03  0.39623665124E+03  0.00000000000E+00 0. -1.
         25    2    1    2    0    0  0.83598552597E+01 -0.10271212611E+02 -0.29818580981E+03  0.32363009885E+03  0.12508508594E+03 0.  0.
          5    1    3    3  502    0  0.12904616991E+02 -0.63866169341E+02 -0.21313958824E+03  0.22291561901E+03  0.41800000000E+01 0. -1.
         -5    1    3    3    0  502 -0.45447617311E+01  0.53594956730E+02 -0.85046221570E+02  0.10071447984E+03  0.41800000000E+01 0. -1.
        -11    1    1    2    0    0 -0.16669973745E+02  0.35119691933E+02  0.95820680651E+01  0.40038691468E+02  0.00000000000E+00 0.  1.
         11    1    1    2    0    0  0.83101184851E+01 -0.24848479322E+02 -0.67652092697E+02  0.72548677728E+02  0.00000000000E+00 0. -1.
</event>
<event>
 7    1  0.2612213E-009  0.1144185E+03  0.7561462E-02  0.1252600E+00
         -2   -1    0    0    0  501 -0.00000000000E+00  0.00000000000E+00  0.11722079208E+03  0.11722079208E+03  0.00000000000E+00 0.  1.
          2   -1    0    0  501    0  0.00000000000E+00 -0.00000000000E+00 -0.12831931494E+03  0.12831931494E+03  0.00000000000E+00 0. -1.
         25    2    1    2    0    0  0.11977802245E+02  0.38081148220E+02 -0.43044018824E+02  0.13822050911E+03  0.12513384829E+03 0.  0.
          5    1    3    3  502    0  0.62924792582E+02 -0.65574583802E+01 -0.18400224495E+02  0.66019470184E+02  0.41800000000E+01 0. -1.
         -5    1    3    3    0  502 -0.50946990337E+02  0.44638606600E+02 -0.24643794329E+02  0.72201038930E+02  0.41800000000E+01 0. -1.
        -11    1    1    2    0    0  0.35165004420E+02  0.26530911587E+01  0.27751798051E+02  0.44875145945E+02  0.00000000000E+00 0.  1.
         11    1    1    2    0    0 -0.47142806665E+02 -0.40734239379E+02  0.41936979144E+01  0.62444451957E+02  0.00000000000E+00 0. -1.
</event>
<event>
 7    1  0.2612213E-009  0.1427709E+03  0.7561462E-02  0.1209648E+00
         -4   -1    0    0    0  501 -0.00000000000E+00  0.00000000000E+00  0.17030747656E+03  0.17030747656E+03  0.00000000000E+00 0.  1.
          4   -1    0    0  501    0  0.00000000000E+00 -0.00000000000E+00 -0.16004389835E+03  0.16004389835E+03  0.00000000000E+00 0. -1.
         25    2    1    2    0    0 -0.90648427518E+02 -0.61098150989E+02 -0.58281738361E+01  0.16622702138E+03  0.12508930234E+03 0.  0.
          5    1    3    3  502    0 -0.27120127123E+02 -0.50884752000E+02  0.53380013277E+02  0.78687085972E+02  0.41800000000E+01 0.  1.
         -5    1    3    3    0  502 -0.63528300395E+02 -0.10213398990E+02 -0.59208187114E+02  0.87539935408E+02  0.41800000000E+01 0.  1.
        -11    1    1    2    0    0 -0.29128940497E+02  0.24338966349E+02  0.15280389748E+01  0.37989674393E+02  0.00000000000E+00 0.  1.
         11    1    1    2    0    0  0.11977736801E+03  0.36759184641E+02  0.14563713072E+02  0.12613467914E+03  0.00000000000E+00 0. -1.
</event>
<event>
 7    1  0.2612213E-009  0.1023778E+03  0.7561462E-02  0.1275374E+00
          1   -1    0    0  501    0  0.00000000000E+00  0.00000000000E+00  0.48955350903E+02  0.48955350903E+02  0.00000000000E+00 0. -1.
         -1   -1    0    0    0  501 -0.00000000000E+00 -0.00000000000E+00 -0.27785504346E+03  0.27785504346E+03  0.00000000000E+00 0.  1.
         25    2    1    2    0    0  0.26683304757E+02 -0.17799547262E+02 -0.17587082226E+03  0.21819042510E+03  0.12509073846E+03 0.  0.
          5    1    3    3  502    0  0.45913895902E+02 -0.62707555044E+02 -0.87327993225E+02  0.11697851981E+03  0.41800000000E+01 0. -1.
         -5    1    3    3    0  502 -0.19230591145E+02  0.44908007782E+02 -0.88542829033E+02  0.10121190529E+03  0.41800000000E+01 0. -1.
        -11    1    1    2    0    0 -0.17379203552E+02 -0.27015178177E+02 -0.54008329672E+02  0.62839129864E+02  0.00000000000E+00 0. -1.
         11    1    1    2    0    0 -0.93041012048E+01  0.44814725438E+02  0.97945937647E+00  0.45780839398E+02  0.00000000000E+00 0.  1.
</event>
<event>
 7    1  0.2612213E-009  0.1062055E+03  0.7561462E-02  0.1267763E+00
          2   -1    0    0  501    0  0.00000000000E+00  0.00000000000E+00  0.10886770076E+04  0.10886770076E+04  0.00000000000E+00 0.  1.
         -2   -1    0    0    0  501 -0.00000000000E+00 -0.00000000000E+00 -0.17100238709E+02  0.17100238709E+02  0.00000000000E+00 0. -1.
         25    2    1    2    0    0  0.82480438742E+02 -0.30830359244E+01  0.67391938563E+03  0.69038132229E+03  0.12508598620E+03 0.  0.
          5    1    3    3  502    0  0.34578108554E+02 -0.24549006977E+02  0.56737726604E+02  0.70957320658E+02  0.41800000000E+01 0. -1.
         -5    1    3    3    0  502  0.47902330188E+02  0.21465971052E+02  0.61718165903E+03  0.61942400163E+03  0.41800000000E+01 0. -1.
        -11    1    1    2    0    0 -0.60281099970E+02 -0.37421401607E+02  0.28360577342E+03  0.29234638193E+03  0.00000000000E+00 0.  1.
         11    1    1    2    0    0 -0.22199338772E+02  0.40504437531E+02  0.11405160980E+03  0.12304954205E+03  0.00000000000E+00 0. -1.
</event>
<event>
 7    1  0.4667115E-009  0.1372713E+03  0.7561462E-02  0.1217049E+00
          1   -1    0    0  501    0  0.00000000000E+00  0.00000000000E+00  0.10993216227E+04  0.10993216227E+04  0.00000000000E+00 0. -1.
         -1   -1    0    0    0  501 -0.00000000000E+00 -0.00000000000E+00 -0.31629061398E+02  0.31629061398E+02  0.00000000000E+00 0.  1.
         25    2    1    2    0    0  0.13043811474E+03  0.13961305796E+02  0.79041933217E+03  0.81093705240E+03  0.12508861844E+03 0.  0.
          5    1    3    3  502    0  0.30809358423E+02 -0.16997055953E+02  0.40622296511E+02  0.53905100421E+02  0.41800000000E+01 0. -1.
         -5    1    3    3    0  502  0.99628756313E+02  0.30958361749E+02  0.74979703565E+03  0.75703195198E+03  0.41800000000E+01 0. -1.
        -11    1    1    2    0    0 -0.58080537466E+02 -0.21533705312E+02  0.21659368974E+03  0.22527733071E+03  0.00000000000E+00 0. -1.
         11    1    1    2    0    0 -0.72357577270E+02  0.75723995153E+01  0.60679539400E+02  0.94736300987E+02  0.00000000000E+00 0.  1.
</event>
<event>
 7    1  0.2612213E-009  0.1192631E+03  0.7561462E-02  0.1244318E+00
         -1   -1    0    0    0  501 -0.00000000000E+00  0.00000000000E+00  0.35103637906E+03  0.35103637906E+03  0.00000000000E+00 0.  1.
          1   -1    0    0  501    0  0.00000000000E+00 -0.00000000000E+00 -0.65018231809E+02  0.65018231809E+02  0.00000000000E+00 0. -1.
         25    2    1    2    0    0 -0.33348757115E+01 -0.99826402916E+02  0.11485564703E+03  0.19701269573E+03  0.12508297450E+03 0.  0.
          5    1    3    3  502    0  0.40293518251E+01 -0.82290435637E+02  0.14163102493E+03  0.16390476228E+03  0.41800000000E+01 0.  1.
         -5    1    3    3    0  502 -0.73642275366E+01 -0.17535967279E+02 -0.26775377904E+02  0.33107933453E+02  0.41800000000E+01 0.  1.
        -11    1    1    2    0    0  0.44665584706E+02  0.25287455020E+02  0.68946592355E+02  0.85954071665E+02  0.00000000000E+00 0.  1.
         11    1    1    2    0    0 -0.41330708994E+02  0.74538947895E+02  0.10221590787E+03  0.13308784348E+03  0.00000000000E+00 0. -1.
</event>
<event>
 7    1  0.2612213E-009  0.1017417E+03  0.7561462E-02  0.1276675E+00
          1   -1    0    0  501    0  0.00000000000E+00  0.00000000000E+00  0.62851400996E+02  0.62851400996E+02  0.00000000000E+00 0. -1.
         -1   -1    0    0    0  501 -0.00000000000E+00 -0.00000000000E+00 -0.19183264684E+03  0.19183264684E+03  0.00000000000E+00 0.  1.
         25    2    1    2    0    0  0.69382512618E+01 -0.22465973234E+02 -0.85703631139E+02  0.15344806554E+03  0.12509331374E+03 0.  0.
          5    1    3    3  502    0  0.59960318555E+02 -0.11478955157E+02 -0.12762496735E+02  0.62508878854E+02  0.41800000000E+01 0. -1.
         -5    1    3    3    0  502 -0.53022067293E+02 -0.10987018077E+02 -0.72941134404E+02  0.90939186682E+02  0.41800000000E+01 0. -1.
        -11    1    1    2    0    0  0.14653955093E+02  0.50507492809E+02 -0.39236993665E+02  0.65614685106E+02  0.00000000000E+00 0.  1.
         11    1    1    2    0    0 -0.21592206355E+02 -0.28041519575E+02 -0.40406210397E+01  0.35621297194E+02  0.00000000000E+00 0. -1.
</event>
<event>
 7    1  0.2612213E-009  0.1310578E+03  0.7561462E-02  0.1225895E+00
         -1   -1    0    0    0  501 -0.00000000000E+00  0.00000000000E+00  0.33318046246E+02  0.33318046246E+02  0.00000000000E+00 0.  1.
          1   -1    0    0  501    0  0.00000000000E+00 -0.00000000000E+00 -0.80509604618E+03  0.80509604618E+03  0.00000000000E+00 0. -1.
         25    2    1    2    0    0 -0.12007542147E+03 -0.11600479633E+02 -0.37502695363E+03  0.41333448519E+03  0.12508997854E+03 0.  0.
          5    1    3    3  502    0  0.11202673921E+01  0.11845561827E+02  0.51309106334E+01  0.13615101100E+02  0.41800000000E+01 0. -1.
         -5    1    3    3    0  502 -0.12119568886E+03 -0.23446041460E+02 -0.38015786426E+03  0.39971938409E+03  0.41800000000E+01 0. -1.
        -11    1    1    2    0    0  0.52050930053E+02 -0.13008259115E+02 -0.59328464417E+02  0.79989879451E+02  0.00000000000E+00 0.  1.
         11    1    1    2    0    0  0.68024491413E+02  0.24608738748E+02 -0.33742258189E+03  0.34508972778E+03  0.00000000000E+00 0. -1.
</event>
<event>
 7    1  0.2612213E-009  0.1683296E+03  0.7561462E-02  0.1179601E+00
         -1   -1    0    0    0  501 -0.00000000000E+00  0.00000000000E+00  0.35597553282E+02  0.35597553282E+02  0.00000000000E+00 0.  1.
          1   -1    0    0  501    0  0.00000000000E+00 -0.00000000000E+00 -0.82932893555E+03  0.82932893555E+03  0.00000000000E+00 0. -1.
         25    2    1    2    0    0  0.12870472524E+03  0.24074680239E+02 -0.40720584634E+03  0.44565564884E+03  0.12509140465E+03 0.  0.
          5    1    3    3  502    0  0.21994011888E+02 -0.43923363928E+02 -0.71308146107E+02  0.86690960076E+02  0.41800000000E+01 0. -1.
         -5    1    3    3    0  502  0.10671071335E+03  0.67998044167E+02 -0.33589770023E+03  0.35896468876E+03  0.41800000000E+01 0. -1.
        -11    1    1    2    0    0  0.10327793003E+02 -0.19006588487E+02 -0.75695874706E+02  0.78725975140E+02  0.00000000000E+00 0.  1.
         11    1    1    2    0    0 -0.13903251824E+03 -0.50680917523E+01 -0.31082966122E+03  0.34054486485E+03  0.00000000000E+00 0. -1.
</event>
<event>
 7    1  0.2612213E-009  0.1045039E+03  0.7561462E-02  0.1271100E+00
         -1   -1    0    0    0  501 -0.00000000000E+00  0.00000000000E+00  0.29633381138E+03  0.29633381138E+03  0.00000000000E+00 0.  1.
          1   -1    0    0  501    0  0.00000000000E+00 -0.00000000000E+00 -0.52445636980E+02  0.52445636980E+02  0.00000000000E+00 0. -1.
         25    2    1    2    0    0 -0.77399171224E+01 -0.19369285233E+02  0.62861352457E+02  0.14154142744E+03  0.12508937013E+03 0.  0.
          5    1    3    3  502    0  0.49268749426E+02 -0.11032872153E+02 -0.67209156143E+01  0.51105548081E+02  0.41800000000E+01 0.  1.
         -5    1    3    3    0  502 -0.57008666548E+02 -0.83364130809E+01  0.69582268071E+02  0.90435879355E+02  0.41800000000E+01 0.  1.
        -11    1    1    2    0    0  0.62048402196E+01 -0.40358233731E+02  0.81448248891E+02  0.91110396330E+02  0.00000000000E+00 0.  1.
         11    1    1    2    0    0  0.15350769027E+01  0.59727518965E+02  0.99578573054E+02  0.11612762460E+03  0.00000000000E+00 0. -1.
</event>
<event>
 7    1  0.2612213E-009  0.1206806E+03  0.7561462E-02  0.1241978E+00
          1   -1    0    0  501    0  0.00000000000E+00  0.00000000000E+00  0.18284824510E+03  0.18284824510E+03  0.00000000000E+00 0. -1.
         -1   -1    0    0    0  501 -0.00000000000E+00 -0.00000000000E+00 -0.12147403187E+03  0.12147403187E+03  0.00000000000E+00 0.  1.
         25    2    1    2    0    0  0.58523688445E+02 -0.53276997651E+02  0.98403905935E+02  0.17774677810E+03  0.12508848001E+03 0.  0.
          5    1    3    3  502    0 -0.33811376106E+02 -0.53681820965E+01  0.55073530014E+02  0.64981479218E+02  0.41800000000E+01 0.  1.
         -5    1    3    3    0  502  0.92335064551E+02 -0.47908815555E+02  0.43330375921E+02  0.11276529888E+03  0.41800000000E+01 0.  1.
        -11    1    1    2    0    0 -0.65161693917E+02  0.19035602418E+02  0.93695460581E+01  0.68528745114E+02  0.00000000000E+00 0. -1.
         11    1    1    2    0    0  0.66380054724E+01  0.34241395233E+02 -0.46399238767E+02  0.58046753762E+02  0.00000000000E+00 0.  1.
</event>
<event>
 7    1  0.2612213E-009  0.2277414E+03  0.7561462E-02  0.1128240E+00
         -1   -1    0    0    0  501 -0.00000000000E+00  0.00000000000E+00  0.47601674956E+03  0.47601674956E+03  0.00000000000E+00 0.  1.
          1   -1    0    0  501    0  0.00000000000E+00 -0.00000000000E+00 -0.13009703078E+03  0.13009703078E+03  0.00000000000E+00 0. -1.
         25    2    1    2    0    0  0.43702783623E+02  0.20632022597E+03  0.84771169654E+02  0.25943797106E+03  0.12507573978E+03 0.  0.
          5    1    3    3  502    0  0.79192221519E+02  0.79227075486E+02  0.26840728494E+02  0.11526592968E+03  0.41800000000E+01 0. -1.
         -5    1    3    3    0  502 -0.35489437896E+02  0.12709315049E+03  0.57930441159E+02  0.14417204138E+03  0.41800000000E+01 0. -1.
        -11    1    1    2    0    0 -0.35838438857E+01 -0.44527897695E+02  0.10883631868E+02  0.45978593419E+02  0.00000000000E+00 0. -1.
         11    1    1    2    0    0 -0.40118939738E+02 -0.16179232828E+03  0.25026491726E+03  0.30069721586E+03  0.00000000000E+00 0.  1.
</event>
<event>
 7    1  0.2612213E-009  0.1109918E+03  0.7561462E-02  0.1258744E+00
         -2   -1    0    0    0  501 -0.00000000000E+00  0.00000000000E+00  0.28830285656E+03  0.28830285656E+03  0.00000000000E+00 0. -1.
          2   -1    0    0  501    0  0.00000000000E+00 -0.00000000000E+00 -0.98752262016E+02  0.98752262016E+02  0.00000000000E+00 0.  1.
         25    2    1    2    0    0 -0.68052837537E+02 -0.30495668386E+01 -0.26988852868E+02  0.14495719332E+03  0.12507478228E+03 0.  0.
          5    1    3    3  502    0 -0.86293512404E+02 -0.38507901567E+02  0.33988965932E+01  0.94649108100E+02  0.41800000000E+01 0. -1.
         -5    1    3    3    0  502  0.18240674867E+02  0.35458334728E+02 -0.30387749461E+02  0.50308085221E+02  0.41800000000E+01 0. -1.
        -11    1    1    2    0    0  0.11493000224E+02  0.24300789814E+02  0.13153586554E+02  0.29927149529E+02  0.00000000000E+00 0.  1.
         11    1    1    2    0    0  0.56559837313E+02 -0.21251222975E+02  0.20338586085E+03  0.21217077572E+03  0.00000000000E+00 0. -1.
</event>
<event>
 7    1  0.2612213E-009  0.1952154E+03  0.7561462E-02  0.1153840E+00
          1   -1    0    0  501    0  0.00000000000E+00  0.00000000000E+00  0.74242223684E+03  0.74242223684E+03  0.00000000000E+00 0. -1.
         -1   -1    0    0    0  501 -0.00000000000E+00 -0.00000000000E+00 -0.91535558455E+02  0.91535558455E+02  0.00000000000E+00 0.  1.
         25    2    1    2    0    0  0.12746888257E+03  0.13963969038E+03  0.10695145186E+03  0.25066387971E+03  0.12508480476E+03 0.  0.
          5    1    3    3  502    0  0.24498212863E+02  0.53016637639E+02  0.99973142721E+02  0.11585779199E+03  0.41800000000E+01 0.  1.
         -5    1    3    3    0  502  0.10297066970E+03  0.86623052745E+02  0.69783091386E+01  0.13480608771E+03  0.41800000000E+01 0.  1.
        -11    1    1    2    0    0 -0.71115660999E+02 -0.37010748552E+02  0.32804027028E+03  0.33769461303E+03  0.00000000000E+00 0. -1.
         11    1    1    2    0    0 -0.56353221568E+02 -0.10262894183E+03  0.21589495625E+03  0.24559930256E+03  0.00000000000E+00 0.  1.
</event>
<event>
 7    1  0.2612213E-009  0.9787063E+02  0.7561462E-02  0.1284839E+00
          1   -1    0    0  501    0  0.00000000000E+00  0.00000000000E+00  0.44796637866E+03  0.44796637866E+03  0.00000000000E+00 0. -1.
         -1   -1    0    0    0  501 -0.00000000000E+00 -0.00000000000E+00 -0.44945777480E+02  0.44945777480E+02  0.00000000000E+00 0.  1.
         25    2    1    2    0    0  0.71516342004E+02  0.34325994883E+02  0.13993287605E+03  0.20376868425E+03  0.12509039045E+03 0.  0.
          5    1    3    3  502    0  0.35908965473E+02  0.53519542281E+02  0.72468002301E+01  0.64990643333E+02  0.41800000000E+01 0. -1.
         -5    1    3    3    0  502  0.35607376530E+02 -0.19193547398E+02  0.13268607582E+03  0.13877804092E+03  0.41800000000E+01 0. -1.
        -11    1    1    2    0    0 -0.76319683281E+02 -0.25546108651E+02  0.26664184436E+03  0.27852319632E+03  0.00000000000E+00 0. -1.
         11    1    1    2    0    0  0.48033412778E+01 -0.87798862324E+01 -0.35541192297E+01  0.10620275570E+02  0.00000000000E+00 0.  1.
</event>
<event>
 7    1  0.2612213E-009  0.1197082E+03  0.7561462E-02  0.1243579E+00
         -4   -1    0    0    0  501 -0.00000000000E+00  0.00000000000E+00  0.10506920649E+03  0.10506920649E+03  0.00000000000E+00 0.  1.
          4   -1    0    0  501    0  0.00000000000E+00 -0.00000000000E+00 -0.14551089491E+03  0.14551089491E+03  0.00000000000E+00 0. -1.
         25    2    1    2    0    0  0.36992057745E+02 -0.43090766040E+02 -0.26274090132E+02  0.13986796305E+03  0.12508993893E+03 0.  0.
          5    1    3    3  502    0  0.78163845109E+02 -0.40641046894E+02  0.43857183838E+01  0.88306218924E+02  0.41800000000E+01 0. -1.
         -5    1    3    3    0  502 -0.41171787365E+02 -0.24497191454E+01 -0.30659808516E+02  0.51561744122E+02  0.41800000000E+01 0. -1.
        -11    1    1    2    0    0 -0.35255593671E+02  0.72334090487E+02 -0.11682196531E+02  0.81312060898E+02  0.00000000000E+00 0.  1.
         11    1    1    2    0    0 -0.17364640740E+01 -0.29243324448E+02 -0.24854017560E+01  0.29400077451E+02  0.00000000000E+00 0. -1.
</event>
<event>
 7    1  0.2612213E-009  0.1539936E+03  0.7561462E-02  0.1195650E+00
         -1   -1    0    0    0  501 -0.00000000000E+00  0.00000000000E+00  0.43386676847E+02  0.43386676847E+02  0.00000000000E+00 0.  1.
          1   -1    0    0  501    0  0.00000000000E+00 -0.00000000000E+00 -0.57424582628E+03  0.57424582628E+03  0.00000000000E+00 0. -1.
         25    2    1    2    0    0  0.10254653135E+03 -0.45456835829E+02 -0.26761452420E+03  0.31598629108E+03  0.12509071738E+03 0.  0.
          5    1    3    3  502    0 -0.28733242209E+02 -0.13970032646E+02 -0.63874220920E+02  0.71541243476E+02  0.41800000000E+01 0.  1.
         -5    1    3    3    0  502  0.13127977356E+03 -0.31486803183E+02 -0.20374030327E+03  0.24444504760E+03  0.41800000000E+01 0.  1.
        -11    1    1    2    0    0 -0.73650029593E+02 -0.13651289367E+02 -0.94887258534E+02  0.12088952143E+03  0.00000000000E+00 0.  1.
         11    1    1    2    0    0 -0.28896501755E+02  0.59108125196E+02 -0.16835736670E+03  0.18075669061E+03  0.00000000000E+00 0. -1.
</event>
<event>
 7    1  0.2612213E-009  0.8383605E+02  0.7561462E-02  0.1318505E+00
         -2   -1    0    0    0  501 -0.00000000000E+00  0.00000000000E+00  0.13693012867E+03  0.13693012867E+03  0.00000000000E+00 0.  1.
          2   -1    0    0  501    0  0.00000000000E+00 -0.00000000000E+00 -0.92920303419E+02  0.92920303419E+02  0.00000000000E+00 0. -1.
         25    2    1    2    0    0  0.37563241083E+01  0.71998844401E+01  0.48189455355E+02  0.13429000638E+03  0.12508250837E+03 0.  0.
          5    1    3    3  502    0 -0.48333607436E+02 -0.26141662809E+02  0.46779135469E+02  0.72286126314E+02  0.41800000000E+01 0. -1.
         -5    1    3    3    0  502  0.52089931545E+02  0.33341547249E+02  0.14103198862E+01  0.62003880068E+02  0.41800000000E+01 0. -1.
        -11    1    1    2    0    0 -0.14660803169E+02 -0.25418027469E+02 -0.42562133739E+02  0.51696716514E+02  0.00000000000E+00 0. -1.
         11    1    1    2    0    0  0.10904479060E+02  0.18218143029E+02  0.38382503638E+02  0.43863709197E+02  0.00000000000E+00 0.  1.
</event>
<event>
 7    1  0.2612213E-009  0.7613627E+02  0.7561462E-02  0.1340388E+00
          2   -1    0    0  501    0  0.00000000000E+00  0.00000000000E+00  0.11818160412E+03  0.11818160412E+03  0.00000000000E+00 0. -1.
         -2   -1    0    0    0  501 -0.00000000000E+00 -0.00000000000E+00 -0.19102860651E+03  0.19102860651E+03  0.00000000000E+00 0.  1.
         25    2    1    2    0    0 -0.19094167842E+02  0.27177847281E+00  0.65255312623E+02  0.14236995071E+03  0.12508511475E+03 0.  0.
          5    1    3    3  502    0 -0.48622012074E+02 -0.26771557862E+02  0.81719398254E+02  0.98875420704E+02  0.41800000000E+01 0.  1.
         -5    1    3    3    0  502  0.29527844232E+02  0.27043336335E+02 -0.16464085631E+02  0.43494530009E+02  0.41800000000E+01 0.  1.
        -11    1    1    2    0    0  0.22768278048E+02  0.23252138070E+02 -0.13925131156E+03  0.14300344116E+03  0.00000000000E+00 0.  1.
         11    1    1    2    0    0 -0.36741102059E+01 -0.23523916543E+02  0.11489965467E+01  0.23836818755E+02  0.00000000000E+00 0. -1.
</event>
<event>
 7    1  0.2612213E-009  0.1021871E+03  0.7561462E-02  0.1275763E+00
         -1   -1    0    0    0  501 -0.00000000000E+00  0.00000000000E+00  0.82256586319E+02  0.82256586319E+02  0.00000000000E+00 0.  1.
          1   -1    0    0  501    0  0.00000000000E+00 -0.00000000000E+00 -0.20767974674E+03  0.20767974674E+03  0.00000000000E+00 0. -1.
         25    2    1    2    0    0 -0.10124340789E+02  0.42106345347E+02 -0.13761934461E+03  0.19092796239E+03  0.12505581242E+03 0.  0.
          5    1    3    3  502    0  0.32934885636E+02 -0.30039346049E+02 -0.69551638928E+02  0.82716212924E+02  0.41800000000E+01 0. -1.
         -5    1    3    3    0  502 -0.43059226425E+02  0.72145691396E+02 -0.68067705678E+02  0.10821174947E+03  0.41800000000E+01 0. -1.
        -11    1    1    2    0    0 -0.23321333866E+02 -0.33719196996E+02  0.38031673975E+02  0.55922062593E+02  0.00000000000E+00 0.  1.
         11    1    1    2    0    0  0.33445674654E+02 -0.83871483507E+01 -0.25835489791E+02  0.43086308072E+02  0.00000000000E+00 0. -1.
</event>
<event>
 7    1  0.2612213E-009  0.1198807E+03  0.7561462E-02  0.1243294E+00
          1   -1    0    0  501    0  0.00000000000E+00  0.00000000000E+00  0.55904141947E+02  0.55904141947E+02  0.00000000000E+00 0. -1.
         -1   -1    0    0    0  501 -0.00000000000E+00 -0.00000000000E+00 -0.25918522111E+03  0.25918522111E+03  0.00000000000E+00 0.  1.
         25    2    1    2    0    0  0.21340937740E+02  0.52580979641E+02 -0.12318780871E+03  0.18450697383E+03  0.12508953647E+03 0.  0.
          5    1    3    3  502    0 -0.51368284319E+02  0.33170816654E+02 -0.46073664806E+02  0.76676324247E+02  0.41800000000E+01 0.  1.
         -5    1    3    3    0  502  0.72709222059E+02  0.19410162987E+02 -0.77114143905E+02  0.10783064958E+03  0.41800000000E+01 0.  1.
        -11    1    1    2    0    0  0.70051693450E+01  0.22119395353E+02 -0.19462664616E+02  0.30284242805E+02  0.00000000000E+00 0. -1.
         11    1    1    2    0    0 -0.28346107085E+02 -0.74700374994E+02 -0.60630605834E+02  0.10029814642E+03  0.00000000000E+00 0.  1.
</event>
<event>
 7    1  0.2612213E-009  0.1766534E+03  0.7561462E-02  0.1171082E+00
         -2   -1    0    0    0  501 -0.00000000000E+00  0.00000000000E+00  0.38278121592E+02  0.38278121592E+02  0.00000000000E+00 0. -1.
          2   -1    0    0  501    0  0.00000000000E+00 -0.00000000000E+00 -0.10208739431E+04  0.10208739431E+04  0.00000000000E+00 0.  1.
         25    2    1    2    0    0 -0.65632223344E+02 -0.14572917928E+03 -0.61832846682E+03  0.65078426562E+03  0.12508191338E+03 0.  0.
          5    1    3    3  502    0 -0.68736278563E+02 -0.15400466338E+03 -0.61840941461E+03  0.64100685551E+03  0.41800000000E+01 0. -1.
         -5    1    3    3    0  502  0.31040552188E+01  0.82754840941E+01  0.80947789291E-01  0.97774101038E+01  0.41800000000E+01 0. -1.
        -11    1    1    2    0    0  0.17561433012E+02  0.11807181615E+03 -0.30332359623E+03  0.32596711755E+03  0.00000000000E+00 0.  1.
         11    1    1    2    0    0  0.48070790332E+02  0.27657363136E+02 -0.60943758421E+02  0.82400681485E+02  0.00000000000E+00 0. -1.
</event>
<event>
 7    1  0.2612213E-009  0.1134657E+03  0.7561462E-02  0.1254283E+00
         -2   -1    0    0    0  501 -0.00000000000E+00  0.00000000000E+00  0.47479477208E+03  0.47479477208E+03  0.00000000000E+00 0.  1.
          2   -1    0    0  501    0  0.00000000000E+00 -0.00000000000E+00 -0.30665261512E+03  0.30665261512E+03  0.00000000000E+00 0. -1.
         25    2    1    2    0    0 -0.18286780215E+02 -0.47999879151E+02 -0.28597257330E+03  0.31633416158E+03  0.12509434190E+03 0.  0.
          5    1    3    3  502    0 -0.32310494725E+02 -0.82760149671E+02 -0.24500641935E+03  0.26065077856E+03  0.41800000000E+01 0. -1.
         -5    1    3    3    0  502  0.14023714511E+02  0.34760270520E+02 -0.40966153953E+02  0.55683383024E+02  0.41800000000E+01 0. -1.
        -11    1    1    2    0    0 -0.31078778510E+02  0.39372642535E+02  0.24434077465E+03  0.24943638389E+03  0.00000000000E+00 0.  1.
         11    1    1    2    0    0  0.49365558725E+02  0.86272366161E+01  0.20977395561E+03  0.21567684171E+03  0.00000000000E+00 0. -1.
</event>
<event>
 7    1  0.2612213E-009  0.9445788E+02  0.7561462E-02  0.1292402E+00
          2   -1    0    0  501    0  0.00000000000E+00  0.00000000000E+00  0.41167483437E+02  0.41167483437E+02  0.00000000000E+00 0. -1.
         -2   -1    0    0    0  501 -0.00000000000E+00 -0.00000000000E+00 -0.40230103373E+03  0.40230103373E+03  0.00000000000E+00 0.  1.
         25    2    1    2    0    0  0.22150119910E+02 -0.60436122772E+02 -0.25295009542E+03  0.28943772016E+03  0.12508912955E+03 0.  0.
          5    1    3    3  502    0 -0.42527556689E+02 -0.22248181269E+02 -0.36957135961E+02  0.60719658647E+02  0.41800000000E+01 0.  1.
         -5    1    3    3    0  502  0.64677676599E+02 -0.38187941503E+02 -0.21599295946E+03  0.22871806151E+03  0.41800000000E+01 0.  1.
        -11    1    1    2    0    0 -0.16224208132E+02  0.26571848032E+02 -0.11486430940E+03  0.11900881317E+03  0.00000000000E+00 0.  1.
         11    1    1    2    0    0 -0.59259117779E+01  0.33864274740E+02  0.66808545373E+01  0.35021983830E+02  0.00000000000E+00 0. -1.
</event>
<event>
 7    1  0.2684744E-009  0.1118242E+03  0.7561462E-02  0.1257229E+00
         -2   -1    0    0    0  501 -0.00000000000E+00  0.00000000000E+00  0.40245066593E+02  0.40245066593E+02  0.00000000000E+00 0.  1.
          2   -1    0    0  501    0  0.00000000000E+00 -0.00000000000E+00 -0.43457300681E+03  0.43457300681E+03  0.00000000000E+00 0. -1.
         25    2    1    2    0    0  0.60533156510E+02  0.36009845252E+02 -0.26885490555E+03  0.30478153976E+03  0.12509138560E+03 0.  0.
          5    1    3    3  502    0  0.28277637221E+02 -0.46499823719E+02 -0.11188566145E+03  0.12448988718E+03  0.41800000000E+01 0. -1.
         -5    1    3    3    0  502  0.32255519289E+02  0.82509668971E+02 -0.15696924410E+03  0.18029165258E+03  0.41800000000E+01 0. -1.
        -11    1    1    2    0    0 -0.12363001569E+02  0.83285816688E+01  0.11097744594E+02  0.18584106529E+02  0.00000000000E+00 0.  1.
         11    1    1    2    0    0 -0.48170154941E+02 -0.44338426921E+02 -0.13657077926E+03  0.15145242711E+03  0.00000000000E+00 0. -1.
</event>
<event>
 7    1  0.2612213E-009  0.1608474E+03  0.7561462E-02  0.1187743E+00
          2   -1    0    0  501    0  0.00000000000E+00  0.00000000000E+00  0.10640485470E+03  0.10640485470E+03  0.00000000000E+00 0. -1.
         -2   -1    0    0    0  501 -0.00000000000E+00 -0.00000000000E+00 -0.48159004873E+03  0.48159004873E+03  0.00000000000E+00 0.  1.
         25    2    1    2    0    0  0.20870232974E+02 -0.12784808556E+03 -0.39145428364E+03  0.43088664117E+03  0.12508453840E+03 0.  0.
          5    1    3    3  502    0  0.65247714079E+01 -0.15169619317E+03 -0.33342754117E+03  0.36639555848E+03  0.41800000000E+01 0. -1.
         -5    1    3    3    0  502  0.14345461566E+02  0.23848107607E+02 -0.58026742476E+02  0.64491082689E+02  0.41800000000E+01 0. -1.
        -11    1    1    2    0    0  0.17985497482E+02  0.67723696721E+02 -0.25095691087E+02  0.74429637433E+02  0.00000000000E+00 0.  1.
         11    1    1    2    0    0 -0.38855730457E+02  0.60124388843E+02  0.41364780697E+02  0.82678624839E+02  0.00000000000E+00 0. -1.
</event>
<event>
 7    1  0.2612213E-009  0.8958173E+02  0.7561462E-02  0.1303868E+00
          3   -1    0    0  501    0  0.00000000000E+00  0.00000000000E+00  0.27584247233E+03  0.27584247233E+03  0.00000000000E+00 0. -1.
         -3   -1    0    0    0  501 -0.00000000000E+00 -0.00000000000E+00 -0.64863181094E+02  0.64863181094E+02  0.00000000000E+00 0.  1.
         25    2    1    2    0    0 -0.34058975495E+02 -0.68650519465E+02  0.12272218773E+03  0.19126346037E+03  0.12509223907E+03 0.  0.
          5    1    3    3  502    0 -0.17576557720E+02  0.10888809671E+02  0.10618845303E+03  0.10826338954E+03  0.41800000000E+01 0. -1.
         -5    1    3    3    0  502 -0.16482417775E+02 -0.79539329136E+02  0.16533734704E+02  0.83000070834E+02  0.41800000000E+01 0. -1.
        -11    1    1    2    0    0  0.21537309624E+02  0.39119569742E+02 -0.10272686900E+02  0.45822751323E+02  0.00000000000E+00 0.  1.
         11    1    1    2    0    0  0.12521665872E+02  0.29530949723E+02  0.98529790403E+02  0.10361944173E+03  0.00000000000E+00 0. -1.
</event>
<event>
 7    1  0.2612213E-009  0.1235325E+03  0.7561462E-02  0.1237381E+00
         -2   -1    0    0    0  501 -0.00000000000E+00  0.00000000000E+00  0.64043658710E+02  0.64043658710E+02  0.00000000000E+00 0.  1.
          2   -1    0    0  501    0  0.00000000000E+00 -0.00000000000E+00 -0.30892330273E+03  0.30892330273E+03  0.00000000000E+00 0. -1.
         25    2    1    2    0    0  0.81762179254E+02  0.35454572021E+02 -0.12327738017E+03  0.19694494020E+03  0.12509163191E+03 0.  0.
          5    1    3    3  502    0  0.79270228538E+02 -0.16279934110E+02 -0.23374978549E+02  0.84336631479E+02  0.41800000000E+01 0. -1.
         -5    1    3    3    0  502  0.24919507161E+01  0.51734506130E+02 -0.99902401624E+02  0.11260830872E+03  0.41800000000E+01 0. -1.
        -11    1    1    2    0    0  0.20215582264E+01 -0.30043390801E+02 -0.23819010784E+01  0.30205388281E+02  0.00000000000E+00 0.  1.
         11    1    1    2    0    0 -0.83783737480E+02 -0.54111812201E+01 -0.11922036277E+03  0.14581663295E+03  0.00000000000E+00 0. -1.
</event>
<event>
 7    1  0.2612213E-009  0.1108659E+03  0.7561462E-02  0.1258975E+00
          3   -1    0    0  501    0  0.00000000000E+00  0.00000000000E+00  0.22696022870E+02  0.22696022870E+02  0.00000000000E+00 0. -1.
         -3   -1    0    0    0  501 -0.00000000000E+00 -0.00000000000E+00 -0.70775733251E+03  0.70775733251E+03  0.00000000000E+00 0.  1.
         25    2    1    2    0    0  0.39435134451E+02  0.40478266527E+02 -0.48675453429E+03  0.50573897967E+03  0.12509324129E+03 0.  0.
          5    1    3    3  502    0  0.53303077733E+02  0.76906270214E+02 -0.27856271870E+03  0.29388850461E+03  0.41800000000E+01 0.  1.
         -5    1    3    3    0  502 -0.13867943282E+02 -0.36428003687E+02 -0.20819181559E+03  0.21185047506E+03  0.41800000000E+01 0.  1.
        -11    1    1    2    0    0  0.18816063725E+02 -0.19106682022E+02 -0.14015080854E+02  0.30257760052E+02  0.00000000000E+00 0. -1.
         11    1    1    2    0    0 -0.58251198176E+02 -0.21371584505E+02 -0.18429169450E+03  0.19445661566E+03  0.00000000000E+00 0.  1.
</event>
<event>
 7    1  0.2612213E-009  0.1774922E+03  0.7561462E-02  0.1170252E+00
          1   -1    0    0  501    0  0.00000000000E+00  0.00000000000E+00  0.55124324829E+03  0.55124324829E+03  0.00000000000E+00 0. -1.
         -1   -1    0    0    0  501 -0.00000000000E+00 -0.00000000000E+00 -0.94328755417E+02  0.94328755417E+02  0.00000000000E+00 0.  1.
         25    2    1    2    0    0  0.99640469947E+02  0.14427431895E+03  0.10085672635E+03  0.23782900960E+03  0.12508899311E+03 0.  0.
          5    1    3    3  502    0  0.48173245374E+01  0.30666702072E+01  0.63166645023E+02  0.63561848033E+02  0.41800000000E+01 0.  1.
         -5    1    3    3    0  502  0.94823145409E+02  0.14120764875E+03  0.37690081322E+02  0.17426716157E+03  0.41800000000E+01 0.  1.
        -11    1    1    2    0    0 -0.13433826398E+02 -0.41513272711E+02  0.24407550450E+02  0.49995480014E+02  0.00000000000E+00 0.  1.
         11    1    1    2    0    0 -0.86206643548E+02 -0.10276104624E+03  0.33165021608E+03  0.35774751410E+03  0.00000000000E+00 0. -1.
</event>
<event>
 7    1  0.2612213E-009  0.9884889E+02  0.7561462E-02  0.1282735E+00
         -1   -1    0    0    0  501 -0.00000000000E+00  0.00000000000E+00  0.52787879734E+03  0.52787879734E+03  0.00000000000E+00 0.  1.
          1   -1    0    0  501    0  0.00000000000E+00 -0.00000000000E+00 -0.46385762089E+02  0.46385762089E+02  0.00000000000E+00 0. -1.
         25    2    1    2    0    0  0.25234133745E+02 -0.31714131287E+02  0.45036939258E+03  0.46917048016E+03  0.12508318053E+03 0.  0.
          5    1    3    3  502    0  0.57327509912E+02 -0.30235274563E+02  0.41923969595E+03  0.42424050994E+03  0.41800000000E+01 0.  1.
         -5    1    3    3    0  502 -0.32093376167E+02 -0.14788567238E+01  0.31129696629E+02  0.44929970212E+02  0.41800000000E+01 0.  1.
        -11    1    1    2    0    0 -0.56233004928E+01  0.63096641959E+02  0.18469682564E+02  0.65984368671E+02  0.00000000000E+00 0.  1.
         11    1    1    2    0    0 -0.19610833253E+02 -0.31382510672E+02  0.12653960114E+02  0.39109710604E+02  0.00000000000E+00 0. -1.
</event>
<event>
 7    1  0.2612213E-009  0.1239965E+03  0.7561462E-02  0.1236646E+00
          1   -1    0    0  501    0  0.00000000000E+00  0.00000000000E+00  0.83947315761E+03  0.83947315761E+03  0.00000000000E+00 0. -1.
         -1   -1    0    0    0  501 -0.00000000000E+00 -0.00000000000E+00 -0.30198120973E+02  0.30198120973E+02  0.00000000000E+00 0.  1.
         25    2    1    2    0    0  0.11123091843E+03  0.77879953737E+00  0.53395294601E+03  0.55957591480E+03  0.12508609887E+03 0.  0.
          5    1    3    3  502    0  0.65963455763E+02  0.39395271688E+02  0.12863076107E+03  0.14988832517E+03  0.41800000000E+01 0. -1.
         -5    1    3    3    0  502  0.45267462664E+02 -0.38616472151E+02  0.40532218494E+03  0.40968758963E+03  0.41800000000E+01 0. -1.
        -11    1    1    2    0    0 -0.39582833411E+02 -0.31886304294E+01  0.19161055340E+02  0.44092109346E+02  0.00000000000E+00 0.  1.
         11    1    1    2    0    0 -0.71648085015E+02  0.24098308920E+01  0.25616103529E+03  0.26600325444E+03  0.00000000000E+00 0. -1.
</event>
<event>
 7    1  0.2612213E-009  0.9407125E+02  0.7561462E-02  0.1293282E+00
         -2   -1    0    0    0  501 -0.00000000000E+00  0.00000000000E+00  0.26438210763E+02  0.26438210763E+02  0.00000000000E+00 0.  1.
          2   -1    0    0  501    0  0.00000000000E+00 -0.00000000000E+00 -0.59542791927E+03  0.59542791927E+03  0.00000000000E+00 0. -1.
         25    2    1    2    0    0 -0.45435625870E+02 -0.16063037415E+01 -0.42635230794E+03  0.44664424147E+03  0.12509121326E+03 0.  0.
          5    1    3    3  502    0  0.22320543282E+02 -0.12159036189E+02 -0.31328195754E+03  0.31433915781E+03  0.41800000000E+01 0.  1.
         -5    1    3    3    0  502 -0.67756169152E+02  0.10552732447E+02 -0.11307035041E+03  0.13230508366E+03  0.41800000000E+01 0.  1.
        -11    1    1    2    0    0 -0.23673971150E+02 -0.52032576751E+01 -0.11492561751E+02  0.26825543350E+02  0.00000000000E+00 0.  1.
         11    1    1    2    0    0  0.69109597020E+02  0.68095614166E+01 -0.13114483882E+03  0.14839634522E+03  0.00000000000E+00 0. -1.
</event>
<event>
 7    1  0.2612213E-009  0.1422428E+03  0.7561462E-02  0.1210343E+00
         -1   -1    0    0    0  501 -0.00000000000E+00  0.00000000000E+00  0.31054242879E+02  0.31054242879E+02  0.00000000000E+00 0.  1.
          1   -1    0    0  501    0  0.00000000000E+00 -0.00000000000E+00 -0.92372155156E+03  0.92372155156E+03  0.00000000000E+00 0. -1.
         25    2    1    2    0    0  0.91392922463E+02  0.89590397672E+02 -0.42013345904E+03  0.45666439871E+03  0.12510453234E+03 0.  0.
          5    1    3    3  502    0  0.97433485753E+02  0.88772632689E+02 -0.22073436528E+03  0.25712836654E+03  0.41800000000E+01 0.  1.
         -5    1    3    3    0  502 -0.60405632903E+01  0.81776498352E+00 -0.19939909375E+03  0.19953603217E+03  0.41800000000E+01 0.  1.
        -11    1    1    2    0    0 -0.40219106923E+02  0.20351664290E+01 -0.23501172440E+03  0.23843705473E+03  0.00000000000E+00 0. -1.
         11    1    1    2    0    0 -0.51173815540E+02 -0.91625564101E+02 -0.23752212524E+03  0.25967434100E+03  0.00000000000E+00 0.  1.
</event>
<event>
 7    1  0.2612213E-009  0.8392369E+02  0.7561462E-02  0.1318271E+00
          2   -1    0    0  501    0  0.00000000000E+00  0.00000000000E+00  0.68951027338E+02  0.68951027338E+02  0.00000000000E+00 0. -1.
         -2   -1    0    0    0  501 -0.00000000000E+00 -0.00000000000E+00 -0.25516418551E+03  0.25516418551E+03  0.00000000000E+00 0.  1.
         25    2    1    2    0    0 -0.25228566553E+02 -0.28582342458E+02 -0.22035330772E+02  0.13261079146E+03  0.12508651141E+03 0.  0.
          5    1    3    3  502    0  0.94976580084E+01 -0.33158457687E+02 -0.66992638982E+02  0.75466382592E+02  0.41800000000E+01 0. -1.
         -5    1    3    3    0  502 -0.34726224562E+02  0.45761152283E+01  0.44957308210E+02  0.57144408863E+02  0.41800000000E+01 0. -1.
        -11    1    1    2    0    0 -0.49076068981E+01  0.56521012726E+02 -0.10672492242E+03  0.12086735933E+03  0.00000000000E+00 0. -1.
         11    1    1    2    0    0  0.30136173451E+02 -0.27938670267E+02 -0.57452904981E+02  0.70637062066E+02  0.00000000000E+00 0.  1.
</event>
<event>
 7    1  0.2612213E-009  0.1003048E+03  0.7561462E-02  0.1279656E+00
         -3   -1    0    0    0  501 -0.00000000000E+00  0.00000000000E+00  0.14854987590E+03  0.14854987590E+03  0.00000000000E+00 0.  1.
          3   -1    0    0  501    0  0.00000000000E+00 -0.00000000000E+00 -0.82955364457E+02  0.82955364457E+02  0.00000000000E+00 0. -1.
         25    2    1    2    0    0 -0.10662157238E+02 -0.21766934502E+02  0.14181195808E+02  0.12820346060E+03  0.12509012735E+03 0.  0.
          5    1    3    3  502    0 -0.34392719134E+02 -0.63527930826E+02  0.28709095151E+02  0.77848196311E+02  0.41800000000E+01 0. -1.
         -5    1    3    3    0  502  0.23730561896E+02  0.41760996324E+02 -0.14527899343E+02  0.50355264285E+02  0.41800000000E+01 0. -1.
        -11    1    1    2    0    0 -0.33099830325E+02  0.11900276988E+02  0.14067465382E+00  0.35174353573E+02  0.00000000000E+00 0.  1.
         11    1    1    2    0    0  0.43761987562E+02  0.98666575139E+01  0.51272640980E+02  0.68127426187E+02  0.00000000000E+00 0. -1.
</event>
<event>
 7    1  0.2612213E-009  0.1061589E+03  0.7561462E-02  0.1267853E+00
         -1   -1    0    0    0  501 -0.00000000000E+00  0.00000000000E+00  0.55355129569E+03  0.55355129569E+03  0.00000000000E+00 0.  1.
          1   -1    0    0  501    0  0.00000000000E+00 -0.00000000000E+00 -0.22147902089E+02  0.22147902089E+02  0.00000000000E+00 0. -1.
         25    2    1    2    0    0 -0.23322812260E+02  0.13490145358E+02  0.28968316661E+03  0.31668698355E+03  0.12509344881E+03 0.  0.
          5    1    3    3  502    0 -0.14019357708E+02  0.65211562358E+02  0.21588786624E+03  0.22599587042E+03  0.41800000000E+01 0. -1.
         -5    1    3    3    0  502 -0.93034545518E+01 -0.51721417000E+02  0.73795300369E+02  0.90691113124E+02  0.41800000000E+01 0. -1.
        -11    1    1    2    0    0 -0.32147085006E+02  0.82517566558E+01  0.96383834543E+02  0.10193807004E+03  0.00000000000E+00 0.  1.
         11    1    1    2    0    0  0.55469897265E+02 -0.21741902014E+02  0.14533639245E+03  0.15707414420E+03  0.00000000000E+00 0. -1.
</event>
<event>
 7    1  0.2612213E-009  0.1003196E+03  0.7561462E-02  0.1279625E+00
          2   -1    0    0  501    0  0.00000000000E+00  0.00000000000E+00  0.10803209281E+03  0.10803209281E+03  0.00000000000E+00 0. -1.
         -2   -1    0    0    0  501 -0.00000000000E+00 -0.00000000000E+00 -0.20109724288E+03  0.20109724288E+03  0.00000000000E+00 0.  1.
         25    2    1    2    0    0  0.89600693748E+02  0.33210512588E+02 -0.22852981312E+02  0.15906221263E+03  0.12508919323E+03 0.  0.
          5    1    3    3  502    0  0.48810152164E+02  0.17118113938E+02 -0.74746454237E+02  0.90994316307E+02  0.41800000000E+01 0.  1.
         -5    1    3    3    0  502  0.40790541584E+02  0.16092398651E+02  0.51893472925E+02  0.68067896319E+02  0.41800000000E+01 0.  1.
        -11    1    1    2    0    0 -0.52679370392E+02  0.32860069457E+01 -0.81347925339E+02  0.96971123864E+02  0.00000000000E+00 0.  1.
         11    1    1    2    0    0 -0.36921323356E+02 -0.36496519534E+02  0.11135756578E+02  0.53095999200E+02  0.00000000000E+00 0. -1.
</event>
<event>
 7    1  0.2612213E-009  0.1276068E+03  0.7561462E-02  0.1231051E+00
          1   -1    0    0  501    0  0.00000000000E+00  0.00000000000E+00  0.41529586244E+03  0.41529586244E+03  0.00000000000E+00 0. -1.
         -1   -1    0    0    0  501 -0.00000000000E+00 -0.00000000000E+00 -0.45315239392E+02  0.45315239392E+02  0.00000000000E+00 0.  1.
         25    2    1    2    0    0 -0.72412360654E+02 -0.31493162944E+02  0.16278994229E+03  0.21996140608E+03  0.12508831107E+03 0.  0.
          5    1    3    3  502    0 -0.52963822034E+02  0.39208152099E+02  0.40952116076E+02  0.77698094228E+02  0.41800000000E+01 0.  1.
         -5    1    3    3    0  502 -0.19448538620E+02 -0.70701315042E+02  0.12183782621E+03  0.14226331185E+03  0.41800000000E+01 0.  1.
        -11    1    1    2    0    0  0.35128855113E+02 -0.28409983325E+02  0.12162189028E+03  0.12974223603E+03  0.00000000000E+00 0.  1.
         11    1    1    2    0    0  0.37283505542E+02  0.59903146268E+02  0.85568790475E+02  0.11090745972E+03  0.00000000000E+00 0. -1.
</event>
<event>
 7    1  0.2612213E-009  0.1213840E+03  0.7561462E-02  0.1240831E+00
         -1   -1    0    0    0  501 -0.00000000000E+00  0.00000000000E+00  0.60056643466E+03  0.60056643466E+03  0.00000000000E+00 0.  1.
          1   -1    0    0  501    0  0.00000000000E+00 -0.00000000000E+00 -0.41977389013E+02  0.41977389013E+02  0.00000000000E+00 0. -1.
         25    2    1    2    0    0  0.56260246311E+02 -0.88796828076E+02  0.20168820481E+03  0.25956826010E+03  0.12508979855E+03 0.  0.
          5    1    3    3  502    0  0.44585243355E+02 -0.66111746126E+02  0.28996710271E+02  0.84952271939E+02  0.41800000000E+01 0.  1.
         -5    1    3    3    0  502  0.11675002955E+02 -0.22685081949E+02  0.17269149453E+03  0.17461598816E+03  0.41800000000E+01 0.  1.
        -11    1    1    2    0    0 -0.74241410447E+02  0.38459046319E+02  0.24694098384E+03  0.26071197665E+03  0.00000000000E+00 0.  1.
         11    1    1    2    0    0  0.17981164137E+02  0.50337781757E+02  0.10995985701E+03  0.12226358693E+03  0.00000000000E+00 0. -1.
</event>
<event>
 6    1  0.2612213E-009  0.1258865E+03  0.7561462E-02  0.1233690E+00
         -1   -1    0    0    0  501 -0.00000000000E+00  0.00000000000E+00  0.20081426009E+03  0.20081426009E+03  0.00000000000E+00 0.  1.
          1   -1    0    0  501    0  0.00000000000E+00 -0.00000000000E+00 -0.10242818651E+03  0.10242818651E+03  0.00000000000E+00 0. -1.
          5    1    1    2  502    0 -0.31442551955E+02  0.10474566430E+03  0.17976547660E+02  0.11090949882E+03  0.41800000000E+01 0.  1.
         -5    1    1    2    0  502 -0.17473658327E+01 -0.19826038356E+02  0.58011431815E+02  0.61472951006E+02  0.41800000000E+01 0.  1.
        -11    1    1    2    0    0  0.57885773210E+02 -0.76434510199E+02  0.34736953923E+02  0.10197868923E+03  0.00000000000E+00 0.  1.
         11    1    1    2    0    0 -0.24695855422E+02 -0.84851157433E+01 -0.12338859818E+02  0.28881307550E+02  0.00000000000E+00 0. -1.
</event>
<event>
 7    1  0.2612213E-009  0.1075058E+03  0.7561462E-02  0.1265260E+00
          2   -1    0    0  501    0  0.00000000000E+00  0.00000000000E+00  0.94874031451E+02  0.94874031451E+02  0.00000000000E+00 0. -1.
         -2   -1    0    0    0  501 -0.00000000000E+00 -0.00000000000E+00 -0.15182747275E+03  0.15182747275E+03  0.00000000000E+00 0.  1.
         25    2    1    2    0    0 -0.18574980720E+02  0.28902235854E+02 -0.71314746318E+02  0.14803482285E+03  0.12509255208E+03 0.  0.
          5    1    3    3  502    0  0.50562418033E+02  0.11429122442E+02 -0.53078797122E+02  0.74310255423E+02  0.41800000000E+01 0.  1.
         -5    1    3    3    0  502 -0.69137398754E+02  0.17473113413E+02 -0.18235949196E+02  0.73724567424E+02  0.41800000000E+01 0.  1.
        -11    1    1    2    0    0  0.30662349807E+02  0.22968642918E+02 -0.10739142577E+02  0.39787779989E+02  0.00000000000E+00 0.  1.
         11    1    1    2    0    0 -0.12087369087E+02 -0.51870878772E+02  0.25100447598E+02  0.58878901363E+02  0.00000000000E+00 0. -1.
</event>
<event>
 7    1  0.2612213E-009  0.2570075E+03  0.7561462E-02  0.1108955E+00
         -1   -1    0    0    0  501 -0.00000000000E+00  0.00000000000E+00  0.12366871601E+03  0.12366871601E+03  0.00000000000E+00 0.  1.
          1   -1    0    0  501    0  0.00000000000E+00 -0.00000000000E+00 -0.59388129071E+03  0.59388129071E+03  0.00000000000E+00 0. -1.
         25    2    1    2    0    0 -0.67291141801E+02  0.23452098983E+03 -0.29813671162E+03  0.40505646039E+03  0.12512811376E+03 0.  0.
          5    1    3    3  502    0  0.18390109972E+02  0.14431611397E+03 -0.19544567209E+03  0.24368385264E+03  0.41800000000E+01 0. -1.
         -5    1    3    3    0  502 -0.85681251773E+02  0.90204875858E+02 -0.10269103952E+03  0.16137260775E+03  0.41800000000E+01 0. -1.
        -11    1    1    2    0    0  0.42293122986E+02 -0.15044236705E+03 -0.16050651254E+03  0.22401775515E+03  0.00000000000E+00 0. -1.
         11    1    1    2    0    0  0.24998018815E+02 -0.84078622780E+02 -0.11569350551E+02  0.88475791183E+02  0.00000000000E+00 0.  1.
</event>
<event>
 7    1  0.2612213E-009  0.1192597E+03  0.7561462E-02  0.1244323E+00
         -4   -1    0    0    0  501 -0.00000000000E+00  0.00000000000E+00  0.67592921041E+02  0.67592921041E+02  0.00000000000E+00 0.  1.
          4   -1    0    0  501    0  0.00000000000E+00 -0.00000000000E+00 -0.33977259952E+03  0.33977259952E+03  0.00000000000E+00 0. -1.
         25    2    1    2    0    0 -0.17834125436E+02  0.97503004303E+02 -0.19658710142E+03  0.25322002770E+03  0.12509597158E+03 0.  0.
          5    1    3    3  502    0 -0.38591470810E+01  0.99374658817E+02 -0.60797299276E+02  0.11663618577E+03  0.41800000000E+01 0.  1.
         -5    1    3    3    0  502 -0.13974978355E+02 -0.18716545134E+01 -0.13578980214E+03  0.13658384193E+03  0.41800000000E+01 0.  1.
        -11    1    1    2    0    0 -0.42963716725E+01 -0.10166633932E+03 -0.34787450071E+02  0.10753915586E+03  0.00000000000E+00 0.  1.
         11    1    1    2    0    0  0.22130497108E+02  0.41633350136E+01 -0.40805126995E+02  0.46606337013E+02  0.00000000000E+00 0. -1.
</event>
<event>
 7    1  0.2956243E-009  0.1312616E+03  0.7561462E-02  0.1225596E+00
          1   -1    0    0  501    0  0.00000000000E+00  0.00000000000E+00  0.12556525847E+04  0.12556525847E+04  0.00000000000E+00 0. -1.
         -1   -1    0    0    0  501 -0.00000000000E+00 -0.00000000000E+00 -0.20032390146E+02  0.20032390146E+02  0.00000000000E+00 0.  1.
         25    2    1    2    0    0  0.22154255034E+02 -0.10790442614E+03  0.80743224644E+03  0.82445640882E+03  0.12508941310E+03 0.  0.
          5    1    3    3  502    0  0.51788770683E+02 -0.46329802364E+02  0.63692497106E+03  0.64071789309E+03  0.41800000000E+01 0.  1.
         -5    1    3    3    0  502 -0.29634515648E+02 -0.61574623776E+02  0.17050727537E+03  0.18373851574E+03  0.41800000000E+01 0.  1.
        -11    1    1    2    0    0 -0.37226404148E+02  0.39003503265E+02  0.83472496778E+02  0.99371706995E+02  0.00000000000E+00 0.  1.
         11    1    1    2    0    0  0.15072149113E+02  0.68900922875E+02  0.34471545133E+03  0.35185685902E+03  0.00000000000E+00 0. -1.
</event>
<event>
 7    1  0.2612213E-009  0.1861577E+03  0.7561462E-02  0.1161973E+00
         -2   -1    0    0    0  501 -0.00000000000E+00  0.00000000000E+00  0.27551445743E+02  0.27551445743E+02  0.00000000000E+00 0.  1.
          2   -1    0    0  501    0  0.00000000000E+00 -0.00000000000E+00 -0.15273688606E+04  0.15273688606E+04  0.00000000000E+00 0. -1.
         25    2    1    2    0    0  0.18735414455E+01  0.16638346270E+03 -0.96989947716E+03  0.99198762873E+03  0.12508993943E+03 0.  0.
          5    1    3    3  502    0 -0.17823332861E+02  0.16063902473E+03 -0.94800221574E+03  0.96169030405E+03  0.41800000000E+01 0. -1.
         -5    1    3    3    0  502  0.19696874307E+02  0.57444379677E+01 -0.21897261416E+02  0.30297324676E+02  0.41800000000E+01 0. -1.
        -11    1    1    2    0    0  0.30647682019E+02 -0.15034459414E+03 -0.41682861822E+03  0.44417212246E+03  0.00000000000E+00 0. -1.
         11    1    1    2    0    0 -0.32521223465E+02 -0.16038868558E+02 -0.11308931943E+03  0.11876055511E+03  0.00000000000E+00 0.  1.
</event>
<event>
 7    1  0.2612213E-009  0.1682250E+03  0.7561462E-02  0.1179712E+00
         -2   -1    0    0    0  501 -0.00000000000E+00  0.00000000000E+00  0.19259078818E+03  0.19259078818E+03  0.00000000000E+00 0. -1.
          2   -1    0    0  501    0  0.00000000000E+00 -0.00000000000E+00 -0.15217105436E+03  0.15217105436E+03  0.00000000000E+00 0.  1.
         25    2    1    2    0    0  0.94830731258E+02 -0.87457540201E+02  0.16647395605E+00  0.17969308998E+03  0.12509152626E+03 0.  0.
          5    1    3    3  502    0  0.12234748384E+03 -0.88497037451E+02  0.62450176112E+01  0.15118566428E+03  0.41800000000E+01 0. -1.
         -5    1    3    3    0  502 -0.27516752578E+02  0.10394972497E+01 -0.60785436551E+01  0.28507425698E+02  0.41800000000E+01 0. -1.
        -11    1    1    2    0    0 -0.95912324121E+01  0.69846234582E+02  0.35033801527E+01  0.70588681082E+02  0.00000000000E+00 0.  1.
         11    1    1    2    0    0 -0.85239498846E+02  0.17611305619E+02  0.36749879707E+02  0.94480071484E+02  0.00000000000E+00 0. -1.
</event>
<event>
 7    1  0.2612213E-009  0.1821972E+03  0.7561462E-02  0.1165693E+00
          2   -1    0    0  501    0  0.00000000000E+00  0.00000000000E+00  0.14316620386E+04  0.14316620386E+04  0.00000000000E+00 0. -1.
         -2   -1    0    0    0  501 -0.00000000000E+00 -0.00000000000E+00 -0.26053645315E+02  0.26053645315E+02  0.00000000000E+00 0.  1.
         25    2    1    2    0    0 -0.15929648988E+03 -0.62093499205E+01  0.72147729912E+03  0.74939406272E+03  0.12509212756E+03 0.  0.
          5    1    3    3  502    0  0.12363158208E+02  0.20189646132E+02  0.15569812922E+03  0.15754316658E+03  0.41800000000E+01 0. -1.
         -5    1    3    3    0  502 -0.17165964809E+03 -0.26398996053E+02  0.56577916990E+03  0.59185089615E+03  0.41800000000E+01 0. -1.
        -11    1    1    2    0    0  0.10034671956E+02  0.13926187343E+02  0.15299302552E+02  0.22993520691E+02  0.00000000000E+00 0.  1.
         11    1    1    2    0    0  0.14926181792E+03 -0.77168374225E+01  0.66883179157E+03  0.68532810046E+03  0.00000000000E+00 0. -1.
</event>
<event>
 7    1  0.2612213E-009  0.1011251E+03  0.7561462E-02  0.1277948E+00
         -2   -1    0    0    0  501 -0.00000000000E+00  0.00000000000E+00  0.19947433729E+03  0.19947433729E+03  0.00000000000E+00 0.  1.
          2   -1    0    0  501    0  0.00000000000E+00 -0.00000000000E+00 -0.94485880741E+02  0.94485880741E+02  0.00000000000E+00 0. -1.
         25    2    1    2    0    0 -0.81910702191E+02  0.75143213170E+01  0.65184850876E+02  0.16328874126E+03  0.12509324554E+03 0.  0.
          5    1    3    3  502    0 -0.33907019997E+02 -0.35022158256E+01 -0.36567696368E+02  0.50165928063E+02  0.41800000000E+01 0. -1.
         -5    1    3    3    0  502 -0.48003682193E+02  0.11016537143E+02  0.10175254724E+03  0.11312281320E+03  0.41800000000E+01 0. -1.
        -11    1    1    2    0    0 -0.64579752774E+01 -0.27189830398E+02  0.27674037083E+02  0.39329945973E+02  0.00000000000E+00 0.  1.
         11    1    1    2    0    0  0.88368677468E+02  0.19675509081E+02  0.12129568593E+02  0.91341530802E+02  0.00000000000E+00 0. -1.
</event>
<event>
 7    1  0.2612213E-009  0.7028279E+02  0.7561462E-02  0.1359134E+00
          1   -1    0    0  501    0  0.00000000000E+00  0.00000000000E+00  0.17169476003E+03  0.17169476003E+03  0.00000000000E+00 0. -1.
         -1   -1    0    0    0  501 -0.00000000000E+00 -0.00000000000E+00 -0.79058035608E+02  0.79058035608E+02  0.00000000000E+00 0.  1.
         25    2    1    2    0    0  0.40778103163E+01 -0.73965102510E+01  0.84908434258E+01  0.12566232384E+03  0.12509032060E+03 0.  0.
          5    1    3    3  502    0  0.32354874018E+02 -0.19705827381E+02  0.56676623208E+02  0.68299850100E+02  0.41800000000E+01 0. -1.
         -5    1    3    3    0  502 -0.28277063701E+02  0.12309317130E+02 -0.48185779782E+02  0.57362473735E+02  0.41800000000E+01 0. -1.
        -11    1    1    2    0    0 -0.21251530627E+02 -0.26118033436E+02  0.85569992799E+00  0.33682509510E+02  0.00000000000E+00 0.  1.
         11    1    1    2    0    0  0.17173720310E+02  0.33514543687E+02  0.83290181066E+02  0.91407962289E+02  0.00000000000E+00 0. -1.
</event>
<event>
 7    1  0.2612213E-009  0.1677627E+03  0.7561462E-02  0.1180201E+00
          1   -1    0    0  501    0  0.00000000000E+00  0.00000000000E+00  0.11135474020E+04  0.11135474020E+04  0.00000000000E+00 0. -1.
         -1   -1    0    0    0  501 -0.00000000000E+00 -0.00000000000E+00 -0.28001936908E+02  0.28001936908E+02  0.00000000000E+00 0.  1.
         25    2    1    2    0    0 -0.11045894651E+03 -0.72547272288E+02  0.69622154370E+03  0.71960901168E+03  0.12509358974E+03 0.  0.
          5    1    3    3  502    0 -0.10863413438E+03 -0.76692793636E+01  0.53056143960E+03  0.54163927718E+03  0.41800000000E+01 0.  1.
         -5    1    3    3    0  502 -0.18248121367E+01 -0.64877992925E+02  0.16566010410E+03  0.17796973450E+03  0.41800000000E+01 0.  1.
        -11    1    1    2    0    0  0.59807843606E+02  0.89886763580E+02  0.23558613482E+03  0.25914751656E+03  0.00000000000E+00 0. -1.
         11    1    1    2    0    0  0.50651102907E+02 -0.17339491292E+02  0.15373778660E+03  0.16279281069E+03  0.00000000000E+00 0.  1.
</event>
<event>
 7    1  0.2612213E-009  0.9875570E+02  0.7561462E-02  0.1282934E+00
         -2   -1    0    0    0  501 -0.00000000000E+00  0.00000000000E+00  0.28136440242E+02  0.28136440242E+02  0.00000000000E+00 0.  1.
          2   -1    0    0  501    0  0.00000000000E+00 -0.00000000000E+00 -0.58729575798E+03  0.58729575798E+03  0.00000000000E+00 0. -1.
         25    2    1    2    0    0 -0.67760716191E+02 -0.27794872932E+02 -0.33111054091E+03  0.36145058926E+03  0.12509303959E+03 0.  0.
          5    1    3    3  502    0 -0.27942769352E+02 -0.49721604536E+02 -0.47939129678E+02  0.74623514196E+02  0.41800000000E+01 0.  1.
         -5    1    3    3    0  502 -0.39817946839E+02  0.21926731605E+02 -0.28317141123E+03  0.28682707506E+03  0.41800000000E+01 0.  1.
        -11    1    1    2    0    0  0.10953520996E+02  0.35679929368E+02 -0.16318576370E+03  0.16739961307E+03  0.00000000000E+00 0.  1.
         11    1    1    2    0    0  0.56807195194E+02 -0.78850564364E+01 -0.64863013129E+02  0.86581995895E+02  0.00000000000E+00 0. -1.
</event>
<event>
 7    1  0.2612213E-009  0.2263139E+03  0.7561462E-02  0.1129261E+00
         -2   -1    0    0    0  501 -0.00000000000E+00  0.00000000000E+00  0.28962297234E+02  0.28962297234E+02  0.00000000000E+00 0.  1.
          2   -1    0    0  501    0  0.00000000000E+00 -0.00000000000E+00 -0.19992512999E+04  0.19992512999E+04  0.00000000000E+00 0. -1.
         25    2    1    2    0    0  0.22363191107E+02  0.20283189219E+03 -0.13397191722E+04  0.13609316067E+04  0.12508592602E+03 0.  0.
          5    1    3    3  502    0  0.60977855861E+02  0.57138767449E+02 -0.61732244758E+03  0.62296678430E+03  0.41800000000E+01 0. -1.
         -5    1    3    3    0  502 -0.38614664754E+02  0.14569312474E+03 -0.72239672462E+03  0.73796482238E+03  0.41800000000E+01 0. -1.
        -11    1    1    2    0    0 -0.51259485370E+02 -0.12180850523E+03 -0.39200796243E+03  0.41368477057E+03  0.00000000000E+00 0.  1.
         11    1    1    2    0    0  0.28896294263E+02 -0.81023386954E+02 -0.23856186798E+03  0.25359721984E+03  0.00000000000E+00 0. -1.
</event>
<event>
 7    1  0.2612213E-009  0.1384582E+03  0.7561462E-02  0.1215419E+00
         -2   -1    0    0    0  501 -0.00000000000E+00  0.00000000000E+00  0.62113692824E+03  0.62113692824E+03  0.00000000000E+00 0.  1.
          2   -1    0    0  501    0  0.00000000000E+00 -0.00000000000E+00 -0.40502628098E+02  0.40502628098E+02  0.00000000000E+00 0. -1.
         25    2    1    2    0    0  0.11296705202E+03  0.16643393469E+02  0.32081435412E+03  0.36277545061E+03  0.12508245429E+03 0.  0.
          5    1    3    3  502    0  0.11617593191E+03 -0.19226382194E+02  0.29667949641E+03  0.31922201823E+03  0.41800000000E+01 0.  1.
         -5    1    3    3    0  502 -0.32088798907E+01  0.35869775663E+02  0.24134857704E+02  0.43553432387E+02  0.41800000000E+01 0.  1.
        -11    1    1    2    0    0 -0.72380907381E+02  0.11710239296E+02  0.22922057833E+03  0.24066200154E+03  0.00000000000E+00 0.  1.
         11    1    1    2    0    0 -0.40586144641E+02 -0.28353632765E+02  0.30599367697E+02  0.58202104182E+02  0.00000000000E+00 0. -1.
</event>
<event>
 7    1  0.2612213E-009  0.9670955E+02  0.7561462E-02  0.1287372E+00
         -2   -1    0    0    0  501 -0.00000000000E+00  0.00000000000E+00  0.21217426457E+02  0.21217426457E+02  0.00000000000E+00 0.  1.
          2   -1    0    0  501    0  0.00000000000E+00 -0.00000000000E+00 -0.67735078678E+03  0.67735078678E+03  0.00000000000E+00 0. -1.
         25    2    1    2    0    0 -0.16428593018E+02 -0.25290361793E+02 -0.48753257282E+03  0.50422706722E+03  0.12508966658E+03 0.  0.
          5    1    3    3  502    0 -0.41382670599E+02 -0.53842519303E+02 -0.15199581535E+03  0.16652850385E+03  0.41800000000E+01 0. -1.
         -5    1    3    3    0  502  0.24954077581E+02  0.28552157510E+02 -0.33553675747E+03  0.33769856336E+03  0.41800000000E+01 0. -1.
        -11    1    1    2    0    0 -0.13162934957E+02 -0.25359350653E+02 -0.20847452571E+02  0.35369136276E+02  0.00000000000E+00 0.  1.
         11    1    1    2    0    0  0.29591527975E+02  0.50649712446E+02 -0.14775333493E+03  0.15897200975E+03  0.00000000000E+00 0. -1.
</event>
<event>
 7    1  0.2612213E-009  0.8681344E+02  0.7561462E-02  0.1310757E+00
          2   -1    0    0  501    0  0.00000000000E+00  0.00000000000E+00  0.11670452368E+04  0.11670452368E+04  0.00000000000E+00 0.  1.
         -2   -1    0    0    0  501 -0.00000000000E+00 -0.00000000000E+00 -0.13407363994E+02  0.13407363994E+02  0.00000000000E+00 0. -1.
         25    2    1    2    0    0 -0.49834975880E+02  0.35595765649E+02  0.63667817553E+03  0.65173342876E+03  0.12508708810E+03 0.  0.
          5    1    3    3  502    0 -0.34385260307E+02  0.16271218231E+02  0.43152644383E+02  0.57677740823E+02  0.41800000000E+01 0. -1.
         -5    1    3    3    0  502 -0.15449715572E+02  0.19324547418E+02  0.59352553115E+03  0.59405568794E+03  0.41800000000E+01 0. -1.
        -11    1    1    2    0    0  0.52068371840E+02 -0.63586864628E+02  0.40834985924E+03  0.41653812819E+03  0.00000000000E+00 0.  1.
         11    1    1    2    0    0 -0.22333959600E+01  0.27991098979E+02  0.10860983806E+03  0.11218104387E+03  0.00000000000E+00 0. -1.
</event>
<event>
 6    1  0.3658365E-009  0.2003518E+03  0.7561462E-02  0.1149443E+00
         -2   -1    0    0    0  501 -0.00000000000E+00  0.00000000000E+00  0.13933036834E+03  0.13933036834E+03  0.00000000000E+00 0.  1.
          2   -1    0    0  501    0  0.00000000000E+00 -0.00000000000E+00 -0.34523449532E+03  0.34523449532E+03  0.00000000000E+00 0. -1.
          5    1    1    2  502    0 -0.60371022435E+02 -0.68438655745E+02  0.54718956340E+00  0.91357986879E+02  0.41800000000E+01 0.  1.
         -5    1    1    2    0  502 -0.96700844681E+02 -0.34540658843E+02 -0.14109740108E+03  0.17455675142E+03  0.41800000000E+01 0.  1.
        -11    1    1    2    0    0  0.26920582355E+02  0.65993482168E+02 -0.81044105685E+01  0.71732411877E+02  0.00000000000E+00 0.  1.
         11    1    1    2    0    0  0.13015128476E+03  0.36985832421E+02 -0.57249504887E+02  0.14691771348E+03  0.00000000000E+00 0. -1.
</event>
<event>
 7    1  0.2630243E-009  0.7635169E+02  0.7561462E-02  0.1339736E+00
         -1   -1    0    0    0  501 -0.00000000000E+00  0.00000000000E+00  0.56067793443E+02  0.56067793443E+02  0.00000000000E+00 0.  1.
          1   -1    0    0  501    0  0.00000000000E+00 -0.00000000000E+00 -0.27356037839E+03  0.27356037839E+03  0.00000000000E+00 0. -1.
         25    2    1    2    0    0  0.31039187292E+02  0.49632906681E+02 -0.10270771851E+03  0.17211746359E+03  0.12509472115E+03 0.  0.
          5    1    3    3  502    0  0.41999389380E+02  0.46248157323E+02  0.58410548353E+01  0.62884267393E+02  0.41800000000E+01 0.  1.
         -5    1    3    3    0  502 -0.10960202087E+02  0.33847493583E+01 -0.10854877334E+03  0.10923319620E+03  0.41800000000E+01 0.  1.
        -11    1    1    2    0    0  0.78842898387E+01 -0.35668551807E+02 -0.11084221857E+01  0.36546357055E+02  0.00000000000E+00 0.  1.
         11    1    1    2    0    0 -0.38923477131E+02 -0.13964354874E+02 -0.11367644425E+03  0.12096435118E+03  0.00000000000E+00 0. -1.
</event>
<event>
 7    1  0.2612213E-009  0.1205299E+03  0.7561462E-02  0.1242226E+00
         -3   -1    0    0    0  501 -0.00000000000E+00  0.00000000000E+00  0.25686447935E+03  0.25686447935E+03  0.00000000000E+00 0.  1.
          3   -1    0    0  501    0  0.00000000000E+00 -0.00000000000E+00 -0.59291631932E+02  0.59291631932E+02  0.00000000000E+00 0. -1.
         25    2    1    2    0    0  0.55162608148E+02 -0.12547071327E+02  0.92668574206E+02  0.16563661955E+03  0.12509069811E+03 0.  0.
          5    1    3    3  502    0  0.68248758494E+02 -0.55679715709E+02  0.78890738576E+02  0.11831882695E+03  0.41800000000E+01 0.  1.
         -5    1    3    3    0  502 -0.13086150346E+02  0.43132644382E+02  0.13777835630E+02  0.47317792604E+02  0.41800000000E+01 0.  1.
        -11    1    1    2    0    0  0.10482788511E+02 -0.28380142986E+02  0.24358050904E+02  0.38841163921E+02  0.00000000000E+00 0. -1.
         11    1    1    2    0    0 -0.65645396659E+02  0.40927214313E+02  0.80546222306E+02  0.11167832781E+03  0.00000000000E+00 0.  1.
</event>
<event>
 7    1  0.2612213E-009  0.1184733E+03  0.7561462E-02  0.1245637E+00
         -2   -1    0    0    0  501 -0.00000000000E+00  0.00000000000E+00  0.16326227111E+02  0.16326227111E+02  0.00000000000E+00 0.  1.
          2   -1    0    0  501    0  0.00000000000E+00 -0.00000000000E+00 -0.13098524680E+04  0.13098524680E+04  0.00000000000E+00 0. -1.
         25    2    1    2    0    0 -0.24123536567E+02 -0.66113411483E+02 -0.10130649843E+04  0.10231797487E+04  0.12507280871E+03 0.  0.
          5    1    3    3  502    0 -0.28911826296E+02  0.20412063084E+02 -0.60225464745E+03  0.60330811266E+03  0.41800000000E+01 0. -1.
         -5    1    3    3    0  502  0.47882897287E+01 -0.86525474566E+02 -0.41081033683E+03  0.41987163600E+03  0.41800000000E+01 0. -1.
        -11    1    1    2    0    0  0.18970317657E+02 -0.20415282389E+02 -0.74388363138E+02  0.79437304067E+02  0.00000000000E+00 0.  1.
         11    1    1    2    0    0  0.51532189101E+01  0.86528693872E+02 -0.20607289351E+03  0.22356164244E+03  0.00000000000E+00 0. -1.
</event>
<event>
 7    1  0.2612213E-009  0.8964834E+02  0.7561462E-02  0.1303706E+00
          3   -1    0    0  501    0  0.00000000000E+00  0.00000000000E+00  0.37665866992E+03  0.37665866992E+03  0.00000000000E+00 0. -1.
         -3   -1    0    0    0  501 -0.00000000000E+00 -0.00000000000E+00 -0.42073535569E+02  0.42073535569E+02  0.00000000000E+00 0.  1.
         25    2    1    2    0    0  0.14710712410E+02 -0.52891611771E+02  0.23240105232E+03  0.26957824768E+03  0.12509298479E+03 0.  0.
          5    1    3    3  502    0 -0.30800844448E+02 -0.10598310758E+02  0.42883522277E+01  0.33119157212E+02  0.41800000000E+01 0. -1.
         -5    1    3    3    0  502  0.45511556858E+02 -0.42293301014E+02  0.22811270010E+03  0.23645909046E+03  0.41800000000E+01 0. -1.
        -11    1    1    2    0    0 -0.39904923388E+02  0.36865128007E+02  0.10594138093E+03  0.11905887941E+03  0.00000000000E+00 0.  1.
         11    1    1    2    0    0  0.25194210978E+02  0.16026483764E+02 -0.37572989050E+01  0.30095078397E+02  0.00000000000E+00 0. -1.
</event>
<event>
 7    1  0.3471992E-009  0.9881720E+02  0.7561462E-02  0.1282803E+00
          3   -1    0    0  501    0  0.00000000000E+00  0.00000000000E+00  0.80028052964E+02  0.80028052964E+02  0.00000000000E+00 0. -1.
         -3   -1    0    0    0  501 -0.00000000000E+00 -0.00000000000E+00 -0.26429313032E+03  0.26429313032E+03  0.00000000000E+00 0.  1.
         25    2    1    2    0    0 -0.53812271285E+02  0.79017856604E+02 -0.85414939967E+02  0.17911748852E+03  0.12509108889E+03 0.  0.
          5    1    3    3  502    0 -0.27091821666E+02  0.52816184517E+02  0.23422435197E+02  0.63949972781E+02  0.41800000000E+01 0. -1.
         -5    1    3    3    0  502 -0.26720449619E+02  0.26201672088E+02 -0.10883737516E+03  0.11516751573E+03  0.41800000000E+01 0. -1.
        -11    1    1    2    0    0  0.79969157328E+01 -0.38464322458E+02  0.98174590319E+01  0.40494904189E+02  0.00000000000E+00 0. -1.
         11    1    1    2    0    0  0.45815355552E+02 -0.40553534146E+02 -0.10866759642E+03  0.12470879058E+03  0.00000000000E+00 0.  1.
</event>
<event>
 7    1  0.2612213E-009  0.1043895E+03  0.7561462E-02  0.1271327E+00
         -4   -1    0    0    0  501 -0.00000000000E+00  0.00000000000E+00  0.21233340552E+02  0.21233340552E+02  0.00000000000E+00 0.  1.
          4   -1    0    0  501    0  0.00000000000E+00 -0.00000000000E+00 -0.62962964273E+03  0.62962964273E+03  0.00000000000E+00 0. -1.
         25    2    1    2    0    0  0.71270085659E+01  0.18978083813E+02 -0.42722609744E+03  0.44562405478E+03  0.12509075883E+03 0.  0.
          5    1    3    3  502    0 -0.36089777197E+02 -0.36360471999E+02 -0.24412069171E+03  0.24947332616E+03  0.41800000000E+01 0.  1.
         -5    1    3    3    0  502  0.43216785763E+02  0.55338555812E+02 -0.18310540573E+03  0.19615072862E+03  0.41800000000E+01 0.  1.
        -11    1    1    2    0    0 -0.29314532278E+02  0.24514911668E+02 -0.37669187863E+02  0.53659019848E+02  0.00000000000E+00 0.  1.
         11    1    1    2    0    0  0.22187523712E+02 -0.43492995482E+02 -0.14350101687E+03  0.15157990865E+03  0.00000000000E+00 0. -1.
</event>
<event>
 7    1  0.2612213E-009  0.1844904E+03  0.7561462E-02  0.1163527E+00
          2   -1    0    0  501    0  0.00000000000E+00  0.00000000000E+00  0.10778010359E+04  0.10778010359E+04  0.00000000000E+00 0. -1.
         -2   -1    0    0    0  501 -0.00000000000E+00 -0.00000000000E+00 -0.50411246575E+02  0.50411246575E+02  0.00000000000E+00 0.  1.
         25    2    1    2    0    0 -0.16397431098E+03 -0.35270117169E+02  0.82084505291E+03  0.84709209778E+03  0.12508743108E+03 0.  0.
          5    1    3    3  502    0 -0.14804670115E+03  0.66840074813E+01  0.45652554426E+03  0.47999536106E+03  0.41800000000E+01 0. -1.
         -5    1    3    3    0  502 -0.15927609833E+02 -0.41954124651E+02  0.36431950865E+03  0.36709673672E+03  0.41800000000E+01 0. -1.
        -11    1    1    2    0    0  0.13862566048E+02  0.20596376585E+02 -0.65772744308E+00  0.24835741810E+02  0.00000000000E+00 0.  1.
         11    1    1    2    0    0  0.15011174493E+03  0.14673740584E+02  0.20720246381E+03  0.25628444284E+03  0.00000000000E+00 0. -1.
</event>
<event>
 7    1  0.2612213E-009  0.1861763E+03  0.7561462E-02  0.1161956E+00
         -1   -1    0    0    0  501 -0.00000000000E+00  0.00000000000E+00  0.31165409824E+03  0.31165409824E+03  0.00000000000E+00 0.  1.
          1   -1    0    0  501    0  0.00000000000E+00 -0.00000000000E+00 -0.25374085999E+03  0.25374085999E+03  0.00000000000E+00 0. -1.
         25    2    1    2    0    0  0.58937709310E+02 -0.15575838862E+03 -0.17018487060E+03  0.26896958851E+03  0.12508964850E+03 0.  0.
          5    1    3    3  502    0 -0.24851781652E+01 -0.14276017268E+03 -0.13660030482E+03  0.19764553800E+03  0.41800000000E+01 0.  1.
         -5    1    3    3    0  502  0.61422887475E+02 -0.12998215937E+02 -0.33584565775E+02  0.71324050513E+02  0.41800000000E+01 0.  1.
        -11    1    1    2    0    0 -0.26381548433E+02  0.63967580616E+02  0.29477495161E+02  0.75211436555E+02  0.00000000000E+00 0. -1.
         11    1    1    2    0    0 -0.32556160877E+02  0.91790808000E+02  0.19862061369E+03  0.22121393316E+03  0.00000000000E+00 0.  1.
</event>
<event>
 7    1  0.2612213E-009  0.1096209E+03  0.7561462E-02  0.1261273E+00
          3   -1    0    0  501    0  0.00000000000E+00  0.00000000000E+00  0.56707464578E+02  0.56707464578E+02  0.00000000000E+00 0. -1.
         -3   -1    0    0    0  501 -0.00000000000E+00 -0.00000000000E+00 -0.23046168848E+03  0.23046168848E+03  0.00000000000E+00 0.  1.
         25    2    1    2    0    0 -0.32734149066E+02  0.39527896713E+01 -0.12927447618E+03  0.18288443041E+03  0.12509066965E+03 0.  0.
          5    1    3    3  502    0  0.47947992442E+02  0.16914653907E+00 -0.41777895810E+02  0.63733064951E+02  0.41800000000E+01 0. -1.
         -5    1    3    3    0  502 -0.80682141508E+02  0.37836431322E+01 -0.87496580369E+02  0.11915136546E+03  0.41800000000E+01 0. -1.
        -11    1    1    2    0    0  0.26932215884E+02 -0.43010295368E+02 -0.96999042754E+01  0.51665442057E+02  0.00000000000E+00 0. -1.
         11    1    1    2    0    0  0.58019331818E+01  0.39057505696E+02 -0.34779843447E+02  0.52619280592E+02  0.00000000000E+00 0.  1.
</event>
<event>
 7    1  0.2612213E-009  0.1888289E+03  0.7561462E-02  0.1159522E+00
          1   -1    0    0  501    0  0.00000000000E+00  0.00000000000E+00  0.35724545375E+03  0.35724545375E+03  0.00000000000E+00 0. -1.
         -1   -1    0    0    0  501 -0.00000000000E+00 -0.00000000000E+00 -0.12487404766E+03  0.12487404766E+03  0.00000000000E+00 0.  1.
         25    2    1    2    0    0 -0.17986060188E+03 -0.25919978635E+02  0.12800290582E+03  0.25505887856E+03  0.12509438928E+03 0.  0.
          5    1    3    3  502    0 -0.18412996372E+02  0.68691631924E+01 -0.23698478582E+02  0.31069504751E+02  0.41800000000E+01 0. -1.
         -5    1    3    3    0  502 -0.16144760551E+03 -0.32789141828E+02  0.15170138441E+03  0.22398937381E+03  0.41800000000E+01 0. -1.
        -11    1    1    2    0    0  0.16248595576E+02 -0.17107077692E+02 -0.68900703586E+01  0.24579300944E+02  0.00000000000E+00 0.  1.
         11    1    1    2    0    0  0.16361200631E+03  0.43027056328E+02  0.11125857062E+03  0.20248132191E+03  0.00000000000E+00 0. -1.
</event>
<event>
 7    1  0.2612213E-009  0.1288854E+03  0.7561462E-02  0.1229119E+00
         -1   -1    0    0    0  501 -0.00000000000E+00  0.00000000000E+00  0.51174433446E+02  0.51174433446E+02  0.00000000000E+00 0.  1.
          1   -1    0    0  501    0  0.00000000000E+00 -0.00000000000E+00 -0.44656151830E+03  0.44656151830E+03  0.00000000000E+00 0. -1.
         25    2    1    2    0    0  0.63663283397E+02 -0.80951647859E+02 -0.19421113956E+03  0.25292538674E+03  0.12508837510E+03 0.  0.
          5    1    3    3  502    0  0.78335832159E+02 -0.28960958582E+02 -0.46702208697E+02  0.95780000100E+02  0.41800000000E+01 0.  1.
         -5    1    3    3    0  502 -0.14672548762E+02 -0.51990689277E+02 -0.14750893086E+03  0.15714538664E+03  0.41800000000E+01 0.  1.
        -11    1    1    2    0    0 -0.19563461659E+02 -0.76416698756E+01 -0.44180260142E+00  0.21007601960E+02  0.00000000000E+00 0.  1.
         11    1    1    2    0    0 -0.44099821738E+02  0.88593317735E+02 -0.20073414269E+03  0.22380296304E+03  0.00000000000E+00 0. -1.
</event>
<event>
 7    1  0.2612213E-009  0.1053278E+03  0.7561462E-02  0.1269475E+00
         -2   -1    0    0    0  501 -0.00000000000E+00  0.00000000000E+00  0.79759790821E+02  0.79759790821E+02  0.00000000000E+00 0.  1.
          2   -1    0    0  501    0  0.00000000000E+00 -0.00000000000E+00 -0.23268714235E+03  0.23268714235E+03  0.00000000000E+00 0. -1.
         25    2    1    2    0    0  0.42343178884E+02  0.12786965788E+02 -0.50709138827E+01  0.13277726412E+03  0.12509051286E+03 0.  0.
          5    1    3    3  502    0  0.75814033218E+02  0.34999062915E+02 -0.25644187019E+02  0.87451693897E+02  0.41800000000E+01 0.  1.
         -5    1    3    3    0  502 -0.33470854333E+02 -0.22212097127E+02  0.20573273136E+02  0.45325570223E+02  0.41800000000E+01 0.  1.
        -11    1    1    2    0    0  0.20031818802E+02 -0.13718212364E+02 -0.94540132213E+02  0.97607887559E+02  0.00000000000E+00 0. -1.
         11    1    1    2    0    0 -0.62374997686E+02  0.93124657566E+00 -0.53316305434E+02  0.82061781492E+02  0.00000000000E+00 0.  1.
</event>
<event>
 7    1  0.2612213E-009  0.1764772E+03  0.7561462E-02  0.1171257E+00
          1   -1    0    0  501    0  0.00000000000E+00  0.00000000000E+00  0.26313512662E+03  0.26313512662E+03  0.00000000000E+00 0. -1.
         -1   -1    0    0    0  501 -0.00000000000E+00 -0.00000000000E+00 -0.16287157351E+03  0.16287157351E+03  0.00000000000E+00 0.  1.
         25    2    1    2    0    0  0.61263382275E+02  0.15856636246E+03  0.99500990107E+02  0.23333387619E+03  0.12509099660E+03 0.  0.
          5    1    3    3  502    0  0.46180461281E+00  0.71441979706E+02 -0.19080072408E+02  0.74065452749E+02  0.41800000000E+01 0. -1.
         -5    1    3    3    0  502  0.60801577662E+02  0.87124382757E+02  0.11858106252E+03  0.15926842344E+03  0.41800000000E+01 0. -1.
        -11    1    1    2    0    0 -0.56485885548E+02 -0.89511428216E+02  0.39947070368E+02  0.11313142569E+03  0.00000000000E+00 0. -1.
         11    1    1    2    0    0 -0.47774967267E+01 -0.69054934247E+02 -0.39184507371E+02  0.79541398258E+02  0.00000000000E+00 0.  1.
</event>
<event>
 7    1  0.2612213E-009  0.1488054E+03  0.7561462E-02  0.1201949E+00
         -2   -1    0    0    0  501 -0.00000000000E+00  0.00000000000E+00  0.20740280228E+03  0.20740280228E+03  0.00000000000E+00 0.  1.
          2   -1    0    0  501    0  0.00000000000E+00 -0.00000000000E+00 -0.12396850744E+03  0.12396850744E+03  0.00000000000E+00 0. -1.
         25    2    1    2    0    0  0.10075632681E+03  0.54369061937E+02  0.29318977135E+02  0.17208826592E+03  0.12508771545E+03 0.  0.
          5    1    3    3  502    0  0.22103302012E+01  0.68264734074E+02  0.63261631978E+00  0.68431221538E+02  0.41800000000E+01 0. -1.
         -5    1    3    3    0  502  0.98545996612E+02 -0.13895672137E+02  0.28686360816E+02  0.10365704438E+03  0.41800000000E+01 0. -1.
        -11    1    1    2    0    0 -0.80258580104E+02 -0.67803877991E+02  0.73342800830E+02  0.12813263435E+03  0.00000000000E+00 0.  1.
         11    1    1    2    0    0 -0.20497746709E+02  0.13434816054E+02 -0.19227483124E+02  0.31150409465E+02  0.00000000000E+00 0. -1.
</event>
<event>
 7    1  0.2612213E-009  0.5802263E+02  0.7561462E-02  0.1406322E+00
          1   -1    0    0  501    0  0.00000000000E+00  0.00000000000E+00  0.46853061499E+03  0.46853061499E+03  0.00000000000E+00 0. -1.
         -1   -1    0    0    0  501 -0.00000000000E+00 -0.00000000000E+00 -0.29104247502E+02  0.29104247502E+02  0.00000000000E+00 0.  1.
         25    2    1    2    0    0  0.22857787575E+02  0.27937451856E+02  0.20406192812E+03  0.24205763070E+03  0.12509055281E+03 0.  0.
          5    1    3    3  502    0 -0.12815767253E+01  0.89178977189E+01 -0.16536352217E+02  0.19289755915E+02  0.41800000000E+01 0.  1.
         -5    1    3    3    0  502  0.24139364300E+02  0.19019554137E+02  0.22059828034E+03  0.22276787479E+03  0.41800000000E+01 0.  1.
        -11    1    1    2    0    0 -0.31377068179E+02 -0.45678999907E+02  0.22787929408E+03  0.23452092467E+03  0.00000000000E+00 0. -1.
         11    1    1    2    0    0  0.85192806046E+01  0.17741548051E+02  0.74851452815E+01  0.21056307111E+02  0.00000000000E+00 0.  1.
</event>
<event>
 7    1  0.2612213E-009  0.1543306E+03  0.7561462E-02  0.1195250E+00
         -2   -1    0    0    0  501 -0.00000000000E+00  0.00000000000E+00  0.39219937113E+02  0.39219937113E+02  0.00000000000E+00 0. -1.
          2   -1    0    0  501    0  0.00000000000E+00 -0.00000000000E+00 -0.83930490397E+03  0.83930490397E+03  0.00000000000E+00 0.  1.
         25    2    1    2    0    0  0.14571604787E+03 -0.27404240941E+01 -0.43813852413E+03  0.47838767605E+03  0.12509486696E+03 0.  0.
          5    1    3    3  502    0  0.12150459032E+03  0.64398249676E+01 -0.17071242618E+03  0.20967842442E+03  0.41800000000E+01 0. -1.
         -5    1    3    3    0  502  0.24211457553E+02 -0.91802490617E+01 -0.26742609794E+03  0.26870925163E+03  0.41800000000E+01 0. -1.
        -11    1    1    2    0    0 -0.87037184302E+02 -0.31718895619E+02 -0.27204991289E+03  0.28738948292E+03  0.00000000000E+00 0.  1.
         11    1    1    2    0    0 -0.58678863566E+02  0.34459319713E+02 -0.89896529842E+02  0.11274768211E+03  0.00000000000E+00 0. -1.
</event>
<event>
 7    1  0.2612213E-009  0.1213536E+03  0.7561462E-02  0.1240881E+00
          2   -1    0    0  501    0  0.00000000000E+00  0.00000000000E+00  0.12101642695E+04  0.12101642695E+04  0.00000000000E+00 0.  1.
         -2   -1    0    0    0  501 -0.00000000000E+00 -0.00000000000E+00 -0.24943927785E+02  0.24943927785E+02  0.00000000000E+00 0. -1.
         25    2    1    2    0    0  0.71445022498E+01 -0.69723193580E+02  0.10418135846E+04  0.10516346909E+04  0.12509040924E+03 0.  0.
          5    1    3    3  502    0 -0.43314976037E+02  0.80019046157E+01  0.20654625339E+03  0.21123220592E+03  0.41800000000E+01 0. -1.
         -5    1    3    3    0  502  0.50459478287E+02 -0.77725098196E+02  0.83526733120E+03  0.84040248501E+03  0.41800000000E+01 0. -1.
        -11    1    1    2    0    0  0.13003592121E+02 -0.14279984485E+02  0.61384654244E+02  0.64351279254E+02  0.00000000000E+00 0.  1.
         11    1    1    2    0    0 -0.20148094371E+02  0.84003178065E+02  0.82022102905E+02  0.11912222713E+03  0.00000000000E+00 0. -1.
</event>
<event>
 7    1  0.2612213E-009  0.1160069E+03  0.7561462E-02  0.1249834E+00
         -2   -1    0    0    0  501 -0.00000000000E+00  0.00000000000E+00  0.20935108855E+03  0.20935108855E+03  0.00000000000E+00 0.  1.
          2   -1    0    0  501    0  0.00000000000E+00 -0.00000000000E+00 -0.12916725833E+03  0.12916725833E+03  0.00000000000E+00 0. -1.
         25    2    1    2    0    0 -0.30794465078E+02 -0.52822347254E+02  0.15336063149E+03  0.20713501345E+03  0.12508769347E+03 0.  0.
          5    1    3    3  502    0  0.12111838479E+02 -0.84669982159E+02  0.94434398466E+02  0.12747952982E+03  0.41800000000E+01 0.  1.
         -5    1    3    3    0  502 -0.42906303557E+02  0.31847634904E+02  0.58926233024E+02  0.79655483630E+02  0.41800000000E+01 0.  1.
        -11    1    1    2    0    0  0.41548043976E+02  0.64616725604E+02 -0.25243901120E+02  0.80862944108E+02  0.00000000000E+00 0.  1.
         11    1    1    2    0    0 -0.10753578899E+02 -0.11794378349E+02 -0.47932900155E+02  0.50520389320E+02  0.00000000000E+00 0. -1.
</event>
<event>
 7    1  0.2612213E-009  0.8522872E+02  0.7561462E-02  0.1314835E+00
         -2   -1    0    0    0  501 -0.00000000000E+00  0.00000000000E+00  0.35770344402E+02  0.35770344402E+02  0.00000000000E+00 0.  1.
          2   -1    0    0  501    0  0.00000000000E+00 -0.00000000000E+00 -0.46203548329E+03  0.46203548329E+03  0.00000000000E+00 0. -1.
         25    2    1    2    0    0 -0.40415779616E+02 -0.54005142388E+02 -0.27789464092E+03  0.31212297889E+03  0.12508130097E+03 0.  0.
          5    1    3    3  502    0 -0.34982860049E+02 -0.99377541195E+01 -0.26235391451E+03  0.26489546677E+03  0.41800000000E+01 0. -1.
         -5    1    3    3    0  502 -0.54329195667E+01 -0.44067388269E+02 -0.15540726409E+02  0.47227512121E+02  0.41800000000E+01 0. -1.
        -11    1    1    2    0    0  0.19930931219E+02 -0.98221135102E+01 -0.10146135392E+03  0.10386588599E+03  0.00000000000E+00 0. -1.
         11    1    1    2    0    0  0.20484848397E+02  0.63827255899E+02 -0.46909144056E+02  0.81816962822E+02  0.00000000000E+00 0.  1.
</event>
<event>
 7    1  0.2612213E-009  0.1019134E+03  0.7561462E-02  0.1276323E+00
         -4   -1    0    0    0  501 -0.00000000000E+00  0.00000000000E+00  0.84394964727E+02  0.84394964727E+02  0.00000000000E+00 0. -1.
          4   -1    0    0  501    0  0.00000000000E+00 -0.00000000000E+00 -0.16748564012E+03  0.16748564012E+03  0.00000000000E+00 0.  1.
         25    2    1    2    0    0  0.42031733991E+02 -0.14908539283E+02 -0.26287873464E+02  0.13538289313E+03  0.12509414157E+03 0.  0.
          5    1    3    3  502    0 -0.39285559391E+02 -0.17161393851E+02  0.12937262234E+02  0.44974590267E+02  0.41800000000E+01 0.  1.
         -5    1    3    3    0  502  0.81317293383E+02  0.22528545681E+01 -0.39225135698E+02  0.90408302867E+02  0.41800000000E+01 0.  1.
        -11    1    1    2    0    0 -0.48689796977E+02 -0.13170510391E+02 -0.68746818844E+02  0.85265959063E+02  0.00000000000E+00 0.  1.
         11    1    1    2    0    0  0.66580629861E+01  0.28079049674E+02  0.11944016919E+02  0.31231752648E+02  0.00000000000E+00 0. -1.
</event>
<event>
 7    1  0.2612213E-009  0.1502723E+03  0.7561462E-02  0.1200139E+00
          1   -1    0    0  501    0  0.00000000000E+00  0.00000000000E+00  0.43366845794E+03  0.43366845794E+03  0.00000000000E+00 0. -1.
         -1   -1    0    0    0  501 -0.00000000000E+00 -0.00000000000E+00 -0.77815709602E+02  0.77815709602E+02  0.00000000000E+00 0.  1.
         25    2    1    2    0    0 -0.10234080575E+03  0.10422137064E+03  0.14781607865E+03  0.24254696578E+03  0.12507478915E+03 0.  0.
          5    1    3    3  502    0 -0.75289693067E+02  0.51816402211E+02  0.15797563687E+03  0.18255752974E+03  0.41800000000E+01 0.  1.
         -5    1    3    3    0  502 -0.27051112686E+02  0.52404968426E+02 -0.10159558214E+02  0.59989436040E+02  0.41800000000E+01 0.  1.
        -11    1    1    2    0    0  0.75596769431E+02 -0.53579027844E+02  0.18557145163E+03  0.20741829098E+03  0.00000000000E+00 0. -1.
         11    1    1    2    0    0  0.26744036322E+02 -0.50642342793E+02  0.22465218060E+02  0.61518910790E+02  0.00000000000E+00 0.  1.
</event>
<event>
 7    1  0.2612213E-009  0.1026940E+03  0.7561462E-02  0.1274731E+00
          1   -1    0    0  501    0  0.00000000000E+00  0.00000000000E+00  0.70464296478E+02  0.70464296478E+02  0.00000000000E+00 0. -1.
         -1   -1    0    0    0  501 -0.00000000000E+00 -0.00000000000E+00 -0.26720492462E+03  0.26720492462E+03  0.00000000000E+00 0.  1.
         25    2    1    2    0    0 -0.51572921440E+02  0.24252406463E+02 -0.30512144095E+02  0.14080682926E+03  0.12509047439E+03 0.  0.
          5    1    3    3  502    0  0.12019408654E+02 -0.25489611192E+02  0.28821825751E+02  0.40525997862E+02  0.41800000000E+01 0. -1.
         -5    1    3    3    0  502 -0.63592330093E+02  0.49742017655E+02 -0.59333969847E+02  0.10028083139E+03  0.41800000000E+01 0. -1.
        -11    1    1    2    0    0 -0.13301362085E+02  0.15143101960E+02 -0.77606280599E+02  0.80180886492E+02  0.00000000000E+00 0.  1.
         11    1    1    2    0    0  0.64874283525E+02 -0.39395508423E+02 -0.88622203449E+02  0.11668150535E+03  0.00000000000E+00 0. -1.
</event>
<event>
 7    1  0.2612213E-009  0.1522018E+03  0.7561462E-02  0.1197793E+00
         -3   -1    0    0    0  501 -0.00000000000E+00  0.00000000000E+00  0.25883850612E+03  0.25883850612E+03  0.00000000000E+00 0.  1.
          3   -1    0    0  501    0  0.00000000000E+00 -0.00000000000E+00 -0.12696072692E+03  0.12696072692E+03  0.00000000000E+00 0. -1.
         25    2    1    2    0    0 -0.77767974359E+02 -0.11172995742E+03  0.12239452841E+03  0.22171854834E+03  0.12508897982E+03 0.  0.
          5    1    3    3  502    0 -0.84070645317E+02 -0.79724092343E+02  0.14208811165E+03  0.18338568149E+03  0.41800000000E+01 0. -1.
         -5    1    3    3    0  502  0.63026709574E+01 -0.32005865080E+02 -0.19693583235E+02  0.38332866855E+02  0.41800000000E+01 0. -1.
        -11    1    1    2    0    0  0.92581764053E+02  0.88822263704E+02  0.27728152340E+02  0.13126167756E+03  0.00000000000E+00 0.  1.
         11    1    1    2    0    0 -0.14813789693E+02  0.22907693719E+02 -0.18244901549E+02  0.32819007132E+02  0.00000000000E+00 0. -1.
</event>
<event>
 7    1  0.2612213E-009  0.1162544E+03  0.7561462E-02  0.1249407E+00
          1   -1    0    0  501    0  0.00000000000E+00  0.00000000000E+00  0.11654459981E+04  0.11654459981E+04  0.00000000000E+00 0. -1.
         -1   -1    0    0    0  501 -0.00000000000E+00 -0.00000000000E+00 -0.16942350153E+02  0.16942350153E+02  0.00000000000E+00 0.  1.
         25    2    1    2    0    0 -0.74790686494E+02  0.34507374145E+02  0.77716215187E+03  0.79146178795E+03  0.12508535415E+03 0.  0.
          5    1    3    3  502    0  0.21443068199E+02  0.47087651780E+02  0.30866964459E+03  0.31300395207E+03  0.41800000000E+01 0.  1.
         -5    1    3    3    0  502 -0.96233754693E+02 -0.12580277636E+02  0.46849250729E+03  0.47845783588E+03  0.41800000000E+01 0.  1.
        -11    1    1    2    0    0  0.16066590389E+02 -0.13830729143E+02  0.85941984124E+01  0.22875415662E+02  0.00000000000E+00 0.  1.
         11    1    1    2    0    0  0.58724096105E+02 -0.20676645001E+02  0.36274729766E+03  0.36805114465E+03  0.00000000000E+00 0. -1.
</event>
<event>
 7    1  0.2612213E-009  0.5970768E+02  0.7561462E-02  0.1399063E+00
         -1   -1    0    0    0  501 -0.00000000000E+00  0.00000000000E+00  0.79174131090E+02  0.79174131090E+02  0.00000000000E+00 0.  1.
          1   -1    0    0  501    0  0.00000000000E+00 -0.00000000000E+00 -0.25966306776E+03  0.25966306776E+03  0.00000000000E+00 0. -1.
         25    2    1    2    0    0  0.31593585845E+02  0.69090356213E+01  0.29906093940E+01  0.12923766890E+03  0.12509013502E+03 0.  0.
          5    1    3    3  502    0  0.19263507191E+02  0.34438184225E+02  0.55685051743E+02  0.68376667289E+02  0.41800000000E+01 0. -1.
         -5    1    3    3    0  502  0.12330078654E+02 -0.27529148603E+02 -0.52694442349E+02  0.60861001610E+02  0.41800000000E+01 0. -1.
        -11    1    1    2    0    0 -0.37787572260E+02  0.26626842811E+01 -0.19178737320E+03  0.19549267767E+03  0.00000000000E+00 0. -1.
         11    1    1    2    0    0  0.61939864145E+01 -0.95717199024E+01  0.83078271326E+01  0.14106852280E+02  0.00000000000E+00 0.  1.
</event>
<event>
 7    1  0.2612213E-009  0.2025917E+03  0.7561462E-02  0.1147571E+00
         -2   -1    0    0    0  501 -0.00000000000E+00  0.00000000000E+00  0.52692736237E+02  0.52692736237E+02  0.00000000000E+00 0.  1.
          2   -1    0    0  501    0  0.00000000000E+00 -0.00000000000E+00 -0.90853101803E+03  0.90853101803E+03  0.00000000000E+00 0. -1.
         25    2    1    2    0    0 -0.17716955735E+03 -0.56744016410E+02 -0.52553487042E+03  0.57135303265E+03  0.12509377457E+03 0.  0.
          5    1    3    3  502    0 -0.17929488951E+02 -0.36033664208E+02 -0.29832212544E+02  0.50272505762E+02  0.41800000000E+01 0.  1.
         -5    1    3    3    0  502 -0.15924006839E+03 -0.20710352202E+02 -0.49570265788E+03  0.52108052689E+03  0.41800000000E+01 0.  1.
        -11    1    1    2    0    0  0.76951481005E+02  0.68698065060E+02 -0.13364408519E+03  0.16882445344E+03  0.00000000000E+00 0.  1.
         11    1    1    2    0    0  0.10021807634E+03 -0.11954048650E+02 -0.19665932618E+03  0.22104626818E+03  0.00000000000E+00 0. -1.
</event>
<event>
 7    1  0.2612213E-009  0.9385632E+02  0.7561462E-02  0.1293773E+00
         -2   -1    0    0    0  501 -0.00000000000E+00  0.00000000000E+00  0.27534198998E+02  0.27534198998E+02  0.00000000000E+00 0.  1.
          2   -1    0    0  501    0  0.00000000000E+00 -0.00000000000E+00 -0.42711201117E+03  0.42711201117E+03  0.00000000000E+00 0. -1.
         25    2    1    2    0    0  0.45466497876E+01 -0.34367170497E+01 -0.24122945549E+03  0.27179281950E+03  0.12508878243E+03 0.  0.
          5    1    3    3  502    0 -0.41252243803E+02 -0.21743378703E+02 -0.20544850501E+03  0.21071564429E+03  0.41800000000E+01 0. -1.
         -5    1    3    3    0  502  0.45798893591E+02  0.18306661654E+02 -0.35780950479E+02  0.61077175215E+02  0.41800000000E+01 0. -1.
        -11    1    1    2    0    0  0.13780905202E+01  0.47206199931E+02 -0.78972763451E+02  0.92016421429E+02  0.00000000000E+00 0. -1.
         11    1    1    2    0    0 -0.59247403078E+01 -0.43769482881E+02 -0.79375593234E+02  0.90836969240E+02  0.00000000000E+00 0.  1.
</event>
<event>
 7    1  0.2612213E-009  0.1048574E+03  0.7561462E-02  0.1270401E+00
         -1   -1    0    0    0  501 -0.00000000000E+00  0.00000000000E+00  0.15943813173E+02  0.15943813173E+02  0.00000000000E+00 0.  1.
          1   -1    0    0  501    0  0.00000000000E+00 -0.00000000000E+00 -0.19741666517E+04  0.19741666517E+04  0.00000000000E+00 0. -1.
         25    2    1    2    0    0 -0.17074572928E+01 -0.61424992887E+01 -0.17973802794E+04  0.18017391148E+04  0.12508926050E+03 0.  0.
          5    1    3    3  502    0 -0.24981071844E+02 -0.58277102344E+02 -0.70425098712E+03  0.70711187224E+03  0.41800000000E+01 0. -1.
         -5    1    3    3    0  502  0.23273614551E+02  0.52134603055E+02 -0.10931292923E+04  0.10946272425E+04  0.41800000000E+01 0. -1.
        -11    1    1    2    0    0  0.39077899281E+02 -0.19430885608E+02 -0.39532508667E+02  0.58885148970E+02  0.00000000000E+00 0.  1.
         11    1    1    2    0    0 -0.37370441988E+02  0.25573384897E+02 -0.12131005046E+03  0.12948620116E+03  0.00000000000E+00 0. -1.
</event>
<event>
 7    1  0.2612213E-009  0.9608091E+02  0.7561462E-02  0.1288760E+00
          2   -1    0    0  501    0  0.00000000000E+00  0.00000000000E+00  0.59062584950E+03  0.59062584950E+03  0.00000000000E+00 0.  1.
         -2   -1    0    0    0  501 -0.00000000000E+00 -0.00000000000E+00 -0.20190206028E+02  0.20190206028E+02  0.00000000000E+00 0. -1.
         25    2    1    2    0    0  0.34373345370E+02 -0.61779361868E+01  0.44578736873E+03  0.46432079341E+03  0.12509087617E+03 0.  0.
          5    1    3    3  502    0 -0.45465230445E+02 -0.17913948439E+02  0.16404165414E+03  0.17121662717E+03  0.41800000000E+01 0.  1.
         -5    1    3    3    0  502  0.79838575815E+02  0.11736012252E+02  0.28174571459E+03  0.29310416623E+03  0.41800000000E+01 0.  1.
        -11    1    1    2    0    0  0.12657646779E+02  0.84610193920E+01  0.22985638650E+01  0.15397670829E+02  0.00000000000E+00 0. -1.
         11    1    1    2    0    0 -0.47030992149E+02 -0.22830832052E+01  0.12234971088E+03  0.13109759130E+03  0.00000000000E+00 0.  1.
</event>
<event>
 7    1  0.2612213E-009  0.1121900E+03  0.7561462E-02  0.1256567E+00
         -1   -1    0    0    0  501 -0.00000000000E+00  0.00000000000E+00  0.98676929954E+02  0.98676929954E+02  0.00000000000E+00 0.  1.
          1   -1    0    0  501    0  0.00000000000E+00 -0.00000000000E+00 -0.20890551355E+03  0.20890551355E+03  0.00000000000E+00 0. -1.
         25    2    1    2    0    0 -0.28810113456E+02 -0.75222558649E+02 -0.11371243714E+03  0.18726099199E+03  0.12509078620E+03 0.  0.
          5    1    3    3  502    0  0.34648942711E+02 -0.46457893611E+02 -0.53338094699E+01  0.58350724359E+02  0.41800000000E+01 0.  1.
         -5    1    3    3    0  502 -0.63459056167E+02 -0.28764665038E+02 -0.10837862767E+03  0.12891026763E+03  0.41800000000E+01 0.  1.
        -11    1    1    2    0    0 -0.11333780544E+02  0.44507504455E+02 -0.34209231732E+02  0.57268176765E+02  0.00000000000E+00 0. -1.
         11    1    1    2    0    0  0.40143894000E+02  0.30715054194E+02  0.37693085275E+02  0.63053274753E+02  0.00000000000E+00 0.  1.
</event>
<event>
 7    1  0.2612213E-009  0.1239698E+03  0.7561462E-02  0.1236688E+00
          1   -1    0    0  501    0  0.00000000000E+00  0.00000000000E+00  0.12245166344E+03  0.12245166344E+03  0.00000000000E+00 0. -1.
         -1   -1    0    0    0  501 -0.00000000000E+00 -0.00000000000E+00 -0.21063854926E+03  0.21063854926E+03  0.00000000000E+00 0.  1.
         25    2    1    2    0    0  0.27833675393E+02 -0.11260954233E+03 -0.73514589812E+02  0.18576459853E+03  0.12509383935E+03 0.  0.
          5    1    3    3  502    0 -0.22455243992E+01 -0.22005553089E+02  0.34722409928E+02  0.41381214310E+02  0.41800000000E+01 0.  1.
         -5    1    3    3    0  502  0.30079199792E+02 -0.90603989242E+02 -0.10823699974E+03  0.14438338422E+03  0.41800000000E+01 0.  1.
        -11    1    1    2    0    0  0.11003480699E+02  0.75015743726E+02 -0.42089450438E+02  0.86717704262E+02  0.00000000000E+00 0.  1.
         11    1    1    2    0    0 -0.38837156091E+02  0.37593798605E+02  0.27417154430E+02  0.60607909912E+02  0.00000000000E+00 0. -1.
</event>
<event>
 7    1  0.2612213E-009  0.1750289E+03  0.7561462E-02  0.1172703E+00
         -1   -1    0    0    0  501 -0.00000000000E+00  0.00000000000E+00  0.66123123722E+02  0.66123123722E+02  0.00000000000E+00 0.  1.
          1   -1    0    0  501    0  0.00000000000E+00 -0.00000000000E+00 -0.50131125222E+03  0.50131125222E+03  0.00000000000E+00 0. -1.
         25    2    1    2    0    0 -0.28919422921E+02  0.13662913782E+03 -0.29760087331E+03  0.35173527127E+03  0.12509023520E+03 0.  0.
          5    1    3    3  502    0  0.46067119432E+02  0.24272603359E+02 -0.88266173919E+02  0.10256572832E+03  0.41800000000E+01 0.  1.
         -5    1    3    3    0  502 -0.74986542353E+02  0.11235653446E+03 -0.20933469939E+03  0.24916954296E+03  0.41800000000E+01 0.  1.
        -11    1    1    2    0    0  0.58081563892E+02 -0.78626166204E+02 -0.60684676131E+02  0.11505725528E+03  0.00000000000E+00 0.  1.
         11    1    1    2    0    0 -0.29162140971E+02 -0.58002971613E+02 -0.76902579055E+02  0.10064184938E+03  0.00000000000E+00 0. -1.
</event>
<event>
 7    1  0.2612213E-009  0.1640876E+03  0.7561462E-02  0.1184158E+00
         -2   -1    0    0    0  501 -0.00000000000E+00  0.00000000000E+00  0.12179813433E+03  0.12179813433E+03  0.00000000000E+00 0.  1.
          2   -1    0    0  501    0  0.00000000000E+00 -0.00000000000E+00 -0.25166746524E+03  0.25166746524E+03  0.00000000000E+00 0. -1.
         25    2    1    2    0    0 -0.22202777364E+01  0.13494895691E+03 -0.10422052357E+03  0.21149157731E+03  0.12510243457E+03 0.  0.
          5    1    3    3  502    0 -0.14207305677E+02 -0.15086485959E+02 -0.44952319955E+02  0.49675276170E+02  0.41800000000E+01 0. -1.
         -5    1    3    3    0  502  0.11987027940E+02  0.15003544287E+03 -0.59268203619E+02  0.16181630114E+03  0.41800000000E+01 0. -1.
        -11    1    1    2    0    0 -0.33765102612E+02 -0.28796795002E+02  0.76824245453E+01  0.45037286815E+02  0.00000000000E+00 0.  1.
         11    1    1    2    0    0  0.35985380348E+02 -0.10615216191E+03 -0.33331231876E+02  0.11693673544E+03  0.00000000000E+00 0. -1.
</event>
<event>
 7    1  0.2612213E-009  0.1601100E+03  0.7561462E-02  0.1188573E+00
         -1   -1    0    0    0  501 -0.00000000000E+00  0.00000000000E+00  0.84198232178E+02  0.84198232178E+02  0.00000000000E+00 0.  1.
          1   -1    0    0  501    0  0.00000000000E+00 -0.00000000000E+00 -0.41575919447E+03  0.41575919447E+03  0.00000000000E+00 0. -1.
         25    2    1    2    0    0  0.12248625949E+03 -0.90455908616E+01 -0.54501171454E+02  0.18357993972E+03  0.12508601081E+03 0.  0.
          5    1    3    3  502    0  0.14103221862E+03 -0.31904085326E+02 -0.37946087221E+02  0.14955044394E+03  0.41800000000E+01 0.  1.
         -5    1    3    3    0  502 -0.18545959125E+02  0.22858494465E+02 -0.16555084232E+02  0.34029495779E+02  0.41800000000E+01 0.  1.
        -11    1    1    2    0    0 -0.82457556079E+02 -0.32047151730E+02 -0.11937790891E+03  0.14858449995E+03  0.00000000000E+00 0.  1.
         11    1    1    2    0    0 -0.40028703413E+02  0.41092742592E+02 -0.15768188193E+03  0.16779298698E+03  0.00000000000E+00 0. -1.
</event>
<event>
 7    1  0.2612213E-009  0.1363321E+03  0.7561462E-02  0.1218351E+00
         -2   -1    0    0    0  501 -0.00000000000E+00  0.00000000000E+00  0.21077445202E+03  0.21077445202E+03  0.00000000000E+00 0.  1.
          2   -1    0    0  501    0  0.00000000000E+00 -0.00000000000E+00 -0.11839831564E+03  0.11839831564E+03  0.00000000000E+00 0. -1.
         25    2    1    2    0    0 -0.35746613305E+02  0.99376452277E+02  0.93392342379E+02  0.18847580422E+03  0.12508996574E+03 0.  0.
          5    1    3    3  502    0  0.11982623696E+02 -0.26225911990E+02  0.13655360080E+02  0.32176435310E+02  0.41800000000E+01 0.  1.
         -5    1    3    3    0  502 -0.47729237000E+02  0.12560236427E+03  0.79736982299E+02  0.15629936891E+03  0.41800000000E+01 0.  1.
        -11    1    1    2    0    0  0.22221433122E+02 -0.89845671666E+02  0.36659021961E+02  0.99548584612E+02  0.00000000000E+00 0.  1.
         11    1    1    2    0    0  0.13525180183E+02 -0.95307806117E+01 -0.37675227963E+02  0.41148378827E+02  0.00000000000E+00 0. -1.
</event>
<event>
 7    1  0.2612213E-009  0.1398404E+03  0.7561462E-02  0.1213544E+00
         -1   -1    0    0    0  501 -0.00000000000E+00  0.00000000000E+00  0.44631550904E+02  0.44631550904E+02  0.00000000000E+00 0.  1.
          1   -1    0    0  501    0  0.00000000000E+00 -0.00000000000E+00 -0.46943256606E+03  0.46943256606E+03  0.00000000000E+00 0. -1.
         25    2    1    2    0    0 -0.60697642292E+01 -0.92342437414E+02 -0.27930177952E+03  0.31972002437E+03  0.12508973639E+03 0.  0.
          5    1    3    3  502    0  0.29478027264E+02  0.20103501281E+02 -0.46928056891E+02  0.59100082730E+02  0.41800000000E+01 0.  1.
         -5    1    3    3    0  502 -0.35547791493E+02 -0.11244593869E+03 -0.23237372263E+03  0.26061994164E+03  0.41800000000E+01 0.  1.
        -11    1    1    2    0    0 -0.48441712292E+01 -0.16073254479E+02 -0.71735157854E+01  0.18255816420E+02  0.00000000000E+00 0.  1.
         11    1    1    2    0    0  0.10913935458E+02  0.10841569189E+03 -0.13832571985E+03  0.17608827618E+03  0.00000000000E+00 0. -1.
</event>
<event>
 7    1  0.2612213E-009  0.8951680E+02  0.7561462E-02  0.1304026E+00
          1   -1    0    0  501    0  0.00000000000E+00  0.00000000000E+00  0.49951643546E+03  0.49951643546E+03  0.00000000000E+00 0. -1.
         -1   -1    0    0    0  501 -0.00000000000E+00 -0.00000000000E+00 -0.20004316796E+02  0.20004316796E+02  0.00000000000E+00 0.  1.
         25    2    1    2    0    0 -0.68009506224E+01  0.11966426051E+02  0.33661223361E+03  0.35936390580E+03  0.12508066475E+03 0.  0.
          5    1    3    3  502    0  0.34270808883E+02 -0.43284675356E+02  0.17779988182E+03  0.18622116378E+03  0.41800000000E+01 0.  1.
         -5    1    3    3    0  502 -0.41071759505E+02  0.55251101407E+02  0.15881235179E+03  0.17314274203E+03  0.41800000000E+01 0.  1.
        -11    1    1    2    0    0  0.19423212806E+02 -0.28131737902E+02  0.13311170222E+03  0.13743136884E+03  0.00000000000E+00 0. -1.
         11    1    1    2    0    0 -0.12622262184E+02  0.16165311851E+02  0.97881828422E+01  0.22725477624E+02  0.00000000000E+00 0.  1.
</event>
<event>
 7    1  0.2612213E-009  0.1256225E+03  0.7561462E-02  0.1234100E+00
         -2   -1    0    0    0  501 -0.00000000000E+00  0.00000000000E+00  0.65788621720E+02  0.65788621720E+02  0.00000000000E+00 0.  1.
          2   -1    0    0  501    0  0.00000000000E+00 -0.00000000000E+00 -0.28200514954E+03  0.28200514954E+03  0.00000000000E+00 0. -1.
         25    2    1    2    0    0  0.34227441891E+02 -0.74755465940E+02 -0.13357045394E+03  0.20061894464E+03  0.12508795832E+03 0.  0.
          5    1    3    3  502    0 -0.19396621713E+02 -0.86975982025E+02 -0.55625429898E+02  0.10513187544E+03  0.41800000000E+01 0.  1.
         -5    1    3    3    0  502  0.53624063604E+02  0.12220516085E+02 -0.77945024046E+02  0.95487069199E+02  0.41800000000E+01 0.  1.
        -11    1    1    2    0    0 -0.55434669760E+01  0.77831253869E+02 -0.88237887542E+02  0.11778946856E+03  0.00000000000E+00 0. -1.
         11    1    1    2    0    0 -0.28683974915E+02 -0.30757879290E+01  0.55918136660E+01  0.29385358061E+02  0.00000000000E+00 0.  1.
</event>
<event>
 7    1  0.2612213E-009  0.1446375E+03  0.7561462E-02  0.1207222E+00
         -1   -1    0    0    0  501 -0.00000000000E+00  0.00000000000E+00  0.21400406303E+03  0.21400406303E+03  0.00000000000E+00 0.  1.
          1   -1    0    0  501    0  0.00000000000E+00 -0.00000000000E+00 -0.18588412870E+03  0.18588412870E+03  0.00000000000E+00 0. -1.
         25    2    1    2    0    0  0.83030538846E+02 -0.47811528399E+02 -0.12203939495E+03  0.19929314340E+03  0.12507649842E+03 0.  0.
          5    1    3    3  502    0  0.74713491964E+02 -0.88453506495E+02 -0.89277041966E+02  0.14626684968E+03  0.41800000000E+01 0.  1.
         -5    1    3    3    0  502  0.83170468823E+01  0.40641978096E+02 -0.32762352989E+02  0.53026293721E+02  0.41800000000E+01 0.  1.
        -11    1    1    2    0    0 -0.25360124566E+02 -0.27143428167E+02  0.55523795130E+02  0.66804142358E+02  0.00000000000E+00 0.  1.
         11    1    1    2    0    0 -0.57670414280E+02  0.74954956565E+02  0.94635534151E+02  0.13379090597E+03  0.00000000000E+00 0. -1.
</event>
<event>
 7    1  0.3350559E-009  0.1560894E+03  0.7561462E-02  0.1193184E+00
          4   -1    0    0  501    0  0.00000000000E+00  0.00000000000E+00  0.23912590492E+03  0.23912590492E+03  0.00000000000E+00 0. -1.
         -4   -1    0    0    0  501 -0.00000000000E+00 -0.00000000000E+00 -0.15241003815E+03  0.15241003815E+03  0.00000000000E+00 0.  1.
         25    2    1    2    0    0 -0.73292031650E+02  0.10780482105E+03 -0.43463481351E+02  0.18582566388E+03  0.12509397188E+03 0.  0.
          5    1    3    3  502    0 -0.35071885473E+02  0.13011780418E+03 -0.42483637340E+02  0.14136128168E+03  0.41800000000E+01 0.  1.
         -5    1    3    3    0  502 -0.38220146178E+02 -0.22312983138E+02 -0.97984401145E+00  0.44464382202E+02  0.41800000000E+01 0.  1.
        -11    1    1    2    0    0  0.41028833897E+02 -0.37670557096E+02  0.11393387294E+03  0.12682020141E+03  0.00000000000E+00 0. -1.
         11    1    1    2    0    0  0.32263197753E+02 -0.70134263951E+02  0.16245475183E+02  0.78890077786E+02  0.00000000000E+00 0.  1.
</event>
<event>
 7    1  0.2612213E-009  0.6494715E+02  0.7561462E-02  0.1378170E+00
          2   -1    0    0  501    0  0.00000000000E+00  0.00000000000E+00  0.21237220034E+03  0.21237220034E+03  0.00000000000E+00 0.  1.
         -2   -1    0    0    0  501 -0.00000000000E+00 -0.00000000000E+00 -0.57098143669E+02  0.57098143669E+02  0.00000000000E+00 0. -1.
         25    2    1    2    0    0  0.10526019027E+02  0.22420617834E+02  0.76850299084E+02  0.14889386404E+03  0.12509969264E+03 0.  0.
          5    1    3    3  502    0 -0.32497916973E+01  0.26671912433E+02  0.10957079179E+03  0.11289456529E+03  0.41800000000E+01 0.  1.
         -5    1    3    3    0  502  0.13775810724E+02 -0.42512945991E+01 -0.32720492709E+02  0.35999298743E+02  0.41800000000E+01 0.  1.
        -11    1    1    2    0    0 -0.42033290976E+02  0.92268221544E+01  0.55942548882E+02  0.70579746193E+02  0.00000000000E+00 0. -1.
         11    1    1    2    0    0  0.31507271949E+02 -0.31647439988E+02  0.22481208701E+02  0.49996733774E+02  0.00000000000E+00 0.  1.
</event>
<event>
 7    1  0.2612213E-009  0.1657948E+03  0.7561462E-02  0.1182306E+00
          1   -1    0    0  501    0  0.00000000000E+00  0.00000000000E+00  0.18606112219E+03  0.18606112219E+03  0.00000000000E+00 0. -1.
         -1   -1    0    0    0  501 -0.00000000000E+00 -0.00000000000E+00 -0.18044796914E+03  0.18044796914E+03  0.00000000000E+00 0.  1.
         25    2    1    2    0    0 -0.17787265329E+02 -0.13235946233E+03  0.57015219750E+02  0.19165914464E+03  0.12508828228E+03 0.  0.
          5    1    3    3  502    0 -0.60302276859E+02 -0.10448693221E+03  0.69302897459E+02  0.13919140632E+03  0.41800000000E+01 0. -1.
         -5    1    3    3    0  502  0.42515011529E+02 -0.27872530123E+02 -0.12287677709E+02  0.52467738318E+02  0.41800000000E+01 0. -1.
        -11    1    1    2    0    0  0.36333285629E+02  0.12259711957E+02  0.86337390369E+01  0.39305847296E+02  0.00000000000E+00 0. -1.
         11    1    1    2    0    0 -0.18546020300E+02  0.12009975038E+03 -0.60035805742E+02  0.13554409939E+03  0.00000000000E+00 0.  1.
</event>
<event>
 7    1  0.2612213E-009  0.8383749E+02  0.7561462E-02  0.1318501E+00
          1   -1    0    0  501    0  0.00000000000E+00  0.00000000000E+00  0.65779488880E+02  0.65779488880E+02  0.00000000000E+00 0. -1.
         -1   -1    0    0    0  501 -0.00000000000E+00 -0.00000000000E+00 -0.22988226101E+03  0.22988226101E+03  0.00000000000E+00 0.  1.
         25    2    1    2    0    0  0.36500714645E+02  0.45730362044E+02 -0.10634628433E+03  0.17429901976E+03  0.12508816058E+03 0.  0.
          5    1    3    3  502    0 -0.46990217282E+01  0.39603934302E+02  0.17363755123E+02  0.43698109907E+02  0.41800000000E+01 0. -1.
         -5    1    3    3    0  502  0.41199736373E+02  0.61264277416E+01 -0.12371003945E+03  0.13060090986E+03  0.41800000000E+01 0. -1.
        -11    1    1    2    0    0  0.13029197248E+02  0.57792395493E+01 -0.46980842416E+02  0.49095408592E+02  0.00000000000E+00 0.  1.
         11    1    1    2    0    0 -0.49529911893E+02 -0.51509601593E+02 -0.10775645385E+02  0.72267321535E+02  0.00000000000E+00 0. -1.
</event>
<event>
 7    1  0.2612213E-009  0.1763649E+03  0.7561462E-02  0.1171368E+00
         -1   -1    0    0    0  501 -0.00000000000E+00  0.00000000000E+00  0.12593708680E+03  0.12593708680E+03  0.00000000000E+00 0.  1.
          1   -1    0    0  501    0  0.00000000000E+00 -0.00000000000E+00 -0.30487661204E+03  0.30487661204E+03  0.00000000000E+00 0. -1.
         25    2    1    2    0    0  0.97069226486E+02  0.12700867565E+03 -0.60810734206E+02  0.21189482533E+03  0.12509129940E+03 0.  0.
          5    1    3    3  502    0  0.95643101114E+02  0.52088304319E+02 -0.79077551339E+02  0.13465335407E+03  0.41800000000E+01 0.  1.
         -5    1    3    3    0  502  0.14261253721E+01  0.74920371330E+02  0.18266817133E+02  0.77241471257E+02  0.41800000000E+01 0.  1.
        -11    1    1    2    0    0 -0.57762647402E+02 -0.32367973834E+02 -0.51902570854E+01  0.66416473360E+02  0.00000000000E+00 0.  1.
         11    1    1    2    0    0 -0.39306579085E+02 -0.94640701815E+02 -0.11293853395E+03  0.15250240015E+03  0.00000000000E+00 0. -1.
</event>
<event>
 7    1  0.2612213E-009  0.1028523E+03  0.7561462E-02  0.1274410E+00
          4   -1    0    0  501    0  0.00000000000E+00  0.00000000000E+00  0.15211110553E+03  0.15211110553E+03  0.00000000000E+00 0. -1.
         -4   -1    0    0    0  501 -0.00000000000E+00 -0.00000000000E+00 -0.11362057877E+03  0.11362057877E+03  0.00000000000E+00 0.  1.
         25    2    1    2    0    0  0.31338337896E+02 -0.70109468949E+01  0.88909775928E+02  0.15679426230E+03  0.12509295598E+03 0.  0.
          5    1    3    3  502    0 -0.21695665214E+02 -0.44163503054E+02  0.34642956666E+01  0.49503440644E+02  0.41800000000E+01 0. -1.
         -5    1    3    3    0  502  0.53034003110E+02  0.37152556159E+02  0.85445480262E+02  0.10729082166E+03  0.41800000000E+01 0. -1.
        -11    1    1    2    0    0 -0.61096861308E+02  0.82458585742E+01 -0.16546893877E+02  0.63832752897E+02  0.00000000000E+00 0.  1.
         11    1    1    2    0    0  0.29758523412E+02 -0.12349116793E+01 -0.33872355289E+02  0.45104669108E+02  0.00000000000E+00 0. -1.
</event>
<event>
 7    1  0.2612213E-009  0.9219836E+02  0.7561462E-02  0.1297614E+00
          2   -1    0    0  501    0  0.00000000000E+00  0.00000000000E+00  0.15669118473E+03  0.15669118473E+03  0.00000000000E+00 0. -1.
         -2   -1    0    0    0  501 -0.00000000000E+00 -0.00000000000E+00 -0.84509807337E+02  0.84509807337E+02  0.00000000000E+00 0.  1.
         25    2    1    2    0    0 -0.38976125350E+02  0.96016390057E+01  0.40876833836E+02  0.13758602852E+03  0.12509064666E+03 0.  0.
          5    1    3    3  502    0 -0.32033789228E+02 -0.36176053862E+02 -0.26851240134E+02  0.55437640841E+02  0.41800000000E+01 0.  1.
         -5    1    3    3    0  502 -0.69423361219E+01  0.45777692868E+02  0.67728073970E+02  0.82148387682E+02  0.41800000000E+01 0.  1.
        -11    1    1    2    0    0  0.47908810915E+02  0.24741665421E+02  0.39930258275E+02  0.67095675695E+02  0.00000000000E+00 0. -1.
         11    1    1    2    0    0 -0.89326855647E+01 -0.34343304427E+02 -0.86257147206E+01  0.36519287846E+02  0.00000000000E+00 0.  1.
</event>
<event>
 7    1  0.2612213E-009  0.2140492E+03  0.7561462E-02  0.1138399E+00
          3   -1    0    0  501    0  0.00000000000E+00  0.00000000000E+00  0.34719158629E+03  0.34719158629E+03  0.00000000000E+00 0. -1.
         -3   -1    0    0    0  501 -0.00000000000E+00 -0.00000000000E+00 -0.15198129564E+03  0.15198129564E+03  0.00000000000E+00 0.  1.
         25    2    1    2    0    0 -0.30734690156E+02  0.18358782438E+03  0.14304378305E+02  0.22472494413E+03  0.12509026674E+03 0.  0.
          5    1    3    3  502    0 -0.77342377305E+02  0.13173694211E+03 -0.26859530160E+01  0.15284355396E+03  0.41800000000E+01 0. -1.
         -5    1    3    3    0  502  0.46607687149E+02  0.51850882271E+02  0.16990331321E+02  0.71881390165E+02  0.41800000000E+01 0. -1.
        -11    1    1    2    0    0  0.58432679266E+02 -0.85862336819E+02  0.78292744722E+02  0.13006334136E+03  0.00000000000E+00 0.  1.
         11    1    1    2    0    0 -0.27697989109E+02 -0.97725487564E+02  0.10261316762E+03  0.14438459644E+03  0.00000000000E+00 0. -1.
</event>
<event>
 7    1  0.2612213E-009  0.1057885E+03  0.7561462E-02  0.1268574E+00
         -3   -1    0    0    0  501 -0.00000000000E+00  0.00000000000E+00  0.16144116894E+03  0.16144116894E+03  0.00000000000E+00 0.  1.
          3   -1    0    0  501    0  0.00000000000E+00 -0.00000000000E+00 -0.78739486623E+02  0.78739486623E+02  0.00000000000E+00 0. -1.
         25    2    1    2    0    0 -0.16288774946E+02 -0.24611126399E+02  0.62578992661E+02  0.14295625467E+03  0.12509727692E+03 0.  0.
          5    1    3    3  502    0 -0.57526284125E+02 -0.48222449352E+02  0.17212433676E+02  0.77125989522E+02  0.41800000000E+01 0.  1.
         -5    1    3    3    0  502  0.41237509179E+02  0.23611322952E+02  0.45366558985E+02  0.65830265144E+02  0.41800000000E+01 0.  1.
        -11    1    1    2    0    0  0.49110090749E+02  0.26068936353E+01 -0.64578243267E+01  0.49601415331E+02  0.00000000000E+00 0. -1.
         11    1    1    2    0    0 -0.32821315803E+02  0.22004232764E+02  0.26580513980E+02  0.47622985564E+02  0.00000000000E+00 0.  1.
</event>
<event>
 7    1  0.2612213E-009  0.1527906E+03  0.7561462E-02  0.1197085E+00
          2   -1    0    0  501    0  0.00000000000E+00  0.00000000000E+00  0.85510644848E+03  0.85510644848E+03  0.00000000000E+00 0. -1.
         -2   -1    0    0    0  501 -0.00000000000E+00 -0.00000000000E+00 -0.33134015100E+02  0.33134015100E+02  0.00000000000E+00 0.  1.
         25    2    1    2    0    0 -0.80507687321E+02  0.74455738906E+02  0.26493771868E+03  0.31282340255E+03  0.12506534945E+03 0.  0.
          5    1    3    3  502    0 -0.42780281950E+02  0.10461838563E+03  0.21664454694E+03  0.24439208509E+03  0.41800000000E+01 0.  1.
         -5    1    3    3    0  502 -0.37727405371E+02 -0.30162646723E+02  0.48293171740E+02  0.68431317466E+02  0.41800000000E+01 0.  1.
        -11    1    1    2    0    0 -0.83199559561E-02 -0.62610856368E+02  0.26036599022E+03  0.26778829002E+03  0.00000000000E+00 0. -1.
         11    1    1    2    0    0  0.80516007277E+02 -0.11844882539E+02  0.29666872448E+03  0.30762877101E+03  0.00000000000E+00 0.  1.
</event>
<event>
 7    1  0.2612213E-009  0.1681013E+03  0.7561462E-02  0.1179842E+00
         -3   -1    0    0    0  501 -0.00000000000E+00  0.00000000000E+00  0.61398189600E+03  0.61398189600E+03  0.00000000000E+00 0.  1.
          3   -1    0    0  501    0  0.00000000000E+00 -0.00000000000E+00 -0.52812015804E+02  0.52812015804E+02  0.00000000000E+00 0. -1.
         25    2    1    2    0    0  0.12252493941E+03  0.56228127985E+02  0.38976503143E+03  0.43097342793E+03  0.12508937884E+03 0.  0.
          5    1    3    3  502    0 -0.17855282333E+02  0.28578440361E+02  0.13022363307E+03  0.13457787846E+03  0.41800000000E+01 0. -1.
         -5    1    3    3    0  502  0.14038022174E+03  0.27649687624E+02  0.25954139836E+03  0.29639554947E+03  0.41800000000E+01 0. -1.
        -11    1    1    2    0    0 -0.12770424302E+03 -0.28428370608E+02  0.12195586821E+03  0.17885686940E+03  0.00000000000E+00 0. -1.
         11    1    1    2    0    0  0.51793036154E+01 -0.27799757377E+02  0.49448980558E+02  0.56963614478E+02  0.00000000000E+00 0.  1.
</event>
<event>
 7    1  0.2612213E-009  0.1213762E+03  0.7561462E-02  0.1240844E+00
          1   -1    0    0  501    0  0.00000000000E+00  0.00000000000E+00  0.36651184073E+02  0.36651184073E+02  0.00000000000E+00 0. -1.
         -1   -1    0    0    0  501 -0.00000000000E+00 -0.00000000000E+00 -0.41007371187E+03  0.41007371187E+03  0.00000000000E+00 0.  1.
         25    2    1    2    0    0 -0.17962012726E+02 -0.56694111151E+02 -0.20593331490E+03  0.24818010199E+03  0.12509187303E+03 0.  0.
          5    1    3    3  502    0 -0.60468929320E+02  0.64325892092E+01 -0.74632964221E+02  0.96360891266E+02  0.41800000000E+01 0. -1.
         -5    1    3    3    0  502  0.42506916594E+02 -0.63126700361E+02 -0.13130035068E+03  0.15181921072E+03  0.41800000000E+01 0. -1.
        -11    1    1    2    0    0 -0.12962171319E+02  0.70523315591E+02 -0.12608731638E+03  0.14505022330E+03  0.00000000000E+00 0. -1.
         11    1    1    2    0    0  0.30924184045E+02 -0.13829204440E+02 -0.41401896519E+02  0.53494570656E+02  0.00000000000E+00 0.  1.
</event>
<event>
 7    1  0.2612213E-009  0.1607119E+03  0.7561462E-02  0.1187895E+00
          2   -1    0    0  501    0  0.00000000000E+00  0.00000000000E+00  0.77450715895E+02  0.77450715895E+02  0.00000000000E+00 0. -1.
         -2   -1    0    0    0  501 -0.00000000000E+00 -0.00000000000E+00 -0.45146955226E+03  0.45146955226E+03  0.00000000000E+00 0.  1.
         25    2    1    2    0    0 -0.10961465150E+03 -0.99870234294E+02 -0.16319631785E+03  0.25351777090E+03  0.12509510974E+03 0.  0.
          5    1    3    3  502    0 -0.58715381513E+02 -0.21173165787E+01 -0.12256084629E+03  0.13598019157E+03  0.41800000000E+01 0. -1.
         -5    1    3    3    0  502 -0.50899269987E+02 -0.97752917715E+02 -0.40635471565E+02  0.11753757934E+03  0.41800000000E+01 0. -1.
        -11    1    1    2    0    0  0.71656162252E+02  0.85711467663E+02 -0.20633904437E+03  0.23464198795E+03  0.00000000000E+00 0.  1.
         11    1    1    2    0    0  0.37958489248E+02  0.14158766630E+02 -0.44834741472E+01  0.40760509307E+02  0.00000000000E+00 0. -1.
</event>
<event>
 7    1  0.2612213E-009  0.7276664E+02  0.7561462E-02  0.1350930E+00
          1   -1    0    0  501    0  0.00000000000E+00  0.00000000000E+00  0.25619199322E+03  0.25619199322E+03  0.00000000000E+00 0. -1.
         -1   -1    0    0    0  501 -0.00000000000E+00 -0.00000000000E+00 -0.71045409334E+02  0.71045409334E+02  0.00000000000E+00 0.  1.
         25    2    1    2    0    0 -0.34251492181E+02 -0.40629141913E+02  0.28652387132E+02  0.13889681796E+03  0.12508986714E+03 0.  0.
          5    1    3    3  502    0 -0.53808126878E+02 -0.23765392329E+02  0.69027714015E+02  0.90787697915E+02  0.41800000000E+01 0.  1.
         -5    1    3    3    0  502  0.19556634697E+02 -0.16863749584E+02 -0.40375326883E+02  0.48109120046E+02  0.41800000000E+01 0.  1.
        -11    1    1    2    0    0  0.77949583696E+01  0.31446076381E+02  0.15702324149E+03  0.16033064418E+03  0.00000000000E+00 0. -1.
         11    1    1    2    0    0  0.26456533811E+02  0.91830655320E+01 -0.52904472922E+00  0.28009940418E+02  0.00000000000E+00 0.  1.
</event>
<event>
 7    1  0.2612213E-009  0.8425385E+02  0.7561462E-02  0.1317395E+00
          2   -1    0    0  501    0  0.00000000000E+00  0.00000000000E+00  0.32141145873E+02  0.32141145873E+02  0.00000000000E+00 0. -1.
         -2   -1    0    0    0  501 -0.00000000000E+00 -0.00000000000E+00 -0.46966734239E+03  0.46966734239E+03  0.00000000000E+00 0.  1.
         25    2    1    2    0    0 -0.90173159823E+01 -0.73813413144E+01 -0.35585074262E+03  0.37737552864E+03  0.12508693939E+03 0.  0.
          5    1    3    3  502    0  0.21704732967E+01  0.43967362270E+02 -0.28838061701E+03  0.29175107981E+03  0.41800000000E+01 0.  1.
         -5    1    3    3    0  502 -0.11187789279E+02 -0.51348703585E+02 -0.67470125610E+02  0.85624448837E+02  0.41800000000E+01 0.  1.
        -11    1    1    2    0    0  0.38470670193E+02 -0.64880894718E+01 -0.28132185375E+01  0.39115239596E+02  0.00000000000E+00 0. -1.
         11    1    1    2    0    0 -0.29453354211E+02  0.13869430786E+02 -0.78862235354E+02  0.85317720021E+02  0.00000000000E+00 0.  1.
</event>
<event>
 7    1  0.2612213E-009  0.1134498E+03  0.7561462E-02  0.1254311E+00
         -2   -1    0    0    0  501 -0.00000000000E+00  0.00000000000E+00  0.37788912603E+02  0.37788912603E+02  0.00000000000E+00 0.  1.
          2   -1    0    0  501    0  0.00000000000E+00 -0.00000000000E+00 -0.39678307217E+03  0.39678307217E+03  0.00000000000E+00 0. -1.
         25    2    1    2    0    0 -0.55025826684E+02 -0.94180686073E+01 -0.22230994872E+03  0.26112338430E+03  0.12508863621E+03 0.  0.
          5    1    3    3  502    0 -0.50712519218E+02  0.51814473625E+02 -0.93647308022E+02  0.11850649764E+03  0.41800000000E+01 0. -1.
         -5    1    3    3    0  502 -0.43133074653E+01 -0.61232542232E+02 -0.12866264070E+03  0.14261688666E+03  0.41800000000E+01 0. -1.
        -11    1    1    2    0    0  0.75213048307E+01  0.37042612195E+02 -0.16393946794E+02  0.41200565968E+02  0.00000000000E+00 0.  1.
         11    1    1    2    0    0  0.47504521853E+02 -0.27624543588E+02 -0.12029026405E+03  0.13224803451E+03  0.00000000000E+00 0. -1.
</event>
<event>
 7    1  0.2612213E-009  0.7750343E+02  0.7561462E-02  0.1336289E+00
         -1   -1    0    0    0  501 -0.00000000000E+00  0.00000000000E+00  0.21268898543E+03  0.21268898543E+03  0.00000000000E+00 0.  1.
          1   -1    0    0  501    0  0.00000000000E+00 -0.00000000000E+00 -0.60676460277E+02  0.60676460277E+02  0.00000000000E+00 0. -1.
         25    2    1    2    0    0 -0.55642168234E+01  0.10794531566E+02  0.12261581036E+03  0.17557983004E+03  0.12508460076E+03 0.  0.
          5    1    3    3  502    0 -0.49533426171E+02  0.42057013165E+02  0.94050002115E+02  0.11439068127E+03  0.41800000000E+01 0. -1.
         -5    1    3    3    0  502  0.43969209347E+02 -0.31262481599E+02  0.28565808246E+02  0.61189148769E+02  0.41800000000E+01 0. -1.
        -11    1    1    2    0    0  0.40921590262E+01 -0.23063628880E+02 -0.29464748553E+02  0.37641043422E+02  0.00000000000E+00 0. -1.
         11    1    1    2    0    0  0.14720577972E+01  0.12269097314E+02  0.58861463345E+02  0.60144572242E+02  0.00000000000E+00 0.  1.
</event>
<event>
 7    1  0.2612213E-009  0.9883526E+02  0.7561462E-02  0.1282764E+00
          4   -1    0    0  501    0  0.00000000000E+00  0.00000000000E+00  0.79285173977E+02  0.79285173977E+02  0.00000000000E+00 0.  1.
         -4   -1    0    0    0  501 -0.00000000000E+00 -0.00000000000E+00 -0.23169584121E+03  0.23169584121E+03  0.00000000000E+00 0. -1.
         25    2    1    2    0    0 -0.76777887194E+02  0.29855464028E+02 -0.48595138427E+02  0.15746588370E+03  0.12509126410E+03 0.  0.
          5    1    3    3  502    0 -0.79010988986E+02  0.45715835612E+01  0.22065989850E+02  0.82267952843E+02  0.41800000000E+01 0. -1.
         -5    1    3    3    0  502  0.22331017923E+01  0.25283880467E+02 -0.70661128277E+02  0.75197930852E+02  0.41800000000E+01 0. -1.
        -11    1    1    2    0    0  0.13481232122E+02 -0.25989913214E+02  0.28562292147E+01  0.29417295147E+02  0.00000000000E+00 0.  1.
         11    1    1    2    0    0  0.63296655072E+02 -0.38655508142E+01 -0.10667175802E+03  0.12409783634E+03  0.00000000000E+00 0. -1.
</event>
<event>
 7    1  0.2612213E-009  0.1132098E+03  0.7561462E-02  0.1254739E+00
         -1   -1    0    0    0  501 -0.00000000000E+00  0.00000000000E+00  0.70017044491E+02  0.70017044491E+02  0.00000000000E+00 0.  1.
          1   -1    0    0  501    0  0.00000000000E+00 -0.00000000000E+00 -0.39204920414E+03  0.39204920414E+03  0.00000000000E+00 0. -1.
         25    2    1    2    0    0  0.51612040753E+02 -0.16222228844E+02 -0.14927929217E+02  0.13710371803E+03  0.12509045913E+03 0.  0.
          5    1    3    3  502    0 -0.21646813257E+02  0.33598951570E+02 -0.25786660388E+02  0.47748280857E+02  0.41800000000E+01 0. -1.
         -5    1    3    3    0  502  0.73258854011E+02 -0.49821180414E+02  0.10858731172E+02  0.89355437168E+02  0.41800000000E+01 0. -1.
        -11    1    1    2    0    0 -0.12100551738E+02  0.46317614683E+02 -0.21556666732E+03  0.22081832542E+03  0.00000000000E+00 0. -1.
         11    1    1    2    0    0 -0.39511489015E+02 -0.30095385839E+02 -0.91537563111E+02  0.10414420518E+03  0.00000000000E+00 0.  1.
</event>
<event>
 7    1  0.2612213E-009  0.1058271E+03  0.7561462E-02  0.1268498E+00
          2   -1    0    0  501    0  0.00000000000E+00  0.00000000000E+00  0.67741327288E+02  0.67741327288E+02  0.00000000000E+00 0. -1.
         -2   -1    0    0    0  501 -0.00000000000E+00 -0.00000000000E+00 -0.24979135171E+03  0.24979135171E+03  0.00000000000E+00 0.  1.
         25    2    1    2    0    0  0.66723236477E+02 -0.10717933752E+02 -0.13211794295E+03  0.19408776543E+03  0.12509214784E+03 0.  0.
          5    1    3    3  502    0  0.35119391478E+02 -0.45671067985E+02 -0.13485037617E+03  0.14670144670E+03  0.41800000000E+01 0.  1.
         -5    1    3    3    0  502  0.31603844999E+02  0.34953134233E+02  0.27324332291E+01  0.47386318730E+02  0.41800000000E+01 0.  1.
        -11    1    1    2    0    0 -0.19228547000E+02  0.44381378723E+02 -0.43183341688E+02  0.64840148029E+02  0.00000000000E+00 0.  1.
         11    1    1    2    0    0 -0.47494689477E+02 -0.33663444971E+02 -0.67487397928E+01  0.58604765545E+02  0.00000000000E+00 0. -1.
</event>
<event>
 7    1  0.2612213E-009  0.3214999E+03  0.7561462E-02  0.1074961E+00
         -2   -1    0    0    0  501 -0.00000000000E+00  0.00000000000E+00  0.48314727643E+03  0.48314727643E+03  0.00000000000E+00 0.  1.
          2   -1    0    0  501    0  0.00000000000E+00 -0.00000000000E+00 -0.25540749924E+03  0.25540749924E+03  0.00000000000E+00 0. -1.
         25    2    1    2    0    0  0.52779143376E+02  0.31114870952E+03  0.29180233864E+02  0.34073170459E+03  0.12508977197E+03 0.  0.
          5    1    3    3  502    0 -0.39003811835E+00  0.69604945121E+02 -0.44389434119E+02  0.82661325761E+02  0.41800000000E+01 0.  1.
         -5    1    3    3    0  502  0.53169181495E+02  0.24154376440E+03  0.73569667983E+02  0.25807037883E+03  0.41800000000E+01 0.  1.
        -11    1    1    2    0    0  0.13842269787E+02 -0.16157506882E+03  0.16367711057E+03  0.23040900117E+03  0.00000000000E+00 0. -1.
         11    1    1    2    0    0 -0.66621413163E+02 -0.14957364071E+03  0.34882432749E+02  0.16741406990E+03  0.00000000000E+00 0.  1.
</event>
<event>
 7    1  0.2612213E-009  0.1273019E+03  0.7561462E-02  0.1231515E+00
         -2   -1    0    0    0  501 -0.00000000000E+00  0.00000000000E+00  0.86336211918E+02  0.86336211918E+02  0.00000000000E+00 0.  1.
          2   -1    0    0  501    0  0.00000000000E+00 -0.00000000000E+00 -0.20440625018E+03  0.20440625018E+03  0.00000000000E+00 0. -1.
         25    2    1    2    0    0 -0.33495354867E+02 -0.68587088310E+02 -0.78725703549E+02  0.16634830550E+03  0.12509154592E+03 0.  0.
          5    1    3    3  502    0  0.19925251578E+02  0.25202570958E+02  0.48210600639E+00  0.32402007030E+02  0.41800000000E+01 0.  1.
         -5    1    3    3    0  502 -0.53420606444E+02 -0.93789659268E+02 -0.79207809555E+02  0.13394629847E+03  0.41800000000E+01 0.  1.
        -11    1    1    2    0    0 -0.25151782472E+02  0.43821143835E+02 -0.19538679752E+01  0.50564042645E+02  0.00000000000E+00 0.  1.
         11    1    1    2    0    0  0.58647137339E+02  0.24765944475E+02 -0.37390466736E+02  0.73830113954E+02  0.00000000000E+00 0. -1.
</event>
<event>
 7    1  0.2612213E-009  0.1757374E+03  0.7561462E-02  0.1171993E+00
          1   -1    0    0  501    0  0.00000000000E+00  0.00000000000E+00  0.27795115771E+03  0.27795115771E+03  0.00000000000E+00 0. -1.
         -1   -1    0    0    0  501 -0.00000000000E+00 -0.00000000000E+00 -0.11880314767E+03  0.11880314767E+03  0.00000000000E+00 0.  1.
         25    2    1    2    0    0  0.12599119041E+03  0.60996767603E+02  0.46840431176E+02  0.19348319426E+03  0.12508930709E+03 0.  0.
          5    1    3    3  502    0  0.22260451587E+02  0.76441942919E+02  0.31320059363E+01  0.79788346287E+02  0.41800000000E+01 0. -1.
         -5    1    3    3    0  502  0.10373073883E+03 -0.15445175316E+02  0.43708425239E+02  0.11369484797E+03  0.41800000000E+01 0. -1.
        -11    1    1    2    0    0 -0.10009461835E+03 -0.85123729284E+02  0.10219820469E+03  0.16646157199E+03  0.00000000000E+00 0. -1.
         11    1    1    2    0    0 -0.25896572065E+02  0.24126961681E+02  0.10109374176E+02  0.36809539129E+02  0.00000000000E+00 0.  1.
</event>
<event>
 7    1  0.2612213E-009  0.1220600E+03  0.7561462E-02  0.1239737E+00
          1   -1    0    0  501    0  0.00000000000E+00  0.00000000000E+00  0.27937309823E+02  0.27937309823E+02  0.00000000000E+00 0. -1.
         -1   -1    0    0    0  501 -0.00000000000E+00 -0.00000000000E+00 -0.69023462910E+03  0.69023462910E+03  0.00000000000E+00 0.  1.
         25    2    1    2    0    0 -0.55095684539E+02 -0.59963388745E+02 -0.27495728566E+03  0.31285815937E+03  0.12509027342E+03 0.  0.
          5    1    3    3  502    0 -0.77837110158E+02 -0.11744026838E+02 -0.86817433073E+02  0.11726583889E+03  0.41800000000E+01 0. -1.
         -5    1    3    3    0  502  0.22741425619E+02 -0.48219361907E+02 -0.18813985258E+03  0.19559232048E+03  0.41800000000E+01 0. -1.
        -11    1    1    2    0    0  0.69458179943E+02  0.24667936907E+02 -0.31547235434E+03  0.32396875193E+03  0.00000000000E+00 0.  1.
         11    1    1    2    0    0 -0.14362495404E+02  0.35295451838E+02 -0.71867679281E+02  0.81345027629E+02  0.00000000000E+00 0. -1.
</event>
<event>
 7    1  0.2612213E-009  0.1036431E+03  0.7561462E-02  0.1272816E+00
          1   -1    0    0  501    0  0.00000000000E+00  0.00000000000E+00  0.77829084641E+03  0.77829084641E+03  0.00000000000E+00 0. -1.
         -1   -1    0    0    0  501 -0.00000000000E+00 -0.00000000000E+00 -0.26844919065E+02  0.26844919065E+02  0.00000000000E+00 0.  1.
         25    2    1    2    0    0  0.11589912334E+02 -0.85735938694E+01  0.66862320070E+03  0.68037281761E+03  0.12506939616E+03 0.  0.
          5    1    3    3  502    0 -0.51114859027E+02 -0.29580605815E+02  0.34370545638E+03  0.34876733534E+03  0.41800000000E+01 0. -1.
         -5    1    3    3    0  502  0.62704771361E+02  0.21007011945E+02  0.32491774431E+03  0.33160548227E+03  0.41800000000E+01 0. -1.
        -11    1    1    2    0    0 -0.36110935073E+01 -0.36180185965E+02  0.67713972461E+02  0.76858492824E+02  0.00000000000E+00 0. -1.
         11    1    1    2    0    0 -0.79788188270E+01  0.44753779834E+02  0.15108754186E+02  0.47904455037E+02  0.00000000000E+00 0.  1.
</event>
<event>
 7    1  0.2612213E-009  0.1730341E+03  0.7561462E-02  0.1174720E+00
          2   -1    0    0  501    0  0.00000000000E+00  0.00000000000E+00  0.24170673813E+03  0.24170673813E+03  0.00000000000E+00 0.  1.
         -2   -1    0    0    0  501 -0.00000000000E+00 -0.00000000000E+00 -0.37555724673E+03  0.37555724673E+03  0.00000000000E+00 0. -1.
         25    2    1    2    0    0 -0.15870362152E+03  0.72803436558E+01 -0.30542220823E+03  0.36629276635E+03  0.12509125674E+03 0.  0.
          5    1    3    3  502    0 -0.14425287447E+03 -0.22794722046E+02 -0.29795225960E+03  0.33184561553E+03  0.41800000000E+01 0. -1.
         -5    1    3    3    0  502 -0.14450747052E+02  0.30075065702E+02 -0.74699486349E+01  0.34447150824E+02  0.41800000000E+01 0. -1.
        -11    1    1    2    0    0  0.72992633174E+02  0.21217383689E+02  0.27320281891E+02  0.80774375088E+02  0.00000000000E+00 0. -1.
         11    1    1    2    0    0  0.85710988350E+02 -0.28497727345E+02  0.14425141774E+03  0.17019684342E+03  0.00000000000E+00 0.  1.
</event>
<event>
 7    1  0.2612213E-009  0.2362231E+03  0.7561462E-02  0.1122335E+00
         -3   -1    0    0    0  501 -0.00000000000E+00  0.00000000000E+00  0.85210828737E+02  0.85210828737E+02  0.00000000000E+00 0.  1.
          3   -1    0    0  501    0  0.00000000000E+00 -0.00000000000E+00 -0.74654207027E+03  0.74654207027E+03  0.00000000000E+00 0. -1.
         25    2    1    2    0    0 -0.14504469256E+03 -0.16417697561E+03 -0.24049244777E+03  0.34853435792E+03  0.12509012374E+03 0.  0.
          5    1    3    3  502    0 -0.13745486421E+03 -0.79961649555E+02 -0.11157616873E+03  0.19430496371E+03  0.41800000000E+01 0. -1.
         -5    1    3    3    0  502 -0.75898283519E+01 -0.84215326057E+02 -0.12891627904E+03  0.15422939421E+03  0.41800000000E+01 0. -1.
        -11    1    1    2    0    0  0.10044829515E+03  0.15250219538E+03 -0.38013138462E+03  0.42171868487E+03  0.00000000000E+00 0. -1.
         11    1    1    2    0    0  0.44596397415E+02  0.11674780232E+02 -0.40707409145E+02  0.61499856221E+02  0.00000000000E+00 0.  1.
</event>
<event>
 7    1  0.2612213E-009  0.9731552E+02  0.7561462E-02  0.1286044E+00
         -1   -1    0    0    0  501 -0.00000000000E+00  0.00000000000E+00  0.10293616526E+03  0.10293616526E+03  0.00000000000E+00 0.  1.
          1   -1    0    0  501    0  0.00000000000E+00 -0.00000000000E+00 -0.13750340370E+03  0.13750340370E+03  0.00000000000E+00 0. -1.
         25    2    1    2    0    0  0.15646150109E+02  0.26609561809E+02 -0.57444369980E+02  0.14106610514E+03  0.12508764761E+03 0.  0.
          5    1    3    3  502    0  0.63671517748E+02  0.32551603197E+02 -0.85393105361E+01  0.72139179836E+02  0.41800000000E+01 0.  1.
         -5    1    3    3    0  502 -0.48025367638E+02 -0.59420413882E+01 -0.48905059444E+02  0.68926925304E+02  0.41800000000E+01 0.  1.
        -11    1    1    2    0    0 -0.87769942151E+00  0.22820902391E+02 -0.21468304188E+02  0.31344090782E+02  0.00000000000E+00 0. -1.
         11    1    1    2    0    0 -0.14768450688E+02 -0.49430464200E+02  0.44345435725E+02  0.68029373041E+02  0.00000000000E+00 0.  1.
</event>
<event>
 7    1  0.3289593E-009  0.7028738E+02  0.7561462E-02  0.1359119E+00
          1   -1    0    0  501    0  0.00000000000E+00  0.00000000000E+00  0.41881727917E+03  0.41881727917E+03  0.00000000000E+00 0. -1.
         -1   -1    0    0    0  501 -0.00000000000E+00 -0.00000000000E+00 -0.53634520410E+02  0.53634520410E+02  0.00000000000E+00 0.  1.
         25    2    1    2    0    0  0.46622746451E+00  0.22063004869E+02  0.35618441084E+03  0.37815543546E+03  0.12508878964E+03 0.  0.
          5    1    3    3  502    0  0.47078977631E+02  0.12672237810E+02  0.30202628548E+03  0.30596464709E+03  0.41800000000E+01 0.  1.
         -5    1    3    3    0  502 -0.46612750166E+02  0.93907670589E+01  0.54158125354E+02  0.72190788373E+02  0.41800000000E+01 0.  1.
        -11    1    1    2    0    0 -0.48802144270E+01  0.10219901652E+02  0.44611519670E+02  0.46026628922E+02  0.00000000000E+00 0. -1.
         11    1    1    2    0    0  0.44139869625E+01 -0.32282906521E+02 -0.35613171745E+02  0.48269735198E+02  0.00000000000E+00 0.  1.
</event>
<event>
 7    1  0.2612213E-009  0.1019903E+03  0.7561462E-02  0.1276165E+00
         -2   -1    0    0    0  501 -0.00000000000E+00  0.00000000000E+00  0.28375366953E+03  0.28375366953E+03  0.00000000000E+00 0.  1.
          2   -1    0    0  501    0  0.00000000000E+00 -0.00000000000E+00 -0.90066508135E+02  0.90066508135E+02  0.00000000000E+00 0. -1.
         25    2    1    2    0    0 -0.49674549834E+02  0.43568900417E+01 -0.61561066197E+01  0.13479445191E+03  0.12508038706E+03 0.  0.
          5    1    3    3  502    0  0.34543076462E+02 -0.11701955569E+02 -0.28061076363E+02  0.46206669456E+02  0.41800000000E+01 0.  1.
         -5    1    3    3    0  502 -0.84217626296E+02  0.16058845611E+02  0.21904969744E+02  0.88587782458E+02  0.41800000000E+01 0.  1.
        -11    1    1    2    0    0  0.65485263472E+02 -0.42428453994E+01  0.21014625499E+03  0.22015396875E+03  0.00000000000E+00 0.  1.
         11    1    1    2    0    0 -0.15810713637E+02 -0.11404464227E+00 -0.10302986973E+02  0.18871757005E+02  0.00000000000E+00 0. -1.
</event>
<event>
 7    1  0.2612213E-009  0.1046153E+03  0.7561462E-02  0.1270879E+00
          3   -1    0    0  501    0  0.00000000000E+00  0.00000000000E+00  0.74781312942E+02  0.74781312942E+02  0.00000000000E+00 0. -1.
         -3   -1    0    0    0  501 -0.00000000000E+00 -0.00000000000E+00 -0.16202372502E+03  0.16202372502E+03  0.00000000000E+00 0.  1.
         25    2    1    2    0    0  0.19958109096E+02  0.40192143072E+01 -0.51261275776E+02  0.13670907662E+03  0.12508866069E+03 0.  0.
          5    1    3    3  502    0 -0.46556888329E+02  0.22926948371E+02 -0.41844921558E+02  0.66795648606E+02  0.41800000000E+01 0. -1.
         -5    1    3    3    0  502  0.66514997425E+02 -0.18907734064E+02 -0.94163542181E+01  0.69913428014E+02  0.41800000000E+01 0. -1.
        -11    1    1    2    0    0 -0.14956998983E+02  0.40457228816E+02 -0.34636641128E+02  0.55319039134E+02  0.00000000000E+00 0. -1.
         11    1    1    2    0    0 -0.50011101137E+01 -0.44476443124E+02 -0.13444951744E+01  0.44776922210E+02  0.00000000000E+00 0.  1.
</event>
<event>
 7    1  0.2767156E-009  0.1334491E+03  0.7561462E-02  0.1222426E+00
          1   -1    0    0  501    0  0.00000000000E+00  0.00000000000E+00  0.57327150706E+03  0.57327150706E+03  0.00000000000E+00 0. -1.
         -1   -1    0    0    0  501 -0.00000000000E+00 -0.00000000000E+00 -0.47446969456E+02  0.47446969456E+02  0.00000000000E+00 0.  1.
         25    2    1    2    0    0 -0.71229586194E+02  0.94967917256E+02  0.34837142099E+03  0.38871671505E+03  0.12508188651E+03 0.  0.
          5    1    3    3  502    0 -0.60904838932E+02  0.80747051255E+02  0.10934113261E+03  0.14900483674E+03  0.41800000000E+01 0. -1.
         -5    1    3    3    0  502 -0.10324747262E+02  0.14220866001E+02  0.23903028838E+03  0.23971187831E+03  0.41800000000E+01 0. -1.
        -11    1    1    2    0    0 -0.21014625111E+00 -0.72809371011E+02  0.69402746369E+02  0.10058821935E+03  0.00000000000E+00 0. -1.
         11    1    1    2    0    0  0.71439732446E+02 -0.22158546245E+02  0.10805037025E+03  0.13141354213E+03  0.00000000000E+00 0.  1.
</event>
<event>
 7    1  0.2612213E-009  0.1381159E+03  0.7561462E-02  0.1215887E+00
         -2   -1    0    0    0  501 -0.00000000000E+00  0.00000000000E+00  0.51719426798E+02  0.51719426798E+02  0.00000000000E+00 0.  1.
          2   -1    0    0  501    0  0.00000000000E+00 -0.00000000000E+00 -0.50536011549E+03  0.50536011549E+03  0.00000000000E+00 0. -1.
         25    2    1    2    0    0 -0.11269911606E+03  0.34443900347E+02 -0.27483573222E+03  0.32415325883E+03  0.12511267911E+03 0.  0.
          5    1    3    3  502    0 -0.32644335132E+02  0.54004420557E+02 -0.39005130339E+02  0.74303449777E+02  0.41800000000E+01 0.  1.
         -5    1    3    3    0  502 -0.80054780930E+02 -0.19560520210E+02 -0.23583060188E+03  0.24984980905E+03  0.41800000000E+01 0.  1.
        -11    1    1    2    0    0  0.59974244437E+02 -0.47091473914E+02 -0.44971405802E+02  0.88526517219E+02  0.00000000000E+00 0.  1.
         11    1    1    2    0    0  0.52724871626E+02  0.12647573567E+02 -0.13383355067E+03  0.14439976624E+03  0.00000000000E+00 0. -1.
</event>
<event>
 7    1  0.2612213E-009  0.1493294E+03  0.7561462E-02  0.1201300E+00
         -1   -1    0    0    0  501 -0.00000000000E+00  0.00000000000E+00  0.11873200553E+03  0.11873200553E+03  0.00000000000E+00 0.  1.
          1   -1    0    0  501    0  0.00000000000E+00 -0.00000000000E+00 -0.28604359631E+03  0.28604359631E+03  0.00000000000E+00 0. -1.
         25    2    1    2    0    0  0.23733275807E+02  0.12939501648E+03 -0.16593215378E+03  0.24594029037E+03  0.12508720198E+03 0.  0.
          5    1    3    3  502    0  0.68107692818E+00  0.10807968036E+03 -0.18100734871E+03  0.21086207307E+03  0.41800000000E+01 0. -1.
         -5    1    3    3    0  502  0.23052198879E+02  0.21315336113E+02  0.15075194926E+02  0.35078217298E+02  0.41800000000E+01 0. -1.
        -11    1    1    2    0    0 -0.19515569128E+02  0.81960260208E+01 -0.68623488761E+00  0.21177894117E+02  0.00000000000E+00 0.  1.
         11    1    1    2    0    0 -0.42177066792E+01 -0.13759104250E+03 -0.69320211020E+00  0.13765741736E+03  0.00000000000E+00 0. -1.
</event>
<event>
 7    1  0.2612213E-009  0.1098201E+03  0.7561462E-02  0.1260903E+00
          4   -1    0    0  501    0  0.00000000000E+00  0.00000000000E+00  0.18157430877E+03  0.18157430877E+03  0.00000000000E+00 0.  1.
         -4   -1    0    0    0  501 -0.00000000000E+00 -0.00000000000E+00 -0.72259953864E+02  0.72259953864E+02  0.00000000000E+00 0. -1.
         25    2    1    2    0    0 -0.45085752856E+02  0.25749757191E+01  0.10058645663E+03  0.16675755094E+03  0.12510431618E+03 0.  0.
          5    1    3    3  502    0 -0.58866918428E+02  0.53760981215E+02  0.60669603010E+02  0.10026879034E+03  0.41800000000E+01 0.  1.
         -5    1    3    3    0  502  0.13781165572E+02 -0.51186005496E+02  0.39916853621E+02  0.66488760600E+02  0.41800000000E+01 0.  1.
        -11    1    1    2    0    0  0.46158119254E+02  0.29345747807E+02  0.51833916066E+01  0.54941900549E+02  0.00000000000E+00 0.  1.
         11    1    1    2    0    0 -0.10723663984E+01 -0.31920723526E+02  0.35445066725E+01  0.32134811150E+02  0.00000000000E+00 0. -1.
</event>
<event>
 7    1  0.2612213E-009  0.1000622E+03  0.7561462E-02  0.1280165E+00
          1   -1    0    0  501    0  0.00000000000E+00  0.00000000000E+00  0.95700116429E+03  0.95700116429E+03  0.00000000000E+00 0. -1.
         -1   -1    0    0    0  501 -0.00000000000E+00 -0.00000000000E+00 -0.17127634084E+02  0.17127634084E+02  0.00000000000E+00 0.  1.
         25    2    1    2    0    0  0.54461132304E+01  0.59553853498E+02  0.64837559695E+03  0.66303468140E+03  0.12509097647E+03 0.  0.
          5    1    3    3  502    0  0.14669330802E+02  0.81467521595E+02  0.23929440808E+03  0.25324184583E+03  0.41800000000E+01 0. -1.
         -5    1    3    3    0  502 -0.92232175713E+01 -0.21913668097E+02  0.40908118887E+03  0.40979283557E+03  0.41800000000E+01 0. -1.
        -11    1    1    2    0    0  0.28601311842E+02 -0.53595988965E+01  0.29672917051E+02  0.41560105218E+02  0.00000000000E+00 0.  1.
         11    1    1    2    0    0 -0.34047425073E+02 -0.54194254602E+02  0.26182501621E+03  0.26953401176E+03  0.00000000000E+00 0. -1.
</event>
<event>
 7    1  0.2612213E-009  0.7459697E+02  0.7561462E-02  0.1345124E+00
          1   -1    0    0  501    0  0.00000000000E+00  0.00000000000E+00  0.50735603090E+02  0.50735603090E+02  0.00000000000E+00 0. -1.
         -1   -1    0    0    0  501 -0.00000000000E+00 -0.00000000000E+00 -0.26403250443E+03  0.26403250443E+03  0.00000000000E+00 0.  1.
         25    2    1    2    0    0 -0.20859714244E+02  0.21326217184E+02 -0.90718778665E+02  0.15737332319E+03  0.12508609368E+03 0.  0.
          5    1    3    3  502    0 -0.19544471914E+02 -0.37706441047E+02  0.68792086579E+01  0.43226820269E+02  0.41800000000E+01 0. -1.
         -5    1    3    3    0  502 -0.13152423305E+01  0.59032658232E+02 -0.97597987323E+02  0.11414650292E+03  0.41800000000E+01 0. -1.
        -11    1    1    2    0    0  0.11566527339E+02 -0.31492367370E+02 -0.13484175316E+03  0.13895269754E+03  0.00000000000E+00 0.  1.
         11    1    1    2    0    0  0.92931869051E+01  0.10166150185E+02  0.12263630486E+02  0.18442086789E+02  0.00000000000E+00 0. -1.
</event>
<event>
 7    1  0.2612213E-009  0.1187054E+03  0.7561462E-02  0.1245248E+00
          2   -1    0    0  501    0  0.00000000000E+00  0.00000000000E+00  0.73934283558E+03  0.73934283558E+03  0.00000000000E+00 0. -1.
         -2   -1    0    0    0  501 -0.00000000000E+00 -0.00000000000E+00 -0.43039319341E+02  0.43039319341E+02  0.00000000000E+00 0.  1.
         25    2    1    2    0    0  0.86910582561E+02 -0.80257802783E+01  0.12478319617E+03  0.19706874168E+03  0.12508948953E+03 0.  0.
          5    1    3    3  502    0  0.50385956734E+02 -0.39733445802E+02  0.13309460807E+03  0.14781454072E+03  0.41800000000E+01 0.  1.
         -5    1    3    3    0  502  0.36524625827E+02  0.31707665524E+02 -0.83114118961E+01  0.49254200963E+02  0.41800000000E+01 0.  1.
        -11    1    1    2    0    0 -0.39835926390E+01 -0.32161872842E+02  0.19536938935E+03  0.19803901981E+03  0.00000000000E+00 0.  1.
         11    1    1    2    0    0 -0.82926989922E+02  0.40187653121E+02  0.37615093072E+03  0.38727439343E+03  0.00000000000E+00 0. -1.
</event>
<event>
 7    1  0.2612213E-009  0.1719777E+03  0.7561462E-02  0.1175801E+00
          1   -1    0    0  501    0  0.00000000000E+00  0.00000000000E+00  0.40876925164E+03  0.40876925164E+03  0.00000000000E+00 0. -1.
         -1   -1    0    0    0  501 -0.00000000000E+00 -0.00000000000E+00 -0.10100430942E+03  0.10100430942E+03  0.00000000000E+00 0.  1.
         25    2    1    2    0    0  0.76414888321E+02  0.15306081339E+03  0.15952299375E+03  0.26525800824E+03  0.12508947856E+03 0.  0.
          5    1    3    3  502    0  0.61207202447E+02  0.12977002087E+03  0.18017451479E+03  0.23036255800E+03  0.41800000000E+01 0.  1.
         -5    1    3    3    0  502  0.15207685873E+02  0.23290792516E+02 -0.20651521044E+02  0.34895450235E+02  0.41800000000E+01 0.  1.
        -11    1    1    2    0    0 -0.52710988416E+02 -0.82994979935E+02  0.26102327688E+02  0.10172485687E+03  0.00000000000E+00 0.  1.
         11    1    1    2    0    0 -0.23703899905E+02 -0.70065833453E+02  0.12213962078E+03  0.14279069596E+03  0.00000000000E+00 0. -1.
</event>
<event>
 7    1  0.2612213E-009  0.9914415E+02  0.7561462E-02  0.1282106E+00
          2   -1    0    0  501    0  0.00000000000E+00  0.00000000000E+00  0.11081537879E+03  0.11081537879E+03  0.00000000000E+00 0. -1.
         -2   -1    0    0    0  501 -0.00000000000E+00 -0.00000000000E+00 -0.12305470954E+03  0.12305470954E+03  0.00000000000E+00 0.  1.
         25    2    1    2    0    0 -0.26353733334E+02  0.32205100312E+02 -0.18517801018E+02  0.13312820065E+03  0.12509404905E+03 0.  0.
          5    1    3    3  502    0  0.38880708652E+02 -0.12018142870E+02  0.19738511651E+02  0.45422753170E+02  0.41800000000E+01 0. -1.
         -5    1    3    3    0  502 -0.65234441986E+02  0.44223243182E+02 -0.38256312668E+02  0.87705447480E+02  0.41800000000E+01 0. -1.
        -11    1    1    2    0    0  0.22516076467E+02  0.17553500253E+02  0.33402237165E+02  0.43940966286E+02  0.00000000000E+00 0. -1.
         11    1    1    2    0    0  0.38376568669E+01 -0.49758600565E+02 -0.27123766893E+02  0.56800921391E+02  0.00000000000E+00 0.  1.
</event>
<event>
 7    1  0.2612213E-009  0.9036253E+02  0.7561462E-02  0.1301976E+00
          2   -1    0    0  501    0  0.00000000000E+00  0.00000000000E+00  0.16666044287E+04  0.16666044287E+04  0.00000000000E+00 0. -1.
         -2   -1    0    0    0  501 -0.00000000000E+00 -0.00000000000E+00 -0.13896722741E+02  0.13896722741E+02  0.00000000000E+00 0.  1.
         25    2    1    2    0    0  0.66150242048E+01 -0.25291332975E+02  0.14521173723E+04  0.14577289828E+04  0.12508203000E+03 0.  0.
          5    1    3    3  502    0 -0.34044472515E+02 -0.37603620749E+02  0.12554861060E+04  0.12565173668E+04  0.41800000000E+01 0. -1.
         -5    1    3    3    0  502  0.40659496720E+02  0.12312287774E+02  0.19663126633E+03  0.20121161597E+03  0.41800000000E+01 0. -1.
        -11    1    1    2    0    0  0.82116467596E+01  0.54110689403E+02  0.73645234733E+02  0.91755209384E+02  0.00000000000E+00 0.  1.
         11    1    1    2    0    0 -0.14826670964E+02 -0.28819356429E+02  0.12694509892E+03  0.13101695927E+03  0.00000000000E+00 0. -1.
</event>
<event>
 7    1  0.2612213E-009  0.1138530E+03  0.7561462E-02  0.1253597E+00
         -1   -1    0    0    0  501 -0.00000000000E+00  0.00000000000E+00  0.22315447155E+03  0.22315447155E+03  0.00000000000E+00 0.  1.
          1   -1    0    0  501    0  0.00000000000E+00 -0.00000000000E+00 -0.10484112378E+03  0.10484112378E+03  0.00000000000E+00 0. -1.
         25    2    1    2    0    0  0.63503615292E+02 -0.63267468613E+02  0.12786196496E+03  0.20007867021E+03  0.12508920996E+03 0.  0.
          5    1    3    3  502    0 -0.67643907658E+01 -0.45854933919E+01  0.10529846276E+03  0.10569778802E+03  0.41800000000E+01 0.  1.
         -5    1    3    3    0  502  0.70268006058E+02 -0.58681975221E+02  0.22563502200E+02  0.94380882189E+02  0.41800000000E+01 0.  1.
        -11    1    1    2    0    0  0.21401873502E+02  0.27260350411E+02  0.32420438467E+01  0.34809161757E+02  0.00000000000E+00 0. -1.
         11    1    1    2    0    0 -0.84905488794E+02  0.36007118202E+02 -0.12790661036E+02  0.93107763363E+02  0.00000000000E+00 0.  1.
</event>
<event>
 7    1  0.2612213E-009  0.2114371E+03  0.7561462E-02  0.1140433E+00
          1   -1    0    0  501    0  0.00000000000E+00  0.00000000000E+00  0.84674432898E+03  0.84674432898E+03  0.00000000000E+00 0. -1.
         -1   -1    0    0    0  501 -0.00000000000E+00 -0.00000000000E+00 -0.61715098997E+02  0.61715098997E+02  0.00000000000E+00 0.  1.
         25    2    1    2    0    0 -0.73738626175E+02  0.17619410443E+03  0.28447023846E+03  0.36476451925E+03  0.12509232793E+03 0.  0.
          5    1    3    3  502    0 -0.10203728248E+03  0.97822522426E+02  0.14714837010E+03  0.20408568821E+03  0.41800000000E+01 0. -1.
         -5    1    3    3    0  502  0.28298656300E+02  0.78371582002E+02  0.13732186836E+03  0.16067883104E+03  0.41800000000E+01 0. -1.
        -11    1    1    2    0    0  0.66401851553E+02 -0.91695675992E+02  0.18461284077E+03  0.21656224016E+03  0.00000000000E+00 0.  1.
         11    1    1    2    0    0  0.73367746220E+01 -0.84498428436E+02  0.31594615075E+03  0.32713266857E+03  0.00000000000E+00 0. -1.
</event>
<event>
 7    1  0.2612213E-009  0.1070011E+03  0.7561462E-02  0.1266226E+00
          1   -1    0    0  501    0  0.00000000000E+00  0.00000000000E+00  0.13325962894E+04  0.13325962894E+04  0.00000000000E+00 0. -1.
         -1   -1    0    0    0  501 -0.00000000000E+00 -0.00000000000E+00 -0.16911252194E+02  0.16911252194E+02  0.00000000000E+00 0.  1.
         25    2    1    2    0    0 -0.20176993567E+02  0.32130042480E+02  0.11401640806E+04  0.11476331724E+04  0.12509323386E+03 0.  0.
          5    1    3    3  502    0  0.44432315249E+02  0.89315116907E+01  0.75546649804E+03  0.75683624689E+03  0.41800000000E+01 0.  1.
         -5    1    3    3    0  502 -0.64609308816E+02  0.23198530789E+02  0.38469758254E+03  0.39079692556E+03  0.41800000000E+01 0.  1.
        -11    1    1    2    0    0  0.38629114857E+02  0.20649291556E+02  0.78794169983E+02  0.90150557290E+02  0.00000000000E+00 0. -1.
         11    1    1    2    0    0 -0.18452121290E+02 -0.52779334036E+02  0.96726786645E+02  0.11172381186E+03  0.00000000000E+00 0.  1.
</event>
<event>
 7    1  0.2612213E-009  0.8998936E+02  0.7561462E-02  0.1302877E+00
         -1   -1    0    0    0  501 -0.00000000000E+00  0.00000000000E+00  0.36371935635E+03  0.36371935635E+03  0.00000000000E+00 0.  1.
          1   -1    0    0  501    0  0.00000000000E+00 -0.00000000000E+00 -0.35301507851E+02  0.35301507851E+02  0.00000000000E+00 0. -1.
         25    2    1    2    0    0  0.25591675293E+02 -0.14088688637E+02  0.23280841805E+03  0.26590079601E+03  0.12510015514E+03 0.  0.
          5    1    3    3  502    0 -0.10611174664E+02 -0.58506178129E+02  0.63427591517E+02  0.87040804642E+02  0.41800000000E+01 0.  1.
         -5    1    3    3    0  502  0.36202849957E+02  0.44417489492E+02  0.16938082653E+03  0.17885999137E+03  0.41800000000E+01 0.  1.
        -11    1    1    2    0    0 -0.15386921188E+02 -0.21192529205E+02 -0.44213853094E+01  0.26559918784E+02  0.00000000000E+00 0. -1.
         11    1    1    2    0    0 -0.10204754105E+02  0.35281217842E+02  0.10003081576E+03  0.10656014940E+03  0.00000000000E+00 0.  1.
</event>
<event>
 7    1  0.2612213E-009  0.1032582E+03  0.7561462E-02  0.1273590E+00
          2   -1    0    0  501    0  0.00000000000E+00  0.00000000000E+00  0.25310702127E+02  0.25310702127E+02  0.00000000000E+00 0.  1.
         -2   -1    0    0    0  501 -0.00000000000E+00 -0.00000000000E+00 -0.83074658790E+03  0.83074658790E+03  0.00000000000E+00 0. -1.
         25    2    1    2    0    0 -0.86560535326E+02  0.40305126742E+02 -0.41517369737E+03  0.44399703794E+03  0.12508773398E+03 0.  0.
          5    1    3    3  502    0  0.18073624898E+01  0.17700140477E+02  0.62836826393E+00  0.18287393984E+02  0.41800000000E+01 0.  1.
         -5    1    3    3    0  502 -0.88367897815E+02  0.22604986265E+02 -0.41580206564E+03  0.42570964395E+03  0.41800000000E+01 0.  1.
        -11    1    1    2    0    0  0.16345133337E+02 -0.15320428636E+02 -0.99473879854E+01  0.24511822558E+02  0.00000000000E+00 0.  1.
         11    1    1    2    0    0  0.70215401989E+02 -0.24984698106E+02 -0.38031480041E+03  0.38754842953E+03  0.00000000000E+00 0. -1.
</event>
<event>
 7    1  0.2612213E-009  0.2260158E+03  0.7561462E-02  0.1129476E+00
          2   -1    0    0  501    0  0.00000000000E+00  0.00000000000E+00  0.78345005864E+03  0.78345005864E+03  0.00000000000E+00 0. -1.
         -2   -1    0    0    0  501 -0.00000000000E+00 -0.00000000000E+00 -0.71810206176E+02  0.71810206176E+02  0.00000000000E+00 0.  1.
         25    2    1    2    0    0 -0.81472604979E+02 -0.17671658606E+03  0.26248218458E+03  0.34987017918E+03  0.12508280422E+03 0.  0.
          5    1    3    3  502    0 -0.20553547545E+02 -0.16821101954E+03  0.19817759172E+03  0.26078578502E+03  0.41800000000E+01 0. -1.
         -5    1    3    3    0  502 -0.60919057433E+02 -0.85055665210E+01  0.64304592860E+02  0.89084394162E+02  0.41800000000E+01 0. -1.
        -11    1    1    2    0    0 -0.20419457321E+02  0.71667227748E+02  0.85656507696E+02  0.11353494211E+03  0.00000000000E+00 0.  1.
         11    1    1    2    0    0  0.10189206230E+03  0.10504935831E+03  0.36350116020E+03  0.39185514352E+03  0.00000000000E+00 0. -1.
</event>
<event>
 7    1  0.2612213E-009  0.2853547E+03  0.7561462E-02  0.1092800E+00
         -2   -1    0    0    0  501 -0.00000000000E+00  0.00000000000E+00  0.39430499436E+02  0.39430499436E+02  0.00000000000E+00 0.  1.
          2   -1    0    0  501    0  0.00000000000E+00 -0.00000000000E+00 -0.23300879753E+04  0.23300879753E+04  0.00000000000E+00 0. -1.
         25    2    1    2    0    0  0.26907437923E+03 -0.80072505258E+02 -0.10374988842E+04  0.10820647993E+04  0.12509063747E+03 0.  0.
          5    1    3    3  502    0  0.22925009297E+03 -0.93601056407E+02 -0.71219354612E+03  0.75402512055E+03  0.41800000000E+01 0. -1.
         -5    1    3    3    0  502  0.39824286261E+02  0.13528551148E+02 -0.32530533806E+03  0.32803967876E+03  0.41800000000E+01 0. -1.
        -11    1    1    2    0    0 -0.20312087188E+03  0.58074929885E+02 -0.10869455180E+04  0.11072855753E+04  0.00000000000E+00 0. -1.
         11    1    1    2    0    0 -0.65953507354E+02  0.21997575373E+02 -0.16621307372E+03  0.18016810020E+03  0.00000000000E+00 0.  1.
</event>
<event>
 7    1  0.2612213E-009  0.2306510E+03  0.7561462E-02  0.1126182E+00
         -2   -1    0    0    0  501 -0.00000000000E+00  0.00000000000E+00  0.34104534647E+03  0.34104534647E+03  0.00000000000E+00 0. -1.
          2   -1    0    0  501    0  0.00000000000E+00 -0.00000000000E+00 -0.17862055516E+03  0.17862055516E+03  0.00000000000E+00 0.  1.
         25    2    1    2    0    0 -0.12697107329E+03 -0.17073510620E+03  0.18653387715E+02  0.24752278742E+03  0.12508977369E+03 0.  0.
          5    1    3    3  502    0 -0.12637048981E+03 -0.78917625190E+02  0.37508968738E+02  0.15369413586E+03  0.41800000000E+01 0. -1.
         -5    1    3    3    0  502 -0.60058347299E+00 -0.91817481008E+02 -0.18855581023E+02  0.93828651567E+02  0.41800000000E+01 0. -1.
        -11    1    1    2    0    0  0.55082477521E+02  0.31022431029E+02  0.81467103566E+02  0.10311818230E+03  0.00000000000E+00 0. -1.
         11    1    1    2    0    0  0.71888595765E+02  0.13971267517E+03  0.62304300032E+02  0.16902493191E+03  0.00000000000E+00 0.  1.
</event>
<event>
 7    1  0.2612213E-009  0.1397261E+03  0.7561462E-02  0.1213698E+00
         -2   -1    0    0    0  501 -0.00000000000E+00  0.00000000000E+00  0.16932644721E+03  0.16932644721E+03  0.00000000000E+00 0.  1.
          2   -1    0    0  501    0  0.00000000000E+00 -0.00000000000E+00 -0.17845255555E+03  0.17845255555E+03  0.00000000000E+00 0. -1.
         25    2    1    2    0    0  0.60427841334E+02  0.11398420148E+03  0.37293917956E+02  0.18353394687E+03  0.12509976476E+03 0.  0.
          5    1    3    3  502    0  0.55343536369E+02  0.48110489066E+02 -0.38475232198E+02  0.82917682485E+02  0.41800000000E+01 0. -1.
         -5    1    3    3    0  502  0.50843049650E+01  0.65873712414E+02  0.75769150154E+02  0.10061626439E+03  0.41800000000E+01 0. -1.
        -11    1    1    2    0    0 -0.66514268097E+02 -0.74593308594E+02  0.39413794270E+01  0.10001921825E+03  0.00000000000E+00 0. -1.
         11    1    1    2    0    0  0.60864267636E+01 -0.39390892886E+02 -0.50361405728E+02  0.64225837636E+02  0.00000000000E+00 0.  1.
</event>
<event>
 7    1  0.3624839E-009  0.1982992E+03  0.7561462E-02  0.1151182E+00
          2   -1    0    0  501    0  0.00000000000E+00  0.00000000000E+00  0.33783566227E+03  0.33783566227E+03  0.00000000000E+00 0. -1.
         -2   -1    0    0    0  501 -0.00000000000E+00 -0.00000000000E+00 -0.12992226641E+03  0.12992226641E+03  0.00000000000E+00 0.  1.
         25    2    1    2    0    0  0.41445994609E+02 -0.17367637286E+03  0.94329450141E+02  0.23754630321E+03  0.12509575552E+03 0.  0.
          5    1    3    3  502    0 -0.96818583320E+01  0.17303285473E+02  0.90120554420E+01  0.22177276934E+02  0.41800000000E+01 0. -1.
         -5    1    3    3    0  502  0.51127852941E+02 -0.19097965833E+03  0.85317394699E+02  0.21536902628E+03  0.41800000000E+01 0. -1.
        -11    1    1    2    0    0 -0.26582789195E+02  0.10422804915E+03  0.11722552470E+03  0.15909731158E+03  0.00000000000E+00 0. -1.
         11    1    1    2    0    0 -0.14863205414E+02  0.69448323708E+02 -0.36415789897E+01  0.71114313879E+02  0.00000000000E+00 0.  1.
</event>
<event>
 7    1  0.2612213E-009  0.1204274E+03  0.7561462E-02  0.1242394E+00
          2   -1    0    0  501    0  0.00000000000E+00  0.00000000000E+00  0.42989266071E+03  0.42989266071E+03  0.00000000000E+00 0. -1.
         -2   -1    0    0    0  501 -0.00000000000E+00 -0.00000000000E+00 -0.52293888403E+02  0.52293888403E+02  0.00000000000E+00 0.  1.
         25    2    1    2    0    0  0.23319098862E+02  0.87816717283E+02  0.12691622741E+03  0.20002343907E+03  0.12508433631E+03 0.  0.
          5    1    3    3  502    0 -0.40751976173E+02  0.65012826856E+02  0.10148586697E+03  0.12729589472E+03  0.41800000000E+01 0. -1.
         -5    1    3    3    0  502  0.64071075035E+02  0.22803890427E+02  0.25430360444E+02  0.72727544349E+02  0.41800000000E+01 0. -1.
        -11    1    1    2    0    0 -0.21805240679E+02 -0.25548908020E+02  0.19727695344E+03  0.20011599531E+03  0.00000000000E+00 0. -1.
         11    1    1    2    0    0 -0.15138581831E+01 -0.62267809263E+02  0.53405591451E+02  0.82047114729E+02  0.00000000000E+00 0.  1.
</event>
<event>
 7    1  0.2612213E-009  0.9369462E+02  0.7561462E-02  0.1294143E+00
         -2   -1    0    0    0  501 -0.00000000000E+00  0.00000000000E+00  0.24333073715E+03  0.24333073715E+03  0.00000000000E+00 0.  1.
          2   -1    0    0  501    0  0.00000000000E+00 -0.00000000000E+00 -0.76100676743E+02  0.76100676743E+02  0.00000000000E+00 0. -1.
         25    2    1    2    0    0  0.21443479866E+00  0.33996631612E+02  0.16819680792E+02  0.13071367858E+03  0.12508935671E+03 0.  0.
          5    1    3    3  502    0  0.32117907930E+02  0.12203921072E+02  0.62068950902E+02  0.71067030087E+02  0.41800000000E+01 0. -1.
         -5    1    3    3    0  502 -0.31903473132E+02  0.21792710540E+02 -0.45249270110E+02  0.59646648489E+02  0.41800000000E+01 0. -1.
        -11    1    1    2    0    0  0.40358093961E+02  0.21061713856E+02  0.63186619390E+02  0.77877598888E+02  0.00000000000E+00 0.  1.
         11    1    1    2    0    0 -0.40572528760E+02 -0.55058345468E+02  0.87223760227E+02  0.11084013643E+03  0.00000000000E+00 0. -1.
</event>
<event>
 7    1  0.2612213E-009  0.1946136E+03  0.7561462E-02  0.1154365E+00
          2   -1    0    0  501    0  0.00000000000E+00  0.00000000000E+00  0.76344519356E+02  0.76344519356E+02  0.00000000000E+00 0. -1.
         -2   -1    0    0    0  501 -0.00000000000E+00 -0.00000000000E+00 -0.58405827941E+03  0.58405827941E+03  0.00000000000E+00 0.  1.
         25    2    1    2    0    0  0.12745144079E+03 -0.12364185374E+03 -0.20943194758E+03  0.30172643082E+03  0.12508365453E+03 0.  0.
          5    1    3    3  502    0  0.14305877575E+03 -0.80075268774E+02 -0.12826480509E+03  0.20819989100E+03  0.41800000000E+01 0.  1.
         -5    1    3    3    0  502 -0.15607334960E+02 -0.43566584966E+02 -0.81167142490E+02  0.93526539817E+02  0.41800000000E+01 0.  1.
        -11    1    1    2    0    0 -0.92334571350E+02  0.10166145902E+03 -0.28292099406E+03  0.31449167588E+03  0.00000000000E+00 0.  1.
         11    1    1    2    0    0 -0.35116869437E+02  0.21980394720E+02 -0.15360818411E+02  0.44184692070E+02  0.00000000000E+00 0. -1.
</event>
<event>
 7    1  0.2612213E-009  0.1610299E+03  0.7561462E-02  0.1187539E+00
          2   -1    0    0  501    0  0.00000000000E+00  0.00000000000E+00  0.44447015529E+03  0.44447015529E+03  0.00000000000E+00 0. -1.
         -2   -1    0    0    0  501 -0.00000000000E+00 -0.00000000000E+00 -0.72103364812E+02  0.72103364812E+02  0.00000000000E+00 0.  1.
         25    2    1    2    0    0  0.70593671666E+02  0.10406571264E+03  0.29194857747E+03  0.34160809803E+03  0.12509589013E+03 0.  0.
          5    1    3    3  502    0 -0.24120288359E+02  0.62402493950E+02  0.71274370883E+02  0.97843588990E+02  0.41800000000E+01 0.  1.
         -5    1    3    3    0  502  0.94713960025E+02  0.41663218695E+02  0.22067420659E+03  0.24376450904E+03  0.41800000000E+01 0.  1.
        -11    1    1    2    0    0  0.19732568543E+02 -0.19112146836E+02  0.31159623081E+02  0.41539987103E+02  0.00000000000E+00 0. -1.
         11    1    1    2    0    0 -0.90326240209E+02 -0.84953565809E+02  0.49258589923E+02  0.13342543496E+03  0.00000000000E+00 0.  1.
</event>
<event>
 7    1  0.2612213E-009  0.1528649E+03  0.7561462E-02  0.1196996E+00
         -2   -1    0    0    0  501 -0.00000000000E+00  0.00000000000E+00  0.63980832565E+02  0.63980832565E+02  0.00000000000E+00 0.  1.
          2   -1    0    0  501    0  0.00000000000E+00 -0.00000000000E+00 -0.53666404989E+03  0.53666404989E+03  0.00000000000E+00 0. -1.
         25    2    1    2    0    0 -0.13418821830E+03 -0.62598183977E+02 -0.30583771083E+03  0.36208953072E+03  0.12508841802E+03 0.  0.
          5    1    3    3  502    0 -0.43517304558E+02 -0.11817562057E+00 -0.78980854225E+01  0.44425464711E+02  0.41800000000E+01 0.  1.
         -5    1    3    3    0  502 -0.90670913737E+02 -0.62480008356E+02 -0.29793962541E+03  0.31766406601E+03  0.41800000000E+01 0.  1.
        -11    1    1    2    0    0  0.42792067396E+02  0.34011072353E+01 -0.10474441583E+03  0.11319947531E+03  0.00000000000E+00 0. -1.
         11    1    1    2    0    0  0.91396150899E+02  0.59197076742E+02 -0.62101090664E+02  0.12535587643E+03  0.00000000000E+00 0.  1.
</event>
<event>
 7    1  0.2612213E-009  0.1188826E+03  0.7561462E-02  0.1244952E+00
          4   -1    0    0  501    0  0.00000000000E+00  0.00000000000E+00  0.65752657565E+02  0.65752657565E+02  0.00000000000E+00 0. -1.
         -4   -1    0    0    0  501 -0.00000000000E+00 -0.00000000000E+00 -0.22223245072E+03  0.22223245072E+03  0.00000000000E+00 0.  1.
         25    2    1    2    0    0  0.40125428775E+02 -0.17399081848E+02 -0.66180568450E+02  0.14812128932E+03  0.12508905078E+03 0.  0.
          5    1    3    3  502    0  0.43388775742E+01  0.52228210802E+02 -0.37768906618E+02  0.64734647364E+02  0.41800000000E+01 0.  1.
         -5    1    3    3    0  502  0.35786551201E+02 -0.69627292650E+02 -0.28411661832E+02  0.83386641956E+02  0.41800000000E+01 0.  1.
        -11    1    1    2    0    0 -0.35934675017E+02 -0.37381760749E+02 -0.44992011989E+02  0.68651132897E+02  0.00000000000E+00 0.  1.
         11    1    1    2    0    0 -0.41907537582E+01  0.54780842597E+02 -0.45307212712E+02  0.71212686064E+02  0.00000000000E+00 0. -1.
</event>
<event>
 7    1  0.2612213E-009  0.8600568E+02  0.7561462E-02  0.1312823E+00
          2   -1    0    0  501    0  0.00000000000E+00  0.00000000000E+00  0.36506530145E+03  0.36506530145E+03  0.00000000000E+00 0. -1.
         -2   -1    0    0    0  501 -0.00000000000E+00 -0.00000000000E+00 -0.46494211361E+02  0.46494211361E+02  0.00000000000E+00 0.  1.
         25    2    1    2    0    0  0.51428317174E+02  0.43256663507E+02  0.21824270038E+03  0.26037001813E+03  0.12508660730E+03 0.  0.
          5    1    3    3  502    0 -0.34434720279E+01 -0.13818503995E+01  0.17954663117E+03  0.17963360536E+03  0.41800000000E+01 0.  1.
         -5    1    3    3    0  502  0.54871789202E+02  0.44638513906E+02  0.38696069203E+02  0.80736412762E+02  0.41800000000E+01 0.  1.
        -11    1    1    2    0    0 -0.53093368524E+02 -0.82586312210E+00  0.13893703509E+02  0.54887364924E+02  0.00000000000E+00 0.  1.
         11    1    1    2    0    0  0.16650513497E+01 -0.42430800384E+02  0.86434686203E+02  0.96302129760E+02  0.00000000000E+00 0. -1.
</event>
<event>
 7    1  0.2612213E-009  0.1106422E+03  0.7561462E-02  0.1259385E+00
         -1   -1    0    0    0  501 -0.00000000000E+00  0.00000000000E+00  0.21897226178E+03  0.21897226178E+03  0.00000000000E+00 0.  1.
          1   -1    0    0  501    0  0.00000000000E+00 -0.00000000000E+00 -0.22951262745E+03  0.22951262745E+03  0.00000000000E+00 0. -1.
         25    2    1    2    0    0  0.43545316595E+02  0.54524518773E+01 -0.19646231976E+03  0.23701016429E+03  0.12510176282E+03 0.  0.
          5    1    3    3  502    0  0.68328236401E+02  0.39000261985E+02 -0.17018399446E+03  0.18753621703E+03  0.41800000000E+01 0. -1.
         -5    1    3    3    0  502 -0.24782919806E+02 -0.33547810107E+02 -0.26278325299E+02  0.49473947262E+02  0.41800000000E+01 0. -1.
        -11    1    1    2    0    0 -0.24897949784E+02  0.42429623571E+02  0.84462384305E+02  0.97744949855E+02  0.00000000000E+00 0. -1.
         11    1    1    2    0    0 -0.18647366811E+02 -0.47882075448E+02  0.10145956979E+03  0.11372977508E+03  0.00000000000E+00 0.  1.
</event>
<event>
 7    1  0.2612213E-009  0.1417587E+03  0.7561462E-02  0.1210982E+00
          2   -1    0    0  501    0  0.00000000000E+00  0.00000000000E+00  0.21390171569E+03  0.21390171569E+03  0.00000000000E+00 0. -1.
         -2   -1    0    0    0  501 -0.00000000000E+00 -0.00000000000E+00 -0.13508202737E+03  0.13508202737E+03  0.00000000000E+00 0.  1.
         25    2    1    2    0    0 -0.51595120220E+02 -0.11910744007E+03  0.19864591823E+02  0.18135918572E+03  0.12509162052E+03 0.  0.
          5    1    3    3  502    0 -0.73848011353E+02 -0.93505634191E+02 -0.28074026560E+02  0.12248451238E+03  0.41800000000E+01 0. -1.
         -5    1    3    3    0  502  0.22252891133E+02 -0.25601805880E+02  0.47938618382E+02  0.58874673337E+02  0.41800000000E+01 0. -1.
        -11    1    1    2    0    0  0.13824933417E+02  0.22762636368E+02  0.58348394829E+02  0.64138924044E+02  0.00000000000E+00 0.  1.
         11    1    1    2    0    0  0.37770186802E+02  0.96344803703E+02  0.60670166886E+00  0.10348563330E+03  0.00000000000E+00 0. -1.
</event>
<event>
 7    1  0.2612213E-009  0.2073284E+03  0.7561462E-02  0.1143699E+00
          2   -1    0    0  501    0  0.00000000000E+00  0.00000000000E+00  0.82957904367E+03  0.82957904367E+03  0.00000000000E+00 0.  1.
         -2   -1    0    0    0  501 -0.00000000000E+00 -0.00000000000E+00 -0.59877538357E+02  0.59877538357E+02  0.00000000000E+00 0. -1.
         25    2    1    2    0    0 -0.11168691030E+03 -0.14924343554E+03  0.28660373260E+03  0.36405722116E+03  0.12509353202E+03 0.  0.
          5    1    3    3  502    0 -0.13532956733E+03 -0.10886311924E+03  0.25030419876E+03  0.30468825846E+03  0.41800000000E+01 0.  1.
         -5    1    3    3    0  502  0.23642657027E+02 -0.40380316294E+02  0.36299533842E+02  0.59368962704E+02  0.41800000000E+01 0.  1.
        -11    1    1    2    0    0  0.10783976437E+03  0.10834140620E+03  0.44027201363E+03  0.46605441856E+03  0.00000000000E+00 0.  1.
         11    1    1    2    0    0  0.38471459302E+01  0.40902029339E+02  0.42825759084E+02  0.59344942304E+02  0.00000000000E+00 0. -1.
</event>
<event>
 7    1  0.2612213E-009  0.2134265E+03  0.7561462E-02  0.1138881E+00
         -1   -1    0    0    0  501 -0.00000000000E+00  0.00000000000E+00  0.62263345721E+02  0.62263345721E+02  0.00000000000E+00 0.  1.
          1   -1    0    0  501    0  0.00000000000E+00 -0.00000000000E+00 -0.80303997817E+03  0.80303997817E+03  0.00000000000E+00 0. -1.
         25    2    1    2    0    0  0.18590684267E+03  0.60381761128E+02 -0.37220102764E+03  0.43862156927E+03  0.12509182556E+03 0.  0.
          5    1    3    3  502    0  0.18883131582E+03  0.79988726540E+02 -0.36167512917E+03  0.41579061277E+03  0.41800000000E+01 0.  1.
         -5    1    3    3    0  502 -0.29244731525E+01 -0.19606965412E+02 -0.10525898470E+02  0.22830956495E+02  0.41800000000E+01 0.  1.
        -11    1    1    2    0    0 -0.25466497061E+02  0.85377736174E+01 -0.11958601147E+03  0.12256528950E+03  0.00000000000E+00 0.  1.
         11    1    1    2    0    0 -0.16044034561E+03 -0.68919534746E+02 -0.24898959334E+03  0.30411646513E+03  0.00000000000E+00 0. -1.
</event>
<event>
 7    1  0.2612213E-009  0.1003933E+03  0.7561462E-02  0.1279471E+00
         -1   -1    0    0    0  501 -0.00000000000E+00  0.00000000000E+00  0.14177876364E+03  0.14177876364E+03  0.00000000000E+00 0.  1.
          1   -1    0    0  501    0  0.00000000000E+00 -0.00000000000E+00 -0.21183163726E+03  0.21183163726E+03  0.00000000000E+00 0. -1.
         25    2    1    2    0    0 -0.92402435710E+02 -0.85200109306E+01 -0.93957967853E+02  0.18189721417E+03  0.12509075142E+03 0.  0.
          5    1    3    3  502    0 -0.49516954847E+02 -0.80472061697E+01  0.24397753468E+02  0.55941121894E+02  0.41800000000E+01 0.  1.
         -5    1    3    3    0  502 -0.42885480862E+02 -0.47280476087E+00 -0.11835572132E+03  0.12595609228E+03  0.41800000000E+01 0.  1.
        -11    1    1    2    0    0  0.39213985292E+02  0.30625286608E+02  0.78115428777E+02  0.92615684608E+02  0.00000000000E+00 0.  1.
         11    1    1    2    0    0  0.53188450417E+02 -0.22105275678E+02 -0.54210334543E+02  0.79097502121E+02  0.00000000000E+00 0. -1.
</event>
<event>
 7    1  0.2612213E-009  0.1047857E+03  0.7561462E-02  0.1270543E+00
         -2   -1    0    0    0  501 -0.00000000000E+00  0.00000000000E+00  0.24667643390E+02  0.24667643390E+02  0.00000000000E+00 0.  1.
          2   -1    0    0  501    0  0.00000000000E+00 -0.00000000000E+00 -0.12544729095E+04  0.12544729095E+04  0.00000000000E+00 0. -1.
         25    2    1    2    0    0  0.38139481509E+02  0.79787139805E+02 -0.10300789941E+04  0.10414081199E+04  0.12509008914E+03 0.  0.
          5    1    3    3  502    0  0.56909148987E+02  0.72789680424E+02 -0.10040382545E+04  0.10082892828E+04  0.41800000000E+01 0.  1.
         -5    1    3    3    0  502 -0.18769667478E+02  0.69974593810E+01 -0.26040739550E+02  0.33118837107E+02  0.41800000000E+01 0.  1.
        -11    1    1    2    0    0 -0.30417977344E+01 -0.51365696789E+02 -0.24893821651E+02  0.57161085508E+02  0.00000000000E+00 0.  1.
         11    1    1    2    0    0 -0.35097683775E+02 -0.28421443016E+02 -0.17483245041E+03  0.18057134752E+03  0.00000000000E+00 0. -1.
</event>
<event>
 7    1  0.2612213E-009  0.1395861E+03  0.7561462E-02  0.1213887E+00
          2   -1    0    0  501    0  0.00000000000E+00  0.00000000000E+00  0.21345703528E+03  0.21345703528E+03  0.00000000000E+00 0. -1.
         -2   -1    0    0    0  501 -0.00000000000E+00 -0.00000000000E+00 -0.13188903774E+03  0.13188903774E+03  0.00000000000E+00 0.  1.
         25    2    1    2    0    0  0.10046465413E+03  0.66957873058E+02  0.26551678967E+01  0.17386930185E+03  0.12508789196E+03 0.  0.
          5    1    3    3  502    0  0.34837323201E+02 -0.13010523037E+02  0.47980505840E+02  0.60848287882E+02  0.41800000000E+01 0. -1.
         -5    1    3    3    0  502  0.65627330924E+02  0.79968396095E+02 -0.45325337943E+02  0.11302101397E+03  0.41800000000E+01 0. -1.
        -11    1    1    2    0    0 -0.82710453310E+02 -0.15986672405E+02  0.11351797970E+02  0.85002682889E+02  0.00000000000E+00 0.  1.
         11    1    1    2    0    0 -0.17754200816E+02 -0.50971200653E+02  0.67561031677E+02  0.86474088280E+02  0.00000000000E+00 0. -1.
</event>
<event>
 7    1  0.2612213E-009  0.7786136E+02  0.7561462E-02  0.1335232E+00
          1   -1    0    0  501    0  0.00000000000E+00  0.00000000000E+00  0.19201284896E+03  0.19201284896E+03  0.00000000000E+00 0. -1.
         -1   -1    0    0    0  501 -0.00000000000E+00 -0.00000000000E+00 -0.67082250643E+02  0.67082250643E+02  0.00000000000E+00 0.  1.
         25    2    1    2    0    0 -0.24723258297E+02  0.16397796846E+02  0.87966886354E+02  0.15577389704E+03  0.12508879512E+03 0.  0.
          5    1    3    3  502    0 -0.48317028895E+02  0.31167996134E+02 -0.57365266114E+01  0.57934095331E+02  0.41800000000E+01 0. -1.
         -5    1    3    3    0  502  0.23593770598E+02 -0.14770199289E+02  0.93703412966E+02  0.97839801714E+02  0.41800000000E+01 0. -1.
        -11    1    1    2    0    0  0.37715035426E+02  0.11267037129E+02  0.55150045958E+02  0.67756162761E+02  0.00000000000E+00 0. -1.
         11    1    1    2    0    0 -0.12991777129E+02 -0.27664833975E+02 -0.18186333993E+02  0.35565039800E+02  0.00000000000E+00 0.  1.
</event>
<event>
 7    1  0.2612213E-009  0.9790515E+02  0.7561462E-02  0.1284764E+00
          1   -1    0    0  501    0  0.00000000000E+00  0.00000000000E+00  0.52264131764E+03  0.52264131764E+03  0.00000000000E+00 0. -1.
         -1   -1    0    0    0  501 -0.00000000000E+00 -0.00000000000E+00 -0.37561018972E+02  0.37561018972E+02  0.00000000000E+00 0.  1.
         25    2    1    2    0    0  0.58769404296E+02  0.23603381786E+02  0.38741781160E+03  0.41200670177E+03  0.12508396798E+03 0.  0.
          5    1    3    3  502    0 -0.34499765147E+01  0.22436600627E+02  0.31739909836E+03  0.31823727536E+03  0.41800000000E+01 0.  1.
         -5    1    3    3    0  502  0.62219380811E+02  0.11667811591E+01  0.70018713243E+02  0.93769426419E+02  0.41800000000E+01 0.  1.
        -11    1    1    2    0    0  0.24252961220E+02 -0.99757313704E+01  0.14819886474E+02  0.30122257210E+02  0.00000000000E+00 0.  1.
         11    1    1    2    0    0 -0.83022365516E+02 -0.13627650416E+02  0.82842600590E+02  0.11807337763E+03  0.00000000000E+00 0. -1.
</event>
<event>
 7    1  0.2612213E-009  0.1347592E+03  0.7561462E-02  0.1220560E+00
         -1   -1    0    0    0  501 -0.00000000000E+00  0.00000000000E+00  0.28844614134E+02  0.28844614134E+02  0.00000000000E+00 0.  1.
          1   -1    0    0  501    0  0.00000000000E+00 -0.00000000000E+00 -0.11466186083E+04  0.11466186083E+04  0.00000000000E+00 0. -1.
         25    2    1    2    0    0  0.42825784704E+02 -0.78277073214E+02 -0.97230208515E+03  0.98436704585E+03  0.12508312494E+03 0.  0.
          5    1    3    3  502    0 -0.34554015773E+02 -0.55681248245E+02 -0.29196372335E+03  0.29925686218E+03  0.41800000000E+01 0. -1.
         -5    1    3    3    0  502  0.77379800477E+02 -0.22595824969E+02 -0.68033836180E+03  0.68511018366E+03  0.41800000000E+01 0. -1.
        -11    1    1    2    0    0 -0.67617925371E+02  0.43416586844E+02 -0.10488004819E+03  0.13212497248E+03  0.00000000000E+00 0.  1.
         11    1    1    2    0    0  0.24792140667E+02  0.34860486370E+02 -0.40591860854E+02  0.58971204129E+02  0.00000000000E+00 0. -1.
</event>
<event>
 7    1  0.2612213E-009  0.1132245E+03  0.7561462E-02  0.1254713E+00
          1   -1    0    0  501    0  0.00000000000E+00  0.00000000000E+00  0.36733817426E+04  0.36733817426E+04  0.00000000000E+00 0. -1.
         -1   -1    0    0    0  501 -0.00000000000E+00 -0.00000000000E+00 -0.94419731931E+01  0.94419731931E+01  0.00000000000E+00 0.  1.
         25    2    1    2    0    0  0.27686540293E+02 -0.43742713340E+02  0.33289094322E+04  0.33316611644E+04  0.12509251371E+03 0.  0.
          5    1    3    3  502    0  0.17381643473E+02 -0.84934039818E+02  0.26438975746E+04  0.26453218651E+04  0.41800000000E+01 0. -1.
         -5    1    3    3    0  502  0.10304896820E+02  0.41191326478E+02  0.68501185762E+03  0.68633929929E+03  0.41800000000E+01 0. -1.
        -11    1    1    2    0    0 -0.33567238299E+02 -0.15839119055E+02  0.20056508945E+03  0.20397056720E+03  0.00000000000E+00 0. -1.
         11    1    1    2    0    0  0.58806980069E+01  0.59581832395E+02  0.13446524778E+03  0.14719198423E+03  0.00000000000E+00 0.  1.
</event>
<event>
 7    1  0.2612213E-009  0.1030709E+03  0.7561462E-02  0.1273968E+00
         -1   -1    0    0    0  501 -0.00000000000E+00  0.00000000000E+00  0.64129450123E+02  0.64129450123E+02  0.00000000000E+00 0.  1.
          1   -1    0    0  501    0  0.00000000000E+00 -0.00000000000E+00 -0.27938323509E+03  0.27938323509E+03  0.00000000000E+00 0. -1.
         25    2    1    2    0    0  0.17933031136E+02  0.55405883501E+02 -0.18208752852E+03  0.22846205313E+03  0.12509051181E+03 0.  0.
          5    1    3    3  502    0  0.46279236058E+02  0.67636192905E+02 -0.57910408693E+02  0.10043659749E+03  0.41800000000E+01 0. -1.
         -5    1    3    3    0  502 -0.28346204923E+02 -0.12230309404E+02 -0.12417711983E+03  0.12802545564E+03  0.41800000000E+01 0. -1.
        -11    1    1    2    0    0 -0.32881616197E+02  0.26403889184E+01  0.16796874297E+02  0.37017662318E+02  0.00000000000E+00 0.  1.
         11    1    1    2    0    0  0.14948585061E+02 -0.58046272420E+02 -0.49963130740E+02  0.78032969766E+02  0.00000000000E+00 0. -1.
</event>
<event>
 6    1  0.2612213E-009  0.1822491E+03  0.7561462E-02  0.1165644E+00
          2   -1    0    0  501    0  0.00000000000E+00  0.00000000000E+00  0.13574922581E+04  0.13574922581E+04  0.00000000000E+00 0. -1.
         -2   -1    0    0    0  501 -0.00000000000E+00 -0.00000000000E+00 -0.29837521173E+02  0.29837521173E+02  0.00000000000E+00 0.  1.
          5    1    1    2  502    0  0.79715121746E+02  0.10731633639E+03  0.37670702085E+03  0.39974610523E+03  0.41800000000E+01 0. -1.
         -5    1    1    2    0  502 -0.38303755631E+02  0.41613941301E+02  0.76757143430E+02  0.95435995691E+02  0.41800000000E+01 0. -1.
        -11    1    1    2    0    0 -0.47337703493E+02 -0.32419788958E+02  0.20560435084E+03  0.21345971510E+03  0.00000000000E+00 0. -1.
         11    1    1    2    0    0  0.59263373784E+01 -0.11651048874E+03  0.66858622179E+03  0.67868796323E+03  0.00000000000E+00 0.  1.
</event>
<event>
 7    1  0.2612213E-009  0.1147510E+03  0.7561462E-02  0.1252016E+00
          2   -1    0    0  501    0  0.00000000000E+00  0.00000000000E+00  0.30853251150E+03  0.30853251150E+03  0.00000000000E+00 0. -1.
         -2   -1    0    0    0  501 -0.00000000000E+00 -0.00000000000E+00 -0.50583361721E+02  0.50583361721E+02  0.00000000000E+00 0.  1.
         25    2    1    2    0    0 -0.26732968298E+02  0.55899262976E+02  0.15218859285E+03  0.20651646683E+03  0.12509318160E+03 0.  0.
          5    1    3    3  502    0  0.18166842027E+02  0.84049394211E+02  0.86927481782E+02  0.12234457203E+03  0.41800000000E+01 0. -1.
         -5    1    3    3    0  502 -0.44899810325E+02 -0.28150131235E+02  0.65261111066E+02  0.84171894794E+02  0.41800000000E+01 0. -1.
        -11    1    1    2    0    0 -0.22026421824E+02 -0.19267931491E+02 -0.14022288241E+01  0.29298168680E+02  0.00000000000E+00 0.  1.
         11    1    1    2    0    0  0.48759390122E+02 -0.36631331485E+02  0.10716278575E+03  0.12330123771E+03  0.00000000000E+00 0. -1.
</event>
<event>
 7    1  0.2612213E-009  0.1511457E+03  0.7561462E-02  0.1199072E+00
          2   -1    0    0  501    0  0.00000000000E+00  0.00000000000E+00  0.96358556238E+03  0.96358556238E+03  0.00000000000E+00 0. -1.
         -2   -1    0    0    0  501 -0.00000000000E+00 -0.00000000000E+00 -0.33963173481E+02  0.33963173481E+02  0.00000000000E+00 0.  1.
         25    2    1    2    0    0  0.11042006439E+03  0.84885275761E+02  0.39448412305E+03  0.43664739438E+03  0.12508046616E+03 0.  0.
          5    1    3    3  502    0  0.12082606889E+03  0.68805913336E+02  0.21488090247E+03  0.25597747416E+03  0.41800000000E+01 0.  1.
         -5    1    3    3    0  502 -0.10406004505E+02  0.16079362425E+02  0.17960322059E+03  0.18066992022E+03  0.41800000000E+01 0.  1.
        -11    1    1    2    0    0 -0.43947131194E+02 -0.13352499698E+02  0.58571234246E+02  0.74432715048E+02  0.00000000000E+00 0.  1.
         11    1    1    2    0    0 -0.66472933191E+02 -0.71532776063E+02  0.47656703160E+03  0.48646862643E+03  0.00000000000E+00 0. -1.
</event>
<event>
 7    1  0.2612213E-009  0.1083705E+03  0.7561462E-02  0.1263618E+00
          2   -1    0    0  501    0  0.00000000000E+00  0.00000000000E+00  0.29665610585E+03  0.29665610585E+03  0.00000000000E+00 0. -1.
         -2   -1    0    0    0  501 -0.00000000000E+00 -0.00000000000E+00 -0.62270076756E+02  0.62270076756E+02  0.00000000000E+00 0.  1.
         25    2    1    2    0    0 -0.11026119844E+01 -0.63118781519E+02  0.19916736335E+03  0.24351631575E+03  0.12508941234E+03 0.  0.
          5    1    3    3  502    0  0.30439635896E+01 -0.88387558329E+02  0.73126983155E+02  0.11483315831E+03  0.41800000000E+01 0.  1.
         -5    1    3    3    0  502 -0.41465755740E+01  0.25268776809E+02  0.12604038019E+03  0.12868315744E+03  0.41800000000E+01 0.  1.
        -11    1    1    2    0    0  0.43424601903E+01  0.82496106048E+02  0.96604490455E+01  0.83173245394E+02  0.00000000000E+00 0.  1.
         11    1    1    2    0    0 -0.32398482059E+01 -0.19377324529E+02  0.25558216706E+02  0.32236621466E+02  0.00000000000E+00 0. -1.
</event>
<event>
 7    1  0.2612213E-009  0.1408211E+03  0.7561462E-02  0.1212228E+00
          2   -1    0    0  501    0  0.00000000000E+00  0.00000000000E+00  0.15301012758E+03  0.15301012758E+03  0.00000000000E+00 0. -1.
         -2   -1    0    0    0  501 -0.00000000000E+00 -0.00000000000E+00 -0.13233527492E+03  0.13233527492E+03  0.00000000000E+00 0.  1.
         25    2    1    2    0    0  0.84671086726E+02  0.30195499726E+02 -0.60160636117E+01  0.15415872329E+03  0.12509099813E+03 0.  0.
          5    1    3    3  502    0  0.11716574030E+03  0.15993671908E+02 -0.39988891456E+01  0.11839371501E+03  0.41800000000E+01 0. -1.
         -5    1    3    3    0  502 -0.32494653571E+02  0.14201827818E+02 -0.20171744661E+01  0.35765008275E+02  0.41800000000E+01 0. -1.
        -11    1    1    2    0    0 -0.24187272094E+02 -0.56645682820E+02  0.54270626276E+01  0.61832115622E+02  0.00000000000E+00 0.  1.
         11    1    1    2    0    0 -0.60483814633E+02  0.26450183094E+02  0.21263853640E+02  0.69354563584E+02  0.00000000000E+00 0. -1.
</event>
<event>
 7    1  0.2612213E-009  0.3112363E+03  0.7561462E-02  0.1079755E+00
         -2   -1    0    0    0  501 -0.00000000000E+00  0.00000000000E+00  0.72211261177E+02  0.72211261177E+02  0.00000000000E+00 0.  1.
          2   -1    0    0  501    0  0.00000000000E+00 -0.00000000000E+00 -0.18285667218E+04  0.18285667218E+04  0.00000000000E+00 0. -1.
         25    2    1    2    0    0 -0.30636066995E+03  0.61652240441E+01 -0.46698313607E+03  0.57237742368E+03  0.12509114949E+03 0.  0.
          5    1    3    3  502    0 -0.18754939005E+03  0.87788156730E+01 -0.38371722901E+03  0.42720981444E+03  0.41800000000E+01 0. -1.
         -5    1    3    3    0  502 -0.11881127991E+03 -0.26135916289E+01 -0.83265907058E+02  0.14516760924E+03  0.41800000000E+01 0. -1.
        -11    1    1    2    0    0  0.17877182884E+03 -0.41176039546E+02 -0.84841721683E+03  0.86802454276E+03  0.00000000000E+00 0. -1.
         11    1    1    2    0    0  0.12758884111E+03  0.35010815502E+02 -0.44095510777E+03  0.46037601658E+03  0.00000000000E+00 0.  1.
</event>
<event>
 7    1  0.2612213E-009  0.1244989E+03  0.7561462E-02  0.1235854E+00
         -1   -1    0    0    0  501 -0.00000000000E+00  0.00000000000E+00  0.60729529814E+02  0.60729529814E+02  0.00000000000E+00 0.  1.
          1   -1    0    0  501    0  0.00000000000E+00 -0.00000000000E+00 -0.39619378783E+03  0.39619378783E+03  0.00000000000E+00 0. -1.
         25    2    1    2    0    0  0.90625981084E+02  0.62002982323E+02 -0.21294343302E+03  0.27027807734E+03  0.12509154712E+03 0.  0.
          5    1    3    3  502    0  0.55714337940E+02 -0.52791488921E+01 -0.14724988017E+02  0.58019432410E+02  0.41800000000E+01 0. -1.
         -5    1    3    3    0  502  0.34911643144E+02  0.67282131215E+02 -0.19821844500E+03  0.21225864493E+03  0.41800000000E+01 0. -1.
        -11    1    1    2    0    0 -0.89751820668E+01 -0.26405727558E+02  0.76469180610E+01  0.28918708422E+02  0.00000000000E+00 0.  1.
         11    1    1    2    0    0 -0.81650799017E+02 -0.35597254765E+02 -0.13016774306E+03  0.15772653188E+03  0.00000000000E+00 0. -1.
</event>
<event>
 7    1  0.2612213E-009  0.1121271E+03  0.7561462E-02  0.1256681E+00
          2   -1    0    0  501    0  0.00000000000E+00  0.00000000000E+00  0.42808027217E+03  0.42808027217E+03  0.00000000000E+00 0. -1.
         -2   -1    0    0    0  501 -0.00000000000E+00 -0.00000000000E+00 -0.37819092906E+02  0.37819092906E+02  0.00000000000E+00 0.  1.
         25    2    1    2    0    0 -0.57968714683E+02 -0.88139997932E+01  0.19105789327E+03  0.23577220486E+03  0.12508939015E+03 0.  0.
          5    1    3    3  502    0 -0.34330557807E+02 -0.63748521105E+02  0.70567247082E+02  0.10119125408E+03  0.41800000000E+01 0.  1.
         -5    1    3    3    0  502 -0.23638156876E+02  0.54934521312E+02  0.12049064619E+03  0.13458095077E+03  0.41800000000E+01 0.  1.
        -11    1    1    2    0    0  0.66347719036E+02 -0.13707405918E+02  0.65337441946E+02  0.94121698446E+02  0.00000000000E+00 0.  1.
         11    1    1    2    0    0 -0.83790043526E+01  0.22521405711E+02  0.13386584405E+03  0.13600546177E+03  0.00000000000E+00 0. -1.
</event>
<event>
 7    1  0.2612213E-009  0.1425208E+03  0.7561462E-02  0.1209977E+00
         -1   -1    0    0    0  501 -0.00000000000E+00  0.00000000000E+00  0.38392335144E+03  0.38392335144E+03  0.00000000000E+00 0.  1.
          1   -1    0    0  501    0  0.00000000000E+00 -0.00000000000E+00 -0.55448483973E+02  0.55448483973E+02  0.00000000000E+00 0. -1.
         25    2    1    2    0    0  0.87778904329E+02 -0.37408183496E+02  0.15857472194E+03  0.22337898103E+03  0.12509084095E+03 0.  0.
          5    1    3    3  502    0 -0.25478899303E+02  0.13589298292E+02  0.52153826066E+02  0.59760666923E+02  0.41800000000E+01 0.  1.
         -5    1    3    3    0  502  0.11325780363E+03 -0.50997481788E+02  0.10642089587E+03  0.16361831411E+03  0.41800000000E+01 0.  1.
        -11    1    1    2    0    0 -0.56775786404E+02 -0.24894549729E+02  0.62603421418E+02  0.88104579343E+02  0.00000000000E+00 0. -1.
         11    1    1    2    0    0 -0.31003117925E+02  0.62302733226E+02  0.10729672411E+03  0.12788827504E+03  0.00000000000E+00 0.  1.
</event>
<event>
 7    1  0.2612213E-009  0.1058237E+03  0.7561462E-02  0.1268505E+00
         -2   -1    0    0    0  501 -0.00000000000E+00  0.00000000000E+00  0.30527033755E+02  0.30527033755E+02  0.00000000000E+00 0.  1.
          2   -1    0    0  501    0  0.00000000000E+00 -0.00000000000E+00 -0.51223869684E+03  0.51223869684E+03  0.00000000000E+00 0. -1.
         25    2    1    2    0    0 -0.55762449854E+02 -0.25635521235E+01 -0.32785908606E+03  0.35532556454E+03  0.12509457978E+03 0.  0.
          5    1    3    3  502    0  0.27198728947E+02  0.31659602465E+02 -0.63377907411E+02  0.76002189656E+02  0.41800000000E+01 0. -1.
         -5    1    3    3    0  502 -0.82961178802E+02 -0.34223154589E+02 -0.26448117865E+03  0.27932337488E+03  0.41800000000E+01 0. -1.
        -11    1    1    2    0    0  0.47262915101E+02 -0.23257986592E+02 -0.29958777420E+02  0.60599054685E+02  0.00000000000E+00 0.  1.
         11    1    1    2    0    0  0.84995347534E+01  0.25821538716E+02 -0.12389379960E+03  0.12684111137E+03  0.00000000000E+00 0. -1.
</event>
<event>
 7    1  0.2612213E-009  0.7997116E+02  0.7561462E-02  0.1329133E+00
         -2   -1    0    0    0  501 -0.00000000000E+00  0.00000000000E+00  0.36610219781E+02  0.36610219781E+02  0.00000000000E+00 0.  1.
          2   -1    0    0  501    0  0.00000000000E+00 -0.00000000000E+00 -0.41067531054E+03  0.41067531054E+03  0.00000000000E+00 0. -1.
         25    2    1    2    0    0  0.18082324613E+02  0.21435018011E+02 -0.11978292095E+03  0.17544792003E+03  0.12509034348E+03 0.  0.
          5    1    3    3  502    0  0.28521193068E+02 -0.17531104365E+02 -0.12943433897E+03  0.13375918129E+03  0.41800000000E+01 0. -1.
         -5    1    3    3    0  502 -0.10438868454E+02  0.38966122376E+02  0.96514180282E+01  0.41688738738E+02  0.41800000000E+01 0. -1.
        -11    1    1    2    0    0 -0.37912611684E+02  0.17650277867E+02 -0.63129056173E+02  0.75724343290E+02  0.00000000000E+00 0.  1.
         11    1    1    2    0    0  0.19830287070E+02 -0.39085295878E+02 -0.19115311364E+03  0.19611326700E+03  0.00000000000E+00 0. -1.
</event>
<event>
 7    1  0.2612213E-009  0.1201132E+03  0.7561462E-02  0.1242910E+00
         -1   -1    0    0    0  501 -0.00000000000E+00  0.00000000000E+00  0.23622861838E+03  0.23622861838E+03  0.00000000000E+00 0.  1.
          1   -1    0    0  501    0  0.00000000000E+00 -0.00000000000E+00 -0.23036564158E+03  0.23036564158E+03  0.00000000000E+00 0. -1.
         25    2    1    2    0    0 -0.53972313099E+02  0.10578730479E+03 -0.16642480758E+03  0.23968104298E+03  0.12508325767E+03 0.  0.
          5    1    3    3  502    0 -0.29941584802E+02  0.75921944662E+02 -0.18089345738E+03  0.19849573170E+03  0.41800000000E+01 0.  1.
         -5    1    3    3    0  502 -0.24030728297E+02  0.29865360130E+02  0.14468649796E+02  0.41185311278E+02  0.41800000000E+01 0.  1.
        -11    1    1    2    0    0  0.27400970672E+02 -0.71484145250E+02  0.16634706741E+03  0.18311783925E+03  0.00000000000E+00 0.  1.
         11    1    1    2    0    0  0.26571342427E+02 -0.34303159542E+02  0.59407169707E+01  0.43795377736E+02  0.00000000000E+00 0. -1.
</event>
<event>
 7    1  0.2612213E-009  0.1520204E+03  0.7561462E-02  0.1198012E+00
          2   -1    0    0  501    0  0.00000000000E+00  0.00000000000E+00  0.13615085384E+03  0.13615085384E+03  0.00000000000E+00 0. -1.
         -2   -1    0    0    0  501 -0.00000000000E+00 -0.00000000000E+00 -0.22315656052E+03  0.22315656052E+03  0.00000000000E+00 0.  1.
         25    2    1    2    0    0 -0.13121201451E+03  0.36892049567E+02 -0.51221600750E+02  0.19195931246E+03  0.12508840547E+03 0.  0.
          5    1    3    3  502    0 -0.18583286088E+02 -0.26135763559E+02 -0.53833071825E+02  0.62800387584E+02  0.41800000000E+01 0. -1.
         -5    1    3    3    0  502 -0.11262872843E+03  0.63027813125E+02  0.26114710755E+01  0.12915892488E+03  0.41800000000E+01 0. -1.
        -11    1    1    2    0    0  0.80244344057E+02 -0.43329686420E+02  0.18018102669E+02  0.92958423514E+02  0.00000000000E+00 0. -1.
         11    1    1    2    0    0  0.50967670455E+02  0.64376368536E+01 -0.53802208602E+02  0.74389678386E+02  0.00000000000E+00 0.  1.
</event>
<event>
 7    1  0.2774722E-009  0.1839819E+03  0.7561462E-02  0.1164004E+00
         -2   -1    0    0    0  501 -0.00000000000E+00  0.00000000000E+00  0.43230375629E+02  0.43230375629E+02  0.00000000000E+00 0.  1.
          2   -1    0    0  501    0  0.00000000000E+00 -0.00000000000E+00 -0.98504202831E+03  0.98504202831E+03  0.00000000000E+00 0. -1.
         25    2    1    2    0    0 -0.16375225194E+03  0.57789330367E+02 -0.44529111492E+03  0.49405016851E+03  0.12508791014E+03 0.  0.
          5    1    3    3  502    0 -0.35639831335E+02 -0.20370870192E+02 -0.26196116469E+02  0.48876158278E+02  0.41800000000E+01 0.  1.
         -5    1    3    3    0  502 -0.12811242061E+03  0.78160200559E+02 -0.41909499845E+03  0.44517401024E+03  0.41800000000E+01 0.  1.
        -11    1    1    2    0    0  0.63963004977E+02 -0.39330539179E+02 -0.33619293504E+03  0.34447619205E+03  0.00000000000E+00 0. -1.
         11    1    1    2    0    0  0.99789246965E+02 -0.18458791188E+02 -0.16032760272E+03  0.18974604338E+03  0.00000000000E+00 0.  1.
</event>
<event>
 7    1  0.2612213E-009  0.1129277E+03  0.7561462E-02  0.1255242E+00
          1   -1    0    0  501    0  0.00000000000E+00  0.00000000000E+00  0.55855055193E+03  0.55855055193E+03  0.00000000000E+00 0. -1.
         -1   -1    0    0    0  501 -0.00000000000E+00 -0.00000000000E+00 -0.37508381605E+02  0.37508381605E+02  0.00000000000E+00 0.  1.
         25    2    1    2    0    0 -0.57907342077E+02 -0.73679297242E+02  0.31545025129E+03  0.35204830231E+03  0.12508895642E+03 0.  0.
          5    1    3    3  502    0 -0.17426066185E+02 -0.52123967440E+02  0.29700324610E+02  0.62611160717E+02  0.41800000000E+01 0. -1.
         -5    1    3    3    0  502 -0.40481275892E+02 -0.21555329803E+02  0.28574992668E+03  0.28943714160E+03  0.41800000000E+01 0. -1.
        -11    1    1    2    0    0  0.65717041889E+02  0.87127737667E+02  0.14514849547E+03  0.18159861784E+03  0.00000000000E+00 0.  1.
         11    1    1    2    0    0 -0.78096998120E+01 -0.13448440425E+02  0.60443423575E+02  0.62412013383E+02  0.00000000000E+00 0. -1.
</event>
<event>
 7    1  0.2612213E-009  0.1150410E+03  0.7561462E-02  0.1251510E+00
         -1   -1    0    0    0  501 -0.00000000000E+00  0.00000000000E+00  0.32003351439E+02  0.32003351439E+02  0.00000000000E+00 0.  1.
          1   -1    0    0  501    0  0.00000000000E+00 -0.00000000000E+00 -0.59312220736E+03  0.59312220736E+03  0.00000000000E+00 0. -1.
         25    2    1    2    0    0  0.18422614355E+02 -0.72718669876E+02 -0.21514114029E+03  0.25992418045E+03  0.12508985439E+03 0.  0.
          5    1    3    3  502    0  0.32879357115E+02 -0.10487257861E+03 -0.15438264932E+03  0.18955417347E+03  0.41800000000E+01 0.  1.
         -5    1    3    3    0  502 -0.14456742760E+02  0.32153908734E+02 -0.60758490964E+02  0.70370006980E+02  0.41800000000E+01 0.  1.
        -11    1    1    2    0    0  0.12395126527E+02  0.21749505575E+02 -0.15597449293E+02  0.29495094148E+02  0.00000000000E+00 0.  1.
         11    1    1    2    0    0 -0.30817740882E+02  0.50969164302E+02 -0.33038026634E+03  0.33570628420E+03  0.00000000000E+00 0. -1.
</event>
<event>
 7    1  0.2612213E-009  0.1072545E+03  0.7561462E-02  0.1265740E+00
          1   -1    0    0  501    0  0.00000000000E+00  0.00000000000E+00  0.37688281662E+03  0.37688281662E+03  0.00000000000E+00 0. -1.
         -1   -1    0    0    0  501 -0.00000000000E+00 -0.00000000000E+00 -0.49781606029E+02  0.49781606029E+02  0.00000000000E+00 0.  1.
         25    2    1    2    0    0  0.23121584354E+02  0.46017424199E+02  0.28331923424E+03  0.31395718494E+03  0.12508842669E+03 0.  0.
          5    1    3    3  502    0  0.26141825983E+01 -0.32659698338E+02  0.17695617399E+03  0.18001236001E+03  0.41800000000E+01 0. -1.
         -5    1    3    3    0  502  0.20507401756E+02  0.78677122536E+02  0.10636306025E+03  0.13394482492E+03  0.41800000000E+01 0. -1.
        -11    1    1    2    0    0  0.14865651803E+02 -0.58282025392E+02  0.40795257045E+02  0.72677610615E+02  0.00000000000E+00 0.  1.
         11    1    1    2    0    0 -0.37987236157E+02  0.12264601194E+02  0.29867193074E+01  0.40029627097E+02  0.00000000000E+00 0. -1.
</event>
<event>
 7    1  0.2612213E-009  0.9028774E+02  0.7561462E-02  0.1302156E+00
          4   -1    0    0  501    0  0.00000000000E+00  0.00000000000E+00  0.31322359600E+02  0.31322359600E+02  0.00000000000E+00 0. -1.
         -4   -1    0    0    0  501 -0.00000000000E+00 -0.00000000000E+00 -0.39617147726E+03  0.39617147726E+03  0.00000000000E+00 0.  1.
         25    2    1    2    0    0 -0.93260882930E+01  0.89008000984E+00 -0.25446584284E+03  0.28370460373E+03  0.12509064248E+03 0.  0.
          5    1    3    3  502    0  0.29071676902E+02  0.30394960975E+02 -0.22023917739E+03  0.22425829685E+03  0.41800000000E+01 0. -1.
         -5    1    3    3    0  502 -0.38397765195E+02 -0.29504880965E+02 -0.34226665454E+02  0.59446306873E+02  0.41800000000E+01 0. -1.
        -11    1    1    2    0    0  0.35567093503E+02 -0.32805400962E+02 -0.75705838211E+02  0.89847573211E+02  0.00000000000E+00 0.  1.
         11    1    1    2    0    0 -0.26241005210E+02  0.31915320952E+02 -0.34677436610E+02  0.53941659928E+02  0.00000000000E+00 0. -1.
</event>
<event>
 7    1  0.2612213E-009  0.1310472E+03  0.7561462E-02  0.1225910E+00
          1   -1    0    0  501    0  0.00000000000E+00  0.00000000000E+00  0.75346494161E+02  0.75346494161E+02  0.00000000000E+00 0. -1.
         -1   -1    0    0    0  501 -0.00000000000E+00 -0.00000000000E+00 -0.43742219625E+03  0.43742219625E+03  0.00000000000E+00 0.  1.
         25    2    1    2    0    0 -0.44525424525E+02 -0.10890789861E+03 -0.30878415874E+03  0.35332385089E+03  0.12508654248E+03 0.  0.
          5    1    3    3  502    0 -0.27218525179E+02 -0.42440505692E+02 -0.26925606485E+03  0.27396778186E+03  0.41800000000E+01 0.  1.
         -5    1    3    3    0  502 -0.17306899346E+02 -0.66467392914E+02 -0.39528093890E+02  0.79356069033E+02  0.41800000000E+01 0.  1.
        -11    1    1    2    0    0  0.67604702325E+02  0.69053444239E+02 -0.58708338459E+02  0.11307273297E+03  0.00000000000E+00 0.  1.
         11    1    1    2    0    0 -0.23079277800E+02  0.39854454367E+02  0.54167951069E+01  0.46372106551E+02  0.00000000000E+00 0. -1.
</event>
<event>
 7    1  0.2612213E-009  0.1562120E+03  0.7561462E-02  0.1193041E+00
          2   -1    0    0  501    0  0.00000000000E+00  0.00000000000E+00  0.58368035927E+02  0.58368035927E+02  0.00000000000E+00 0. -1.
         -2   -1    0    0    0  501 -0.00000000000E+00 -0.00000000000E+00 -0.64374650192E+03  0.64374650192E+03  0.00000000000E+00 0.  1.
         25    2    1    2    0    0  0.13256001106E+03 -0.69748359605E+02 -0.20250961548E+03  0.28124775290E+03  0.12511260507E+03 0.  0.
          5    1    3    3  502    0  0.88390311803E+02 -0.21403577870E+02 -0.28688956717E+02  0.95454119889E+02  0.41800000000E+01 0. -1.
         -5    1    3    3    0  502  0.44169699257E+02 -0.48344781736E+02 -0.17382065876E+03  0.18579363301E+03  0.41800000000E+01 0. -1.
        -11    1    1    2    0    0 -0.12476387613E+03  0.49778091135E+02 -0.37448469316E+03  0.39784754437E+03  0.00000000000E+00 0.  1.
         11    1    1    2    0    0 -0.77961349263E+01  0.19970268470E+02 -0.83841573497E+01  0.23019240583E+02  0.00000000000E+00 0. -1.
</event>
<event>
 7    1  0.2612213E-009  0.9719405E+02  0.7561462E-02  0.1286310E+00
          2   -1    0    0  501    0  0.00000000000E+00  0.00000000000E+00  0.30537498230E+03  0.30537498230E+03  0.00000000000E+00 0. -1.
         -2   -1    0    0    0  501 -0.00000000000E+00 -0.00000000000E+00 -0.50317475523E+02  0.50317475523E+02  0.00000000000E+00 0.  1.
         25    2    1    2    0    0 -0.50750188624E+02 -0.22389962774E+02  0.20320903876E+03  0.24498543871E+03  0.12508820755E+03 0.  0.
          5    1    3    3  502    0 -0.12095537973E+02  0.30021433860E+02  0.11563543126E+01  0.32655751180E+02  0.41800000000E+01 0. -1.
         -5    1    3    3    0  502 -0.38654650651E+02 -0.52411396634E+02  0.20205268445E+03  0.21232968753E+03  0.41800000000E+01 0. -1.
        -11    1    1    2    0    0 -0.18313276284E+02 -0.92637282458E+01  0.18893605231E+02  0.27895538495E+02  0.00000000000E+00 0. -1.
         11    1    1    2    0    0  0.69063464908E+02  0.31653691020E+02  0.32954862778E+02  0.82811480611E+02  0.00000000000E+00 0.  1.
</event>
<event>
 7    1  0.2612213E-009  0.1928571E+03  0.7561462E-02  0.1155909E+00
         -1   -1    0    0    0  501 -0.00000000000E+00  0.00000000000E+00  0.27500742962E+03  0.27500742962E+03  0.00000000000E+00 0.  1.
          1   -1    0    0  501    0  0.00000000000E+00 -0.00000000000E+00 -0.14268556081E+03  0.14268556081E+03  0.00000000000E+00 0. -1.
         25    2    1    2    0    0  0.96619383558E+02 -0.13088877459E+03  0.39959373154E+02  0.20906801471E+03  0.12508199982E+03 0.  0.
          5    1    3    3  502    0  0.12208533797E+03 -0.11832947977E+03  0.52148129051E+02  0.17788646743E+03  0.41800000000E+01 0. -1.
         -5    1    3    3    0  502 -0.25465954413E+02 -0.12559294815E+02 -0.12188755897E+02  0.31181547280E+02  0.41800000000E+01 0. -1.
        -11    1    1    2    0    0 -0.15388049541E+02  0.98171345039E+02  0.52866251416E+02  0.11255774338E+03  0.00000000000E+00 0. -1.
         11    1    1    2    0    0 -0.81231334017E+02  0.32717429548E+02  0.39496244234E+02  0.96067232348E+02  0.00000000000E+00 0.  1.
</event>
<event>
 7    1  0.4134291E-009  0.1602497E+03  0.7561462E-02  0.1188415E+00
          2   -1    0    0  501    0  0.00000000000E+00  0.00000000000E+00  0.47093285186E+03  0.47093285186E+03  0.00000000000E+00 0.  1.
         -2   -1    0    0    0  501 -0.00000000000E+00 -0.00000000000E+00 -0.91865361044E+02  0.91865361044E+02  0.00000000000E+00 0. -1.
         25    2    1    2    0    0  0.93880254434E+02  0.75243512415E+02  0.21720699388E+02  0.17491184110E+03  0.12508906843E+03 0.  0.
          5    1    3    3  502    0  0.10080330151E+03  0.10223138070E+03  0.87553410677E+01  0.14389819037E+03  0.41800000000E+01 0. -1.
         -5    1    3    3    0  502 -0.69230470740E+01 -0.26987868282E+02  0.12965358320E+02  0.31013650730E+02  0.41800000000E+01 0. -1.
        -11    1    1    2    0    0 -0.62585248638E+02  0.47815367979E+01  0.11927343258E+03  0.13478103784E+03  0.00000000000E+00 0.  1.
         11    1    1    2    0    0 -0.31295005796E+02 -0.80025049213E+02  0.23807335884E+03  0.25310533396E+03  0.00000000000E+00 0. -1.
</event>
<event>
 7    1  0.2612213E-009  0.1880142E+03  0.7561462E-02  0.1160265E+00
          2   -1    0    0  501    0  0.00000000000E+00  0.00000000000E+00  0.11881767986E+03  0.11881767986E+03  0.00000000000E+00 0.  1.
         -2   -1    0    0    0  501 -0.00000000000E+00 -0.00000000000E+00 -0.43341994350E+03  0.43341994350E+03  0.00000000000E+00 0. -1.
         25    2    1    2    0    0  0.91735639117E+01  0.16490442012E+03 -0.29657693304E+03  0.36177907583E+03  0.12509436616E+03 0.  0.
          5    1    3    3  502    0  0.13759848227E+02  0.17760626725E+03 -0.21619056759E+03  0.28015915745E+03  0.41800000000E+01 0.  1.
         -5    1    3    3    0  502 -0.45862843154E+01 -0.12701847137E+02 -0.80386365454E+02  0.81619918374E+02  0.41800000000E+01 0.  1.
        -11    1    1    2    0    0 -0.35301555421E+02 -0.30102196496E+02 -0.25508834658E+02  0.52943769177E+02  0.00000000000E+00 0.  1.
         11    1    1    2    0    0  0.26127991510E+02 -0.13480222362E+03  0.74835040637E+01  0.13751477836E+03  0.00000000000E+00 0. -1.
</event>
<event>
 7    1  0.2612213E-009  0.1360352E+03  0.7561462E-02  0.1218766E+00
         -1   -1    0    0    0  501 -0.00000000000E+00  0.00000000000E+00  0.87680315567E+02  0.87680315567E+02  0.00000000000E+00 0.  1.
          1   -1    0    0  501    0  0.00000000000E+00 -0.00000000000E+00 -0.24688894791E+03  0.24688894791E+03  0.00000000000E+00 0. -1.
         25    2    1    2    0    0  0.96754373998E+02  0.91981348475E+01 -0.65383611588E+02  0.17137445905E+03  0.12509266156E+03 0.  0.
          5    1    3    3  502    0  0.12513212561E+03 -0.68626611714E+01 -0.48767787762E+02  0.13453963915E+03  0.41800000000E+01 0. -1.
         -5    1    3    3    0  502 -0.28377751615E+02  0.16060796019E+02 -0.16615823826E+02  0.36834819898E+02  0.41800000000E+01 0. -1.
        -11    1    1    2    0    0 -0.56518128322E+02  0.24232598069E+02 -0.92239363350E+02  0.11085854856E+03  0.00000000000E+00 0. -1.
         11    1    1    2    0    0 -0.40236245676E+02 -0.33430732916E+02 -0.15856574100E+01  0.52336255873E+02  0.00000000000E+00 0.  1.
</event>
<event>
 7    1  0.2612213E-009  0.1698880E+03  0.7561462E-02  0.1177965E+00
          1   -1    0    0  501    0  0.00000000000E+00  0.00000000000E+00  0.77473725998E+02  0.77473725998E+02  0.00000000000E+00 0. -1.
         -1   -1    0    0    0  501 -0.00000000000E+00 -0.00000000000E+00 -0.39507645212E+03  0.39507645212E+03  0.00000000000E+00 0.  1.
         25    2    1    2    0    0 -0.64540331212E+02 -0.12014307096E+03 -0.16515522719E+03  0.24804853969E+03  0.12510802181E+03 0.  0.
          5    1    3    3  502    0 -0.61627877035E+02 -0.10149408147E+01 -0.82053897297E+02  0.10270997904E+03  0.41800000000E+01 0.  1.
         -5    1    3    3    0  502 -0.29124541766E+01 -0.11912813015E+03 -0.83101329889E+02  0.14533856065E+03  0.41800000000E+01 0.  1.
        -11    1    1    2    0    0  0.19818977878E+01  0.88742013632E+02 -0.54660759714E+02  0.10424428788E+03  0.00000000000E+00 0. -1.
         11    1    1    2    0    0  0.62558433424E+02  0.31401057332E+02 -0.97786739218E+02  0.12025735055E+03  0.00000000000E+00 0.  1.
</event>
<event>
 7    1  0.2612213E-009  0.2313119E+03  0.7561462E-02  0.1125720E+00
         -1   -1    0    0    0  501 -0.00000000000E+00  0.00000000000E+00  0.35474745431E+03  0.35474745431E+03  0.00000000000E+00 0.  1.
          1   -1    0    0  501    0  0.00000000000E+00 -0.00000000000E+00 -0.16332888004E+03  0.16332888004E+03  0.00000000000E+00 0. -1.
         25    2    1    2    0    0 -0.16562900928E+03  0.13536617429E+03  0.79792998477E+02  0.26032979622E+03  0.12509080837E+03 0.  0.
          5    1    3    3  502    0  0.37931798464E+01 -0.11417639797E+02 -0.12526016537E+02  0.17864047755E+02  0.41800000000E+01 0.  1.
         -5    1    3    3    0  502 -0.16942218913E+03  0.14678381409E+03  0.92319015014E+02  0.24246574847E+03  0.41800000000E+01 0.  1.
        -11    1    1    2    0    0  0.52414054700E+02 -0.44470833795E+01  0.15466614833E+01  0.52625106579E+02  0.00000000000E+00 0. -1.
         11    1    1    2    0    0  0.11321495458E+03 -0.13091909091E+03  0.11007891430E+03  0.20512143155E+03  0.00000000000E+00 0.  1.
</event>
<event>
 7    1  0.2796261E-009  0.9662306E+02  0.7561462E-02  0.1287562E+00
         -1   -1    0    0    0  501 -0.00000000000E+00  0.00000000000E+00  0.25171083092E+03  0.25171083092E+03  0.00000000000E+00 0.  1.
          1   -1    0    0  501    0  0.00000000000E+00 -0.00000000000E+00 -0.72353232085E+02  0.72353232085E+02  0.00000000000E+00 0. -1.
         25    2    1    2    0    0  0.75533757574E+02  0.27265364766E+01  0.67426670284E+02  0.16095147832E+03  0.12508493104E+03 0.  0.
          5    1    3    3  502    0  0.57859769919E+02 -0.10189443139E+01  0.10448465411E+03  0.11951278830E+03  0.41800000000E+01 0.  1.
         -5    1    3    3    0  502  0.17673987655E+02  0.37454807905E+01 -0.37057983822E+02  0.41438690025E+02  0.41800000000E+01 0.  1.
        -11    1    1    2    0    0 -0.20516299428E+02  0.41367797966E+02  0.59143990769E+02  0.75034824548E+02  0.00000000000E+00 0. -1.
         11    1    1    2    0    0 -0.55017458145E+02 -0.44094334442E+02  0.52786937785E+02  0.88077760141E+02  0.00000000000E+00 0.  1.
</event>
<event>
 7    1  0.2612213E-009  0.6387500E+02  0.7561462E-02  0.1382254E+00
          1   -1    0    0  501    0  0.00000000000E+00  0.00000000000E+00  0.11021998745E+03  0.11021998745E+03  0.00000000000E+00 0. -1.
         -1   -1    0    0    0  501 -0.00000000000E+00 -0.00000000000E+00 -0.11167544028E+03  0.11167544028E+03  0.00000000000E+00 0.  1.
         25    2    1    2    0    0  0.21200861086E+02 -0.73761303866E+01 -0.79871966418E+01  0.12734171158E+03  0.12509289503E+03 0.  0.
          5    1    3    3  502    0 -0.12031436403E+02  0.11654105966E+02  0.52702531510E+02  0.55458118210E+02  0.41800000000E+01 0.  1.
         -5    1    3    3    0  502  0.33232297489E+02 -0.19030236353E+02 -0.60689728152E+02  0.71883593366E+02  0.41800000000E+01 0.  1.
        -11    1    1    2    0    0 -0.29982374810E+02  0.33171847705E+02 -0.26309405370E+02  0.51879659698E+02  0.00000000000E+00 0.  1.
         11    1    1    2    0    0  0.87815137234E+01 -0.25795717319E+02  0.32841149174E+02  0.42674056455E+02  0.00000000000E+00 0. -1.
</event>
<event>
 7    1  0.2612213E-009  0.1611228E+03  0.7561462E-02  0.1187435E+00
          1   -1    0    0  501    0  0.00000000000E+00  0.00000000000E+00  0.36164227502E+03  0.36164227502E+03  0.00000000000E+00 0. -1.
         -1   -1    0    0    0  501 -0.00000000000E+00 -0.00000000000E+00 -0.86933661953E+02  0.86933661953E+02  0.00000000000E+00 0.  1.
         25    2    1    2    0    0 -0.13777003501E+03  0.90959135381E+01  0.17360014803E+03  0.25464872482E+03  0.12508254660E+03 0.  0.
          5    1    3    3  502    0 -0.25789664580E+02 -0.35264565052E+02  0.10988119993E+03  0.11832179362E+03  0.41800000000E+01 0. -1.
         -5    1    3    3    0  502 -0.11198037043E+03  0.44360478591E+02  0.63718948102E+02  0.13632693120E+03  0.41800000000E+01 0. -1.
        -11    1    1    2    0    0  0.10301731329E+03  0.28253134487E+02  0.94240573297E+02  0.14245031450E+03  0.00000000000E+00 0.  1.
         11    1    1    2    0    0  0.34752721724E+02 -0.37349048025E+02  0.68678917403E+01  0.51476897659E+02  0.00000000000E+00 0. -1.
</event>
<event>
 7    1  0.2612213E-009  0.1194812E+03  0.7561462E-02  0.1243955E+00
         -2   -1    0    0    0  501 -0.00000000000E+00  0.00000000000E+00  0.57395235323E+02  0.57395235323E+02  0.00000000000E+00 0.  1.
          2   -1    0    0  501    0  0.00000000000E+00 -0.00000000000E+00 -0.35651098298E+03  0.35651098298E+03  0.00000000000E+00 0. -1.
         25    2    1    2    0    0  0.56400054869E+02 -0.43314042874E+02 -0.68249639934E+02  0.15925828965E+03  0.12509243372E+03 0.  0.
          5    1    3    3  502    0  0.96439142988E+02 -0.25404694028E+02 -0.46267125310E+02  0.11001829877E+03  0.41800000000E+01 0. -1.
         -5    1    3    3    0  502 -0.40039088119E+02 -0.17909348846E+02 -0.21982514624E+02  0.49239990888E+02  0.41800000000E+01 0. -1.
        -11    1    1    2    0    0  0.48299851634E+01  0.32561735660E+02 -0.30560642107E+02  0.44917126264E+02  0.00000000000E+00 0.  1.
         11    1    1    2    0    0 -0.61230040033E+02  0.10752307214E+02 -0.20030546561E+03  0.20973080238E+03  0.00000000000E+00 0. -1.
</event>
<event>
 7    1  0.2612213E-009  0.1816513E+03  0.7561462E-02  0.1166214E+00
         -2   -1    0    0    0  501 -0.00000000000E+00  0.00000000000E+00  0.21119415255E+03  0.21119415255E+03  0.00000000000E+00 0.  1.
          2   -1    0    0  501    0  0.00000000000E+00 -0.00000000000E+00 -0.20697896176E+03  0.20697896176E+03  0.00000000000E+00 0. -1.
         25    2    1    2    0    0 -0.15752503102E+03  0.64596013341E+02  0.54822912123E+02  0.21826425748E+03  0.12508778542E+03 0.  0.
          5    1    3    3  502    0 -0.46644063404E+02 -0.17885256951E+02 -0.27676937800E+02  0.57262870632E+02  0.41800000000E+01 0. -1.
         -5    1    3    3    0  502 -0.11088096762E+03  0.82481270292E+02  0.82499849923E+02  0.16100138684E+03  0.41800000000E+01 0. -1.
        -11    1    1    2    0    0  0.11407704937E+03 -0.65332256319E+02 -0.73689230374E+02  0.15070494213E+03  0.00000000000E+00 0.  1.
         11    1    1    2    0    0  0.43447981647E+02  0.73624297797E+00  0.23081509040E+02  0.49203914707E+02  0.00000000000E+00 0. -1.
</event>
<event>
 7    1  0.2612213E-009  0.1953235E+03  0.7561462E-02  0.1153746E+00
          2   -1    0    0  501    0  0.00000000000E+00  0.00000000000E+00  0.15301416692E+03  0.15301416692E+03  0.00000000000E+00 0. -1.
         -2   -1    0    0    0  501 -0.00000000000E+00 -0.00000000000E+00 -0.39560695686E+03  0.39560695686E+03  0.00000000000E+00 0.  1.
         25    2    1    2    0    0 -0.11568413634E+03 -0.12999399530E+03  0.27021865676E+02  0.21600371871E+03  0.12508463958E+03 0.  0.
          5    1    3    3  502    0 -0.52638762611E+02  0.15860406788E+02  0.11252717073E+02  0.56271554752E+02  0.41800000000E+01 0.  1.
         -5    1    3    3    0  502 -0.63045373731E+02 -0.14585440208E+03  0.15769148603E+02  0.15973216396E+03  0.41800000000E+01 0.  1.
        -11    1    1    2    0    0  0.69544196667E+02  0.55681512015E+02 -0.20606336691E+03  0.22449707627E+03  0.00000000000E+00 0.  1.
         11    1    1    2    0    0  0.46139939675E+02  0.74312483281E+02 -0.63551288702E+02  0.10812032880E+03  0.00000000000E+00 0. -1.
</event>
<event>
 7    1  0.2612213E-009  0.1870219E+03  0.7561462E-02  0.1161175E+00
          2   -1    0    0  501    0  0.00000000000E+00  0.00000000000E+00  0.14480330353E+03  0.14480330353E+03  0.00000000000E+00 0. -1.
         -2   -1    0    0    0  501 -0.00000000000E+00 -0.00000000000E+00 -0.31246579500E+03  0.31246579500E+03  0.00000000000E+00 0.  1.
         25    2    1    2    0    0 -0.25300395196E+02 -0.17536325660E+03 -0.39496355143E+02  0.22045440334E+03  0.12509116724E+03 0.  0.
          5    1    3    3  502    0 -0.49953082053E+02 -0.57207171709E+02  0.29242827941E+02  0.81489792536E+02  0.41800000000E+01 0.  1.
         -5    1    3    3    0  502  0.24652686856E+02 -0.11815608489E+03 -0.68739183084E+02  0.13896461080E+03  0.41800000000E+01 0.  1.
        -11    1    1    2    0    0  0.17072794141E+02  0.12844212624E+03 -0.13677668285E+03  0.18840573522E+03  0.00000000000E+00 0.  1.
         11    1    1    2    0    0  0.82276010553E+01  0.46921130354E+02  0.86105465300E+01  0.48408959960E+02  0.00000000000E+00 0. -1.
</event>
<event>
 7    1  0.2612213E-009  0.1672826E+03  0.7561462E-02  0.1180712E+00
          2   -1    0    0  501    0  0.00000000000E+00  0.00000000000E+00  0.50515517144E+02  0.50515517144E+02  0.00000000000E+00 0. -1.
         -2   -1    0    0    0  501 -0.00000000000E+00 -0.00000000000E+00 -0.68500489702E+03  0.68500489702E+03  0.00000000000E+00 0.  1.
         25    2    1    2    0    0  0.53229510238E+02 -0.13549281789E+03 -0.40271553201E+03  0.44611553878E+03  0.12509032642E+03 0.  0.
          5    1    3    3  502    0  0.79503621721E+01 -0.11731499263E+03 -0.16054406955E+03  0.19904242367E+03  0.41800000000E+01 0. -1.
         -5    1    3    3    0  502  0.45279148066E+02 -0.18177825259E+02 -0.24217146245E+03  0.24707311511E+03  0.41800000000E+01 0. -1.
        -11    1    1    2    0    0  0.99778804149E+01  0.88784628251E+02 -0.87170585616E+02  0.12482379304E+03  0.00000000000E+00 0. -1.
         11    1    1    2    0    0 -0.63207390653E+02  0.46708189636E+02 -0.14460326225E+03  0.16458108235E+03  0.00000000000E+00 0.  1.
</event>
<event>
 7    1  0.2612213E-009  0.1414439E+03  0.7561462E-02  0.1211399E+00
          2   -1    0    0  501    0  0.00000000000E+00  0.00000000000E+00  0.44105935992E+02  0.44105935992E+02  0.00000000000E+00 0. -1.
         -2   -1    0    0    0  501 -0.00000000000E+00 -0.00000000000E+00 -0.51304070718E+03  0.51304070718E+03  0.00000000000E+00 0.  1.
         25    2    1    2    0    0 -0.65107407701E+02  0.78842031660E+02 -0.29025952913E+03  0.33219283091E+03  0.12508573924E+03 0.  0.
          5    1    3    3  502    0  0.17378202345E+02 -0.14529591351E+02 -0.93383084036E+01  0.24855328310E+02  0.41800000000E+01 0.  1.
         -5    1    3    3    0  502 -0.82485610046E+02  0.93371623011E+02 -0.28092122073E+03  0.30733750260E+03  0.41800000000E+01 0.  1.
        -11    1    1    2    0    0 -0.12666885747E+02 -0.51060504768E+02 -0.86043008285E+02  0.10085149685E+03  0.00000000000E+00 0.  1.
         11    1    1    2    0    0  0.77774293448E+02 -0.27781526892E+02 -0.92632233767E+02  0.12410231541E+03  0.00000000000E+00 0. -1.
</event>
<event>
 7    1  0.2612213E-009  0.1240776E+03  0.7561462E-02  0.1236518E+00
          2   -1    0    0  501    0  0.00000000000E+00  0.00000000000E+00  0.68561149242E+02  0.68561149242E+02  0.00000000000E+00 0. -1.
         -2   -1    0    0    0  501 -0.00000000000E+00 -0.00000000000E+00 -0.24533294527E+03  0.24533294527E+03  0.00000000000E+00 0.  1.
         25    2    1    2    0    0  0.65629839154E+02  0.22479711522E+02 -0.80189362456E+02  0.16398486796E+03  0.12509232531E+03 0.  0.
          5    1    3    3  502    0 -0.23641088317E+02  0.44761145349E+02 -0.32040670059E+02  0.60054459682E+02  0.41800000000E+01 0. -1.
         -5    1    3    3    0  502  0.89270927471E+02 -0.22281433827E+02 -0.48148692397E+02  0.10393040828E+03  0.41800000000E+01 0. -1.
        -11    1    1    2    0    0 -0.77046471957E+02  0.32434732767E+01 -0.40363493660E+02  0.87039592028E+02  0.00000000000E+00 0. -1.
         11    1    1    2    0    0  0.11416632802E+02 -0.25723184799E+02 -0.56218939911E+02  0.62869634526E+02  0.00000000000E+00 0.  1.
</event>
<event>
 7    1  0.2612213E-009  0.9733705E+02  0.7561462E-02  0.1285998E+00
         -1   -1    0    0    0  501 -0.00000000000E+00  0.00000000000E+00  0.23987519343E+03  0.23987519343E+03  0.00000000000E+00 0.  1.
          1   -1    0    0  501    0  0.00000000000E+00 -0.00000000000E+00 -0.61114124875E+02  0.61114124875E+02  0.00000000000E+00 0. -1.
         25    2    1    2    0    0  0.13875755968E+02 -0.42043156551E+02  0.13749910947E+03  0.19108460997E+03  0.12508860637E+03 0.  0.
          5    1    3    3  502    0  0.46288358358E+02 -0.38580653326E+02  0.14525871954E+03  0.15731702684E+03  0.41800000000E+01 0. -1.
         -5    1    3    3    0  502 -0.32412602390E+02 -0.34625032252E+01 -0.77596100644E+01  0.33767583133E+02  0.41800000000E+01 0. -1.
        -11    1    1    2    0    0 -0.73901466412E+01 -0.29072022580E+02  0.75246699720E+01  0.30925999134E+02  0.00000000000E+00 0. -1.
         11    1    1    2    0    0 -0.64856093271E+01  0.71115179131E+02  0.33737289112E+02  0.78978709206E+02  0.00000000000E+00 0.  1.
</event>
<event>
 7    1  0.2612213E-009  0.1428467E+03  0.7561462E-02  0.1209549E+00
          1   -1    0    0  501    0  0.00000000000E+00  0.00000000000E+00  0.17319646033E+03  0.17319646033E+03  0.00000000000E+00 0. -1.
         -1   -1    0    0    0  501 -0.00000000000E+00 -0.00000000000E+00 -0.12602380826E+03  0.12602380826E+03  0.00000000000E+00 0.  1.
         25    2    1    2    0    0  0.94605319144E+02 -0.28241438821E+02  0.53166020011E+02  0.16799224972E+03  0.12508806899E+03 0.  0.
          5    1    3    3  502    0  0.35299319303E+02  0.46869557041E+02  0.40379018734E+02  0.71349385942E+02  0.41800000000E+01 0.  1.
         -5    1    3    3    0  502  0.59305999842E+02 -0.75110995862E+02  0.12787001278E+02  0.96642863773E+02  0.41800000000E+01 0.  1.
        -11    1    1    2    0    0 -0.11521375195E+02  0.44886263211E+02 -0.11725136688E+01  0.46356159243E+02  0.00000000000E+00 0.  1.
         11    1    1    2    0    0 -0.83083943949E+02 -0.16644824390E+02 -0.48208542650E+01  0.84871859629E+02  0.00000000000E+00 0. -1.
</event>
<event>
 7    1  0.2612213E-009  0.2052164E+03  0.7561462E-02  0.1145411E+00
         -1   -1    0    0    0  501 -0.00000000000E+00  0.00000000000E+00  0.26297207811E+03  0.26297207811E+03  0.00000000000E+00 0.  1.
          1   -1    0    0  501    0  0.00000000000E+00 -0.00000000000E+00 -0.19314478744E+03  0.19314478744E+03  0.00000000000E+00 0. -1.
         25    2    1    2    0    0 -0.16231378182E+03  0.10966044181E+03  0.62051732568E+02  0.24056011521E+03  0.12509026840E+03 0.  0.
          5    1    3    3  502    0 -0.10912904539E+03  0.66829659823E+02  0.99879011491E+02  0.16238423974E+03  0.41800000000E+01 0. -1.
         -5    1    3    3    0  502 -0.53184736434E+02  0.42830781984E+02 -0.37827278923E+02  0.78175875471E+02  0.41800000000E+01 0. -1.
        -11    1    1    2    0    0  0.63223225016E+02 -0.94560664229E+02 -0.82554725971E+01  0.11404844685E+03  0.00000000000E+00 0. -1.
         11    1    1    2    0    0  0.99090556806E+02 -0.15099777578E+02  0.16031030696E+02  0.10150830348E+03  0.00000000000E+00 0.  1.
</event>
<event>
 7    1  0.2612213E-009  0.1093920E+03  0.7561462E-02  0.1261700E+00
         -1   -1    0    0    0  501 -0.00000000000E+00  0.00000000000E+00  0.13124590192E+03  0.13124590192E+03  0.00000000000E+00 0.  1.
          1   -1    0    0  501    0  0.00000000000E+00 -0.00000000000E+00 -0.16436922077E+03  0.16436922077E+03  0.00000000000E+00 0. -1.
         25    2    1    2    0    0 -0.47417719197E+02 -0.55050214898E+02  0.46937075830E+02  0.15208290355E+03  0.12508858545E+03 0.  0.
          5    1    3    3  502    0 -0.28336355849E+01  0.21369312416E+02 -0.28334092719E+02  0.35846481194E+02  0.41800000000E+01 0.  1.
         -5    1    3    3    0  502 -0.44584083612E+02 -0.76419527313E+02  0.75271168549E+02  0.11623642235E+03  0.41800000000E+01 0.  1.
        -11    1    1    2    0    0 -0.11082354298E+02 -0.13934105208E+02  0.58952801639E+01  0.18754524599E+02  0.00000000000E+00 0.  1.
         11    1    1    2    0    0  0.58500073495E+02  0.68984320105E+02 -0.85955674837E+02  0.12477769454E+03  0.00000000000E+00 0. -1.
</event>
<event>
 7    1  0.2612213E-009  0.1136279E+03  0.7561462E-02  0.1253995E+00
          2   -1    0    0  501    0  0.00000000000E+00  0.00000000000E+00  0.37469533788E+03  0.37469533788E+03  0.00000000000E+00 0. -1.
         -2   -1    0    0    0  501 -0.00000000000E+00 -0.00000000000E+00 -0.49918759964E+02  0.49918759964E+02  0.00000000000E+00 0.  1.
         25    2    1    2    0    0 -0.47571654824E+01  0.79796613885E+02  0.21863745002E+03  0.26426929542E+03  0.12508315531E+03 0.  0.
          5    1    3    3  502    0 -0.78249755351E+01 -0.25984175458E+02  0.81524275558E+01  0.28641614679E+02  0.41800000000E+01 0.  1.
         -5    1    3    3    0  502  0.30678100527E+01  0.10578078934E+03  0.21048502246E+03  0.23562768075E+03  0.41800000000E+01 0.  1.
        -11    1    1    2    0    0  0.21643065920E+02 -0.72201736989E+02  0.28589627413E+02  0.80615630757E+02  0.00000000000E+00 0.  1.
         11    1    1    2    0    0 -0.16885900438E+02 -0.75948768952E+01  0.77549500486E+02  0.79729171665E+02  0.00000000000E+00 0. -1.
</event>
<event>
 7    1  0.2612213E-009  0.1080600E+03  0.7561462E-02  0.1264205E+00
          3   -1    0    0  501    0  0.00000000000E+00  0.00000000000E+00  0.22771287388E+03  0.22771287388E+03  0.00000000000E+00 0. -1.
         -3   -1    0    0    0  501 -0.00000000000E+00 -0.00000000000E+00 -0.54771462900E+02  0.54771462900E+02  0.00000000000E+00 0.  1.
         25    2    1    2    0    0  0.21326181637E+02  0.53898103304E+02  0.10830426347E+03  0.17532247055E+03  0.12509333967E+03 0.  0.
          5    1    3    3  502    0  0.68072587870E+02  0.26563699305E+01  0.49850959747E+02  0.84519371201E+02  0.41800000000E+01 0.  1.
         -5    1    3    3    0  502 -0.46746406233E+02  0.51241733374E+02  0.58453303728E+02  0.90803099350E+02  0.41800000000E+01 0.  1.
        -11    1    1    2    0    0 -0.16978704945E+02  0.62375187994E+01  0.36268275410E+02  0.40528642509E+02  0.00000000000E+00 0. -1.
         11    1    1    2    0    0 -0.43474766918E+01 -0.60135622104E+02  0.28368872094E+02  0.66633223720E+02  0.00000000000E+00 0.  1.
</event>
<event>
 7    1  0.2612213E-009  0.1081495E+03  0.7561462E-02  0.1264036E+00
          2   -1    0    0  501    0  0.00000000000E+00  0.00000000000E+00  0.96557948847E+03  0.96557948847E+03  0.00000000000E+00 0. -1.
         -2   -1    0    0    0  501 -0.00000000000E+00 -0.00000000000E+00 -0.13327335454E+02  0.13327335454E+02  0.00000000000E+00 0.  1.
         25    2    1    2    0    0  0.56454784179E+01  0.19208059919E+02  0.65520401124E+03  0.66733866183E+03  0.12509105580E+03 0.  0.
          5    1    3    3  502    0 -0.34811097063E+02 -0.38988670697E+02  0.35508166227E+03  0.35893228916E+03  0.41800000000E+01 0. -1.
         -5    1    3    3    0  502  0.40456575481E+02  0.58196730617E+02  0.30012234897E+03  0.30840637267E+03  0.41800000000E+01 0. -1.
        -11    1    1    2    0    0  0.41523001088E+02  0.10328172481E+01  0.10916236145E+03  0.11679746353E+03  0.00000000000E+00 0.  1.
         11    1    1    2    0    0 -0.47168479506E+02 -0.20240877167E+02  0.18788578033E+03  0.19477069856E+03  0.00000000000E+00 0. -1.
</event>
<event>
 7    1  0.2612213E-009  0.1032046E+03  0.7561462E-02  0.1273698E+00
          4   -1    0    0  501    0  0.00000000000E+00  0.00000000000E+00  0.20109802901E+03  0.20109802901E+03  0.00000000000E+00 0. -1.
         -4   -1    0    0    0  501 -0.00000000000E+00 -0.00000000000E+00 -0.76869378066E+02  0.76869378066E+02  0.00000000000E+00 0.  1.
         25    2    1    2    0    0 -0.49185340039E+02 -0.17450360567E+02  0.10206082944E+03  0.16965451381E+03  0.12507009391E+03 0.  0.
          5    1    3    3  502    0 -0.36645165415E+02  0.45963646544E+02  0.83626744562E+02  0.10230557051E+03  0.41800000000E+01 0. -1.
         -5    1    3    3    0  502 -0.12540174624E+02 -0.63414007111E+02  0.18434084878E+02  0.67348943294E+02  0.41800000000E+01 0. -1.
        -11    1    1    2    0    0  0.63834961871E+02  0.60190909186E+01  0.45399765990E+02  0.78563799326E+02  0.00000000000E+00 0. -1.
         11    1    1    2    0    0 -0.14649621832E+02  0.11431269649E+02 -0.23231944489E+02  0.29749093942E+02  0.00000000000E+00 0.  1.
</event>
<event>
 7    1  0.2612213E-009  0.1417311E+03  0.7561462E-02  0.1211018E+00
         -2   -1    0    0    0  501 -0.00000000000E+00  0.00000000000E+00  0.43895635244E+03  0.43895635244E+03  0.00000000000E+00 0. -1.
          2   -1    0    0  501    0  0.00000000000E+00 -0.00000000000E+00 -0.70513608338E+02  0.70513608338E+02  0.00000000000E+00 0.  1.
         25    2    1    2    0    0 -0.89115141593E+01 -0.13755399809E+03  0.20872826794E+03  0.27969182332E+03  0.12513795873E+03 0.  0.
          5    1    3    3  502    0 -0.16245917562E+02 -0.11802039515E+03  0.67744998277E+02  0.13711163590E+03  0.41800000000E+01 0. -1.
         -5    1    3    3    0  502  0.73344034026E+01 -0.19533602944E+02  0.14098326967E+03  0.14258018741E+03  0.41800000000E+01 0. -1.
        -11    1    1    2    0    0  0.23929600860E+02  0.80868732501E+02  0.14745614373E+03  0.16986963242E+03  0.00000000000E+00 0. -1.
         11    1    1    2    0    0 -0.15018086701E+02  0.56685265590E+02  0.12258332432E+02  0.59908505049E+02  0.00000000000E+00 0.  1.
</event>
<event>
 7    1  0.2612213E-009  0.3245527E+03  0.7561462E-02  0.1073573E+00
         -2   -1    0    0    0  501 -0.00000000000E+00  0.00000000000E+00  0.85527407005E+02  0.85527407005E+02  0.00000000000E+00 0.  1.
          2   -1    0    0  501    0  0.00000000000E+00 -0.00000000000E+00 -0.12955834866E+04  0.12955834866E+04  0.00000000000E+00 0. -1.
         25    2    1    2    0    0 -0.28242705581E+03 -0.13654920166E+03 -0.66410118013E+03  0.74504287681E+03  0.12509110483E+03 0.  0.
          5    1    3    3  502    0  0.30532149774E+00  0.57098211431E+01 -0.83192642158E+02  0.83493612857E+02  0.41800000000E+01 0.  1.
         -5    1    3    3    0  502 -0.28273237731E+03 -0.14225902280E+03 -0.58090853797E+03  0.66154926395E+03  0.41800000000E+01 0.  1.
        -11    1    1    2    0    0  0.18834601082E+03  0.13440492816E+03 -0.40863229969E+03  0.46959478367E+03  0.00000000000E+00 0. -1.
         11    1    1    2    0    0  0.94081044996E+02  0.21442734941E+01 -0.13732259978E+03  0.16647323312E+03  0.00000000000E+00 0.  1.
</event>
<event>
 7    1  0.2612213E-009  0.1067285E+03  0.7561462E-02  0.1266751E+00
         -1   -1    0    0    0  501 -0.00000000000E+00  0.00000000000E+00  0.19800509539E+02  0.19800509539E+02  0.00000000000E+00 0. -1.
          1   -1    0    0  501    0  0.00000000000E+00 -0.00000000000E+00 -0.74756621159E+03  0.74756621159E+03  0.00000000000E+00 0.  1.
         25    2    1    2    0    0  0.40174994524E+02 -0.27244468135E+01 -0.52727252576E+03  0.54340081194E+03  0.12508666279E+03 0.  0.
          5    1    3    3  502    0  0.35044206348E+01 -0.52277892048E+02 -0.11398633685E+03  0.12552137806E+03  0.41800000000E+01 0. -1.
         -5    1    3    3    0  502  0.36670573889E+02  0.49553445234E+02 -0.41328618890E+03  0.41787943388E+03  0.41800000000E+01 0. -1.
        -11    1    1    2    0    0  0.25686641247E+02  0.18164299589E+02 -0.76573981861E+02  0.82784781308E+02  0.00000000000E+00 0. -1.
         11    1    1    2    0    0 -0.65861635770E+02 -0.15439852776E+02 -0.12391919443E+03  0.14118112788E+03  0.00000000000E+00 0.  1.
</event>
<event>
 7    1  0.2612213E-009  0.1141021E+03  0.7561462E-02  0.1253157E+00
          1   -1    0    0  501    0  0.00000000000E+00  0.00000000000E+00  0.51621348205E+02  0.51621348205E+02  0.00000000000E+00 0. -1.
         -1   -1    0    0    0  501 -0.00000000000E+00 -0.00000000000E+00 -0.29336673487E+03  0.29336673487E+03  0.00000000000E+00 0.  1.
         25    2    1    2    0    0 -0.31540169318E+02  0.39142475782E+02 -0.17067701317E+03  0.21749751352E+03  0.12509040679E+03 0.  0.
          5    1    3    3  502    0  0.44984526529E+02  0.21309100098E+02 -0.99770529213E+02  0.11157650413E+03  0.41800000000E+01 0. -1.
         -5    1    3    3    0  502 -0.76524695847E+02  0.17833375684E+02 -0.70906483954E+02  0.10592100939E+03  0.41800000000E+01 0. -1.
        -11    1    1    2    0    0 -0.30002310959E+02 -0.12353141788E+02 -0.45018472999E+02  0.55492357006E+02  0.00000000000E+00 0. -1.
         11    1    1    2    0    0  0.61542480277E+02 -0.26789333994E+02 -0.26049900494E+02  0.71998212549E+02  0.00000000000E+00 0.  1.
</event>
<event>
 7    1  0.2612213E-009  0.1343153E+03  0.7561462E-02  0.1221189E+00
          1   -1    0    0  501    0  0.00000000000E+00  0.00000000000E+00  0.73273322996E+03  0.73273322996E+03  0.00000000000E+00 0. -1.
         -1   -1    0    0    0  501 -0.00000000000E+00 -0.00000000000E+00 -0.27982801094E+02  0.27982801094E+02  0.00000000000E+00 0.  1.
         25    2    1    2    0    0  0.67720126605E+02  0.32131258673E+02  0.26415853816E+03  0.30173697316E+03  0.12508810638E+03 0.  0.
          5    1    3    3  502    0 -0.34616304431E+02 -0.62963823231E+01  0.80765185481E+02  0.88195354462E+02  0.41800000000E+01 0.  1.
         -5    1    3    3    0  502  0.10233643104E+03  0.38427640996E+02  0.18339335268E+03  0.21354161870E+03  0.41800000000E+01 0.  1.
        -11    1    1    2    0    0 -0.82305074014E+02  0.64521254032E+01  0.22956441963E+03  0.24395814783E+03  0.00000000000E+00 0.  1.
         11    1    1    2    0    0  0.14584947409E+02 -0.38583384076E+02  0.21102747108E+03  0.21502091007E+03  0.00000000000E+00 0. -1.
</event>
<event>
 7    1  0.2612213E-009  0.8060238E+02  0.7561462E-02  0.1327351E+00
         -4   -1    0    0    0  501 -0.00000000000E+00  0.00000000000E+00  0.16602436450E+03  0.16602436450E+03  0.00000000000E+00 0.  1.
          4   -1    0    0  501    0  0.00000000000E+00 -0.00000000000E+00 -0.83844273790E+02  0.83844273790E+02  0.00000000000E+00 0. -1.
         25    2    1    2    0    0  0.33829812298E+02 -0.31334526202E+02  0.35650110571E+02  0.13800230065E+03  0.12508955140E+03 0.  0.
          5    1    3    3  502    0 -0.14312416081E+02  0.12077677578E+02  0.64228926647E+02  0.67033894173E+02  0.41800000000E+01 0. -1.
         -5    1    3    3    0  502  0.48142228378E+02 -0.43412203780E+02 -0.28578816076E+02  0.70968406482E+02  0.41800000000E+01 0. -1.
        -11    1    1    2    0    0 -0.51855502571E+02  0.19053619959E+02  0.63545668835E+02  0.84202646087E+02  0.00000000000E+00 0.  1.
         11    1    1    2    0    0  0.18025690273E+02  0.12280906243E+02 -0.17015688699E+02  0.27663691545E+02  0.00000000000E+00 0. -1.
</event>
<event>
 7    1  0.2612213E-009  0.1034556E+03  0.7561462E-02  0.1273193E+00
         -2   -1    0    0    0  501 -0.00000000000E+00  0.00000000000E+00  0.38263833310E+02  0.38263833310E+02  0.00000000000E+00 0.  1.
          2   -1    0    0  501    0  0.00000000000E+00 -0.00000000000E+00 -0.40177155589E+03  0.40177155589E+03  0.00000000000E+00 0. -1.
         25    2    1    2    0    0 -0.44429744395E+02  0.34376576584E+02 -0.16137912301E+03  0.21176858051E+03  0.12508780574E+03 0.  0.
          5    1    3    3  502    0  0.24921386784E+02  0.16335390788E+02  0.50583327125E+01  0.30511958988E+02  0.41800000000E+01 0. -1.
         -5    1    3    3    0  502 -0.69351131179E+02  0.18041185796E+02 -0.16643745572E+03  0.18125662152E+03  0.41800000000E+01 0. -1.
        -11    1    1    2    0    0 -0.98152469374E+01 -0.48095930805E+02 -0.11037850496E+03  0.12080137412E+03  0.00000000000E+00 0.  1.
         11    1    1    2    0    0  0.54244991332E+02  0.13719354221E+02 -0.91750094621E+02  0.10746543457E+03  0.00000000000E+00 0. -1.
</event>
<event>
 7    1  0.2612213E-009  0.1121228E+03  0.7561462E-02  0.1256689E+00
          1   -1    0    0  501    0  0.00000000000E+00  0.00000000000E+00  0.13789985954E+04  0.13789985954E+04  0.00000000000E+00 0. -1.
         -1   -1    0    0    0  501 -0.00000000000E+00 -0.00000000000E+00 -0.13897088420E+02  0.13897088420E+02  0.00000000000E+00 0.  1.
         25    2    1    2    0    0  0.77103953240E+02 -0.26649650992E+02  0.90610328224E+03  0.91832759026E+03  0.12508869434E+03 0.  0.
          5    1    3    3  502    0 -0.61887800222E+01 -0.18883141696E+02  0.20791789052E+02  0.29062775684E+02  0.41800000000E+01 0.  1.
         -5    1    3    3    0  502  0.83292733262E+02 -0.77665092961E+01  0.88531149318E+03  0.88926481458E+03  0.41800000000E+01 0.  1.
        -11    1    1    2    0    0 -0.26983200059E+02 -0.32767365554E+02  0.14448645167E+03  0.15059258961E+03  0.00000000000E+00 0.  1.
         11    1    1    2    0    0 -0.50120753181E+02  0.59417016546E+02  0.31451177312E+03  0.32397550400E+03  0.00000000000E+00 0. -1.
</event>
<event>
 7    1  0.2612213E-009  0.1083024E+03  0.7561462E-02  0.1263746E+00
         -2   -1    0    0    0  501 -0.00000000000E+00  0.00000000000E+00  0.49330627209E+02  0.49330627209E+02  0.00000000000E+00 0.  1.
          2   -1    0    0  501    0  0.00000000000E+00 -0.00000000000E+00 -0.28867068023E+03  0.28867068023E+03  0.00000000000E+00 0. -1.
         25    2    1    2    0    0  0.38352768451E+02  0.54186853912E+01 -0.18255494478E+03  0.22466259163E+03  0.12508667081E+03 0.  0.
          5    1    3    3  502    0  0.21716710534E+02 -0.59665638121E+02 -0.89904813982E+02  0.11014514000E+03  0.41800000000E+01 0.  1.
         -5    1    3    3    0  502  0.16636057917E+02  0.65084323512E+02 -0.92650130798E+02  0.11451745163E+03  0.41800000000E+01 0.  1.
        -11    1    1    2    0    0 -0.23449472397E+02  0.35258471279E+02 -0.54478576842E+00  0.42347778503E+02  0.00000000000E+00 0.  1.
         11    1    1    2    0    0 -0.14903296055E+02 -0.40677156670E+02 -0.56240322473E+02  0.70990937308E+02  0.00000000000E+00 0. -1.
</event>
<event>
 7    1  0.2612213E-009  0.1219056E+03  0.7561462E-02  0.1239986E+00
          1   -1    0    0  501    0  0.00000000000E+00  0.00000000000E+00  0.11392252700E+03  0.11392252700E+03  0.00000000000E+00 0. -1.
         -1   -1    0    0    0  501 -0.00000000000E+00 -0.00000000000E+00 -0.18631094349E+03  0.18631094349E+03  0.00000000000E+00 0.  1.
         25    2    1    2    0    0 -0.80590594071E+02  0.14137147543E+02  0.17243208424E+02  0.15047165832E+03  0.12509871673E+03 0.  0.
          5    1    3    3  502    0 -0.40114148050E+02 -0.52753565757E+02 -0.10857228574E+02  0.67286219883E+02  0.41800000000E+01 0. -1.
         -5    1    3    3    0  502 -0.40476446021E+02  0.66890713300E+02  0.28100436997E+02  0.83185438436E+02  0.41800000000E+01 0. -1.
        -11    1    1    2    0    0  0.76212523386E+02 -0.30562582724E+02 -0.29463166791E+02  0.87238170436E+02  0.00000000000E+00 0. -1.
         11    1    1    2    0    0  0.43780706853E+01  0.16425435181E+02 -0.60168458123E+02  0.62523641742E+02  0.00000000000E+00 0.  1.
</event>
<event>
 7    1  0.2612213E-009  0.1874374E+03  0.7561462E-02  0.1160793E+00
         -1   -1    0    0    0  501 -0.00000000000E+00  0.00000000000E+00  0.51930953384E+02  0.51930953384E+02  0.00000000000E+00 0.  1.
          1   -1    0    0  501    0  0.00000000000E+00 -0.00000000000E+00 -0.74981064863E+03  0.74981064863E+03  0.00000000000E+00 0. -1.
         25    2    1    2    0    0  0.66590706035E+02  0.14771789317E+03 -0.41580867240E+03  0.46346477981E+03  0.12509137454E+03 0.  0.
          5    1    3    3  502    0  0.10168651857E+03  0.11449102785E+03 -0.34665994930E+03  0.37899727752E+03  0.41800000000E+01 0.  1.
         -5    1    3    3    0  502 -0.35095812534E+02  0.33226865322E+02 -0.69148723099E+02  0.84467502288E+02  0.41800000000E+01 0.  1.
        -11    1    1    2    0    0 -0.29084874221E+02 -0.12708898302E+03 -0.14651384007E+03  0.19612201520E+03  0.00000000000E+00 0.  1.
         11    1    1    2    0    0 -0.37505831814E+02 -0.20628910151E+02 -0.13555718277E+03  0.14215480700E+03  0.00000000000E+00 0. -1.
</event>
<event>
 7    1  0.2612213E-009  0.8968002E+02  0.7561462E-02  0.1303628E+00
          1   -1    0    0  501    0  0.00000000000E+00  0.00000000000E+00  0.56185337325E+03  0.56185337325E+03  0.00000000000E+00 0. -1.
         -1   -1    0    0    0  501 -0.00000000000E+00 -0.00000000000E+00 -0.23417065920E+02  0.23417065920E+02  0.00000000000E+00 0.  1.
         25    2    1    2    0    0 -0.33189991541E+02  0.22516670685E+02  0.31879570707E+03  0.34479902864E+03  0.12508833404E+03 0.  0.
          5    1    3    3  502    0 -0.50923323737E+02 -0.84537982125E+01  0.44859902080E+02  0.68516675483E+02  0.41800000000E+01 0. -1.
         -5    1    3    3    0  502  0.17733332196E+02  0.30970468897E+02  0.27393580499E+03  0.27628235316E+03  0.41800000000E+01 0. -1.
        -11    1    1    2    0    0  0.32750598605E+01 -0.50541411202E+02  0.16206322761E+03  0.16979296219E+03  0.00000000000E+00 0.  1.
         11    1    1    2    0    0  0.29914931680E+02  0.28024740518E+02  0.57577372650E+02  0.70678448341E+02  0.00000000000E+00 0. -1.
</event>
<event>
 7    1  0.2612213E-009  0.1574962E+03  0.7561462E-02  0.1191553E+00
         -1   -1    0    0    0  501 -0.00000000000E+00  0.00000000000E+00  0.20062727863E+03  0.20062727863E+03  0.00000000000E+00 0.  1.
          1   -1    0    0  501    0  0.00000000000E+00 -0.00000000000E+00 -0.43198315587E+03  0.43198315587E+03  0.00000000000E+00 0. -1.
         25    2    1    2    0    0  0.35394876098E+02  0.14086306264E+03  0.13061446423E+03  0.23195724762E+03  0.12509527084E+03 0.  0.
          5    1    3    3  502    0  0.57629640881E+02  0.12539117077E+03  0.14565644564E+03  0.20069228628E+03  0.41800000000E+01 0.  1.
         -5    1    3    3    0  502 -0.22234764783E+02  0.15471891864E+02 -0.15041981410E+02  0.31264961339E+02  0.41800000000E+01 0.  1.
        -11    1    1    2    0    0  0.47776912231E+01 -0.49310888392E+02 -0.40482907700E+02  0.63978557839E+02  0.00000000000E+00 0.  1.
         11    1    1    2    0    0 -0.40172567322E+02 -0.91552174245E+02 -0.32148743377E+03  0.33667462905E+03  0.00000000000E+00 0. -1.
</event>
<event>
 7    1  0.2612213E-009  0.9094137E+02  0.7561462E-02  0.1300588E+00
          4   -1    0    0  501    0  0.00000000000E+00  0.00000000000E+00  0.12497508403E+02  0.12497508403E+02  0.00000000000E+00 0. -1.
         -4   -1    0    0    0  501 -0.00000000000E+00 -0.00000000000E+00 -0.11328681101E+04  0.11328681101E+04  0.00000000000E+00 0.  1.
         25    2    1    2    0    0 -0.38289391834E+02  0.16138034165E+02 -0.73746857458E+03  0.74915621739E+03  0.12509446788E+03 0.  0.
          5    1    3    3  502    0 -0.29653155323E+02 -0.35344522303E+02 -0.60411154569E+03  0.60588511858E+03  0.41800000000E+01 0. -1.
         -5    1    3    3    0  502 -0.86362365107E+01  0.51482556468E+02 -0.13335702888E+03  0.14327109881E+03  0.41800000000E+01 0. -1.
        -11    1    1    2    0    0  0.53666881948E+02 -0.30854178822E+02 -0.35860148983E+03  0.36390540402E+03  0.00000000000E+00 0.  1.
         11    1    1    2    0    0 -0.15377490114E+02  0.14716144657E+02 -0.24300537312E+02  0.32303997112E+02  0.00000000000E+00 0. -1.
</event>
<event>
 7    1  0.2612213E-009  0.1085220E+03  0.7561462E-02  0.1263332E+00
         -1   -1    0    0    0  501 -0.00000000000E+00  0.00000000000E+00  0.14246531369E+03  0.14246531369E+03  0.00000000000E+00 0.  1.
          1   -1    0    0  501    0  0.00000000000E+00 -0.00000000000E+00 -0.12499484311E+03  0.12499484311E+03  0.00000000000E+00 0. -1.
         25    2    1    2    0    0 -0.31917034616E+02 -0.63118621078E+02 -0.25046705221E+02  0.14586848276E+03  0.12509044485E+03 0.  0.
          5    1    3    3  502    0  0.24642745926E+02 -0.15062739254E+02 -0.57713002661E+02  0.64671586626E+02  0.41800000000E+01 0.  1.
         -5    1    3    3    0  502 -0.56559780542E+02 -0.48055881824E+02  0.32666297440E+02  0.81196896131E+02  0.41800000000E+01 0.  1.
        -11    1    1    2    0    0  0.61678739067E+02  0.55091339426E+02  0.35383511140E+02  0.89951739245E+02  0.00000000000E+00 0.  1.
         11    1    1    2    0    0 -0.29761704451E+02  0.80272816522E+01  0.71336646555E+01  0.31639934797E+02  0.00000000000E+00 0. -1.
</event>
<event>
 7    1  0.2612213E-009  0.8482522E+02  0.7561462E-02  0.1315890E+00
          2   -1    0    0  501    0  0.00000000000E+00  0.00000000000E+00  0.17874205614E+03  0.17874205614E+03  0.00000000000E+00 0. -1.
         -2   -1    0    0    0  501 -0.00000000000E+00 -0.00000000000E+00 -0.67513708054E+02  0.67513708054E+02  0.00000000000E+00 0.  1.
         25    2    1    2    0    0  0.15806289025E+02  0.11871090650E+02  0.51020153499E+02  0.13653496242E+03  0.12509187957E+03 0.  0.
          5    1    3    3  502    0  0.16291986056E+02  0.43703223838E+02 -0.25664177372E+02  0.53399653404E+02  0.41800000000E+01 0.  1.
         -5    1    3    3    0  502 -0.48569703100E+00 -0.31832133188E+02  0.76684330870E+02  0.83135309020E+02  0.41800000000E+01 0.  1.
        -11    1    1    2    0    0 -0.17734019561E+02 -0.49734052411E+02  0.26915487230E+02  0.59265629769E+02  0.00000000000E+00 0.  1.
         11    1    1    2    0    0  0.19277305354E+01  0.37862961761E+02  0.33292707353E+02  0.50455171997E+02  0.00000000000E+00 0. -1.
</event>
<event>
 7    1  0.2612213E-009  0.1051492E+03  0.7561462E-02  0.1269826E+00
          3   -1    0    0  501    0  0.00000000000E+00  0.00000000000E+00  0.28822709368E+03  0.28822709368E+03  0.00000000000E+00 0. -1.
         -3   -1    0    0    0  501 -0.00000000000E+00 -0.00000000000E+00 -0.49185096013E+02  0.49185096013E+02  0.00000000000E+00 0.  1.
         25    2    1    2    0    0  0.34689448042E+02  0.26561496227E+02  0.10465390623E+03  0.16884608428E+03  0.12509072387E+03 0.  0.
          5    1    3    3  502    0 -0.45531345390E+02  0.24946145780E+02  0.43851779367E+02  0.68087183492E+02  0.41800000000E+01 0. -1.
         -5    1    3    3    0  502  0.80220793431E+02  0.16153504469E+01  0.60802126863E+02  0.10075890078E+03  0.41800000000E+01 0. -1.
        -11    1    1    2    0    0 -0.45262125822E+02  0.40870236094E+01  0.12758733859E+03  0.13543962775E+03  0.00000000000E+00 0. -1.
         11    1    1    2    0    0  0.10572677780E+02 -0.30648519836E+02  0.68007528468E+01  0.33126477671E+02  0.00000000000E+00 0.  1.
</event>
<event>
 7    1  0.2612213E-009  0.2534234E+03  0.7561462E-02  0.1111160E+00
         -2   -1    0    0    0  501 -0.00000000000E+00  0.00000000000E+00  0.78024415446E+02  0.78024415446E+02  0.00000000000E+00 0.  1.
          2   -1    0    0  501    0  0.00000000000E+00 -0.00000000000E+00 -0.90919726202E+03  0.90919726202E+03  0.00000000000E+00 0. -1.
         25    2    1    2    0    0  0.18411485044E+03 -0.14765394838E+03 -0.32501442134E+03  0.42069161091E+03  0.12508833193E+03 0.  0.
          5    1    3    3  502    0  0.13241182667E+03 -0.16568983434E+03 -0.25483183532E+03  0.33157615978E+03  0.41800000000E+01 0. -1.
         -5    1    3    3    0  502  0.51703023773E+02  0.18035885952E+02 -0.70182586020E+02  0.89115451129E+02  0.41800000000E+01 0. -1.
        -11    1    1    2    0    0 -0.10665162748E+03  0.11153075325E+03 -0.40890827169E+03  0.43705795179E+03  0.00000000000E+00 0. -1.
         11    1    1    2    0    0 -0.77463222957E+02  0.36123195135E+02 -0.97250153543E+02  0.12947211477E+03  0.00000000000E+00 0.  1.
</event>
<event>
 7    1  0.2612213E-009  0.9617936E+02  0.7561462E-02  0.1288542E+00
          2   -1    0    0  501    0  0.00000000000E+00  0.00000000000E+00  0.97611994768E+02  0.97611994768E+02  0.00000000000E+00 0.  1.
         -2   -1    0    0    0  501 -0.00000000000E+00 -0.00000000000E+00 -0.15480474185E+03  0.15480474185E+03  0.00000000000E+00 0. -1.
         25    2    1    2    0    0 -0.54947970141E+02  0.14245119584E+02 -0.18103972075E+02  0.13855455098E+03  0.12508959564E+03 0.  0.
          5    1    3    3  502    0  0.55237987228E+01 -0.17294174058E+02 -0.56973703260E+02  0.59942272829E+02  0.41800000000E+01 0. -1.
         -5    1    3    3    0  502 -0.60471768864E+02  0.31539293642E+02  0.38869731185E+02  0.78612278147E+02  0.41800000000E+01 0. -1.
        -11    1    1    2    0    0  0.71849589865E+02 -0.33925738004E+02 -0.37528446128E+02  0.87873224203E+02  0.00000000000E+00 0. -1.
         11    1    1    2    0    0 -0.16901619724E+02  0.19680618420E+02 -0.15603288817E+01  0.25988961443E+02  0.00000000000E+00 0.  1.
</event>
<event>
 7    1  0.2612213E-009  0.7892957E+02  0.7561462E-02  0.1332117E+00
         -1   -1    0    0    0  501 -0.00000000000E+00  0.00000000000E+00  0.29361269147E+02  0.29361269147E+02  0.00000000000E+00 0.  1.
          1   -1    0    0  501    0  0.00000000000E+00 -0.00000000000E+00 -0.52218249214E+03  0.52218249214E+03  0.00000000000E+00 0. -1.
         25    2    1    2    0    0 -0.21658085808E+02  0.45514854628E+02 -0.33873856158E+03  0.36459867028E+03  0.12509077741E+03 0.  0.
          5    1    3    3  502    0 -0.23646366152E+01 -0.32426718424E+00  0.10637462992E+02  0.11675815793E+02  0.41800000000E+01 0.  1.
         -5    1    3    3    0  502 -0.19293449193E+02  0.45839121812E+02 -0.34937602457E+03  0.35292285448E+03  0.41800000000E+01 0.  1.
        -11    1    1    2    0    0  0.20494374453E+02  0.25160770572E+02 -0.69588652192E+02  0.76783229119E+02  0.00000000000E+00 0.  1.
         11    1    1    2    0    0  0.11637113550E+01 -0.70675625200E+02 -0.84494009219E+02  0.11016186189E+03  0.00000000000E+00 0. -1.
</event>
<event>
 7    1  0.2612213E-009  0.1317816E+03  0.7561462E-02  0.1224836E+00
         -3   -1    0    0    0  501 -0.00000000000E+00  0.00000000000E+00  0.17882980568E+03  0.17882980568E+03  0.00000000000E+00 0.  1.
          3   -1    0    0  501    0  0.00000000000E+00 -0.00000000000E+00 -0.10759133084E+03  0.10759133084E+03  0.00000000000E+00 0. -1.
         25    2    1    2    0    0 -0.79211215620E+02  0.14696583298E+02  0.76871663133E+01  0.14898706424E+03  0.12509055338E+03 0.  0.
          5    1    3    3  502    0 -0.96914464860E+02 -0.28991181826E+02  0.90184534672E+01  0.10164500492E+03  0.41800000000E+01 0.  1.
         -5    1    3    3    0  502  0.17703249240E+02  0.43687765124E+02 -0.13312871540E+01  0.47342059320E+02  0.41800000000E+01 0.  1.
        -11    1    1    2    0    0  0.96604779074E+02 -0.13728051335E+02  0.68623582905E+02  0.11929014571E+03  0.00000000000E+00 0.  1.
         11    1    1    2    0    0 -0.17393563453E+02 -0.96853196337E+00 -0.50722743822E+01  0.18143926564E+02  0.00000000000E+00 0. -1.
</event>
<event>
 7    1  0.2612213E-009  0.7084906E+02  0.7561462E-02  0.1357229E+00
         -2   -1    0    0    0  501 -0.00000000000E+00  0.00000000000E+00  0.21066458977E+03  0.21066458977E+03  0.00000000000E+00 0.  1.
          2   -1    0    0  501    0  0.00000000000E+00 -0.00000000000E+00 -0.10421116744E+03  0.10421116744E+03  0.00000000000E+00 0. -1.
         25    2    1    2    0    0  0.13883493673E+02 -0.17817076477E+02 -0.47028282668E+02  0.13552849980E+03  0.12508443259E+03 0.  0.
          5    1    3    3  502    0  0.34912388044E+02 -0.75904654974E+01  0.34964227721E+02  0.50164326224E+02  0.41800000000E+01 0.  1.
         -5    1    3    3    0  502 -0.21028894371E+02 -0.10226610980E+02 -0.81992510389E+02  0.85364173577E+02  0.41800000000E+01 0.  1.
        -11    1    1    2    0    0 -0.19824987290E+02 -0.28807727549E+02  0.10960452423E+03  0.11504810741E+03  0.00000000000E+00 0.  1.
         11    1    1    2    0    0  0.59414936165E+01  0.46624804026E+02  0.43877180768E+02  0.64299149986E+02  0.00000000000E+00 0. -1.
</event>
<event>
 7    1  0.2612213E-009  0.9367565E+02  0.7561462E-02  0.1294187E+00
          1   -1    0    0  501    0  0.00000000000E+00  0.00000000000E+00  0.74915371679E+02  0.74915371679E+02  0.00000000000E+00 0. -1.
         -1   -1    0    0    0  501 -0.00000000000E+00 -0.00000000000E+00 -0.20864864969E+03  0.20864864969E+03  0.00000000000E+00 0.  1.
         25    2    1    2    0    0 -0.27681927281E+02 -0.62450989866E+01 -0.13738520423E+03  0.18795526331E+03  0.12508875372E+03 0.  0.
          5    1    3    3  502    0 -0.32375481708E+01  0.43718008659E+02 -0.50255023116E+01  0.44322387940E+02  0.41800000000E+01 0.  1.
         -5    1    3    3    0  502 -0.24444379111E+02 -0.49963107645E+02 -0.13235970192E+03  0.14363287537E+03  0.41800000000E+01 0.  1.
        -11    1    1    2    0    0  0.55962527099E+02 -0.68317606241E+01  0.20741264875E+02  0.60072268653E+02  0.00000000000E+00 0. -1.
         11    1    1    2    0    0 -0.28280599817E+02  0.13076859611E+02 -0.17089338653E+02  0.35536489400E+02  0.00000000000E+00 0.  1.
</event>
<event>
 7    1  0.2612213E-009  0.1122295E+03  0.7561462E-02  0.1256496E+00
          2   -1    0    0  501    0  0.00000000000E+00  0.00000000000E+00  0.82727709987E+03  0.82727709987E+03  0.00000000000E+00 0. -1.
         -2   -1    0    0    0  501 -0.00000000000E+00 -0.00000000000E+00 -0.18342289998E+02  0.18342289998E+02  0.00000000000E+00 0.  1.
         25    2    1    2    0    0  0.45721007620E+02 -0.37763835181E+02  0.49351524074E+03  0.51256498211E+03  0.12509616403E+03 0.  0.
          5    1    3    3  502    0 -0.85073181046E+01  0.29894105631E+02  0.40061007135E+02  0.50876209622E+02  0.41800000000E+01 0. -1.
         -5    1    3    3    0  502  0.54228325724E+02 -0.67657940813E+02  0.45345423360E+03  0.46168877249E+03  0.41800000000E+01 0. -1.
        -11    1    1    2    0    0 -0.42079267336E+02 -0.21265617298E+02  0.15832827729E+03  0.16519907569E+03  0.00000000000E+00 0.  1.
         11    1    1    2    0    0 -0.36417402835E+01  0.59029452479E+02  0.15709129184E+03  0.16785533207E+03  0.00000000000E+00 0. -1.
</event>
<event>
 7    1  0.2612213E-009  0.2538714E+03  0.7561462E-02  0.1110882E+00
          2   -1    0    0  501    0  0.00000000000E+00  0.00000000000E+00  0.11875376879E+04  0.11875376879E+04  0.00000000000E+00 0. -1.
         -2   -1    0    0    0  501 -0.00000000000E+00 -0.00000000000E+00 -0.72358549419E+02  0.72358549419E+02  0.00000000000E+00 0.  1.
         25    2    1    2    0    0  0.20079449542E+03 -0.14424216346E+03  0.32659568825E+03  0.42829580348E+03  0.12509324757E+03 0.  0.
          5    1    3    3  502    0  0.60216264763E+02 -0.22051404491E+02  0.16190132621E+02  0.66271077978E+02  0.41800000000E+01 0.  1.
         -5    1    3    3    0  502  0.14057823066E+03 -0.12219075897E+03  0.31040555562E+03  0.36202472550E+03  0.41800000000E+01 0.  1.
        -11    1    1    2    0    0 -0.12041022578E+03  0.42907102712E+02  0.48602163154E+03  0.50255016492E+03  0.00000000000E+00 0.  1.
         11    1    1    2    0    0 -0.80384269647E+02  0.10133506074E+03  0.30256181866E+03  0.32905026888E+03  0.00000000000E+00 0. -1.
</event>
<event>
 7    1  0.2612213E-009  0.2015406E+03  0.7561462E-02  0.1148446E+00
          2   -1    0    0  501    0  0.00000000000E+00  0.00000000000E+00  0.13361629173E+04  0.13361629173E+04  0.00000000000E+00 0. -1.
         -2   -1    0    0    0  501 -0.00000000000E+00 -0.00000000000E+00 -0.52114528982E+02  0.52114528982E+02  0.00000000000E+00 0.  1.
         25    2    1    2    0    0 -0.18304855481E+03  0.52514997580E+02  0.10504280644E+04  0.10748538565E+04  0.12508835309E+03 0.  0.
          5    1    3    3  502    0 -0.47490352664E+02  0.42496026288E+02  0.13458570008E+03  0.14896989264E+03  0.41800000000E+01 0.  1.
         -5    1    3    3    0  502 -0.13555820215E+03  0.10018971291E+02  0.91584236428E+03  0.92588396388E+03  0.41800000000E+01 0.  1.
        -11    1    1    2    0    0  0.75589230329E+02 -0.58523757758E+02  0.73924278982E+02  0.12084519431E+03  0.00000000000E+00 0.  1.
         11    1    1    2    0    0  0.10745932448E+03  0.60087601781E+01  0.15969604497E+03  0.19257839545E+03  0.00000000000E+00 0. -1.
</event>
<event>
 7    1  0.2612213E-009  0.1007801E+03  0.7561462E-02  0.1278664E+00
         -2   -1    0    0    0  501 -0.00000000000E+00  0.00000000000E+00  0.62008112202E+02  0.62008112202E+02  0.00000000000E+00 0.  1.
          2   -1    0    0  501    0  0.00000000000E+00 -0.00000000000E+00 -0.31394000143E+03  0.31394000143E+03  0.00000000000E+00 0. -1.
         25    2    1    2    0    0  0.25448353266E+02 -0.69888066772E+02 -0.75867717852E+02  0.16411948381E+03  0.12508930328E+03 0.  0.
          5    1    3    3  502    0 -0.16851083342E+02 -0.59932726912E+02  0.14233176834E+02  0.63999581934E+02  0.41800000000E+01 0. -1.
         -5    1    3    3    0  502  0.42299436608E+02 -0.99553398602E+01 -0.90100894686E+02  0.10011990188E+03  0.41800000000E+01 0. -1.
        -11    1    1    2    0    0 -0.39250562823E+02  0.20609022135E+02 -0.22006841504E+02  0.49493833437E+02  0.00000000000E+00 0.  1.
         11    1    1    2    0    0  0.13802209557E+02  0.49279044637E+02 -0.15405732987E+03  0.16233479638E+03  0.00000000000E+00 0. -1.
</event>
<event>
 7    1  0.2612213E-009  0.1583795E+03  0.7561462E-02  0.1190539E+00
          2   -1    0    0  501    0  0.00000000000E+00  0.00000000000E+00  0.12059417415E+03  0.12059417415E+03  0.00000000000E+00 0. -1.
         -2   -1    0    0    0  501 -0.00000000000E+00 -0.00000000000E+00 -0.26932209100E+03  0.26932209100E+03  0.00000000000E+00 0.  1.
         25    2    1    2    0    0  0.65334843666E+02 -0.12671544528E+03 -0.58305861991E+02  0.19842180000E+03  0.12508473650E+03 0.  0.
          5    1    3    3  502    0  0.57776880125E+02 -0.18899638174E+02 -0.66198959716E+02  0.89972989656E+02  0.41800000000E+01 0. -1.
         -5    1    3    3    0  502  0.75579635417E+01 -0.10781580710E+03  0.78930977256E+01  0.10844881035E+03  0.41800000000E+01 0. -1.
        -11    1    1    2    0    0 -0.10749572492E+02  0.12282064799E+01  0.15179715103E+02  0.18640964313E+02  0.00000000000E+00 0. -1.
         11    1    1    2    0    0 -0.54585271174E+02  0.12548723880E+03 -0.10560176997E+03  0.17285350083E+03  0.00000000000E+00 0.  1.
</event>
<event>
 7    1  0.2612213E-009  0.1066301E+03  0.7561462E-02  0.1266941E+00
          1   -1    0    0  501    0  0.00000000000E+00  0.00000000000E+00  0.20244370965E+03  0.20244370965E+03  0.00000000000E+00 0. -1.
         -1   -1    0    0    0  501 -0.00000000000E+00 -0.00000000000E+00 -0.74315746583E+02  0.74315746583E+02  0.00000000000E+00 0.  1.
         25    2    1    2    0    0 -0.41006091851E+02 -0.17037901086E+02  0.32930005061E+02  0.13676519788E+03  0.12509414245E+03 0.  0.
          5    1    3    3  502    0  0.32783414193E+02 -0.26487374528E+02 -0.18512471504E+02  0.46222475667E+02  0.41800000000E+01 0.  1.
         -5    1    3    3    0  502 -0.73789506044E+02  0.94494734423E+01  0.51442476565E+02  0.90542722213E+02  0.41800000000E+01 0.  1.
        -11    1    1    2    0    0  0.53022196423E+02 -0.20603552645E+02  0.78862980574E+02  0.97238003888E+02  0.00000000000E+00 0. -1.
         11    1    1    2    0    0 -0.12016104572E+02  0.37641453730E+02  0.16334977429E+02  0.42756254462E+02  0.00000000000E+00 0.  1.
</event>
<event>
 7    1  0.2612213E-009  0.9773911E+02  0.7561462E-02  0.1285123E+00
         -2   -1    0    0    0  501 -0.00000000000E+00  0.00000000000E+00  0.56537219976E+02  0.56537219976E+02  0.00000000000E+00 0.  1.
          2   -1    0    0  501    0  0.00000000000E+00 -0.00000000000E+00 -0.26431461190E+03  0.26431461190E+03  0.00000000000E+00 0. -1.
         25    2    1    2    0    0 -0.11397910843E+02 -0.43132173623E+02 -0.71042904167E+02  0.15061193523E+03  0.12508622637E+03 0.  0.
          5    1    3    3  502    0  0.25570996785E+02 -0.66294096330E+02 -0.50028022076E+01  0.71353230584E+02  0.41800000000E+01 0. -1.
         -5    1    3    3    0  502 -0.36968907628E+02  0.23161922707E+02 -0.66040101959E+02  0.79258704642E+02  0.41800000000E+01 0. -1.
        -11    1    1    2    0    0 -0.26453570726E+02  0.53398348015E+01 -0.41909650872E+01  0.27310610176E+02  0.00000000000E+00 0.  1.
         11    1    1    2    0    0  0.37851481568E+02  0.37792338822E+02 -0.13254352267E+03  0.14292928648E+03  0.00000000000E+00 0. -1.
</event>
<event>
 7    1  0.2612213E-009  0.1430196E+03  0.7561462E-02  0.1209323E+00
          2   -1    0    0  501    0  0.00000000000E+00  0.00000000000E+00  0.15193109637E+03  0.15193109637E+03  0.00000000000E+00 0.  1.
         -2   -1    0    0    0  501 -0.00000000000E+00 -0.00000000000E+00 -0.17436152113E+03  0.17436152113E+03  0.00000000000E+00 0. -1.
         25    2    1    2    0    0 -0.19471562144E+02  0.11904883573E+03  0.89356291664E+01  0.17401221255E+03  0.12509451477E+03 0.  0.
          5    1    3    3  502    0  0.60069065055E+01  0.11925279282E+03 -0.33725636341E+02  0.12414589187E+03  0.41800000000E+01 0.  1.
         -5    1    3    3    0  502 -0.25478468649E+02 -0.20395708922E+00  0.42661265508E+02  0.49866320677E+02  0.41800000000E+01 0.  1.
        -11    1    1    2    0    0 -0.22784456674E+02 -0.80088251994E+02  0.63924347813E+01  0.83511213594E+02  0.00000000000E+00 0.  1.
         11    1    1    2    0    0  0.42256018817E+02 -0.38960583736E+02 -0.37758488700E+02  0.68769191359E+02  0.00000000000E+00 0. -1.
</event>
<event>
 7    1  0.2612213E-009  0.1326491E+03  0.7561462E-02  0.1223577E+00
         -4   -1    0    0    0  501 -0.00000000000E+00  0.00000000000E+00  0.26096271235E+03  0.26096271235E+03  0.00000000000E+00 0.  1.
          4   -1    0    0  501    0  0.00000000000E+00 -0.00000000000E+00 -0.83751989546E+02  0.83751989546E+02  0.00000000000E+00 0. -1.
         25    2    1    2    0    0 -0.73175983110E+02 -0.34885210650E+02  0.16376567336E+03  0.22144560283E+03  0.12508899559E+03 0.  0.
          5    1    3    3  502    0  0.31173400390E+02  0.70653700978E+01  0.16841615091E+02  0.36370492784E+02  0.41800000000E+01 0.  1.
         -5    1    3    3    0  502 -0.10434938350E+03 -0.41950580748E+02  0.14692405826E+03  0.18507511005E+03  0.41800000000E+01 0.  1.
        -11    1    1    2    0    0  0.25198923867E+02  0.60924570781E+02  0.18419748128E+02  0.68454921006E+02  0.00000000000E+00 0.  1.
         11    1    1    2    0    0  0.47977059243E+02 -0.26039360131E+02 -0.49746986757E+01  0.54814178061E+02  0.00000000000E+00 0. -1.
</event>
<event>
 7    1  0.2612213E-009  0.6940897E+02  0.7561462E-02  0.1362114E+00
          1   -1    0    0  501    0  0.00000000000E+00  0.00000000000E+00  0.45198298164E+03  0.45198298164E+03  0.00000000000E+00 0. -1.
         -1   -1    0    0    0  501 -0.00000000000E+00 -0.00000000000E+00 -0.48388448833E+02  0.48388448833E+02  0.00000000000E+00 0.  1.
         25    2    1    2    0    0  0.26785511398E+02  0.19440057667E+02  0.38042642092E+03  0.40182885320E+03  0.12508711391E+03 0.  0.
          5    1    3    3  502    0  0.33983568438E+02 -0.13130986794E+02  0.36128946261E+03  0.36314577504E+03  0.41800000000E+01 0. -1.
         -5    1    3    3    0  502 -0.71980570403E+01  0.32571044461E+02  0.19136958312E+02  0.38683078159E+02  0.41800000000E+01 0. -1.
        -11    1    1    2    0    0 -0.23734808122E+02  0.18731336855E+02 -0.23413720456E+02  0.38241422601E+02  0.00000000000E+00 0.  1.
         11    1    1    2    0    0 -0.30507032755E+01 -0.38171394522E+02  0.46581832338E+02  0.60301154668E+02  0.00000000000E+00 0. -1.
</event>
<event>
 7    1  0.2612213E-009  0.1448505E+03  0.7561462E-02  0.1206947E+00
          1   -1    0    0  501    0  0.00000000000E+00  0.00000000000E+00  0.10595689223E+03  0.10595689223E+03  0.00000000000E+00 0. -1.
         -1   -1    0    0    0  501 -0.00000000000E+00 -0.00000000000E+00 -0.24038890684E+03  0.24038890684E+03  0.00000000000E+00 0.  1.
         25    2    1    2    0    0  0.79478889993E+02 -0.81649858398E+02 -0.10010021053E+03  0.19659933071E+03  0.12509057262E+03 0.  0.
          5    1    3    3  502    0  0.10468840057E+03 -0.74816024002E+02 -0.10900287053E+03  0.16868964653E+03  0.41800000000E+01 0.  1.
         -5    1    3    3    0  502 -0.25209510581E+02 -0.68338343959E+01  0.89026599968E+01  0.27909684185E+02  0.41800000000E+01 0.  1.
        -11    1    1    2    0    0 -0.58221552705E+02  0.93518356059E+02 -0.49807992017E+02  0.12089775923E+03  0.00000000000E+00 0.  1.
         11    1    1    2    0    0 -0.21257337288E+02 -0.11868497661E+02  0.15476187932E+02  0.28848709125E+02  0.00000000000E+00 0. -1.
</event>
<event>
 7    1  0.2612213E-009  0.9076115E+02  0.7561462E-02  0.1301019E+00
          1   -1    0    0  501    0  0.00000000000E+00  0.00000000000E+00  0.51828255590E+03  0.51828255590E+03  0.00000000000E+00 0. -1.
         -1   -1    0    0    0  501 -0.00000000000E+00 -0.00000000000E+00 -0.34613067485E+02  0.34613067485E+02  0.00000000000E+00 0.  1.
         25    2    1    2    0    0 -0.31289917788E+02  0.15090710671E+02  0.41165318893E+03  0.43163614025E+03  0.12507845981E+03 0.  0.
          5    1    3    3  502    0  0.16668787495E+02  0.29497670876E+02  0.26494525130E+02  0.43213346613E+02  0.41800000000E+01 0. -1.
         -5    1    3    3    0  502 -0.47958705284E+02 -0.14406960205E+02  0.38515866380E+03  0.38842279363E+03  0.41800000000E+01 0. -1.
        -11    1    1    2    0    0  0.35796288891E+02  0.33087164453E+02  0.30493241181E+02  0.57497586973E+02  0.00000000000E+00 0.  1.
         11    1    1    2    0    0 -0.45063711028E+01 -0.48177875124E+02  0.41523058310E+02  0.63761896171E+02  0.00000000000E+00 0. -1.
</event>
<event>
 7    1  0.2612213E-009  0.1844173E+03  0.7561462E-02  0.1163595E+00
         -1   -1    0    0    0  501 -0.00000000000E+00  0.00000000000E+00  0.52590841785E+03  0.52590841785E+03  0.00000000000E+00 0.  1.
          1   -1    0    0  501    0  0.00000000000E+00 -0.00000000000E+00 -0.92964436958E+02  0.92964436958E+02  0.00000000000E+00 0. -1.
         25    2    1    2    0    0  0.74153108451E+02 -0.13271557847E+03  0.60651551749E+02  0.20600875467E+03  0.12509551555E+03 0.  0.
          5    1    3    3  502    0  0.32263726548E+02 -0.14356546824E+03  0.67597519987E+02  0.16198422402E+03  0.41800000000E+01 0.  1.
         -5    1    3    3    0  502  0.41889381903E+02  0.10849889773E+02 -0.69459682386E+01  0.44024530652E+02  0.41800000000E+01 0.  1.
        -11    1    1    2    0    0 -0.96458648916E+02  0.11042525152E+03  0.29645710044E+03  0.33073375928E+03  0.00000000000E+00 0. -1.
         11    1    1    2    0    0  0.22305540466E+02  0.22290326949E+02  0.75835328704E+02  0.82130340865E+02  0.00000000000E+00 0.  1.
</event>
<event>
 7    1  0.3928184E-009  0.1273401E+03  0.7561462E-02  0.1231457E+00
         -2   -1    0    0    0  501 -0.00000000000E+00  0.00000000000E+00  0.30123504037E+02  0.30123504037E+02  0.00000000000E+00 0.  1.
          2   -1    0    0  501    0  0.00000000000E+00 -0.00000000000E+00 -0.71651077146E+03  0.71651077146E+03  0.00000000000E+00 0. -1.
         25    2    1    2    0    0 -0.59101206075E+01 -0.96391083147E+02 -0.32046500406E+03  0.35731861865E+03  0.12511037515E+03 0.  0.
          5    1    3    3  502    0 -0.45432821534E+02  0.75273473505E+01 -0.81015767302E+02  0.93283595461E+02  0.41800000000E+01 0.  1.
         -5    1    3    3    0  502  0.39522700927E+02 -0.10391843050E+03 -0.23944923675E+03  0.26403502318E+03  0.41800000000E+01 0.  1.
        -11    1    1    2    0    0 -0.31553544391E+01  0.31666653397E+02 -0.20704782355E+02  0.37966053408E+02  0.00000000000E+00 0.  1.
         11    1    1    2    0    0  0.90654750466E+01  0.64724429750E+02 -0.34521748101E+03  0.35134960345E+03  0.00000000000E+00 0. -1.
</event>
<event>
 7    1  0.2612213E-009  0.1462077E+03  0.7561462E-02  0.1205212E+00
          4   -1    0    0  501    0  0.00000000000E+00  0.00000000000E+00  0.14728716442E+03  0.14728716442E+03  0.00000000000E+00 0. -1.
         -4   -1    0    0    0  501 -0.00000000000E+00 -0.00000000000E+00 -0.18264104887E+03  0.18264104887E+03  0.00000000000E+00 0.  1.
         25    2    1    2    0    0  0.67216762998E+02  0.10458337150E+03 -0.47958216748E+02  0.18277012025E+03  0.12509656862E+03 0.  0.
          5    1    3    3  502    0 -0.17834079596E+02  0.75147693579E+02  0.62869814090E+01  0.77603020434E+02  0.41800000000E+01 0.  1.
         -5    1    3    3    0  502  0.85050842593E+02  0.29435677924E+02 -0.54245198157E+02  0.10516709982E+03  0.41800000000E+01 0.  1.
        -11    1    1    2    0    0 -0.25641390802E+02 -0.51620092614E+02 -0.32448003185E+02  0.66143690511E+02  0.00000000000E+00 0.  1.
         11    1    1    2    0    0 -0.41575372195E+02 -0.52963278889E+02  0.45052335487E+02  0.81014402527E+02  0.00000000000E+00 0. -1.
</event>
<event>
 7    1  0.2612213E-009  0.1771908E+03  0.7561462E-02  0.1170550E+00
          3   -1    0    0  501    0  0.00000000000E+00  0.00000000000E+00  0.85845264931E+02  0.85845264931E+02  0.00000000000E+00 0. -1.
         -3   -1    0    0    0  501 -0.00000000000E+00 -0.00000000000E+00 -0.43023081882E+03  0.43023081882E+03  0.00000000000E+00 0.  1.
         25    2    1    2    0    0  0.55381089338E+02  0.13463655358E+03 -0.24185192271E+03  0.30876158544E+03  0.12508915826E+03 0.  0.
          5    1    3    3  502    0  0.38908517798E+02 -0.43320246770E+01 -0.10846041536E+03  0.11538532530E+03  0.41800000000E+01 0.  1.
         -5    1    3    3    0  502  0.16472571540E+02  0.13896857825E+03 -0.13339150735E+03  0.19337626015E+03  0.41800000000E+01 0.  1.
        -11    1    1    2    0    0 -0.79486011682E+02 -0.69617249816E+02 -0.85467015994E+02  0.13590142879E+03  0.00000000000E+00 0.  1.
         11    1    1    2    0    0  0.24104922344E+02 -0.65019303761E+02 -0.17066615185E+02  0.71413069508E+02  0.00000000000E+00 0. -1.
</event>
<event>
 7    1  0.2612213E-009  0.2418366E+03  0.7561462E-02  0.1118575E+00
          1   -1    0    0  501    0  0.00000000000E+00  0.00000000000E+00  0.20566095510E+03  0.20566095510E+03  0.00000000000E+00 0. -1.
         -1   -1    0    0    0  501 -0.00000000000E+00 -0.00000000000E+00 -0.49294256120E+03  0.49294256120E+03  0.00000000000E+00 0.  1.
         25    2    1    2    0    0 -0.22574219840E+03  0.66187752662E+01  0.68958954414E+02  0.26721823584E+03  0.12508756871E+03 0.  0.
          5    1    3    3  502    0 -0.57284938417E+02  0.58036122534E+02  0.15540345629E+02  0.83118773033E+02  0.41800000000E+01 0.  1.
         -5    1    3    3    0  502 -0.16845725998E+03 -0.51417347268E+02  0.53418608785E+02  0.18409946280E+03  0.41800000000E+01 0.  1.
        -11    1    1    2    0    0  0.92834671975E+02 -0.22776444412E+01 -0.71757170821E+02  0.11735653177E+03  0.00000000000E+00 0. -1.
         11    1    1    2    0    0  0.13290752642E+03 -0.43411308250E+01 -0.28448338969E+03  0.31402874870E+03  0.00000000000E+00 0.  1.
</event>
<event>
 7    1  0.2612213E-009  0.9945414E+02  0.7561462E-02  0.1281448E+00
         -1   -1    0    0    0  501 -0.00000000000E+00  0.00000000000E+00  0.64237978454E+02  0.64237978454E+02  0.00000000000E+00 0.  1.
          1   -1    0    0  501    0  0.00000000000E+00 -0.00000000000E+00 -0.40475626078E+03  0.40475626078E+03  0.00000000000E+00 0. -1.
         25    2    1    2    0    0 -0.72785033910E+02  0.36697364853E+02 -0.55917102538E+02  0.15942927553E+03  0.12508642529E+03 0.  0.
          5    1    3    3  502    0 -0.93758969526E+01  0.48973269252E+02 -0.76589717774E+02  0.91486314898E+02  0.41800000000E+01 0.  1.
         -5    1    3    3    0  502 -0.63409136958E+02 -0.12275904399E+02  0.20672615236E+02  0.67942960630E+02  0.41800000000E+01 0.  1.
        -11    1    1    2    0    0  0.24828923013E+02 -0.24018725020E+02 -0.19108166236E+02  0.39477798653E+02  0.00000000000E+00 0.  1.
         11    1    1    2    0    0  0.47956110897E+02 -0.12678639833E+02 -0.26549301355E+03  0.27008716505E+03  0.00000000000E+00 0. -1.
</event>
<event>
 7    1  0.2612213E-009  0.9483441E+02  0.7561462E-02  0.1291549E+00
          2   -1    0    0  501    0  0.00000000000E+00  0.00000000000E+00  0.13325013909E+03  0.13325013909E+03  0.00000000000E+00 0.  1.
         -2   -1    0    0    0  501 -0.00000000000E+00 -0.00000000000E+00 -0.92656714584E+02  0.92656714584E+02  0.00000000000E+00 0. -1.
         25    2    1    2    0    0  0.48953587451E+01  0.53205242629E+01  0.48123800716E+02  0.13422797787E+03  0.12509587256E+03 0.  0.
          5    1    3    3  502    0  0.41266633496E+02 -0.42399984568E+02  0.44166297765E+02  0.73951524594E+02  0.41800000000E+01 0.  1.
         -5    1    3    3    0  502 -0.36371274751E+02  0.47720508831E+02  0.39575029511E+01  0.60276453278E+02  0.41800000000E+01 0.  1.
        -11    1    1    2    0    0 -0.36029014970E+02  0.70406177596E+01 -0.33184465684E+02  0.49486048346E+02  0.00000000000E+00 0. -1.
         11    1    1    2    0    0  0.31133656225E+02 -0.12361142022E+02  0.25654089471E+02  0.42192827454E+02  0.00000000000E+00 0.  1.
</event>
<event>
 7    1  0.2612213E-009  0.1613864E+03  0.7561462E-02  0.1187140E+00
          2   -1    0    0  501    0  0.00000000000E+00  0.00000000000E+00  0.46354723285E+03  0.46354723285E+03  0.00000000000E+00 0. -1.
         -2   -1    0    0    0  501 -0.00000000000E+00 -0.00000000000E+00 -0.75975271740E+02  0.75975271740E+02  0.00000000000E+00 0.  1.
         25    2    1    2    0    0 -0.10078183277E+03 -0.96655326148E+02  0.11401603703E+03  0.21942422122E+03  0.12509237495E+03 0.  0.
          5    1    3    3  502    0  0.83507988663E+01 -0.31347454424E+02  0.81891374940E+02  0.88182018746E+02  0.41800000000E+01 0.  1.
         -5    1    3    3    0  502 -0.10913263163E+03 -0.65307871724E+02  0.32124662094E+02  0.13124220248E+03  0.41800000000E+01 0.  1.
        -11    1    1    2    0    0  0.75148831014E+02  0.14215907391E+02  0.96648351872E+02  0.12324910850E+03  0.00000000000E+00 0.  1.
         11    1    1    2    0    0  0.25633001755E+02  0.82439418757E+02  0.17690757221E+03  0.19684917487E+03  0.00000000000E+00 0. -1.
</event>
<event>
 7    1  0.2612213E-009  0.1022633E+03  0.7561462E-02  0.1275607E+00
          2   -1    0    0  501    0  0.00000000000E+00  0.00000000000E+00  0.32782738455E+03  0.32782738455E+03  0.00000000000E+00 0. -1.
         -2   -1    0    0    0  501 -0.00000000000E+00 -0.00000000000E+00 -0.45813679742E+02  0.45813679742E+02  0.00000000000E+00 0.  1.
         25    2    1    2    0    0  0.22816074068E+02 -0.27563969314E+02  0.23245534925E+03  0.26638880094E+03  0.12508860152E+03 0.  0.
          5    1    3    3  502    0  0.10700516204E+02  0.48971072914E+02  0.11612454899E+03  0.12655058398E+03  0.41800000000E+01 0. -1.
         -5    1    3    3    0  502  0.12115557864E+02 -0.76535042228E+02  0.11633080027E+03  0.13983821696E+03  0.41800000000E+01 0. -1.
        -11    1    1    2    0    0  0.21347449539E+02  0.24294490882E+02  0.53792436550E+02  0.62765931197E+02  0.00000000000E+00 0. -1.
         11    1    1    2    0    0 -0.44163523607E+02  0.32694784318E+01 -0.42340809947E+01  0.44486332154E+02  0.00000000000E+00 0.  1.
</event>
<event>
 7    1  0.2612213E-009  0.1012957E+03  0.7561462E-02  0.1277595E+00
          4   -1    0    0  501    0  0.00000000000E+00  0.00000000000E+00  0.16176333176E+03  0.16176333176E+03  0.00000000000E+00 0. -1.
         -4   -1    0    0    0  501 -0.00000000000E+00 -0.00000000000E+00 -0.12907875762E+03  0.12907875762E+03  0.00000000000E+00 0.  1.
         25    2    1    2    0    0  0.51158343241E+02  0.67284657251E+02  0.62059282952E+02  0.16322973959E+03  0.12509273401E+03 0.  0.
          5    1    3    3  502    0  0.24574670719E+02  0.40196218181E+02 -0.35059062112E+02  0.58874957607E+02  0.41800000000E+01 0.  1.
         -5    1    3    3    0  502  0.26583672521E+02  0.27088439071E+02  0.97118345063E+02  0.10435478199E+03  0.41800000000E+01 0.  1.
        -11    1    1    2    0    0 -0.12187623155E+02 -0.76170262650E+02  0.14237923138E+01  0.77152279648E+02  0.00000000000E+00 0. -1.
         11    1    1    2    0    0 -0.38970720086E+02  0.88856053981E+01 -0.30798501115E+02  0.50460070137E+02  0.00000000000E+00 0.  1.
</event>
<event>
 7    1  0.2612213E-009  0.9178791E+02  0.7561462E-02  0.1298579E+00
         -2   -1    0    0    0  501 -0.00000000000E+00  0.00000000000E+00  0.11085429266E+03  0.11085429266E+03  0.00000000000E+00 0. -1.
          2   -1    0    0  501    0  0.00000000000E+00 -0.00000000000E+00 -0.11235811843E+03  0.11235811843E+03  0.00000000000E+00 0.  1.
         25    2    1    2    0    0 -0.22239145976E+02 -0.32787666643E+01  0.12400526686E+02  0.12769459772E+03  0.12508719878E+03 0.  0.
          5    1    3    3  502    0 -0.43827754922E+02  0.49603373063E+02 -0.82037589316E+01  0.66829191087E+02  0.41800000000E+01 0.  1.
         -5    1    3    3    0  502  0.21588608946E+02 -0.52882139727E+02  0.20604285617E+02  0.60865406629E+02  0.41800000000E+01 0.  1.
        -11    1    1    2    0    0  0.35963410286E+02 -0.13401838386E+02 -0.44055019916E+02  0.58427912262E+02  0.00000000000E+00 0.  1.
         11    1    1    2    0    0 -0.13724264309E+02  0.16680605050E+02  0.30150667463E+02  0.37089901107E+02  0.00000000000E+00 0. -1.
</event>
<event>
 7    1  0.3540402E-009  0.1182343E+03  0.7561462E-02  0.1246039E+00
         -4   -1    0    0    0  501 -0.00000000000E+00  0.00000000000E+00  0.63825619242E+02  0.63825619242E+02  0.00000000000E+00 0. -1.
          4   -1    0    0  501    0  0.00000000000E+00 -0.00000000000E+00 -0.34351158715E+03  0.34351158715E+03  0.00000000000E+00 0.  1.
         25    2    1    2    0    0 -0.55588536203E+02 -0.67472404324E+02 -0.21932187835E+03  0.26719383815E+03  0.12509136708E+03 0.  0.
          5    1    3    3  502    0 -0.19127369912E+02 -0.86028836227E+02 -0.20578068885E+03  0.22389725600E+03  0.41800000000E+01 0. -1.
         -5    1    3    3    0  502 -0.36461166291E+02  0.18556431903E+02 -0.13541189502E+02  0.43296582145E+02  0.41800000000E+01 0. -1.
        -11    1    1    2    0    0 -0.87583031593E+01  0.32947024765E+02  0.13136087299E+02  0.36534519357E+02  0.00000000000E+00 0. -1.
         11    1    1    2    0    0  0.64346839363E+02  0.34525379558E+02 -0.73500176849E+02  0.10360884888E+03  0.00000000000E+00 0.  1.
</event>
<event>
 7    1  0.2612213E-009  0.1184121E+03  0.7561462E-02  0.1245740E+00
         -2   -1    0    0    0  501 -0.00000000000E+00  0.00000000000E+00  0.40952383051E+02  0.40952383051E+02  0.00000000000E+00 0.  1.
          2   -1    0    0  501    0  0.00000000000E+00 -0.00000000000E+00 -0.47073668415E+03  0.47073668415E+03  0.00000000000E+00 0. -1.
         25    2    1    2    0    0 -0.18978427728E+02 -0.88797452243E+02 -0.23971174858E+03  0.28522656125E+03  0.12508917057E+03 0.  0.
          5    1    3    3  502    0  0.10417914818E+02 -0.83095377640E+02 -0.24079085531E+03  0.25497271057E+03  0.41800000000E+01 0.  1.
         -5    1    3    3    0  502 -0.29396342546E+02 -0.57020746028E+01  0.10791067287E+01  0.30253850684E+02  0.41800000000E+01 0.  1.
        -11    1    1    2    0    0 -0.25410635674E+02  0.70117815453E+02 -0.12401757429E+03  0.14471546974E+03  0.00000000000E+00 0. -1.
         11    1    1    2    0    0  0.44389063401E+02  0.18679636790E+02 -0.66054978231E+02  0.81747036212E+02  0.00000000000E+00 0.  1.
</event>
<event>
 7    1  0.2612213E-009  0.9818534E+02  0.7561462E-02  0.1284159E+00
          1   -1    0    0  501    0  0.00000000000E+00  0.00000000000E+00  0.12470858450E+03  0.12470858450E+03  0.00000000000E+00 0.  1.
         -1   -1    0    0    0  501 -0.00000000000E+00 -0.00000000000E+00 -0.17222010675E+03  0.17222010675E+03  0.00000000000E+00 0. -1.
         25    2    1    2    0    0  0.23044953423E+02  0.40366767364E+02  0.62958186735E+02  0.14755202830E+03  0.12508925610E+03 0.  0.
          5    1    3    3  502    0 -0.13229734190E+02  0.58228492579E+02 -0.13134137833E+02  0.61282633685E+02  0.41800000000E+01 0.  1.
         -5    1    3    3    0  502  0.36274687613E+02 -0.17861725214E+02  0.76092324568E+02  0.86269394615E+02  0.41800000000E+01 0.  1.
        -11    1    1    2    0    0  0.29935977878E+02 -0.11705664414E+01 -0.57452555403E+02  0.64794514580E+02  0.00000000000E+00 0. -1.
         11    1    1    2    0    0 -0.52980931301E+02 -0.39196200923E+02 -0.53017153590E+02  0.84582148371E+02  0.00000000000E+00 0.  1.
</event>
<event>
 7    1  0.2612213E-009  0.9273174E+02  0.7561462E-02  0.1296368E+00
          1   -1    0    0  501    0  0.00000000000E+00  0.00000000000E+00  0.46072614137E+03  0.46072614137E+03  0.00000000000E+00 0. -1.
         -1   -1    0    0    0  501 -0.00000000000E+00 -0.00000000000E+00 -0.32707651242E+02  0.32707651242E+02  0.00000000000E+00 0.  1.
         25    2    1    2    0    0 -0.57776265515E+02 -0.15351194710E+02  0.26049173709E+03  0.29508690666E+03  0.12508629563E+03 0.  0.
          5    1    3    3  502    0  0.10496822782E+02  0.31760932138E+00 -0.10335698882E+02  0.15316110328E+02  0.41800000000E+01 0. -1.
         -5    1    3    3    0  502 -0.68273088297E+02 -0.15668804031E+02  0.27082743597E+03  0.27977079633E+03  0.41800000000E+01 0. -1.
        -11    1    1    2    0    0 -0.27241944763E+01  0.38951992653E+02  0.83246472025E+02  0.91949192883E+02  0.00000000000E+00 0. -1.
         11    1    1    2    0    0  0.60500459992E+02 -0.23600797943E+02  0.84280281017E+02  0.10639769307E+03  0.00000000000E+00 0.  1.
</event>
<event>
 7    1  0.2612213E-009  0.1047750E+03  0.7561462E-02  0.1270564E+00
          1   -1    0    0  501    0  0.00000000000E+00  0.00000000000E+00  0.37903367346E+03  0.37903367346E+03  0.00000000000E+00 0. -1.
         -1   -1    0    0    0  501 -0.00000000000E+00 -0.00000000000E+00 -0.38511160361E+02  0.38511160361E+02  0.00000000000E+00 0.  1.
         25    2    1    2    0    0 -0.47011605481E+02  0.18171440813E+02  0.23026130679E+03  0.26684595970E+03  0.12508478922E+03 0.  0.
          5    1    3    3  502    0 -0.80427252173E+02  0.29733468007E+02  0.99949328612E+02  0.13175721120E+03  0.41800000000E+01 0.  1.
         -5    1    3    3    0  502  0.33415646692E+02 -0.11562027194E+02  0.13031197818E+03  0.13508874851E+03  0.41800000000E+01 0.  1.
        -11    1    1    2    0    0 -0.10412047276E+02 -0.27966728303E+02  0.48097715985E+01  0.30227181861E+02  0.00000000000E+00 0.  1.
         11    1    1    2    0    0  0.57423652757E+02  0.97952874901E+01  0.10545143471E+03  0.12047169226E+03  0.00000000000E+00 0. -1.
</event>
<event>
 7    1  0.2612213E-009  0.1093460E+03  0.7561462E-02  0.1261786E+00
         -1   -1    0    0    0  501 -0.00000000000E+00  0.00000000000E+00  0.51307734966E+02  0.51307734966E+02  0.00000000000E+00 0.  1.
          1   -1    0    0  501    0  0.00000000000E+00 -0.00000000000E+00 -0.29894147272E+03  0.29894147272E+03  0.00000000000E+00 0. -1.
         25    2    1    2    0    0 -0.47401373160E+02 -0.11980371451E+02 -0.88310111640E+02  0.16073775439E+03  0.12509008910E+03 0.  0.
          5    1    3    3  502    0  0.39997368304E+02 -0.73176870358E+01 -0.51365953691E+02  0.65645042565E+02  0.41800000000E+01 0.  1.
         -5    1    3    3    0  502 -0.87398741464E+02 -0.46626844148E+01 -0.36944157949E+02  0.95092711824E+02  0.41800000000E+01 0.  1.
        -11    1    1    2    0    0  0.49722838273E+02  0.38926514032E+02 -0.61987864280E+02  0.88488018729E+02  0.00000000000E+00 0.  1.
         11    1    1    2    0    0 -0.23214651132E+01 -0.26946142582E+02 -0.97335761831E+02  0.10102343457E+03  0.00000000000E+00 0. -1.
</event>
<event>
 7    1  0.2612213E-009  0.1524866E+03  0.7561462E-02  0.1197450E+00
          1   -1    0    0  501    0  0.00000000000E+00  0.00000000000E+00  0.54738397265E+03  0.54738397265E+03  0.00000000000E+00 0. -1.
         -1   -1    0    0    0  501 -0.00000000000E+00 -0.00000000000E+00 -0.44743053690E+02  0.44743053690E+02  0.00000000000E+00 0.  1.
         25    2    1    2    0    0 -0.10128305957E+03 -0.44172282888E+02  0.30997878416E+03  0.35205781510E+03  0.12509360420E+03 0.  0.
          5    1    3    3  502    0 -0.12407913593E+03 -0.10105030775E+02  0.24968408462E+03  0.27902931411E+03  0.41800000000E+01 0.  1.
         -5    1    3    3    0  502  0.22796076361E+02 -0.34067252113E+02  0.60294699544E+02  0.73028500992E+02  0.41800000000E+01 0.  1.
        -11    1    1    2    0    0  0.99309812066E+02  0.64739626039E+02  0.18093147188E+03  0.21630962870E+03  0.00000000000E+00 0. -1.
         11    1    1    2    0    0  0.19732475024E+01 -0.20567343151E+02  0.11730662921E+02  0.23759582542E+02  0.00000000000E+00 0.  1.
</event>
<event>
 7    1  0.2612213E-009  0.3318656E+03  0.7561462E-02  0.1070314E+00
          1   -1    0    0  501    0  0.00000000000E+00  0.00000000000E+00  0.29015344702E+04  0.29015344702E+04  0.00000000000E+00 0. -1.
         -1   -1    0    0    0  501 -0.00000000000E+00 -0.00000000000E+00 -0.41325598064E+02  0.41325598064E+02  0.00000000000E+00 0.  1.
         25    2    1    2    0    0 -0.89236253159E+02  0.31639372454E+03  0.14474301481E+04  0.14895534262E+04  0.12508908138E+03 0.  0.
          5    1    3    3  502    0 -0.38252850965E+02  0.13190862927E+03  0.88084747306E+03  0.89150037032E+03  0.41800000000E+01 0.  1.
         -5    1    3    3    0  502 -0.50983402194E+02  0.18448509527E+03  0.56658267500E+03  0.59805305592E+03  0.41800000000E+01 0.  1.
        -11    1    1    2    0    0  0.83044916592E+02 -0.17878752133E+03  0.69433718580E+03  0.72177944245E+03  0.00000000000E+00 0.  1.
         11    1    1    2    0    0  0.61913365672E+01 -0.13760620321E+03  0.71844153825E+03  0.73152719956E+03  0.00000000000E+00 0. -1.
</event>
<event>
 7    1  0.2612213E-009  0.1257836E+03  0.7561462E-02  0.1233850E+00
          1   -1    0    0  501    0  0.00000000000E+00  0.00000000000E+00  0.15086559338E+04  0.15086559338E+04  0.00000000000E+00 0. -1.
         -1   -1    0    0    0  501 -0.00000000000E+00 -0.00000000000E+00 -0.12706908244E+02  0.12706908244E+02  0.00000000000E+00 0.  1.
         25    2    1    2    0    0 -0.76610025913E+02  0.26877841986E+02  0.97501561508E+03  0.98635420323E+03  0.12509056765E+03 0.  0.
          5    1    3    3  502    0 -0.16688965613E+01  0.50813789223E+02  0.64710175535E+03  0.64910937489E+03  0.41800000000E+01 0.  1.
         -5    1    3    3    0  502 -0.74941129352E+02 -0.23935947236E+02  0.32791385973E+03  0.33724482834E+03  0.41800000000E+01 0.  1.
        -11    1    1    2    0    0  0.42340984810E+02  0.32391040950E+02  0.21542863773E+03  0.22192664663E+03  0.00000000000E+00 0. -1.
         11    1    1    2    0    0  0.34269041103E+02 -0.59268882936E+02  0.30550477275E+03  0.31308199219E+03  0.00000000000E+00 0.  1.
</event>
<event>
 7    1  0.2612213E-009  0.1210065E+03  0.7561462E-02  0.1241446E+00
         -3   -1    0    0    0  501 -0.00000000000E+00  0.00000000000E+00  0.11414530211E+03  0.11414530211E+03  0.00000000000E+00 0.  1.
          3   -1    0    0  501    0  0.00000000000E+00 -0.00000000000E+00 -0.22495847982E+03  0.22495847982E+03  0.00000000000E+00 0. -1.
         25    2    1    2    0    0 -0.98484346196E+01  0.53869361310E+02 -0.17008453081E+03  0.21811774993E+03  0.12509078887E+03 0.  0.
          5    1    3    3  502    0  0.57196296314E+02  0.33218991143E+02 -0.82689671036E+02  0.10597156119E+03  0.41800000000E+01 0.  1.
         -5    1    3    3    0  502 -0.67044730934E+02  0.20650370167E+02 -0.87394859772E+02  0.11214618874E+03  0.41800000000E+01 0.  1.
        -11    1    1    2    0    0  0.44766562259E+02 -0.54510046774E+02  0.40514660074E+02  0.81343887150E+02  0.00000000000E+00 0. -1.
         11    1    1    2    0    0 -0.34918127639E+02  0.64068546332E+00  0.18756693021E+02  0.39642144856E+02  0.00000000000E+00 0.  1.
</event>
<event>
 7    1  0.2612213E-009  0.7151526E+02  0.7561462E-02  0.1355015E+00
          2   -1    0    0  501    0  0.00000000000E+00  0.00000000000E+00  0.11457681423E+03  0.11457681423E+03  0.00000000000E+00 0. -1.
         -2   -1    0    0    0  501 -0.00000000000E+00 -0.00000000000E+00 -0.13042403750E+03  0.13042403750E+03  0.00000000000E+00 0.  1.
         25    2    1    2    0    0  0.21734826618E+02  0.40939833080E+02 -0.22386200474E+02  0.13526529900E+03  0.12508831488E+03 0.  0.
          5    1    3    3  502    0  0.38403638806E+02  0.62433432838E+01  0.43707456344E+02  0.58665432317E+02  0.41800000000E+01 0. -1.
         -5    1    3    3    0  502 -0.16668812187E+02  0.34696489796E+02 -0.66093656819E+02  0.76599866681E+02  0.41800000000E+01 0. -1.
        -11    1    1    2    0    0 -0.30550226165E+02 -0.87122506177E+01  0.47332838891E+02  0.57005414366E+02  0.00000000000E+00 0. -1.
         11    1    1    2    0    0  0.88153995465E+01 -0.32227582462E+02 -0.40793861684E+02  0.52730138361E+02  0.00000000000E+00 0.  1.
</event>
<event>
 7    1  0.2612213E-009  0.1262550E+03  0.7561462E-02  0.1233121E+00
         -4   -1    0    0    0  501 -0.00000000000E+00  0.00000000000E+00  0.36067853388E+02  0.36067853388E+02  0.00000000000E+00 0.  1.
          4   -1    0    0  501    0  0.00000000000E+00 -0.00000000000E+00 -0.67776479881E+03  0.67776479881E+03  0.00000000000E+00 0. -1.
         25    2    1    2    0    0 -0.82091068704E+02 -0.69075789580E+02 -0.28493549672E+03  0.32916363974E+03  0.12510018450E+03 0.  0.
          5    1    3    3  502    0 -0.32607805309E+02 -0.13988230102E+02 -0.10420408007E+01  0.35742101191E+02  0.41800000000E+01 0. -1.
         -5    1    3    3    0  502 -0.49483263395E+02 -0.55087559477E+02 -0.28389345592E+03  0.29342153854E+03  0.41800000000E+01 0. -1.
        -11    1    1    2    0    0 -0.20427926772E+02  0.21297305505E+02 -0.96018336639E+02  0.10045096508E+03  0.00000000000E+00 0.  1.
         11    1    1    2    0    0  0.10251899548E+03  0.47778484074E+02 -0.26074311205E+03  0.28421804738E+03  0.00000000000E+00 0. -1.
</event>
<event>
 7    1  0.2612213E-009  0.1591543E+03  0.7561462E-02  0.1189655E+00
         -2   -1    0    0    0  501 -0.00000000000E+00  0.00000000000E+00  0.84840448478E+02  0.84840448478E+02  0.00000000000E+00 0.  1.
          2   -1    0    0  501    0  0.00000000000E+00 -0.00000000000E+00 -0.36991744398E+03  0.36991744398E+03  0.00000000000E+00 0. -1.
         25    2    1    2    0    0  0.11902999818E+03 -0.36895892531E+01 -0.58258932640E+02  0.18226947134E+03  0.12508518463E+03 0.  0.
          5    1    3    3  502    0  0.25321719487E+02 -0.58628681555E+02 -0.22015753238E+02  0.67680703080E+02  0.41800000000E+01 0.  1.
         -5    1    3    3    0  502  0.93708278693E+02  0.54939092302E+02 -0.36243179402E+02  0.11458876826E+03  0.41800000000E+01 0.  1.
        -11    1    1    2    0    0 -0.20034270067E+02  0.36226282991E+02 -0.35073415737E+02  0.54257350174E+02  0.00000000000E+00 0.  1.
         11    1    1    2    0    0 -0.98995728113E+02 -0.32536693738E+02 -0.19174464713E+03  0.21823107095E+03  0.00000000000E+00 0. -1.
</event>
<event>
 7    1  0.2612213E-009  0.1110377E+03  0.7561462E-02  0.1258660E+00
         -1   -1    0    0    0  501 -0.00000000000E+00  0.00000000000E+00  0.53258333114E+02  0.53258333114E+02  0.00000000000E+00 0.  1.
          1   -1    0    0  501    0  0.00000000000E+00 -0.00000000000E+00 -0.30544737658E+03  0.30544737658E+03  0.00000000000E+00 0. -1.
         25    2    1    2    0    0 -0.52954384579E+02 -0.35109312717E+02 -0.15749570719E+03  0.21092533313E+03  0.12509103760E+03 0.  0.
          5    1    3    3  502    0  0.47497111161E+01  0.33568331586E+02 -0.96505592148E+02  0.10237282040E+03  0.41800000000E+01 0. -1.
         -5    1    3    3    0  502 -0.57704095695E+02 -0.68677644303E+02 -0.60990115042E+02  0.10855251273E+03  0.41800000000E+01 0. -1.
        -11    1    1    2    0    0  0.53146911047E+02 -0.90888087269E+01 -0.13889967594E+02  0.55678827194E+02  0.00000000000E+00 0.  1.
         11    1    1    2    0    0 -0.19252646814E+00  0.44198121444E+02 -0.80803368683E+02  0.92101549369E+02  0.00000000000E+00 0. -1.
</event>
<event>
 7    1  0.2612213E-009  0.1211646E+03  0.7561462E-02  0.1241188E+00
          2   -1    0    0  501    0  0.00000000000E+00  0.00000000000E+00  0.10761231398E+03  0.10761231398E+03  0.00000000000E+00 0. -1.
         -2   -1    0    0    0  501 -0.00000000000E+00 -0.00000000000E+00 -0.21129747563E+03  0.21129747563E+03  0.00000000000E+00 0.  1.
         25    2    1    2    0    0 -0.86412738194E+02  0.58879710335E+02 -0.44765291187E+02  0.16907658214E+03  0.12509587412E+03 0.  0.
          5    1    3    3  502    0 -0.64124538032E+02 -0.35058442406E+01  0.28350287534E+02  0.70323954133E+02  0.41800000000E+01 0.  1.
         -5    1    3    3    0  502 -0.22288200162E+02  0.62385554575E+02 -0.73115578722E+02  0.98752628005E+02  0.41800000000E+01 0.  1.
        -11    1    1    2    0    0  0.75480712149E+02 -0.64514736582E+02 -0.78591176195E+02  0.12663357421E+03  0.00000000000E+00 0.  1.
         11    1    1    2    0    0  0.10932026045E+02  0.56350262476E+01  0.19671305728E+02  0.23199633258E+02  0.00000000000E+00 0. -1.
</event>
<event>
 7    1  0.2612213E-009  0.1016788E+03  0.7561462E-02  0.1276805E+00
          3   -1    0    0  501    0  0.00000000000E+00  0.00000000000E+00  0.24010096889E+03  0.24010096889E+03  0.00000000000E+00 0. -1.
         -3   -1    0    0    0  501 -0.00000000000E+00 -0.00000000000E+00 -0.49306199150E+02  0.49306199150E+02  0.00000000000E+00 0.  1.
         25    2    1    2    0    0 -0.11080018448E+02  0.29215548388E+00  0.12339249250E+03  0.17605756489E+03  0.12509079417E+03 0.  0.
          5    1    3    3  502    0 -0.35496403393E+02 -0.48017083240E+02  0.27523286586E+02  0.65883523291E+02  0.41800000000E+01 0. -1.
         -5    1    3    3    0  502  0.24416384946E+02  0.48309238724E+02  0.95869205918E+02  0.11017404160E+03  0.41800000000E+01 0. -1.
        -11    1    1    2    0    0  0.26773416472E+02  0.38767453191E+02  0.23952370136E+02  0.52853072680E+02  0.00000000000E+00 0.  1.
         11    1    1    2    0    0 -0.15693398025E+02 -0.39059608675E+02  0.43449907096E+02  0.60496530463E+02  0.00000000000E+00 0. -1.
</event>
<event>
 7    1  0.2612213E-009  0.1175368E+03  0.7561462E-02  0.1247217E+00
         -1   -1    0    0    0  501 -0.00000000000E+00  0.00000000000E+00  0.87605053092E+02  0.87605053092E+02  0.00000000000E+00 0.  1.
          1   -1    0    0  501    0  0.00000000000E+00 -0.00000000000E+00 -0.29029152164E+03  0.29029152164E+03  0.00000000000E+00 0. -1.
         25    2    1    2    0    0  0.27325646534E+01  0.51980652401E+02  0.15623590377E+02  0.13638488654E+03  0.12508911050E+03 0.  0.
          5    1    3    3  502    0 -0.55496055174E+02  0.49038412371E+02 -0.51408443642E+01  0.74353740380E+02  0.41800000000E+01 0. -1.
         -5    1    3    3    0  502  0.58228619828E+02  0.29422400299E+01  0.20764434741E+02  0.62031146157E+02  0.41800000000E+01 0. -1.
        -11    1    1    2    0    0 -0.45464850957E+02 -0.24601196033E+02 -0.94740345601E+02  0.10792592183E+03  0.00000000000E+00 0. -1.
         11    1    1    2    0    0  0.42732286303E+02 -0.27379456368E+02 -0.12356971332E+03  0.13358576636E+03  0.00000000000E+00 0.  1.
</event>
<event>
 7    1  0.2612213E-009  0.1087157E+03  0.7561462E-02  0.1262967E+00
          1   -1    0    0  501    0  0.00000000000E+00  0.00000000000E+00  0.14373195378E+03  0.14373195378E+03  0.00000000000E+00 0.  1.
         -1   -1    0    0    0  501 -0.00000000000E+00 -0.00000000000E+00 -0.11667849233E+03  0.11667849233E+03  0.00000000000E+00 0. -1.
         25    2    1    2    0    0  0.40345341311E+02 -0.40775902564E+02  0.58079211635E+02  0.14937866633E+03  0.12510144017E+03 0.  0.
          5    1    3    3  502    0  0.21580396494E+02 -0.71802432334E+02  0.77602228480E+02  0.10798555953E+03  0.41800000000E+01 0. -1.
         -5    1    3    3    0  502  0.18764944816E+02  0.31026529769E+02 -0.19523016845E+02  0.41393106796E+02  0.41800000000E+01 0. -1.
        -11    1    1    2    0    0  0.19841535633E+02 -0.14140006077E+02 -0.16414091415E+01  0.24419675102E+02  0.00000000000E+00 0.  1.
         11    1    1    2    0    0 -0.60186876944E+02  0.54915908641E+02 -0.29384341045E+02  0.86612104678E+02  0.00000000000E+00 0. -1.
</event>
<event>
 7    1  0.2612213E-009  0.1412742E+03  0.7561462E-02  0.1211625E+00
         -2   -1    0    0    0  501 -0.00000000000E+00  0.00000000000E+00  0.43351469761E+02  0.43351469761E+02  0.00000000000E+00 0.  1.
          2   -1    0    0  501    0  0.00000000000E+00 -0.00000000000E+00 -0.63599339739E+03  0.63599339739E+03  0.00000000000E+00 0. -1.
         25    2    1    2    0    0 -0.14448533341E+02  0.11188089750E+03 -0.38462414853E+03  0.41989200855E+03  0.12508983920E+03 0.  0.
          5    1    3    3  502    0 -0.22797552999E+02  0.42152986715E+01 -0.35912147108E+01  0.23829947309E+02  0.41800000000E+01 0. -1.
         -5    1    3    3    0  502  0.83490196580E+01  0.10766559883E+03 -0.38103293382E+03  0.39606206124E+03  0.41800000000E+01 0. -1.
        -11    1    1    2    0    0  0.50977688031E+02 -0.25218458393E+02 -0.50827849072E+02  0.76276900579E+02  0.00000000000E+00 0.  1.
         11    1    1    2    0    0 -0.36529154690E+02 -0.86662439109E+02 -0.15718993003E+03  0.18317595802E+03  0.00000000000E+00 0. -1.
</event>
<event>
 7    1  0.2612213E-009  0.7383212E+02  0.7561462E-02  0.1347526E+00
         -4   -1    0    0    0  501 -0.00000000000E+00  0.00000000000E+00  0.79896499392E+02  0.79896499392E+02  0.00000000000E+00 0.  1.
          4   -1    0    0  501    0  0.00000000000E+00 -0.00000000000E+00 -0.19848390624E+03  0.19848390624E+03  0.00000000000E+00 0. -1.
         25    2    1    2    0    0  0.42355492451E+02  0.31312267952E+01 -0.14015038729E+02  0.13284682048E+03  0.12509222230E+03 0.  0.
          5    1    3    3  502    0  0.50584191390E+02  0.64564925439E+01  0.47942713078E+02  0.70117207958E+02  0.41800000000E+01 0.  1.
         -5    1    3    3    0  502 -0.82286989385E+01 -0.33252657487E+01 -0.61957751807E+02  0.62729612525E+02  0.41800000000E+01 0.  1.
        -11    1    1    2    0    0 -0.44392458577E+02 -0.33897623296E+02 -0.26960198704E+02  0.62020896138E+02  0.00000000000E+00 0.  1.
         11    1    1    2    0    0  0.20369661258E+01  0.30766396501E+02 -0.77612169415E+02  0.83512689012E+02  0.00000000000E+00 0. -1.
</event>
<event>
 7    1  0.2612213E-009  0.2308389E+03  0.7561462E-02  0.1126051E+00
         -2   -1    0    0    0  501 -0.00000000000E+00  0.00000000000E+00  0.80717060597E+03  0.80717060597E+03  0.00000000000E+00 0.  1.
          2   -1    0    0  501    0  0.00000000000E+00 -0.00000000000E+00 -0.84553262585E+02  0.84553262585E+02  0.00000000000E+00 0. -1.
         25    2    1    2    0    0  0.20561700526E+03 -0.69313599579E+02  0.53312054572E+03  0.58902318577E+03  0.12509224261E+03 0.  0.
          5    1    3    3  502    0  0.28469290569E+02  0.12386080741E+02  0.20413414023E+03  0.20652393350E+03  0.41800000000E+01 0. -1.
         -5    1    3    3    0  502  0.17714771469E+03 -0.81699680319E+02  0.32898640549E+03  0.38249925226E+03  0.41800000000E+01 0. -1.
        -11    1    1    2    0    0 -0.58720917861E+02  0.65932923579E+02  0.83515641201E+02  0.12153254268E+03  0.00000000000E+00 0.  1.
         11    1    1    2    0    0 -0.14689608740E+03  0.33806759997E+01  0.10598115646E+03  0.18116814010E+03  0.00000000000E+00 0. -1.
</event>
<event>
 7    1  0.2612213E-009  0.9682040E+02  0.7561462E-02  0.1287128E+00
         -2   -1    0    0    0  501 -0.00000000000E+00  0.00000000000E+00  0.60753857343E+02  0.60753857343E+02  0.00000000000E+00 0. -1.
          2   -1    0    0  501    0  0.00000000000E+00 -0.00000000000E+00 -0.21902508913E+03  0.21902508913E+03  0.00000000000E+00 0.  1.
         25    2    1    2    0    0  0.27988742426E+02 -0.29474855083E+02 -0.10418465195E+03  0.16779126216E+03  0.12508928479E+03 0.  0.
          5    1    3    3  502    0 -0.16791776759E+02 -0.64589921649E+02 -0.83778884908E+02  0.10719233042E+03  0.41800000000E+01 0. -1.
         -5    1    3    3    0  502  0.44780519186E+02  0.35115066566E+02 -0.20405767045E+02  0.60598931733E+02  0.41800000000E+01 0. -1.
        -11    1    1    2    0    0 -0.28455246515E+02  0.45508679529E+02 -0.70785180206E+02  0.88832892013E+02  0.00000000000E+00 0.  1.
         11    1    1    2    0    0  0.46650408834E+00 -0.16033824447E+02  0.16698600369E+02  0.23154792306E+02  0.00000000000E+00 0. -1.
</event>
<event>
 7    1  0.2612213E-009  0.1233135E+03  0.7561462E-02  0.1237729E+00
         -1   -1    0    0    0  501 -0.00000000000E+00  0.00000000000E+00  0.10651231075E+02  0.10651231075E+02  0.00000000000E+00 0.  1.
          1   -1    0    0  501    0  0.00000000000E+00 -0.00000000000E+00 -0.14753442791E+04  0.14753442791E+04  0.00000000000E+00 0. -1.
         25    2    1    2    0    0 -0.48474999735E+02  0.97787335632E+01 -0.86362918540E+03  0.87404193738E+03  0.12509392154E+03 0.  0.
          5    1    3    3  502    0  0.40298864846E+02  0.15054637026E+02 -0.36229992192E+03  0.36486894418E+03  0.41800000000E+01 0. -1.
         -5    1    3    3    0  502 -0.88773864581E+02 -0.52759034630E+01 -0.50132926347E+03  0.50917299320E+03  0.41800000000E+01 0. -1.
        -11    1    1    2    0    0  0.42727323103E+02 -0.54519818729E+02 -0.33402161144E+03  0.34112823349E+03  0.00000000000E+00 0.  1.
         11    1    1    2    0    0  0.57476766313E+01  0.44741085166E+02 -0.26704225116E+03  0.27082533928E+03  0.00000000000E+00 0. -1.
</event>
<event>
 7    1  0.2612213E-009  0.1775071E+03  0.7561462E-02  0.1170238E+00
          2   -1    0    0  501    0  0.00000000000E+00  0.00000000000E+00  0.35166964152E+03  0.35166964152E+03  0.00000000000E+00 0. -1.
         -2   -1    0    0    0  501 -0.00000000000E+00 -0.00000000000E+00 -0.10370799482E+03  0.10370799482E+03  0.00000000000E+00 0.  1.
         25    2    1    2    0    0  0.65580853567E+02 -0.13247010255E+03  0.19165834097E+03  0.27244898499E+03  0.12508538417E+03 0.  0.
          5    1    3    3  502    0 -0.21681713101E+01  0.19488651189E+02  0.50088208451E+02  0.53951918574E+02  0.41800000000E+01 0.  1.
         -5    1    3    3    0  502  0.67749024877E+02 -0.15195875373E+03  0.14157013252E+03  0.21849706641E+03  0.41800000000E+01 0.  1.
        -11    1    1    2    0    0 -0.35402298962E+02  0.13372359233E+03  0.62983438380E+02  0.15199419538E+03  0.00000000000E+00 0.  1.
         11    1    1    2    0    0 -0.30178554605E+02 -0.12534897867E+01 -0.66801326571E+01  0.30934455983E+02  0.00000000000E+00 0. -1.
</event>
<event>
 7    1  0.2612213E-009  0.1265137E+03  0.7561462E-02  0.1232722E+00
         -2   -1    0    0    0  501 -0.00000000000E+00  0.00000000000E+00  0.58128936576E+02  0.58128936576E+02  0.00000000000E+00 0.  1.
          2   -1    0    0  501    0  0.00000000000E+00 -0.00000000000E+00 -0.55436647141E+03  0.55436647141E+03  0.00000000000E+00 0. -1.
         25    2    1    2    0    0 -0.90319289064E+02 -0.39439648809E+02 -0.43686016087E+03  0.46498126232E+03  0.12509082411E+03 0.  0.
          5    1    3    3  502    0 -0.28645353050E+02  0.29530232016E+02 -0.40274371327E+02  0.57724243088E+02  0.41800000000E+01 0. -1.
         -5    1    3    3    0  502 -0.61673936014E+02 -0.68969880825E+02 -0.39658578954E+03  0.40725701923E+03  0.41800000000E+01 0. -1.
        -11    1    1    2    0    0  0.27303760551E+01  0.30936034894E+02 -0.50208340955E+02  0.59037028294E+02  0.00000000000E+00 0. -1.
         11    1    1    2    0    0  0.87588913009E+02  0.85036139156E+01 -0.91690330037E+01  0.88477117369E+02  0.00000000000E+00 0.  1.
</event>
<event>
 7    1  0.2612213E-009  0.1596013E+03  0.7561462E-02  0.1189148E+00
          1   -1    0    0  501    0  0.00000000000E+00  0.00000000000E+00  0.69812964568E+02  0.69812964568E+02  0.00000000000E+00 0. -1.
         -1   -1    0    0    0  501 -0.00000000000E+00 -0.00000000000E+00 -0.46840127652E+03  0.46840127652E+03  0.00000000000E+00 0.  1.
         25    2    1    2    0    0 -0.68233935103E+02 -0.12243404195E+03 -0.16027023912E+03  0.24693796914E+03  0.12508335831E+03 0.  0.
          5    1    3    3  502    0 -0.13534278038E+02  0.19444704383E+02 -0.60276449792E+02  0.64899892220E+02  0.41800000000E+01 0.  1.
         -5    1    3    3    0  502 -0.54699657064E+02 -0.14187874633E+03 -0.99993789329E+02  0.18203807692E+03  0.41800000000E+01 0.  1.
        -11    1    1    2    0    0  0.11183596454E+02  0.47787477719E+02 -0.16487760469E+03  0.17202715014E+03  0.00000000000E+00 0.  1.
         11    1    1    2    0    0  0.57050338649E+02  0.74646564232E+02 -0.73440468140E+02  0.11924912181E+03  0.00000000000E+00 0. -1.
</event>
<event>
 7    1  0.2612213E-009  0.9841559E+02  0.7561462E-02  0.1283663E+00
          1   -1    0    0  501    0  0.00000000000E+00  0.00000000000E+00  0.25915292699E+03  0.25915292699E+03  0.00000000000E+00 0. -1.
         -1   -1    0    0    0  501 -0.00000000000E+00 -0.00000000000E+00 -0.94262310473E+02  0.94262310473E+02  0.00000000000E+00 0.  1.
         25    2    1    2    0    0  0.54411069951E+02  0.84281665670E+01  0.19807941424E+03  0.24065500350E+03  0.12509107816E+03 0.  0.
          5    1    3    3  502    0  0.52867085183E+02 -0.26055730243E+02  0.25069260161E+02  0.64185434323E+02  0.41800000000E+01 0.  1.
         -5    1    3    3    0  502  0.15439847686E+01  0.34483896810E+02  0.17301015408E+03  0.17646956917E+03  0.41800000000E+01 0.  1.
        -11    1    1    2    0    0  0.13302706301E+02 -0.29248006590E+02 -0.26414446093E+02  0.41594841589E+02  0.00000000000E+00 0.  1.
         11    1    1    2    0    0 -0.67713776252E+02  0.20819840023E+02 -0.67743516309E+01  0.71165392382E+02  0.00000000000E+00 0. -1.
</event>
<event>
 7    1  0.2612213E-009  0.9706284E+02  0.7561462E-02  0.1286596E+00
         -2   -1    0    0    0  501 -0.00000000000E+00  0.00000000000E+00  0.92506433131E+02  0.92506433131E+02  0.00000000000E+00 0.  1.
          2   -1    0    0  501    0  0.00000000000E+00 -0.00000000000E+00 -0.13393778918E+03  0.13393778918E+03  0.00000000000E+00 0. -1.
         25    2    1    2    0    0 -0.26614884767E+02  0.23058654580E+02 -0.19430880915E+02  0.13139869274E+03  0.12509198087E+03 0.  0.
          5    1    3    3  502    0 -0.22401618752E+02 -0.37439712478E+02 -0.47335507609E+02  0.64511140695E+02  0.41800000000E+01 0. -1.
         -5    1    3    3    0  502 -0.42132660153E+01  0.60498367058E+02  0.27904626693E+02  0.66887552041E+02  0.41800000000E+01 0. -1.
        -11    1    1    2    0    0 -0.10651515251E+01  0.29810950118E+02  0.37209250491E+01  0.30061147315E+02  0.00000000000E+00 0.  1.
         11    1    1    2    0    0  0.27680036292E+02 -0.52869604697E+02 -0.25721400179E+02  0.64984382256E+02  0.00000000000E+00 0. -1.
</event>
<event>
 7    1  0.2612213E-009  0.4448923E+03  0.7561462E-02  0.1029256E+00
         -1   -1    0    0    0  501 -0.00000000000E+00  0.00000000000E+00  0.64190803271E+03  0.64190803271E+03  0.00000000000E+00 0.  1.
          1   -1    0    0  501    0  0.00000000000E+00 -0.00000000000E+00 -0.32364774834E+03  0.32364774834E+03  0.00000000000E+00 0. -1.
         25    2    1    2    0    0 -0.28154782041E+03 -0.33108979911E+03  0.72315597814E+02  0.45800341627E+03  0.12509177982E+03 0.  0.
          5    1    3    3  502    0 -0.27536478294E+03 -0.26607268426E+03  0.82642609238E+02  0.39174955042E+03  0.41800000000E+01 0. -1.
         -5    1    3    3    0  502 -0.61830374756E+01 -0.65017114851E+02 -0.10327011423E+02  0.66253865856E+02  0.41800000000E+01 0. -1.
        -11    1    1    2    0    0  0.94580133330E+02  0.59692790469E+02  0.86805549989E+02  0.14157624929E+03  0.00000000000E+00 0.  1.
         11    1    1    2    0    0  0.18696768708E+03  0.27139700864E+03  0.15913913657E+03  0.36597611548E+03  0.00000000000E+00 0. -1.
</event>
<event>
 7    1  0.2612213E-009  0.1300540E+03  0.7561462E-02  0.1227376E+00
         -1   -1    0    0    0  501 -0.00000000000E+00  0.00000000000E+00  0.85999735700E+02  0.85999735700E+02  0.00000000000E+00 0.  1.
          1   -1    0    0  501    0  0.00000000000E+00 -0.00000000000E+00 -0.20645353532E+03  0.20645353532E+03  0.00000000000E+00 0. -1.
         25    2    1    2    0    0 -0.27060751070E+02 -0.69628828152E+02 -0.48546127381E+02  0.15357222127E+03  0.12508893918E+03 0.  0.
          5    1    3    3  502    0 -0.71312400070E+02 -0.13388533752E+02 -0.34804999071E+02  0.80582700377E+02  0.41800000000E+01 0. -1.
         -5    1    3    3    0  502  0.44251649000E+02 -0.56240294400E+02 -0.13741128310E+02  0.72989520896E+02  0.41800000000E+01 0. -1.
        -11    1    1    2    0    0 -0.32548896859E+02  0.29117749082E+02 -0.42813175705E+02  0.61157518035E+02  0.00000000000E+00 0.  1.
         11    1    1    2    0    0  0.59609647928E+02  0.40511079070E+02 -0.29094496537E+02  0.77723531715E+02  0.00000000000E+00 0. -1.
</event>
<event>
 7    1  0.2612213E-009  0.7700792E+02  0.7561462E-02  0.1337764E+00
         -1   -1    0    0    0  501 -0.00000000000E+00  0.00000000000E+00  0.30454535791E+03  0.30454535791E+03  0.00000000000E+00 0.  1.
          1   -1    0    0  501    0  0.00000000000E+00 -0.00000000000E+00 -0.43664600881E+02  0.43664600881E+02  0.00000000000E+00 0. -1.
         25    2    1    2    0    0 -0.37535006782E+02 -0.26343495176E+01  0.16116434462E+03  0.20745503414E+03  0.12509128140E+03 0.  0.
          5    1    3    3  502    0 -0.13593965979E+02  0.44926745157E+02  0.14375005440E+03  0.15127709305E+03  0.41800000000E+01 0.  1.
         -5    1    3    3    0  502 -0.23941040803E+02 -0.47561094675E+02  0.17414290222E+02  0.56177941092E+02  0.41800000000E+01 0.  1.
        -11    1    1    2    0    0  0.18704416034E+02  0.20340688568E+02  0.10963924496E+03  0.11306795667E+03  0.00000000000E+00 0.  1.
         11    1    1    2    0    0  0.18830590747E+02 -0.17706339050E+02 -0.99228325448E+01  0.27686967985E+02  0.00000000000E+00 0. -1.
</event>
<event>
 7    1  0.2612213E-009  0.1524437E+03  0.7561462E-02  0.1197502E+00
          2   -1    0    0  501    0  0.00000000000E+00  0.00000000000E+00  0.68630721482E+03  0.68630721482E+03  0.00000000000E+00 0. -1.
         -2   -1    0    0    0  501 -0.00000000000E+00 -0.00000000000E+00 -0.38701442016E+02  0.38701442016E+02  0.00000000000E+00 0.  1.
         25    2    1    2    0    0  0.10831580494E+03 -0.47008497588E+02  0.30542401485E+03  0.35053339292E+03  0.12509084003E+03 0.  0.
          5    1    3    3  502    0  0.79830174310E+02 -0.77597968679E+02  0.28019748662E+03  0.30153342332E+03  0.41800000000E+01 0.  1.
         -5    1    3    3    0  502  0.28485630625E+02  0.30589471091E+02  0.25226528231E+02  0.48999969595E+02  0.41800000000E+01 0.  1.
        -11    1    1    2    0    0 -0.41424193407E+02 -0.28738493623E+02  0.13078670625E+03  0.14016785419E+03  0.00000000000E+00 0. -1.
         11    1    1    2    0    0 -0.66891611528E+02  0.75746991211E+02  0.21139505170E+03  0.23430740973E+03  0.00000000000E+00 0.  1.
</event>
<event>
 7    1  0.2612213E-009  0.2574723E+03  0.7561462E-02  0.1108672E+00
          2   -1    0    0  501    0  0.00000000000E+00  0.00000000000E+00  0.29576075230E+03  0.29576075230E+03  0.00000000000E+00 0. -1.
         -2   -1    0    0    0  501 -0.00000000000E+00 -0.00000000000E+00 -0.23032532808E+03  0.23032532808E+03  0.00000000000E+00 0.  1.
         25    2    1    2    0    0 -0.19127951650E+03  0.13964893163E+03  0.25424793665E+02  0.26904168881E+03  0.12508929868E+03 0.  0.
          5    1    3    3  502    0 -0.16558883679E+03  0.16120793096E+03  0.86264489405E+01  0.23129969281E+03  0.41800000000E+01 0. -1.
         -5    1    3    3    0  502 -0.25690679713E+02 -0.21558999330E+02  0.16798344725E+02  0.37741995995E+02  0.41800000000E+01 0. -1.
        -11    1    1    2    0    0  0.10907496308E+03 -0.12604197290E+03  0.52683501517E+01  0.16676834837E+03  0.00000000000E+00 0.  1.
         11    1    1    2    0    0  0.82204553424E+02 -0.13606958732E+02  0.34742280402E+02  0.90276043207E+02  0.00000000000E+00 0. -1.
</event>
<event>
 7    1  0.2612213E-009  0.1440537E+03  0.7561462E-02  0.1207976E+00
          1   -1    0    0  501    0  0.00000000000E+00  0.00000000000E+00  0.47396532165E+03  0.47396532165E+03  0.00000000000E+00 0. -1.
         -1   -1    0    0    0  501 -0.00000000000E+00 -0.00000000000E+00 -0.54373459481E+02  0.54373459481E+02  0.00000000000E+00 0.  1.
         25    2    1    2    0    0  0.72592735285E+02  0.83117912979E+02  0.15933545449E+03  0.23068456286E+03  0.12509711351E+03 0.  0.
          5    1    3    3  502    0  0.65560220148E+02  0.56555202894E+01  0.16466721544E+02  0.67961405915E+02  0.41800000000E+01 0.  1.
         -5    1    3    3    0  502  0.70325151377E+01  0.77462392689E+02  0.14286873295E+03  0.16272315694E+03  0.41800000000E+01 0.  1.
        -11    1    1    2    0    0 -0.70120778727E+02 -0.96653598268E+01  0.12051369025E+03  0.13976370175E+03  0.00000000000E+00 0.  1.
         11    1    1    2    0    0 -0.24719565578E+01 -0.73452553152E+02  0.13974271743E+03  0.15789051652E+03  0.00000000000E+00 0. -1.
</event>
<event>
 7    1  0.2612213E-009  0.1268848E+03  0.7561462E-02  0.1232153E+00
          1   -1    0    0  501    0  0.00000000000E+00  0.00000000000E+00  0.35692730310E+03  0.35692730310E+03  0.00000000000E+00 0. -1.
         -1   -1    0    0    0  501 -0.00000000000E+00 -0.00000000000E+00 -0.81285284566E+02  0.81285284566E+02  0.00000000000E+00 0.  1.
         25    2    1    2    0    0  0.35704971812E+02 -0.11046907284E+03  0.22336738359E+03  0.28110333948E+03  0.12509132003E+03 0.  0.
          5    1    3    3  502    0  0.31792483511E+02 -0.93793659209E+02  0.58095590609E+02  0.11489378819E+03  0.41800000000E+01 0. -1.
         -5    1    3    3    0  502  0.39124883010E+01 -0.16675413633E+02  0.16527179298E+03  0.16620955129E+03  0.41800000000E+01 0. -1.
        -11    1    1    2    0    0  0.21672859698E+02  0.45092771932E+02 -0.88348178999E+01  0.50804772761E+02  0.00000000000E+00 0.  1.
         11    1    1    2    0    0 -0.57377831510E+02  0.65376300909E+02  0.61109452845E+02  0.10630447543E+03  0.00000000000E+00 0. -1.
</event>
<event>
 7    1  0.2612213E-009  0.1238573E+03  0.7561462E-02  0.1236866E+00
          2   -1    0    0  501    0  0.00000000000E+00  0.00000000000E+00  0.11529072192E+03  0.11529072192E+03  0.00000000000E+00 0. -1.
         -2   -1    0    0    0  501 -0.00000000000E+00 -0.00000000000E+00 -0.24488316135E+03  0.24488316135E+03  0.00000000000E+00 0.  1.
         25    2    1    2    0    0 -0.43968569121E+02 -0.10462505203E+03 -0.43680430322E+01  0.16895805561E+03  0.12509239854E+03 0.  0.
          5    1    3    3  502    0 -0.24061201661E+02 -0.58904086377E+02 -0.64519020598E+02  0.90712784304E+02  0.41800000000E+01 0. -1.
         -5    1    3    3    0  502 -0.19907367460E+02 -0.45720965652E+02  0.60150977566E+02  0.78245271304E+02  0.41800000000E+01 0. -1.
        -11    1    1    2    0    0  0.62791330322E+02  0.66930043249E+02 -0.11629824316E+03  0.14814743742E+03  0.00000000000E+00 0.  1.
         11    1    1    2    0    0 -0.18822761201E+02  0.37695008781E+02 -0.89261532387E+01  0.43068390240E+02  0.00000000000E+00 0. -1.
</event>
<event>
 7    1  0.2612213E-009  0.9961807E+02  0.7561462E-02  0.1281101E+00
         -2   -1    0    0    0  501 -0.00000000000E+00  0.00000000000E+00  0.32419070721E+02  0.32419070721E+02  0.00000000000E+00 0.  1.
          2   -1    0    0  501    0  0.00000000000E+00 -0.00000000000E+00 -0.63360594783E+03  0.63360594783E+03  0.00000000000E+00 0. -1.
         25    2    1    2    0    0  0.14011002660E+02 -0.92867743897E+02 -0.30947312624E+03  0.34676048567E+03  0.12509393473E+03 0.  0.
          5    1    3    3  502    0  0.28707501274E+02 -0.43868016542E+02 -0.28515481081E+03  0.28996424268E+03  0.41800000000E+01 0. -1.
         -5    1    3    3    0  502 -0.14696498614E+02 -0.48999727355E+02 -0.24318315424E+02  0.56796242988E+02  0.41800000000E+01 0. -1.
        -11    1    1    2    0    0 -0.48972978679E+00  0.56731402855E+02 -0.26808198280E+03  0.27401941794E+03  0.00000000000E+00 0. -1.
         11    1    1    2    0    0 -0.13521272873E+02  0.36136341042E+02 -0.23631768074E+02  0.45245114944E+02  0.00000000000E+00 0.  1.
</event>
<event>
 7    1  0.2612213E-009  0.7279279E+02  0.7561462E-02  0.1350846E+00
          1   -1    0    0  501    0  0.00000000000E+00  0.00000000000E+00  0.13350587420E+03  0.13350587420E+03  0.00000000000E+00 0. -1.
         -1   -1    0    0    0  501 -0.00000000000E+00 -0.00000000000E+00 -0.13601927538E+03  0.13601927538E+03  0.00000000000E+00 0.  1.
         25    2    1    2    0    0  0.12874444848E+02  0.53612127806E+02  0.55880606741E+02  0.14768303550E+03  0.12509046801E+03 0.  0.
          5    1    3    3  502    0 -0.19109774785E+02  0.10554606072E+02 -0.35357765704E+02  0.41763946141E+02  0.41800000000E+01 0. -1.
         -5    1    3    3    0  502  0.31984219633E+02  0.43057521734E+02  0.91238372446E+02  0.10591908936E+03  0.41800000000E+01 0. -1.
        -11    1    1    2    0    0  0.15464306696E+02 -0.14049103183E+02  0.20419557383E+02  0.29214386962E+02  0.00000000000E+00 0. -1.
         11    1    1    2    0    0 -0.28338751545E+02 -0.39563024623E+02 -0.78813565301E+02  0.92627727123E+02  0.00000000000E+00 0.  1.
</event>
<event>
 7    1  0.2612213E-009  0.9252349E+02  0.7561462E-02  0.1296853E+00
         -1   -1    0    0    0  501 -0.00000000000E+00  0.00000000000E+00  0.97441354606E+02  0.97441354606E+02  0.00000000000E+00 0.  1.
          1   -1    0    0  501    0  0.00000000000E+00 -0.00000000000E+00 -0.15348298515E+03  0.15348298515E+03  0.00000000000E+00 0. -1.
         25    2    1    2    0    0 -0.49899540049E+02  0.19928524051E+02 -0.16506756263E+02  0.13714204273E+03  0.12509339196E+03 0.  0.
          5    1    3    3  502    0 -0.21077777470E+02  0.38767626311E+02 -0.64294957274E+02  0.78092992539E+02  0.41800000000E+01 0. -1.
         -5    1    3    3    0  502 -0.28821762579E+02 -0.18839102260E+02  0.47788201011E+02  0.59049050187E+02  0.41800000000E+01 0. -1.
        -11    1    1    2    0    0 -0.22110252738E+02 -0.25573374035E+02 -0.68152869344E+01  0.34486357762E+02  0.00000000000E+00 0.  1.
         11    1    1    2    0    0  0.72009792787E+02  0.56448499839E+01 -0.32719587350E+02  0.79295939272E+02  0.00000000000E+00 0. -1.
</event>
<event>
 7    1  0.2612213E-009  0.1153373E+03  0.7561462E-02  0.1250993E+00
         -1   -1    0    0    0  501 -0.00000000000E+00  0.00000000000E+00  0.20421621199E+03  0.20421621199E+03  0.00000000000E+00 0.  1.
          1   -1    0    0  501    0  0.00000000000E+00 -0.00000000000E+00 -0.72387510544E+02  0.72387510544E+02  0.00000000000E+00 0. -1.
         25    2    1    2    0    0 -0.55725618460E+00  0.52690435535E+02  0.88211482926E+02  0.16188102767E+03  0.12509040279E+03 0.  0.
          5    1    3    3  502    0  0.61921819780E+02  0.21873501988E+02  0.46488135782E+02  0.80569107123E+02  0.41800000000E+01 0. -1.
         -5    1    3    3    0  502 -0.62479075964E+02  0.30816933547E+02  0.41723347144E+02  0.81311920550E+02  0.41800000000E+01 0. -1.
        -11    1    1    2    0    0  0.63731879042E-01  0.21193465839E+02 -0.99983146329E+01  0.23433594507E+02  0.00000000000E+00 0. -1.
         11    1    1    2    0    0  0.49352430556E+00 -0.73883901373E+02  0.53615533155E+02  0.91289100357E+02  0.00000000000E+00 0.  1.
</event>
<event>
 7    1  0.2612213E-009  0.1130739E+03  0.7561462E-02  0.1254981E+00
          2   -1    0    0  501    0  0.00000000000E+00  0.00000000000E+00  0.31161789442E+02  0.31161789442E+02  0.00000000000E+00 0. -1.
         -2   -1    0    0    0  501 -0.00000000000E+00 -0.00000000000E+00 -0.53350262791E+03  0.53350262791E+03  0.00000000000E+00 0.  1.
         25    2    1    2    0    0 -0.40709598033E+02  0.44995756455E+02 -0.35781157369E+03  0.38386727201E+03  0.12507226224E+03 0.  0.
          5    1    3    3  502    0  0.40584898603E+02  0.31342423151E+02 -0.90489433233E+02  0.10409270585E+03  0.41800000000E+01 0. -1.
         -5    1    3    3    0  502 -0.81294496636E+02  0.13653333304E+02 -0.26732214046E+03  0.27977456616E+03  0.41800000000E+01 0. -1.
        -11    1    1    2    0    0  0.52670026473E+02 -0.79936847863E+01 -0.32959691296E+02  0.62644807730E+02  0.00000000000E+00 0. -1.
         11    1    1    2    0    0 -0.11960428440E+02 -0.37002071668E+02 -0.11156957348E+03  0.11815233761E+03  0.00000000000E+00 0.  1.
</event>
<event>
 7    1  0.2612213E-009  0.1043192E+03  0.7561462E-02  0.1271467E+00
          1   -1    0    0  501    0  0.00000000000E+00  0.00000000000E+00  0.64291037538E+02  0.64291037538E+02  0.00000000000E+00 0. -1.
         -1   -1    0    0    0  501 -0.00000000000E+00 -0.00000000000E+00 -0.27105040590E+03  0.27105040590E+03  0.00000000000E+00 0.  1.
         25    2    1    2    0    0 -0.47867072275E+02  0.54826348387E+02 -0.14464973586E+03  0.20461345004E+03  0.12508370304E+03 0.  0.
          5    1    3    3  502    0 -0.78078368063E+02  0.30100074521E+02 -0.14248260236E+03  0.16529068462E+03  0.41800000000E+01 0.  1.
         -5    1    3    3    0  502  0.30211295788E+02  0.24726273866E+02 -0.21671334998E+01  0.39322765418E+02  0.41800000000E+01 0.  1.
        -11    1    1    2    0    0 -0.17871242600E+01 -0.30042973895E+02  0.16639094700E+02  0.34389439746E+02  0.00000000000E+00 0. -1.
         11    1    1    2    0    0  0.49654196535E+02 -0.24783374492E+02 -0.78748727195E+02  0.96338553651E+02  0.00000000000E+00 0.  1.
</event>
<event>
 7    1  0.2612213E-009  0.1182862E+03  0.7561462E-02  0.1245951E+00
          1   -1    0    0  501    0  0.00000000000E+00  0.00000000000E+00  0.67461038247E+03  0.67461038247E+03  0.00000000000E+00 0.  1.
         -1   -1    0    0    0  501 -0.00000000000E+00 -0.00000000000E+00 -0.41458544415E+02  0.41458544415E+02  0.00000000000E+00 0. -1.
         25    2    1    2    0    0 -0.37901020052E+02 -0.94223132270E+02  0.50184325736E+03  0.52707559778E+03  0.12509014685E+03 0.  0.
          5    1    3    3  502    0 -0.59548343160E+01 -0.28194159403E+02  0.11576879417E+02  0.31334760462E+02  0.41800000000E+01 0. -1.
         -5    1    3    3    0  502 -0.31946185736E+02 -0.66028972867E+02  0.49026637795E+03  0.49574083732E+03  0.41800000000E+01 0. -1.
        -11    1    1    2    0    0  0.99667650058E+01  0.10393381009E+03  0.11457714308E+03  0.15501449933E+03  0.00000000000E+00 0.  1.
         11    1    1    2    0    0  0.27934255046E+02 -0.97106778186E+01  0.16731437610E+02  0.33978829780E+02  0.00000000000E+00 0. -1.
</event>
<event>
 7    1  0.2806856E-009  0.9758494E+02  0.7561462E-02  0.1285458E+00
          2   -1    0    0  501    0  0.00000000000E+00  0.00000000000E+00  0.22829154725E+03  0.22829154725E+03  0.00000000000E+00 0. -1.
         -2   -1    0    0    0  501 -0.00000000000E+00 -0.00000000000E+00 -0.88642156089E+02  0.88642156089E+02  0.00000000000E+00 0.  1.
         25    2    1    2    0    0 -0.25312547064E+02 -0.56073188417E+02  0.54723922530E+00  0.13940229403E+03  0.12509105729E+03 0.  0.
          5    1    3    3  502    0 -0.38691761619E+02 -0.71560798233E+02 -0.42261675086E+02  0.91768850063E+02  0.41800000000E+01 0. -1.
         -5    1    3    3    0  502  0.13379214555E+02  0.15487609815E+02  0.42808914312E+02  0.47633443970E+02  0.41800000000E+01 0. -1.
        -11    1    1    2    0    0  0.33937391725E+02 -0.21107497410E+01  0.96547764314E+01  0.35347086578E+02  0.00000000000E+00 0.  1.
         11    1    1    2    0    0 -0.86248446615E+01  0.58183938158E+02  0.12944737551E+03  0.14218432273E+03  0.00000000000E+00 0. -1.
</event>
<event>
 7    1  0.2612213E-009  0.9865044E+02  0.7561462E-02  0.1283160E+00
          1   -1    0    0  501    0  0.00000000000E+00  0.00000000000E+00  0.24552616626E+03  0.24552616626E+03  0.00000000000E+00 0. -1.
         -1   -1    0    0    0  501 -0.00000000000E+00 -0.00000000000E+00 -0.48674944095E+02  0.48674944095E+02  0.00000000000E+00 0.  1.
         25    2    1    2    0    0 -0.35761275954E+01 -0.12501435728E+02  0.10222006107E+03  0.16206882441E+03  0.12509311882E+03 0.  0.
          5    1    3    3  502    0 -0.35792299436E+02  0.35530286758E+02  0.89328065823E+02  0.10266677028E+03  0.41800000000E+01 0.  1.
         -5    1    3    3    0  502  0.32216171841E+02 -0.48031722486E+02  0.12891995246E+02  0.59402054126E+02  0.41800000000E+01 0.  1.
        -11    1    1    2    0    0  0.45601404386E+02  0.94693004019E+01  0.67534284998E+02  0.82036792857E+02  0.00000000000E+00 0. -1.
         11    1    1    2    0    0 -0.42025276790E+02  0.30321353264E+01  0.27096876099E+02  0.50095493093E+02  0.00000000000E+00 0.  1.
</event>
<event>
 7    1  0.2612213E-009  0.1186843E+03  0.7561462E-02  0.1245283E+00
         -2   -1    0    0    0  501 -0.00000000000E+00  0.00000000000E+00  0.71682474999E+03  0.71682474999E+03  0.00000000000E+00 0.  1.
          2   -1    0    0  501    0  0.00000000000E+00 -0.00000000000E+00 -0.29011777390E+02  0.29011777390E+02  0.00000000000E+00 0. -1.
         25    2    1    2    0    0  0.50480924872E+02  0.14915877539E+02  0.57802624738E+03  0.59374486814E+03  0.12509124109E+03 0.  0.
          5    1    3    3  502    0 -0.41843893159E+02  0.72161375567E+01  0.20122760409E+03  0.20570125202E+03  0.41800000000E+01 0. -1.
         -5    1    3    3    0  502  0.92324818031E+02  0.76997399822E+01  0.37679864329E+03  0.38804361611E+03  0.41800000000E+01 0. -1.
        -11    1    1    2    0    0  0.24826568008E+02  0.15526809758E+01  0.12127279896E+02  0.27673818222E+02  0.00000000000E+00 0. -1.
         11    1    1    2    0    0 -0.75307492881E+02 -0.16468558515E+02  0.97659445320E+02  0.12441784102E+03  0.00000000000E+00 0.  1.
</event>
<event>
 7    1  0.2612213E-009  0.1201843E+03  0.7561462E-02  0.1242793E+00
         -1   -1    0    0    0  501 -0.00000000000E+00  0.00000000000E+00  0.47084914300E+03  0.47084914300E+03  0.00000000000E+00 0.  1.
          1   -1    0    0  501    0  0.00000000000E+00 -0.00000000000E+00 -0.36577499890E+02  0.36577499890E+02  0.00000000000E+00 0. -1.
         25    2    1    2    0    0 -0.62780985627E+02 -0.33483971732E+02  0.28489914322E+03  0.31918269681E+03  0.12508974223E+03 0.  0.
          5    1    3    3  502    0 -0.35506894383E+02  0.43436695828E+02  0.16291784322E+03  0.17235771561E+03  0.41800000000E+01 0. -1.
         -5    1    3    3    0  502 -0.27274091244E+02 -0.76920667560E+02  0.12198130001E+03  0.14682498119E+03  0.41800000000E+01 0. -1.
        -11    1    1    2    0    0  0.77312165060E+02  0.14791322147E+02  0.69734910529E+02  0.10516136089E+03  0.00000000000E+00 0. -1.
         11    1    1    2    0    0 -0.14531179433E+02  0.18692649585E+02  0.79637589360E+02  0.83082585199E+02  0.00000000000E+00 0.  1.
</event>
<event>
 7    1  0.2612213E-009  0.7594782E+02  0.7561462E-02  0.1340961E+00
         -2   -1    0    0    0  501 -0.00000000000E+00  0.00000000000E+00  0.19412733751E+02  0.19412733751E+02  0.00000000000E+00 0.  1.
          2   -1    0    0  501    0  0.00000000000E+00 -0.00000000000E+00 -0.57207912057E+03  0.57207912057E+03  0.00000000000E+00 0. -1.
         25    2    1    2    0    0  0.89251254840E+01 -0.67471465772E+01 -0.31668707840E+03  0.34068473169E+03  0.12510075510E+03 0.  0.
          5    1    3    3  502    0 -0.20970183454E+02  0.30941129437E+02 -0.25310588341E+02  0.45334317763E+02  0.41800000000E+01 0. -1.
         -5    1    3    3    0  502  0.29895308938E+02 -0.37688276014E+02 -0.29137649006E+03  0.29535041392E+03  0.41800000000E+01 0. -1.
        -11    1    1    2    0    0  0.25994130475E+02  0.15143493099E+02 -0.32916527578E+02  0.44592801999E+02  0.00000000000E+00 0.  1.
         11    1    1    2    0    0 -0.34919255959E+02 -0.83963465215E+01 -0.20306278084E+03  0.20621432063E+03  0.00000000000E+00 0. -1.
</event>
<event>
 7    1  0.2612213E-009  0.9762560E+02  0.7561462E-02  0.1285370E+00
          3   -1    0    0  501    0  0.00000000000E+00  0.00000000000E+00  0.85835145731E+02  0.85835145731E+02  0.00000000000E+00 0. -1.
         -3   -1    0    0    0  501 -0.00000000000E+00 -0.00000000000E+00 -0.15620315591E+03  0.15620315591E+03  0.00000000000E+00 0.  1.
         25    2    1    2    0    0 -0.13954465625E+02  0.14698893375E+02 -0.43503708420E+02  0.13398523697E+03  0.12509471013E+03 0.  0.
          5    1    3    3  502    0  0.47382007554E+02 -0.24079371411E+02 -0.25519222587E+02  0.59106462327E+02  0.41800000000E+01 0. -1.
         -5    1    3    3    0  502 -0.61336473179E+02  0.38778264786E+02 -0.17984485832E+02  0.74878774646E+02  0.41800000000E+01 0. -1.
        -11    1    1    2    0    0  0.40162817614E+02 -0.22228381562E+01  0.25893199681E+02  0.47837754106E+02  0.00000000000E+00 0. -1.
         11    1    1    2    0    0 -0.26208351989E+02 -0.12476055218E+02 -0.52757501436E+02  0.60215310558E+02  0.00000000000E+00 0.  1.
</event>
<event>
 7    1  0.2612213E-009  0.4042610E+03  0.7561462E-02  0.1042314E+00
         -2   -1    0    0    0  501 -0.00000000000E+00  0.00000000000E+00  0.51583961784E+03  0.51583961784E+03  0.00000000000E+00 0. -1.
          2   -1    0    0  501    0  0.00000000000E+00 -0.00000000000E+00 -0.42662636105E+03  0.42662636105E+03  0.00000000000E+00 0.  1.
         25    2    1    2    0    0 -0.31696026900E+03 -0.22863072506E+03  0.28143257857E+03  0.49759405545E+03  0.12513883160E+03 0.  0.
          5    1    3    3  502    0 -0.17993464024E+03 -0.55286010501E+02  0.11158431991E+03  0.21886422861E+03  0.41800000000E+01 0.  1.
         -5    1    3    3    0  502 -0.13702562877E+03 -0.17334471456E+03  0.16984825865E+03  0.27872982684E+03  0.41800000000E+01 0.  1.
        -11    1    1    2    0    0  0.13886242699E+03  0.51649322533E+02 -0.92825259471E+02  0.17483407833E+03  0.00000000000E+00 0.  1.
         11    1    1    2    0    0  0.17809784201E+03  0.17698140253E+03 -0.99394062311E+02  0.27003784511E+03  0.00000000000E+00 0. -1.
</event>
<event>
 7    1  0.2612213E-009  0.1070933E+03  0.7561462E-02  0.1266049E+00
          1   -1    0    0  501    0  0.00000000000E+00  0.00000000000E+00  0.14973336581E+03  0.14973336581E+03  0.00000000000E+00 0. -1.
         -1   -1    0    0    0  501 -0.00000000000E+00 -0.00000000000E+00 -0.12612445994E+03  0.12612445994E+03  0.00000000000E+00 0.  1.
         25    2    1    2    0    0  0.50862968448E+01 -0.72055061761E+02  0.55706884461E+02  0.15481901810E+03  0.12509144274E+03 0.  0.
          5    1    3    3  502    0 -0.28470658514E+02  0.10564300773E+02  0.57906789922E+02  0.65519856274E+02  0.41800000000E+01 0.  1.
         -5    1    3    3    0  502  0.33556955359E+02 -0.82619362534E+02 -0.21999054611E+01  0.89299161824E+02  0.41800000000E+01 0.  1.
        -11    1    1    2    0    0 -0.14854770462E+02 -0.56878786932E+01 -0.39258021945E+02  0.42358097886E+02  0.00000000000E+00 0.  1.
         11    1    1    2    0    0  0.97684736169E+01  0.77742940454E+02  0.71600433520E+01  0.78680709758E+02  0.00000000000E+00 0. -1.
</event>
<event>
 6    1  0.2612213E-009  0.1201360E+03  0.7561462E-02  0.1242873E+00
         -2   -1    0    0    0  501 -0.00000000000E+00  0.00000000000E+00  0.18586423694E+03  0.18586423694E+03  0.00000000000E+00 0. -1.
          2   -1    0    0  501    0  0.00000000000E+00 -0.00000000000E+00 -0.11561099383E+03  0.11561099383E+03  0.00000000000E+00 0.  1.
          5    1    1    2  502    0  0.78536938197E+01  0.21146103314E+02 -0.19391499670E+02  0.30038988855E+02  0.41800000000E+01 0.  1.
         -5    1    1    2    0  502 -0.61369481467E+02 -0.10274049612E+03  0.59266055156E+02  0.13361048047E+03  0.41800000000E+01 0.  1.
        -11    1    1    2    0    0  0.31672074448E+02  0.49189916337E+02  0.63685162793E+02  0.86478714890E+02  0.00000000000E+00 0. -1.
         11    1    1    2    0    0  0.21843713199E+02  0.32404476469E+02 -0.33306475172E+02  0.51347046555E+02  0.00000000000E+00 0.  1.
</event>
<event>
 7    1  0.2612213E-009  0.1805466E+03  0.7561462E-02  0.1167275E+00
          2   -1    0    0  501    0  0.00000000000E+00  0.00000000000E+00  0.24610840076E+03  0.24610840076E+03  0.00000000000E+00 0. -1.
         -2   -1    0    0    0  501 -0.00000000000E+00 -0.00000000000E+00 -0.13900962036E+03  0.13900962036E+03  0.00000000000E+00 0.  1.
         25    2    1    2    0    0  0.30584522608E+02  0.14403128255E+03  0.29757406127E+02  0.19546352156E+03  0.12506023216E+03 0.  0.
          5    1    3    3  502    0  0.64151590415E+02  0.14538958138E+03  0.29058759348E+02  0.16160272529E+03  0.41800000000E+01 0.  1.
         -5    1    3    3    0  502 -0.33567067807E+02 -0.13582988315E+01  0.69864677896E+00  0.33860796272E+02  0.41800000000E+01 0.  1.
        -11    1    1    2    0    0 -0.52285441179E+02 -0.52095100016E+02  0.56420593754E+02  0.92902907406E+02  0.00000000000E+00 0.  1.
         11    1    1    2    0    0  0.21700918571E+02 -0.91936182532E+02  0.20920780515E+02  0.96751592145E+02  0.00000000000E+00 0. -1.
</event>
<event>
 7    1  0.2612213E-009  0.1346640E+03  0.7561462E-02  0.1220695E+00
          1   -1    0    0  501    0  0.00000000000E+00  0.00000000000E+00  0.26257067353E+03  0.26257067353E+03  0.00000000000E+00 0.  1.
         -1   -1    0    0    0  501 -0.00000000000E+00 -0.00000000000E+00 -0.10251583045E+03  0.10251583045E+03  0.00000000000E+00 0. -1.
         25    2    1    2    0    0 -0.38187135210E+02  0.11604974631E+03  0.85224452646E+02  0.19451541793E+03  0.12508892665E+03 0.  0.
          5    1    3    3  502    0 -0.41554832520E+02  0.12138589615E+03  0.10972406805E+03  0.16887327615E+03  0.41800000000E+01 0. -1.
         -5    1    3    3    0  502  0.33676973099E+01 -0.53361498390E+01 -0.24499615400E+02  0.25642141779E+02  0.41800000000E+01 0. -1.
        -11    1    1    2    0    0  0.11468599406E+02 -0.10303194639E+03  0.89925846695E+02  0.13723617837E+03  0.00000000000E+00 0.  1.
         11    1    1    2    0    0  0.26718535804E+02 -0.13017799921E+02 -0.15095456262E+02  0.33334907680E+02  0.00000000000E+00 0. -1.
</event>
<event>
 7    1  0.2612213E-009  0.1256028E+03  0.7561462E-02  0.1234130E+00
          1   -1    0    0  501    0  0.00000000000E+00  0.00000000000E+00  0.36745720726E+03  0.36745720726E+03  0.00000000000E+00 0. -1.
         -1   -1    0    0    0  501 -0.00000000000E+00 -0.00000000000E+00 -0.55888996881E+02  0.55888996881E+02  0.00000000000E+00 0.  1.
         25    2    1    2    0    0 -0.66925235576E+02  0.54214475946E+02  0.23077621229E+03  0.27627367114E+03  0.12510509442E+03 0.  0.
          5    1    3    3  502    0  0.26149484764E+02  0.10984606193E+02  0.12725902069E+03  0.13044841077E+03  0.41800000000E+01 0. -1.
         -5    1    3    3    0  502 -0.93074720341E+02  0.43229869753E+02  0.10351719160E+03  0.14582526037E+03  0.41800000000E+01 0. -1.
        -11    1    1    2    0    0 -0.19248681969E+02 -0.27209304393E+01  0.26737138037E+02  0.33057370894E+02  0.00000000000E+00 0. -1.
         11    1    1    2    0    0  0.86173917546E+02 -0.51493545507E+02  0.54054860054E+02  0.11401516210E+03  0.00000000000E+00 0.  1.
</event>
<event>
 7    1  0.2612213E-009  0.1470630E+03  0.7561462E-02  0.1204129E+00
         -1   -1    0    0    0  501 -0.00000000000E+00  0.00000000000E+00  0.23115286858E+03  0.23115286858E+03  0.00000000000E+00 0.  1.
          1   -1    0    0  501    0  0.00000000000E+00 -0.00000000000E+00 -0.11285055559E+03  0.11285055559E+03  0.00000000000E+00 0. -1.
         25    2    1    2    0    0  0.49460575657E+02  0.86441621265E+02  0.11721111904E+03  0.19825517066E+03  0.12509262103E+03 0.  0.
          5    1    3    3  502    0  0.42021303921E+02 -0.18023952926E+02  0.69012578702E+02  0.82890658590E+02  0.41800000000E+01 0.  1.
         -5    1    3    3    0  502  0.74392717358E+01  0.10446557419E+03  0.48198540342E+02  0.11536451207E+03  0.41800000000E+01 0.  1.
        -11    1    1    2    0    0 -0.81643332865E+02 -0.68362115771E+02  0.12245018499E+02  0.10718653438E+03  0.00000000000E+00 0.  1.
         11    1    1    2    0    0  0.32182757208E+02 -0.18079505494E+02 -0.11153824553E+02  0.38561719134E+02  0.00000000000E+00 0. -1.
</event>
<event>
 7    1  0.2612213E-009  0.1338726E+03  0.7561462E-02  0.1221820E+00
          2   -1    0    0  501    0  0.00000000000E+00  0.00000000000E+00  0.35890364597E+03  0.35890364597E+03  0.00000000000E+00 0. -1.
         -2   -1    0    0    0  501 -0.00000000000E+00 -0.00000000000E+00 -0.59025213455E+02  0.59025213455E+02  0.00000000000E+00 0.  1.
         25    2    1    2    0    0  0.82387610752E+02  0.32115770026E+01  0.23515772565E+03  0.27882679418E+03  0.12508873884E+03 0.  0.
          5    1    3    3  502    0  0.10358971116E+03  0.33454147577E+02  0.19957153352E+03  0.22736815441E+03  0.41800000000E+01 0. -1.
         -5    1    3    3    0  502 -0.21202100403E+02 -0.30242570574E+02  0.35586192133E+02  0.51458639770E+02  0.41800000000E+01 0. -1.
        -11    1    1    2    0    0  0.16910208201E+02  0.12600150732E+02  0.19973452784E+02  0.29045787233E+02  0.00000000000E+00 0. -1.
         11    1    1    2    0    0 -0.99297818953E+02 -0.15811727735E+02  0.44747254080E+02  0.11005627801E+03  0.00000000000E+00 0.  1.
</event>
<event>
 7    1  0.2612213E-009  0.1453686E+03  0.7561462E-02  0.1206282E+00
         -1   -1    0    0    0  501 -0.00000000000E+00  0.00000000000E+00  0.88384806953E+02  0.88384806953E+02  0.00000000000E+00 0.  1.
          1   -1    0    0  501    0  0.00000000000E+00 -0.00000000000E+00 -0.34763092322E+03  0.34763092322E+03  0.00000000000E+00 0. -1.
         25    2    1    2    0    0 -0.82883123273E+02  0.99305023130E+02 -0.83888324578E+02  0.19853386958E+03  0.12508935458E+03 0.  0.
          5    1    3    3  502    0 -0.83548022103E+02  0.11526115602E+03 -0.10112390716E+03  0.17466803681E+03  0.41800000000E+01 0.  1.
         -5    1    3    3    0  502  0.66489883023E+00 -0.15956132889E+02  0.17235582579E+02  0.23865832775E+02  0.41800000000E+01 0.  1.
        -11    1    1    2    0    0  0.57309150197E+02 -0.49092621179E+02 -0.16324815048E+03  0.17984544138E+03  0.00000000000E+00 0.  1.
         11    1    1    2    0    0  0.25573973076E+02 -0.50212401952E+02 -0.12109641208E+02  0.57636419206E+02  0.00000000000E+00 0. -1.
</event>
<event>
 7    1  0.2612213E-009  0.1180003E+03  0.7561462E-02  0.1246433E+00
         -1   -1    0    0    0  501 -0.00000000000E+00  0.00000000000E+00  0.40969677934E+03  0.40969677934E+03  0.00000000000E+00 0.  1.
          1   -1    0    0  501    0  0.00000000000E+00 -0.00000000000E+00 -0.48534513884E+02  0.48534513884E+02  0.00000000000E+00 0. -1.
         25    2    1    2    0    0  0.33632591729E+02  0.71660203340E+02  0.12567721811E+03  0.19418543045E+03  0.12508749849E+03 0.  0.
          5    1    3    3  502    0  0.75183903557E+02  0.33782867931E+02  0.10628140630E+03  0.13456266661E+03  0.41800000000E+01 0. -1.
         -5    1    3    3    0  502 -0.41551311828E+02  0.37877335409E+02  0.19395811809E+02  0.59622763841E+02  0.41800000000E+01 0. -1.
        -11    1    1    2    0    0  0.14470713381E+02 -0.30584940599E+02  0.16870239026E+03  0.17206201387E+03  0.00000000000E+00 0.  1.
         11    1    1    2    0    0 -0.48103305110E+02 -0.41075262742E+02  0.66782657088E+02  0.91983848905E+02  0.00000000000E+00 0. -1.
</event>
<event>
 7    1  0.2612213E-009  0.8641161E+02  0.7561462E-02  0.1311782E+00
          2   -1    0    0  501    0  0.00000000000E+00  0.00000000000E+00  0.47715972016E+03  0.47715972016E+03  0.00000000000E+00 0. -1.
         -2   -1    0    0    0  501 -0.00000000000E+00 -0.00000000000E+00 -0.38562902319E+02  0.38562902319E+02  0.00000000000E+00 0.  1.
         25    2    1    2    0    0 -0.17832276730E+02 -0.64497587635E+02  0.15353732988E+03  0.20904268683E+03  0.12508878586E+03 0.  0.
          5    1    3    3  502    0 -0.18563192009E+02 -0.19232026721E+02  0.16074943796E+03  0.16301017500E+03  0.41800000000E+01 0. -1.
         -5    1    3    3    0  502  0.73091527914E+00 -0.45265560915E+02 -0.72121080854E+01  0.46032511827E+02  0.41800000000E+01 0. -1.
        -11    1    1    2    0    0  0.37910780984E+02  0.59054973093E+01  0.18550412892E+03  0.18943042010E+03  0.00000000000E+00 0. -1.
         11    1    1    2    0    0 -0.20078504254E+02  0.58592090326E+02  0.99555359047E+02  0.11724951555E+03  0.00000000000E+00 0.  1.
</event>
<event>
 7    1  0.2612213E-009  0.1178945E+03  0.7561462E-02  0.1246612E+00
         -1   -1    0    0    0  501 -0.00000000000E+00  0.00000000000E+00  0.12921281186E+03  0.12921281186E+03  0.00000000000E+00 0.  1.
          1   -1    0    0  501    0  0.00000000000E+00 -0.00000000000E+00 -0.23645741739E+03  0.23645741739E+03  0.00000000000E+00 0. -1.
         25    2    1    2    0    0  0.19357260313E+00 -0.68043863775E+02  0.67766172144E+02  0.15770071224E+03  0.12508899107E+03 0.  0.
          5    1    3    3  502    0 -0.30895309330E+02  0.19665339994E+02  0.51201148207E+02  0.63089426320E+02  0.41800000000E+01 0.  1.
         -5    1    3    3    0  502  0.31088881933E+02 -0.87709203768E+02  0.16565023937E+02  0.94611285921E+02  0.41800000000E+01 0.  1.
        -11    1    1    2    0    0 -0.49490113951E+01 -0.18476238812E+02 -0.99828222446E+01  0.21575932295E+02  0.00000000000E+00 0.  1.
         11    1    1    2    0    0  0.47554387920E+01  0.86520102587E+02 -0.16502795543E+03  0.18639358471E+03  0.00000000000E+00 0. -1.
</event>
<event>
 7    1  0.2612213E-009  0.1799521E+03  0.7561462E-02  0.1167849E+00
         -1   -1    0    0    0  501 -0.00000000000E+00  0.00000000000E+00  0.81341343624E+02  0.81341343624E+02  0.00000000000E+00 0.  1.
          1   -1    0    0  501    0  0.00000000000E+00 -0.00000000000E+00 -0.45433230958E+03  0.45433230958E+03  0.00000000000E+00 0. -1.
         25    2    1    2    0    0 -0.16804945910E+02  0.15580381356E+03 -0.22855259242E+03  0.30404424634E+03  0.12509748881E+03 0.  0.
          5    1    3    3  502    0 -0.10746584807E+02 -0.17943982887E+02 -0.71203701267E+01  0.22486611074E+02  0.41800000000E+01 0. -1.
         -5    1    3    3    0  502 -0.60583611030E+01  0.17374779644E+03 -0.22143222229E+03  0.28155763527E+03  0.41800000000E+01 0. -1.
        -11    1    1    2    0    0  0.30932028553E+02 -0.56906785659E+02 -0.10673585749E+03  0.12485077460E+03  0.00000000000E+00 0. -1.
         11    1    1    2    0    0 -0.14127082643E+02 -0.98897027896E+02 -0.37702516042E+02  0.10677863226E+03  0.00000000000E+00 0.  1.
</event>
<event>
 7    1  0.2612213E-009  0.1551828E+03  0.7561462E-02  0.1194245E+00
          3   -1    0    0  501    0  0.00000000000E+00  0.00000000000E+00  0.34386566804E+03  0.34386566804E+03  0.00000000000E+00 0. -1.
         -3   -1    0    0    0  501 -0.00000000000E+00 -0.00000000000E+00 -0.10872702698E+03  0.10872702698E+03  0.00000000000E+00 0.  1.
         25    2    1    2    0    0 -0.12021221665E+03 -0.70538088686E+02  0.21643852874E+03  0.28621680623E+03  0.12509126451E+03 0.  0.
          5    1    3    3  502    0 -0.76003740595E+02 -0.73874848010E+02  0.21715837526E+03  0.24168014833E+03  0.41800000000E+01 0.  1.
         -5    1    3    3    0  502 -0.44208476051E+02  0.33367593241E+01 -0.71984651809E+00  0.44536657896E+02  0.41800000000E+01 0.  1.
        -11    1    1    2    0    0  0.59326711938E+02 -0.85630541027E+01 -0.13590671857E+02  0.61462923836E+02  0.00000000000E+00 0. -1.
         11    1    1    2    0    0  0.60885504708E+02  0.79101142788E+02  0.32290784176E+02  0.10491296496E+03  0.00000000000E+00 0.  1.
</event>
<event>
 7    1  0.2612213E-009  0.9066513E+02  0.7561462E-02  0.1301249E+00
          2   -1    0    0  501    0  0.00000000000E+00  0.00000000000E+00  0.63195055298E+03  0.63195055298E+03  0.00000000000E+00 0. -1.
         -2   -1    0    0    0  501 -0.00000000000E+00 -0.00000000000E+00 -0.38282710154E+02  0.38282710154E+02  0.00000000000E+00 0.  1.
         25    2    1    2    0    0 -0.34085235276E+02 -0.56673412794E+02  0.50368905339E+03  0.52318666183E+03  0.12509173289E+03 0.  0.
          5    1    3    3  502    0 -0.27775422456E+02 -0.46161922412E+02  0.50695636529E+03  0.50982803560E+03  0.41800000000E+01 0.  1.
         -5    1    3    3    0  502 -0.63098128192E+01 -0.10511490382E+02 -0.32673119016E+01  0.13358626236E+02  0.41800000000E+01 0.  1.
        -11    1    1    2    0    0  0.42373333076E+02  0.79483211503E+02  0.81103155582E+02  0.12120561914E+03  0.00000000000E+00 0.  1.
         11    1    1    2    0    0 -0.82880978008E+01 -0.22809798709E+02  0.88756338547E+01  0.25840982153E+02  0.00000000000E+00 0. -1.
</event>
<event>
 7    1  0.2612213E-009  0.9479601E+02  0.7561462E-02  0.1291636E+00
          3   -1    0    0  501    0  0.00000000000E+00  0.00000000000E+00  0.42044539257E+02  0.42044539257E+02  0.00000000000E+00 0. -1.
         -3   -1    0    0    0  501 -0.00000000000E+00 -0.00000000000E+00 -0.29517263575E+03  0.29517263575E+03  0.00000000000E+00 0.  1.
         25    2    1    2    0    0 -0.16321379327E+02  0.73354690759E+01 -0.12086561230E+03  0.17485949624E+03  0.12508857126E+03 0.  0.
          5    1    3    3  502    0 -0.40267382953E+02 -0.49660524490E+02 -0.55145859519E+02  0.84535010763E+02  0.41800000000E+01 0.  1.
         -5    1    3    3    0  502  0.23946003626E+02  0.56995993566E+02 -0.65719752779E+02  0.90324485481E+02  0.41800000000E+01 0.  1.
        -11    1    1    2    0    0  0.39037478591E+02  0.17872359845E+01 -0.13879120191E+02  0.41469855612E+02  0.00000000000E+00 0. -1.
         11    1    1    2    0    0 -0.22716099264E+02 -0.91227050604E+01 -0.11838336401E+03  0.12088782316E+03  0.00000000000E+00 0.  1.
</event>
<event>
 7    1  0.2612213E-009  0.1072824E+03  0.7561462E-02  0.1265687E+00
         -2   -1    0    0    0  501 -0.00000000000E+00  0.00000000000E+00  0.20837478591E+02  0.20837478591E+02  0.00000000000E+00 0.  1.
          2   -1    0    0  501    0  0.00000000000E+00 -0.00000000000E+00 -0.74918868022E+03  0.74918868022E+03  0.00000000000E+00 0. -1.
         25    2    1    2    0    0  0.19183007888E+02 -0.46371866839E+02 -0.33258761505E+03  0.35886065203E+03  0.12509239813E+03 0.  0.
          5    1    3    3  502    0  0.54398702261E+02 -0.15133483358E+02 -0.61139069756E+02  0.83328862808E+02  0.41800000000E+01 0. -1.
         -5    1    3    3    0  502 -0.35215694373E+02 -0.31238383481E+02 -0.27144854529E+03  0.27553178923E+03  0.41800000000E+01 0. -1.
        -11    1    1    2    0    0  0.38955330375E+02  0.32942996888E+02 -0.20707994931E+03  0.21327180830E+03  0.00000000000E+00 0.  1.
         11    1    1    2    0    0 -0.58138338263E+02  0.13428869951E+02 -0.18868363727E+03  0.19789369847E+03  0.00000000000E+00 0. -1.
</event>
<event>
 7    1  0.2612213E-009  0.1233392E+03  0.7561462E-02  0.1237688E+00
         -1   -1    0    0    0  501 -0.00000000000E+00  0.00000000000E+00  0.35729456086E+02  0.35729456086E+02  0.00000000000E+00 0.  1.
          1   -1    0    0  501    0  0.00000000000E+00 -0.00000000000E+00 -0.47681416447E+03  0.47681416447E+03  0.00000000000E+00 0. -1.
         25    2    1    2    0    0 -0.65060146339E+02  0.34773578043E+02 -0.25752996622E+03  0.29565917817E+03  0.12510252501E+03 0.  0.
          5    1    3    3  502    0  0.14414499902E+02  0.49686422843E+02 -0.46718254971E+02  0.69832558093E+02  0.41800000000E+01 0. -1.
         -5    1    3    3    0  502 -0.79474646241E+02 -0.14912844800E+02 -0.21081171124E+03  0.22582662007E+03  0.41800000000E+01 0. -1.
        -11    1    1    2    0    0  0.16369505783E+02 -0.57707056007E+02 -0.11522747699E+03  0.12990549059E+03  0.00000000000E+00 0.  1.
         11    1    1    2    0    0  0.48690640556E+02  0.22933477964E+02 -0.68327265184E+02  0.86978951804E+02  0.00000000000E+00 0. -1.
</event>
<event>
 7    1  0.2612213E-009  0.1081889E+03  0.7561462E-02  0.1263961E+00
         -1   -1    0    0    0  501 -0.00000000000E+00  0.00000000000E+00  0.36840637941E+02  0.36840637941E+02  0.00000000000E+00 0. -1.
          1   -1    0    0  501    0  0.00000000000E+00 -0.00000000000E+00 -0.80109311769E+03  0.80109311769E+03  0.00000000000E+00 0.  1.
         25    2    1    2    0    0 -0.25295680342E+02 -0.35332486055E+01 -0.72188090375E+03  0.73308370638E+03  0.12508927239E+03 0.  0.
          5    1    3    3  502    0 -0.20478889573E+02 -0.63562429160E+02 -0.35070121863E+03  0.35702714808E+03  0.41800000000E+01 0. -1.
         -5    1    3    3    0  502 -0.48167907699E+01  0.60029180555E+02 -0.37117968513E+03  0.37605655830E+03  0.41800000000E+01 0. -1.
        -11    1    1    2    0    0  0.56721132223E+02  0.82662957206E+01 -0.45124813732E+02  0.72951129532E+02  0.00000000000E+00 0. -1.
         11    1    1    2    0    0 -0.31425451881E+02 -0.47330471151E+01  0.27532377398E+01  0.31898919715E+02  0.00000000000E+00 0.  1.
</event>
<event>
 7    1  0.2770871E-009  0.8943860E+02  0.7561462E-02  0.1304217E+00
          2   -1    0    0  501    0  0.00000000000E+00  0.00000000000E+00  0.23360195199E+03  0.23360195199E+03  0.00000000000E+00 0. -1.
         -2   -1    0    0    0  501 -0.00000000000E+00 -0.00000000000E+00 -0.67310923105E+02  0.67310923105E+02  0.00000000000E+00 0.  1.
         25    2    1    2    0    0 -0.22127982552E+02 -0.36265914185E+02  0.37642586972E+02  0.13736531498E+03  0.12508957295E+03 0.  0.
          5    1    3    3  502    0  0.39741906982E+02 -0.22238950909E+02 -0.21498300117E+02  0.50533547432E+02  0.41800000000E+01 0.  1.
         -5    1    3    3    0  502 -0.61869889534E+02 -0.14026963276E+02  0.59140887089E+02  0.86831767547E+02  0.41800000000E+01 0.  1.
        -11    1    1    2    0    0  0.37845055248E+02  0.10311401774E+02  0.91778333695E+01  0.40284064326E+02  0.00000000000E+00 0.  1.
         11    1    1    2    0    0 -0.15717072696E+02  0.25954512411E+02  0.11947060855E+03  0.12326349579E+03  0.00000000000E+00 0. -1.
</event>
<event>
 7    1  0.2612213E-009  0.8675724E+02  0.7561462E-02  0.1310900E+00
         -2   -1    0    0    0  501 -0.00000000000E+00  0.00000000000E+00  0.21878396750E+02  0.21878396750E+02  0.00000000000E+00 0.  1.
          2   -1    0    0  501    0  0.00000000000E+00 -0.00000000000E+00 -0.55315704015E+03  0.55315704015E+03  0.00000000000E+00 0. -1.
         25    2    1    2    0    0 -0.17267778059E+02 -0.25018669092E+01 -0.31876839736E+03  0.34287758783E+03  0.12508922249E+03 0.  0.
          5    1    3    3  502    0 -0.46344899335E+02  0.21793845188E+02 -0.50956523753E+02  0.72366159878E+02  0.41800000000E+01 0. -1.
         -5    1    3    3    0  502  0.29077121276E+02 -0.24295712097E+02 -0.26781187360E+03  0.27051142795E+03  0.41800000000E+01 0. -1.
        -11    1    1    2    0    0  0.39376271688E+02 -0.26558067320E+02 -0.66939511208E+02  0.82077523553E+02  0.00000000000E+00 0.  1.
         11    1    1    2    0    0 -0.22108493629E+02  0.29059934229E+02 -0.14557073483E+03  0.15008032552E+03  0.00000000000E+00 0. -1.
</event>
<event>
 7    1  0.2612213E-009  0.1297302E+03  0.7561462E-02  0.1227857E+00
          4   -1    0    0  501    0  0.00000000000E+00  0.00000000000E+00  0.59418798513E+02  0.59418798513E+02  0.00000000000E+00 0.  1.
         -4   -1    0    0    0  501 -0.00000000000E+00 -0.00000000000E+00 -0.48201596579E+03  0.48201596579E+03  0.00000000000E+00 0. -1.
         25    2    1    2    0    0  0.88233676701E+02 -0.46859756001E+02 -0.91937246274E+02  0.18460979732E+03  0.12508917450E+03 0.  0.
          5    1    3    3  502    0  0.10065356125E+03  0.76316472902E+01 -0.75752521438E+02  0.12627469397E+03  0.41800000000E+01 0. -1.
         -5    1    3    3    0  502 -0.12419884551E+02 -0.54491403291E+02 -0.16184724836E+02  0.58335103350E+02  0.41800000000E+01 0. -1.
        -11    1    1    2    0    0 -0.37360519389E+02  0.32518865311E+02 -0.27740735014E+03  0.28179446929E+03  0.00000000000E+00 0. -1.
         11    1    1    2    0    0 -0.50873157312E+02  0.14340890690E+02 -0.53252570864E+02  0.75030497694E+02  0.00000000000E+00 0.  1.
</event>
<event>
 7    1  0.2612213E-009  0.1356028E+03  0.7561462E-02  0.1219371E+00
         -2   -1    0    0    0  501 -0.00000000000E+00  0.00000000000E+00  0.52926152582E+02  0.52926152582E+02  0.00000000000E+00 0. -1.
          2   -1    0    0  501    0  0.00000000000E+00 -0.00000000000E+00 -0.36961372801E+03  0.36961372801E+03  0.00000000000E+00 0.  1.
         25    2    1    2    0    0  0.12275161396E+02  0.81166355674E+02 -0.13018595951E+03  0.19833224366E+03  0.12509451603E+03 0.  0.
          5    1    3    3  502    0  0.50868352966E+02  0.94105526529E+02 -0.10672072201E+03  0.15116290671E+03  0.41800000000E+01 0. -1.
         -5    1    3    3    0  502 -0.38593191571E+02 -0.12939170854E+02 -0.23465237496E+02  0.47169336955E+02  0.41800000000E+01 0. -1.
        -11    1    1    2    0    0 -0.29926565703E+02  0.90810748657E+01 -0.34594078584E+02  0.46634917482E+02  0.00000000000E+00 0. -1.
         11    1    1    2    0    0  0.17651404307E+02 -0.90247430540E+02 -0.15190753733E+03  0.17757271945E+03  0.00000000000E+00 0.  1.
</event>
<event>
 7    1  0.2612213E-009  0.1340073E+03  0.7561462E-02  0.1221628E+00
          2   -1    0    0  501    0  0.00000000000E+00  0.00000000000E+00  0.32107524499E+03  0.32107524499E+03  0.00000000000E+00 0. -1.
         -2   -1    0    0    0  501 -0.00000000000E+00 -0.00000000000E+00 -0.79263590543E+02  0.79263590543E+02  0.00000000000E+00 0.  1.
         25    2    1    2    0    0  0.67625961902E+02 -0.78008315125E+02  0.20132007720E+03  0.25852651366E+03  0.12509043461E+03 0.  0.
          5    1    3    3  502    0  0.39916807623E+02  0.19758001930E+02  0.12076995456E+03  0.12878891449E+03  0.41800000000E+01 0.  1.
         -5    1    3    3    0  502  0.27709154279E+02 -0.97766317055E+02  0.80550122637E+02  0.12973759917E+03  0.41800000000E+01 0.  1.
        -11    1    1    2    0    0 -0.41238254872E+02  0.21886691253E+01 -0.15310597931E+02  0.44043141877E+02  0.00000000000E+00 0.  1.
         11    1    1    2    0    0 -0.26387707031E+02  0.75819646000E+02  0.55802175177E+02  0.97769179992E+02  0.00000000000E+00 0. -1.
</event>
<event>
 7    1  0.2612213E-009  0.1336716E+03  0.7561462E-02  0.1222107E+00
          2   -1    0    0  501    0  0.00000000000E+00  0.00000000000E+00  0.63059125019E+02  0.63059125019E+02  0.00000000000E+00 0.  1.
         -2   -1    0    0    0  501 -0.00000000000E+00 -0.00000000000E+00 -0.57261383308E+03  0.57261383308E+03  0.00000000000E+00 0. -1.
         25    2    1    2    0    0 -0.84409990592E+02  0.28291976846E+02 -0.53242605447E+02  0.16250290045E+03  0.12508770985E+03 0.  0.
          5    1    3    3  502    0  0.25677672497E+02  0.32022653738E+02 -0.30145437363E+01  0.41368503613E+02  0.41800000000E+01 0.  1.
         -5    1    3    3    0  502 -0.11008766309E+03 -0.37306768912E+01 -0.50228061711E+02  0.12113439684E+03  0.41800000000E+01 0.  1.
        -11    1    1    2    0    0  0.14664541957E+02 -0.42253068597E+02 -0.96041398663E+02  0.10594489536E+03  0.00000000000E+00 0.  1.
         11    1    1    2    0    0  0.69745448634E+02  0.13961091751E+02 -0.36027070395E+03  0.36722516229E+03  0.00000000000E+00 0. -1.
</event>
<event>
 7    1  0.2612213E-009  0.6118015E+02  0.7561462E-02  0.1392945E+00
         -1   -1    0    0    0  501 -0.00000000000E+00  0.00000000000E+00  0.21503683646E+03  0.21503683646E+03  0.00000000000E+00 0.  1.
          1   -1    0    0  501    0  0.00000000000E+00 -0.00000000000E+00 -0.55699033344E+02  0.55699033344E+02  0.00000000000E+00 0. -1.
         25    2    1    2    0    0  0.70081154264E+01 -0.18026841480E+02  0.10812255973E+03  0.16647297803E+03  0.12509469931E+03 0.  0.
          5    1    3    3  502    0  0.34943512538E+02  0.10950523707E+02  0.11899416056E+03  0.12457144811E+03  0.41800000000E+01 0. -1.
         -5    1    3    3    0  502 -0.27935397111E+02 -0.28977365187E+02 -0.10871600826E+02  0.41901529918E+02  0.41800000000E+01 0. -1.
        -11    1    1    2    0    0  0.10150021467E+02  0.24639673739E+02  0.71844707176E+02  0.76627660848E+02  0.00000000000E+00 0.  1.
         11    1    1    2    0    0 -0.17158136893E+02 -0.66128322584E+01 -0.20629463791E+02  0.27635230928E+02  0.00000000000E+00 0. -1.
</event>
<event>
 7    1  0.2612213E-009  0.9725642E+02  0.7561462E-02  0.1286173E+00
          1   -1    0    0  501    0  0.00000000000E+00  0.00000000000E+00  0.49163304178E+02  0.49163304178E+02  0.00000000000E+00 0. -1.
         -1   -1    0    0    0  501 -0.00000000000E+00 -0.00000000000E+00 -0.25381534627E+03  0.25381534627E+03  0.00000000000E+00 0.  1.
         25    2    1    2    0    0 -0.21934547206E+02 -0.16535188865E+02 -0.10444642461E+03  0.16526139559E+03  0.12509091264E+03 0.  0.
          5    1    3    3  502    0  0.34922212599E+02 -0.35161176146E+02 -0.91141897984E+02  0.10382768036E+03  0.41800000000E+01 0.  1.
         -5    1    3    3    0  502 -0.56856759804E+02  0.18625987281E+02 -0.13304526628E+02  0.61433715226E+02  0.41800000000E+01 0.  1.
        -11    1    1    2    0    0  0.50334470305E+02  0.23519411372E+02 -0.91772447236E+02  0.10727955856E+03  0.00000000000E+00 0.  1.
         11    1    1    2    0    0 -0.28399923099E+02 -0.69842225067E+01 -0.84331702435E+01  0.30437696306E+02  0.00000000000E+00 0. -1.
</event>
<event>
 7    1  0.2612213E-009  0.1473438E+03  0.7561462E-02  0.1203775E+00
          2   -1    0    0  501    0  0.00000000000E+00  0.00000000000E+00  0.20167204069E+03  0.20167204069E+03  0.00000000000E+00 0.  1.
         -2   -1    0    0    0  501 -0.00000000000E+00 -0.00000000000E+00 -0.14435457836E+03  0.14435457836E+03  0.00000000000E+00 0. -1.
         25    2    1    2    0    0  0.12884970846E+03 -0.60464296929E+01  0.37190546208E+01  0.17972142629E+03  0.12508858068E+03 0.  0.
          5    1    3    3  502    0  0.40947407455E+02  0.38285100457E+02 -0.42899733300E+02  0.70712789590E+02  0.41800000000E+01 0. -1.
         -5    1    3    3    0  502  0.87902301008E+02 -0.44331530150E+02  0.46618787921E+02  0.10900863670E+03  0.41800000000E+01 0. -1.
        -11    1    1    2    0    0 -0.87597437537E+02  0.29564535294E+02  0.70111998607E+02  0.11603044927E+03  0.00000000000E+00 0.  1.
         11    1    1    2    0    0 -0.41252270926E+02 -0.23518105601E+02 -0.16513590897E+02  0.50274743480E+02  0.00000000000E+00 0. -1.
</event>
<event>
 7    1  0.2612213E-009  0.1525414E+03  0.7561462E-02  0.1197384E+00
         -3   -1    0    0    0  501 -0.00000000000E+00  0.00000000000E+00  0.18602364821E+03  0.18602364821E+03  0.00000000000E+00 0.  1.
          3   -1    0    0  501    0  0.00000000000E+00 -0.00000000000E+00 -0.14876661180E+03  0.14876661180E+03  0.00000000000E+00 0. -1.
         25    2    1    2    0    0  0.93965256340E+01  0.10668735052E+03  0.86222705411E+02  0.18584989287E+03  0.12504136234E+03 0.  0.
          5    1    3    3  502    0  0.58977988509E+02  0.97471739894E+02  0.61405642907E+02  0.12948848824E+03  0.41800000000E+01 0. -1.
         -5    1    3    3    0  502 -0.49581462875E+02  0.92156106212E+01  0.24817062504E+02  0.56361404625E+02  0.41800000000E+01 0. -1.
        -11    1    1    2    0    0 -0.29080529435E+02 -0.11535837003E+03 -0.38672645903E+02  0.12509518084E+03  0.00000000000E+00 0.  1.
         11    1    1    2    0    0  0.19684003801E+02  0.86710195179E+01 -0.10293023097E+02  0.23845186298E+02  0.00000000000E+00 0. -1.
</event>
<event>
 7    1  0.2612213E-009  0.1482819E+03  0.7561462E-02  0.1202600E+00
          1   -1    0    0  501    0  0.00000000000E+00  0.00000000000E+00  0.19422987998E+04  0.19422987998E+04  0.00000000000E+00 0. -1.
         -1   -1    0    0    0  501 -0.00000000000E+00 -0.00000000000E+00 -0.13013518313E+02  0.13013518313E+02  0.00000000000E+00 0.  1.
         25    2    1    2    0    0 -0.74646464955E+02 -0.71159952853E+02  0.13838197336E+04  0.13932842032E+04  0.12509189465E+03 0.  0.
          5    1    3    3  502    0  0.34186636567E+02 -0.26777397685E+02  0.31311548576E+03  0.31614005594E+03  0.41800000000E+01 0.  1.
         -5    1    3    3    0  502 -0.10883310152E+03 -0.44382555168E+02  0.10707042478E+04  0.10771441472E+04  0.41800000000E+01 0.  1.
        -11    1    1    2    0    0 -0.20491639137E+01  0.57365702572E+02  0.22036766370E+03  0.22772116746E+03  0.00000000000E+00 0.  1.
         11    1    1    2    0    0  0.76695628868E+02  0.13794250280E+02  0.32509788424E+03  0.33430694752E+03  0.00000000000E+00 0. -1.
</event>
<event>
 7    1  0.2612213E-009  0.9459704E+02  0.7561462E-02  0.1292086E+00
         -2   -1    0    0    0  501 -0.00000000000E+00  0.00000000000E+00  0.50098500554E+02  0.50098500554E+02  0.00000000000E+00 0.  1.
          2   -1    0    0  501    0  0.00000000000E+00 -0.00000000000E+00 -0.25931999355E+03  0.25931999355E+03  0.00000000000E+00 0. -1.
         25    2    1    2    0    0  0.36839784925E+02 -0.98002420928E+01 -0.10554229392E+03  0.16804835953E+03  0.12509140992E+03 0.  0.
          5    1    3    3  502    0  0.64217510754E+02 -0.21643546216E+02 -0.10945900369E+02  0.68772210341E+02  0.41800000000E+01 0.  1.
         -5    1    3    3    0  502 -0.27377725829E+02  0.11843304123E+02 -0.94596393551E+02  0.99276149184E+02  0.41800000000E+01 0.  1.
        -11    1    1    2    0    0  0.22065998798E+02 -0.15605428109E+02 -0.53449600500E+02  0.59894052151E+02  0.00000000000E+00 0.  1.
         11    1    1    2    0    0 -0.58905783723E+02  0.25405670202E+02 -0.50229598572E+02  0.81476082424E+02  0.00000000000E+00 0. -1.
</event>
<event>
 7    1  0.2612213E-009  0.1670776E+03  0.7561462E-02  0.1180930E+00
          2   -1    0    0  501    0  0.00000000000E+00  0.00000000000E+00  0.89888863313E+03  0.89888863313E+03  0.00000000000E+00 0. -1.
         -2   -1    0    0    0  501 -0.00000000000E+00 -0.00000000000E+00 -0.50784989189E+02  0.50784989189E+02  0.00000000000E+00 0.  1.
         25    2    1    2    0    0 -0.11555277034E+03 -0.97129764945E+02  0.67397798850E+03  0.70191121024E+03  0.12508550720E+03 0.  0.
          5    1    3    3  502    0 -0.12676817424E+03 -0.78673952908E+02  0.65802023335E+03  0.67473540056E+03  0.41800000000E+01 0. -1.
         -5    1    3    3    0  502  0.11215403899E+02 -0.18455812037E+02  0.15957755144E+02  0.27175809681E+02  0.41800000000E+01 0. -1.
        -11    1    1    2    0    0  0.61601911462E+02  0.89152687496E+02  0.15667818425E+03  0.19050210131E+03  0.00000000000E+00 0.  1.
         11    1    1    2    0    0  0.53950858882E+02  0.79770774492E+01  0.17447471200E+02  0.57260310775E+02  0.00000000000E+00 0. -1.
</event>
<event>
 7    1  0.2612213E-009  0.1211801E+03  0.7561462E-02  0.1241163E+00
         -1   -1    0    0    0  501 -0.00000000000E+00  0.00000000000E+00  0.11377202798E+04  0.11377202798E+04  0.00000000000E+00 0.  1.
          1   -1    0    0  501    0  0.00000000000E+00 -0.00000000000E+00 -0.15881720038E+02  0.15881720038E+02  0.00000000000E+00 0. -1.
         25    2    1    2    0    0 -0.74329530676E+02 -0.17937591687E+02  0.67947474119E+03  0.69511220834E+03  0.12509365264E+03 0.  0.
          5    1    3    3  502    0 -0.14340880920E+02 -0.62043878931E+02  0.43063524838E+03  0.43533813677E+03  0.41800000000E+01 0. -1.
         -5    1    3    3    0  502 -0.59988649756E+02  0.44106287245E+02  0.24883949282E+03  0.25977407157E+03  0.41800000000E+01 0. -1.
        -11    1    1    2    0    0  0.87013224087E+02  0.23481182910E+02  0.43172389927E+03  0.44103082921E+03  0.00000000000E+00 0.  1.
         11    1    1    2    0    0 -0.12683693411E+02 -0.55435912239E+01  0.10639919347E+02  0.17458962337E+02  0.00000000000E+00 0. -1.
</event>
<event>
 7    1  0.2612213E-009  0.1390242E+03  0.7561462E-02  0.1214648E+00
         -1   -1    0    0    0  501 -0.00000000000E+00  0.00000000000E+00  0.16596892313E+02  0.16596892313E+02  0.00000000000E+00 0.  1.
          1   -1    0    0  501    0  0.00000000000E+00 -0.00000000000E+00 -0.13761089290E+04  0.13761089290E+04  0.00000000000E+00 0. -1.
         25    2    1    2    0    0 -0.10277464643E+03  0.88054017569E+01 -0.86938227827E+03  0.88437179141E+03  0.12509099342E+03 0.  0.
          5    1    3    3  502    0 -0.93292859786E+02 -0.44193649687E+02 -0.46105339251E+03  0.47248739614E+03  0.41800000000E+01 0. -1.
         -5    1    3    3    0  502 -0.94817866430E+01  0.52999051444E+02 -0.40832888575E+03  0.41188439528E+03  0.41800000000E+01 0. -1.
        -11    1    1    2    0    0  0.34242265359E+02 -0.33481346213E+02 -0.93286026815E+02  0.10486093686E+03  0.00000000000E+00 0.  1.
         11    1    1    2    0    0  0.68532381070E+02  0.24675944457E+02 -0.39684373164E+03  0.40347309307E+03  0.00000000000E+00 0. -1.
</event>
<event>
 7    1  0.2612213E-009  0.1247052E+03  0.7561462E-02  0.1235531E+00
         -1   -1    0    0    0  501 -0.00000000000E+00  0.00000000000E+00  0.22489268593E+02  0.22489268593E+02  0.00000000000E+00 0.  1.
          1   -1    0    0  501    0  0.00000000000E+00 -0.00000000000E+00 -0.96830214399E+03  0.96830214399E+03  0.00000000000E+00 0. -1.
         25    2    1    2    0    0  0.72785941968E+02 -0.23196054089E+02 -0.73759303625E+03  0.75201707975E+03  0.12510136223E+03 0.  0.
          5    1    3    3  502    0  0.10008350726E+03 -0.29318106453E+02 -0.40533884854E+03  0.41856100431E+03  0.41800000000E+01 0. -1.
         -5    1    3    3    0  502 -0.27297565289E+02  0.61220523640E+01 -0.33225418771E+03  0.33345607544E+03  0.41800000000E+01 0. -1.
        -11    1    1    2    0    0 -0.80812365099E+02  0.45713518137E+02 -0.16119069810E+03  0.18601829278E+03  0.00000000000E+00 0.  1.
         11    1    1    2    0    0  0.80264231310E+01 -0.22517464048E+02 -0.47029141044E+02  0.52756040060E+02  0.00000000000E+00 0. -1.
</event>
<event>
 7    1  0.2612213E-009  0.1150182E+03  0.7561462E-02  0.1251549E+00
          1   -1    0    0  501    0  0.00000000000E+00  0.00000000000E+00  0.37119665141E+03  0.37119665141E+03  0.00000000000E+00 0. -1.
         -1   -1    0    0    0  501 -0.00000000000E+00 -0.00000000000E+00 -0.43644792289E+02  0.43644792289E+02  0.00000000000E+00 0.  1.
         25    2    1    2    0    0 -0.49574697242E+02  0.75356821260E+01  0.11354016511E+03  0.17622140529E+03  0.12509267555E+03 0.  0.
          5    1    3    3  502    0  0.25861288256E+02  0.43507353981E+02  0.48692510363E+02  0.70357153483E+02  0.41800000000E+01 0. -1.
         -5    1    3    3    0  502 -0.75435985498E+02 -0.35971671855E+02  0.64847654747E+02  0.10586425181E+03  0.41800000000E+01 0. -1.
        -11    1    1    2    0    0  0.61794045962E+02  0.20405920149E+02  0.18657301821E+03  0.19759655062E+03  0.00000000000E+00 0. -1.
         11    1    1    2    0    0 -0.12219348720E+02 -0.27941602275E+02  0.27438675803E+02  0.41023487792E+02  0.00000000000E+00 0.  1.
</event>
<event>
 7    1  0.2612213E-009  0.8889104E+02  0.7561462E-02  0.1305560E+00
          1   -1    0    0  501    0  0.00000000000E+00  0.00000000000E+00  0.17726788463E+03  0.17726788463E+03  0.00000000000E+00 0. -1.
         -1   -1    0    0    0  501 -0.00000000000E+00 -0.00000000000E+00 -0.79887433738E+02  0.79887433738E+02  0.00000000000E+00 0.  1.
         25    2    1    2    0    0  0.32339910558E+02 -0.70413596887E+01  0.16792209183E+02  0.13047866760E+03  0.12508898372E+03 0.  0.
          5    1    3    3  502    0  0.11701154868E+02  0.58021869105E+02 -0.26060096031E+01  0.59394595762E+02  0.41800000000E+01 0.  1.
         -5    1    3    3    0  502  0.20638755690E+02 -0.65063228794E+02  0.19398218786E+02  0.71084071841E+02  0.41800000000E+01 0.  1.
        -11    1    1    2    0    0 -0.56042465372E+00  0.16804044594E+02 -0.16801241303E+02  0.23769133342E+02  0.00000000000E+00 0.  1.
         11    1    1    2    0    0 -0.31779485904E+02 -0.97626849054E+01  0.97389483008E+02  0.10290751742E+03  0.00000000000E+00 0. -1.
</event>
<event>
 7    1  0.2612213E-009  0.1358926E+03  0.7561462E-02  0.1218965E+00
          2   -1    0    0  501    0  0.00000000000E+00  0.00000000000E+00  0.80374680191E+02  0.80374680191E+02  0.00000000000E+00 0. -1.
         -2   -1    0    0    0  501 -0.00000000000E+00 -0.00000000000E+00 -0.31789581086E+03  0.31789581086E+03  0.00000000000E+00 0.  1.
         25    2    1    2    0    0 -0.41296151672E+02 -0.10688699280E+03 -0.96485317902E+02  0.19516605494E+03  0.12510064372E+03 0.  0.
          5    1    3    3  502    0 -0.20607512680E+02 -0.82128888642E+00 -0.83656340550E+02  0.86262389305E+02  0.41800000000E+01 0. -1.
         -5    1    3    3    0  502 -0.20688638993E+02 -0.10606570391E+03 -0.12828977351E+02  0.10890366564E+03  0.41800000000E+01 0. -1.
        -11    1    1    2    0    0  0.45098265723E+02  0.12039465762E+03 -0.11060567755E+03  0.16959464337E+03  0.00000000000E+00 0.  1.
         11    1    1    2    0    0 -0.38021140504E+01 -0.13507664819E+02 -0.30430135218E+02  0.33509792740E+02  0.00000000000E+00 0. -1.
</event>
<event>
 7    1  0.2612213E-009  0.1021038E+03  0.7561462E-02  0.1275933E+00
          1   -1    0    0  501    0  0.00000000000E+00  0.00000000000E+00  0.20072960541E+03  0.20072960541E+03  0.00000000000E+00 0. -1.
         -1   -1    0    0    0  501 -0.00000000000E+00 -0.00000000000E+00 -0.84845924789E+02  0.84845924789E+02  0.00000000000E+00 0.  1.
         25    2    1    2    0    0 -0.54141789745E+02  0.46441030020E+02  0.50006500994E+02  0.15242934754E+03  0.12508378465E+03 0.  0.
          5    1    3    3  502    0 -0.11480566871E+02  0.47424340210E+02 -0.32964878022E+02  0.59034117619E+02  0.41800000000E+01 0. -1.
         -5    1    3    3    0  502 -0.42661222874E+02 -0.98331018944E+00  0.82971379016E+02  0.93395229920E+02  0.41800000000E+01 0. -1.
        -11    1    1    2    0    0 -0.24056617686E+02 -0.93619084983E+01  0.26161020180E+01  0.25946294051E+02  0.00000000000E+00 0.  1.
         11    1    1    2    0    0  0.78198407430E+02 -0.37079121522E+02  0.63261077608E+02  0.10719988861E+03  0.00000000000E+00 0. -1.
</event>
<event>
 7    1  0.2612213E-009  0.1238768E+03  0.7561462E-02  0.1236835E+00
          1   -1    0    0  501    0  0.00000000000E+00  0.00000000000E+00  0.57140784065E+03  0.57140784065E+03  0.00000000000E+00 0. -1.
         -1   -1    0    0    0  501 -0.00000000000E+00 -0.00000000000E+00 -0.39354885648E+02  0.39354885648E+02  0.00000000000E+00 0.  1.
         25    2    1    2    0    0  0.10144241037E+02  0.90257485144E+02  0.18141308544E+03  0.23834404054E+03  0.12509138596E+03 0.  0.
          5    1    3    3  502    0  0.51144211644E+02  0.68899532809E+02  0.17010613290E+03  0.19056874050E+03  0.41800000000E+01 0.  1.
         -5    1    3    3    0  502 -0.40999970607E+02  0.21357952335E+02  0.11306952535E+02  0.47775300034E+02  0.41800000000E+01 0.  1.
        -11    1    1    2    0    0 -0.40984287833E+02 -0.48094986829E+02  0.26217222479E+03  0.26967965266E+03  0.00000000000E+00 0. -1.
         11    1    1    2    0    0  0.30840046797E+02 -0.42162498315E+02  0.88467644771E+02  0.10273903310E+03  0.00000000000E+00 0.  1.
</event>
<event>
 7    1  0.2612213E-009  0.1574716E+03  0.7561462E-02  0.1191581E+00
          2   -1    0    0  501    0  0.00000000000E+00  0.00000000000E+00  0.87545638761E+02  0.87545638761E+02  0.00000000000E+00 0. -1.
         -2   -1    0    0    0  501 -0.00000000000E+00 -0.00000000000E+00 -0.31659679625E+03  0.31659679625E+03  0.00000000000E+00 0.  1.
         25    2    1    2    0    0  0.48012710859E+02 -0.11389936017E+03 -0.91797916546E+02  0.19837387802E+03  0.12508818228E+03 0.  0.
          5    1    3    3  502    0  0.10954172143E+02  0.21585063973E+02 -0.43179723518E+02  0.49677658934E+02  0.41800000000E+01 0.  1.
         -5    1    3    3    0  502  0.37058538716E+02 -0.13548442414E+03 -0.48618193028E+02  0.14869621909E+03  0.41800000000E+01 0.  1.
        -11    1    1    2    0    0  0.10915438055E+02  0.82241008870E+02 -0.54078315309E+02  0.99031280485E+02  0.00000000000E+00 0.  1.
         11    1    1    2    0    0 -0.58928148914E+02  0.31658351299E+02 -0.83174925631E+02  0.10673727650E+03  0.00000000000E+00 0. -1.
</event>
<event>
 7    1  0.2612213E-009  0.2086395E+03  0.7561462E-02  0.1142648E+00
         -3   -1    0    0    0  501 -0.00000000000E+00  0.00000000000E+00  0.92787774233E+02  0.92787774233E+02  0.00000000000E+00 0.  1.
          3   -1    0    0  501    0  0.00000000000E+00 -0.00000000000E+00 -0.52440341208E+03  0.52440341208E+03  0.00000000000E+00 0. -1.
         25    2    1    2    0    0 -0.98925781627E+02  0.14536317946E+03 -0.32181907144E+03  0.38746884960E+03  0.12509128847E+03 0.  0.
          5    1    3    3  502    0  0.26213658645E+02  0.38363536025E+01 -0.40803513596E+02  0.48829014226E+02  0.41800000000E+01 0.  1.
         -5    1    3    3    0  502 -0.12513944027E+03  0.14152682586E+03 -0.28101555785E+03  0.33863983537E+03  0.41800000000E+01 0.  1.
        -11    1    1    2    0    0 -0.20026031609E+02 -0.15020446500E+02 -0.17826552602E+02  0.30731770739E+02  0.00000000000E+00 0. -1.
         11    1    1    2    0    0  0.11895181324E+03 -0.13034273296E+03 -0.91970013800E+02  0.19899056597E+03  0.00000000000E+00 0.  1.
</event>
<event>
 7    1  0.2612213E-009  0.8390742E+02  0.7561462E-02  0.1318315E+00
         -4   -1    0    0    0  501 -0.00000000000E+00  0.00000000000E+00  0.14482039093E+03  0.14482039093E+03  0.00000000000E+00 0.  1.
          4   -1    0    0  501    0  0.00000000000E+00 -0.00000000000E+00 -0.91139697088E+02  0.91139697088E+02  0.00000000000E+00 0. -1.
         25    2    1    2    0    0 -0.18967694172E+02  0.96101690072E+01 -0.76774528951E+00  0.12688719918E+03  0.12509053966E+03 0.  0.
          5    1    3    3  502    0 -0.67626584177E+02  0.29176774268E+02  0.51130631426E+01  0.73947649448E+02  0.41800000000E+01 0. -1.
         -5    1    3    3    0  502  0.48658890005E+02 -0.19566605261E+02 -0.58808084321E+01  0.52939549732E+02  0.41800000000E+01 0. -1.
        -11    1    1    2    0    0  0.19763227297E+02  0.97627213656E+01  0.76556618749E+02  0.79666879918E+02  0.00000000000E+00 0.  1.
         11    1    1    2    0    0 -0.79553312505E+00 -0.19372890373E+02 -0.22108179620E+02  0.29406008917E+02  0.00000000000E+00 0. -1.
</event>
<event>
 7    1  0.2612213E-009  0.1536940E+03  0.7561462E-02  0.1196006E+00
         -4   -1    0    0    0  501 -0.00000000000E+00  0.00000000000E+00  0.55416748145E+03  0.55416748145E+03  0.00000000000E+00 0.  1.
          4   -1    0    0  501    0  0.00000000000E+00 -0.00000000000E+00 -0.61394614622E+02  0.61394614622E+02  0.00000000000E+00 0. -1.
         25    2    1    2    0    0  0.20783133335E+02  0.14108008767E+03  0.19837457613E+03  0.27447390501E+03  0.12509165564E+03 0.  0.
          5    1    3    3  502    0 -0.15262689015E+02  0.50877288810E+02  0.16221178106E+03  0.17073834516E+03  0.41800000000E+01 0. -1.
         -5    1    3    3    0  502  0.36045822350E+02  0.90202798861E+02  0.36162795070E+02  0.10373555986E+03  0.41800000000E+01 0. -1.
        -11    1    1    2    0    0 -0.22525613816E+02 -0.81770098338E+01  0.78539319266E+01  0.25218069203E+02  0.00000000000E+00 0. -1.
         11    1    1    2    0    0  0.17424804807E+01 -0.13290307784E+03  0.28654435877E+03  0.31587012185E+03  0.00000000000E+00 0.  1.
</event>
<event>
 7    1  0.2612213E-009  0.9311861E+02  0.7561462E-02  0.1295471E+00
         -2   -1    0    0    0  501 -0.00000000000E+00  0.00000000000E+00  0.20379178112E+03  0.20379178112E+03  0.00000000000E+00 0.  1.
          2   -1    0    0  501    0  0.00000000000E+00 -0.00000000000E+00 -0.82216136491E+02  0.82216136491E+02  0.00000000000E+00 0. -1.
         25    2    1    2    0    0 -0.66500597062E+00 -0.51448922650E+02  0.11789927949E+03  0.17943072453E+03  0.12509081073E+03 0.  0.
          5    1    3    3  502    0 -0.29250694944E+02  0.31664487675E+02  0.19709134673E+02  0.47583246253E+02  0.41800000000E+01 0. -1.
         -5    1    3    3    0  502  0.28585688973E+02 -0.83113410325E+02  0.98190144814E+02  0.13184747828E+03  0.41800000000E+01 0. -1.
        -11    1    1    2    0    0  0.99606181215E+01  0.25939777840E+02  0.47496854482E+02  0.55027603741E+02  0.00000000000E+00 0.  1.
         11    1    1    2    0    0 -0.92956121509E+01  0.25509144810E+02 -0.43820489343E+02  0.51549589334E+02  0.00000000000E+00 0. -1.
</event>
<event>
 7    1  0.2612213E-009  0.1297589E+03  0.7561462E-02  0.1227814E+00
         -2   -1    0    0    0  501 -0.00000000000E+00  0.00000000000E+00  0.24347038517E+02  0.24347038517E+02  0.00000000000E+00 0.  1.
          2   -1    0    0  501    0  0.00000000000E+00 -0.00000000000E+00 -0.94405808210E+03  0.94405808210E+03  0.00000000000E+00 0. -1.
         25    2    1    2    0    0  0.29753155779E+02  0.95684944693E+02 -0.49158790627E+03  0.51705667990E+03  0.12509229280E+03 0.  0.
          5    1    3    3  502    0  0.35388620439E+02  0.10660198557E+03 -0.23874151100E+03  0.26387747016E+03  0.41800000000E+01 0. -1.
         -5    1    3    3    0  502 -0.56354646607E+01 -0.10917040872E+02 -0.25284639527E+03  0.25317920974E+03  0.41800000000E+01 0. -1.
        -11    1    1    2    0    0  0.27282700269E+02 -0.61266920954E+01 -0.38928580016E+02  0.47930328938E+02  0.00000000000E+00 0.  1.
         11    1    1    2    0    0 -0.57035856048E+02 -0.89558252598E+02 -0.38919455729E+03  0.40341811178E+03  0.00000000000E+00 0. -1.
</event>
<event>
 7    1  0.2612213E-009  0.9506970E+02  0.7561462E-02  0.1291019E+00
          2   -1    0    0  501    0  0.00000000000E+00  0.00000000000E+00  0.13407488178E+04  0.13407488178E+04  0.00000000000E+00 0. -1.
         -2   -1    0    0    0  501 -0.00000000000E+00 -0.00000000000E+00 -0.11378589912E+02  0.11378589912E+02  0.00000000000E+00 0.  1.
         25    2    1    2    0    0  0.35069883581E+02  0.18871148100E+02  0.10173563468E+04  0.10257914225E+04  0.12509232302E+03 0.  0.
          5    1    3    3  502    0  0.48896630556E+02  0.56999327057E+02  0.85841039102E+03  0.86169929533E+03  0.41800000000E+01 0. -1.
         -5    1    3    3    0  502 -0.13826746974E+02 -0.38128178957E+02  0.15894595574E+03  0.16409212720E+03  0.41800000000E+01 0. -1.
        -11    1    1    2    0    0 -0.53364876474E+02 -0.15260655299E+02  0.29769450596E+03  0.30282456393E+03  0.00000000000E+00 0. -1.
         11    1    1    2    0    0  0.18294992893E+02 -0.36104928009E+01  0.14319375124E+02  0.23511421207E+02  0.00000000000E+00 0.  1.
</event>
<event>
 7    1  0.2612213E-009  0.7272960E+02  0.7561462E-02  0.1351049E+00
         -1   -1    0    0    0  501 -0.00000000000E+00  0.00000000000E+00  0.23188341546E+03  0.23188341546E+03  0.00000000000E+00 0.  1.
          1   -1    0    0  501    0  0.00000000000E+00 -0.00000000000E+00 -0.64366179462E+02  0.64366179462E+02  0.00000000000E+00 0. -1.
         25    2    1    2    0    0 -0.43466078104E+02  0.20973354777E+02  0.12526694007E+03  0.18348758199E+03  0.12508678952E+03 0.  0.
          5    1    3    3  502    0 -0.23557956300E+02  0.50795725894E+02  0.13490521454E+03  0.14612348334E+03  0.41800000000E+01 0.  1.
         -5    1    3    3    0  502 -0.19908121804E+02 -0.29822371117E+02 -0.96382744716E+01  0.37364098646E+02  0.41800000000E+01 0.  1.
        -11    1    1    2    0    0  0.28300357925E+02 -0.12456698901E+01  0.69985062756E+02  0.75500801062E+02  0.00000000000E+00 0.  1.
         11    1    1    2    0    0  0.15165720180E+02 -0.19727684887E+02 -0.27734766823E+02  0.37261211874E+02  0.00000000000E+00 0. -1.
</event>
<event>
 7    1  0.2612213E-009  0.1151022E+03  0.7561462E-02  0.1251403E+00
         -1   -1    0    0    0  501 -0.00000000000E+00  0.00000000000E+00  0.47241261479E+02  0.47241261479E+02  0.00000000000E+00 0.  1.
          1   -1    0    0  501    0  0.00000000000E+00 -0.00000000000E+00 -0.46324664466E+03  0.46324664466E+03  0.00000000000E+00 0. -1.
         25    2    1    2    0    0  0.20605519271E+01  0.89936104281E+02 -0.30248560873E+03  0.33947455517E+03  0.12511067656E+03 0.  0.
          5    1    3    3  502    0  0.22719581895E+02  0.10762865201E+03 -0.28811773283E+03  0.30843055378E+03  0.41800000000E+01 0.  1.
         -5    1    3    3    0  502 -0.20659029968E+02 -0.17692547725E+02 -0.14367875902E+02  0.31044001388E+02  0.41800000000E+01 0.  1.
        -11    1    1    2    0    0 -0.10170846533E+02 -0.22604550642E+02  0.12607439051E+02  0.27809339229E+02  0.00000000000E+00 0.  1.
         11    1    1    2    0    0  0.81102946059E+01 -0.67331553639E+02 -0.12612721350E+03  0.14320401175E+03  0.00000000000E+00 0. -1.
</event>
<event>
 7    1  0.2612213E-009  0.3345771E+02  0.7561462E-02  0.1562739E+00
         -1   -1    0    0    0  501 -0.00000000000E+00  0.00000000000E+00  0.12434222090E+03  0.12434222090E+03  0.00000000000E+00 0.  1.
          1   -1    0    0  501    0  0.00000000000E+00 -0.00000000000E+00 -0.12827663078E+03  0.12827663078E+03  0.00000000000E+00 0. -1.
         25    2    1    2    0    0  0.53478524805E+01  0.26866870297E+02  0.59244751955E+02  0.14108974672E+03  0.12508376293E+03 0.  0.
          5    1    3    3  502    0  0.32504165129E+01  0.49240781729E+01  0.96947392067E+02  0.97216670288E+02  0.41800000000E+01 0. -1.
         -5    1    3    3    0  502  0.20974359676E+01  0.21942792124E+02 -0.37702640112E+02  0.43873076428E+02  0.41800000000E+01 0. -1.
        -11    1    1    2    0    0  0.87481966455E+01 -0.19436438092E+02  0.18553018541E+02  0.28258106221E+02  0.00000000000E+00 0.  1.
         11    1    1    2    0    0 -0.14096049126E+02 -0.74304322050E+01 -0.81732180373E+02  0.83270998746E+02  0.00000000000E+00 0. -1.
</event>
<event>
 7    1  0.2612213E-009  0.8779638E+02  0.7561462E-02  0.1308278E+00
          1   -1    0    0  501    0  0.00000000000E+00  0.00000000000E+00  0.21554674261E+03  0.21554674261E+03  0.00000000000E+00 0. -1.
         -1   -1    0    0    0  501 -0.00000000000E+00 -0.00000000000E+00 -0.83732345774E+02  0.83732345774E+02  0.00000000000E+00 0.  1.
         25    2    1    2    0    0 -0.15841176078E+02 -0.32026192654E+02 -0.62010589275E+01  0.13024262458E+03  0.12509223897E+03 0.  0.
          5    1    3    3  502    0  0.36724006615E+02  0.17204262588E+02  0.28942215421E+02  0.49997635410E+02  0.41800000000E+01 0.  1.
         -5    1    3    3    0  502 -0.52565182693E+02 -0.49230455242E+02 -0.35143274349E+02  0.80244989170E+02  0.41800000000E+01 0.  1.
        -11    1    1    2    0    0  0.16870496479E+02  0.45832545109E+02  0.14537343461E+03  0.15335798425E+03  0.00000000000E+00 0. -1.
         11    1    1    2    0    0 -0.10293204012E+01 -0.13806352455E+02 -0.73579788446E+01  0.15678479558E+02  0.00000000000E+00 0.  1.
</event>
<event>
 7    1  0.2612213E-009  0.2690600E+03  0.7561462E-02  0.1101819E+00
          1   -1    0    0  501    0  0.00000000000E+00  0.00000000000E+00  0.34963838813E+03  0.34963838813E+03  0.00000000000E+00 0. -1.
         -1   -1    0    0    0  501 -0.00000000000E+00 -0.00000000000E+00 -0.24713149427E+03  0.24713149427E+03  0.00000000000E+00 0.  1.
         25    2    1    2    0    0  0.25191641946E+03  0.62490183672E+02 -0.33773854476E+02  0.29009476464E+03  0.12508954303E+03 0.  0.
          5    1    3    3  502    0  0.35943514923E+02  0.46453994410E+02  0.27496733748E+02  0.64988096052E+02  0.41800000000E+01 0.  1.
         -5    1    3    3    0  502  0.21597290454E+03  0.16036189261E+02 -0.61270588225E+02  0.22510666859E+03  0.41800000000E+01 0.  1.
        -11    1    1    2    0    0 -0.42920264296E+02  0.45054779191E+01 -0.81830326618E+01  0.43925054832E+02  0.00000000000E+00 0. -1.
         11    1    1    2    0    0 -0.20899615517E+03 -0.66995661591E+02  0.14446378100E+03  0.26275006292E+03  0.00000000000E+00 0.  1.
</event>
<event>
 7    1  0.2612213E-009  0.1060107E+03  0.7561462E-02  0.1268141E+00
         -2   -1    0    0    0  501 -0.00000000000E+00  0.00000000000E+00  0.18831241141E+02  0.18831241141E+02  0.00000000000E+00 0.  1.
          2   -1    0    0  501    0  0.00000000000E+00 -0.00000000000E+00 -0.68960149051E+03  0.68960149051E+03  0.00000000000E+00 0. -1.
         25    2    1    2    0    0  0.15520589792E+02  0.26607286537E+02 -0.39447484397E+03  0.41497628274E+03  0.12508427680E+03 0.  0.
          5    1    3    3  502    0 -0.26031672139E+01 -0.48401337035E+02 -0.19699589433E+03  0.20291456500E+03  0.41800000000E+01 0.  1.
         -5    1    3    3    0  502  0.18123757006E+02  0.75008623571E+02 -0.19747894964E+03  0.21206171774E+03  0.41800000000E+01 0.  1.
        -11    1    1    2    0    0 -0.45530251978E+01  0.29028551847E+02 -0.17428127376E+03  0.17674090994E+03  0.00000000000E+00 0.  1.
         11    1    1    2    0    0 -0.10967564594E+02 -0.55635838383E+02 -0.10201413163E+03  0.11671553898E+03  0.00000000000E+00 0. -1.
</event>
<event>
 7    1  0.2612213E-009  0.1069466E+03  0.7561462E-02  0.1266331E+00
          2   -1    0    0  501    0  0.00000000000E+00  0.00000000000E+00  0.10225200357E+04  0.10225200357E+04  0.00000000000E+00 0.  1.
         -2   -1    0    0    0  501 -0.00000000000E+00 -0.00000000000E+00 -0.14923734941E+02  0.14923734941E+02  0.00000000000E+00 0. -1.
         25    2    1    2    0    0 -0.28555857087E+02  0.39069847715E+02  0.71685853815E+03  0.72930032537E+03  0.12510360064E+03 0.  0.
          5    1    3    3  502    0  0.88963843577E+01  0.66992871135E+02  0.21877743731E+03  0.22901578529E+03  0.41800000000E+01 0. -1.
         -5    1    3    3    0  502 -0.37452241444E+02 -0.27923023420E+02  0.49808110085E+03  0.50028454008E+03  0.41800000000E+01 0. -1.
        -11    1    1    2    0    0 -0.28441756404E+02 -0.30394854877E+02  0.87681717010E+02  0.97061136446E+02  0.00000000000E+00 0. -1.
         11    1    1    2    0    0  0.56997613491E+02 -0.86749928379E+01  0.20305604562E+03  0.21108230884E+03  0.00000000000E+00 0.  1.
</event>
<event>
 7    1  0.2612213E-009  0.1268059E+03  0.7561462E-02  0.1232274E+00
         -1   -1    0    0    0  501 -0.00000000000E+00  0.00000000000E+00  0.30842764685E+03  0.30842764685E+03  0.00000000000E+00 0.  1.
          1   -1    0    0  501    0  0.00000000000E+00 -0.00000000000E+00 -0.63395745365E+02  0.63395745365E+02  0.00000000000E+00 0. -1.
         25    2    1    2    0    0 -0.29604405608E+02 -0.77937826267E+02  0.96398367551E+02  0.17857552600E+03  0.12508336270E+03 0.  0.
          5    1    3    3  502    0 -0.63080240420E+02 -0.21854592832E+01  0.21433651722E+02  0.66788972068E+02  0.41800000000E+01 0.  1.
         -5    1    3    3    0  502  0.33475834813E+02 -0.75752366984E+02  0.74964715829E+02  0.11178655393E+03  0.41800000000E+01 0.  1.
        -11    1    1    2    0    0  0.12433917730E+01 -0.12545318624E+02  0.66848054990E+02  0.68026417651E+02  0.00000000000E+00 0.  1.
         11    1    1    2    0    0  0.28361013835E+02  0.90483144891E+02  0.81785478946E+02  0.12522144857E+03  0.00000000000E+00 0. -1.
</event>
<event>
 7    1  0.2612213E-009  0.7024685E+02  0.7561462E-02  0.1359256E+00
         -2   -1    0    0    0  501 -0.00000000000E+00  0.00000000000E+00  0.30531531886E+02  0.30531531886E+02  0.00000000000E+00 0.  1.
          2   -1    0    0  501    0  0.00000000000E+00 -0.00000000000E+00 -0.42053571340E+03  0.42053571340E+03  0.00000000000E+00 0. -1.
         25    2    1    2    0    0  0.12824148237E+02  0.24305011175E+02 -0.28727988736E+03  0.31453752162E+03  0.12509566930E+03 0.  0.
          5    1    3    3  502    0  0.24679117423E+02 -0.14340897876E+02 -0.26801596428E+03  0.26956399926E+03  0.41800000000E+01 0.  1.
         -5    1    3    3    0  502 -0.11854969186E+02  0.38645909051E+02 -0.19263923081E+02  0.44973522358E+02  0.41800000000E+01 0.  1.
        -11    1    1    2    0    0 -0.20623539165E+02  0.18373999425E+02 -0.85498305319E+02  0.89849287337E+02  0.00000000000E+00 0. -1.
         11    1    1    2    0    0  0.77993909273E+01 -0.42679010599E+02 -0.17225988830E+02  0.46680436328E+02  0.00000000000E+00 0.  1.
</event>
<event>
 7    1  0.2612213E-009  0.1178418E+03  0.7561462E-02  0.1246700E+00
          2   -1    0    0  501    0  0.00000000000E+00  0.00000000000E+00  0.95500452736E+02  0.95500452736E+02  0.00000000000E+00 0. -1.
         -2   -1    0    0    0  501 -0.00000000000E+00 -0.00000000000E+00 -0.28129474502E+03  0.28129474502E+03  0.00000000000E+00 0.  1.
         25    2    1    2    0    0  0.64601497715E+02 -0.94657062770E+01  0.16961723709E+02  0.14212202980E+03  0.12509203884E+03 0.  0.
          5    1    3    3  502    0 -0.21125238017E+02 -0.22071879337E+02  0.41747197665E+02  0.51901295279E+02  0.41800000000E+01 0. -1.
         -5    1    3    3    0  502  0.85726735732E+02  0.12606173060E+02 -0.24785473957E+02  0.90220734522E+02  0.41800000000E+01 0. -1.
        -11    1    1    2    0    0 -0.34842313497E+02  0.54161473421E+02 -0.11432658004E+03  0.13121744898E+03  0.00000000000E+00 0.  1.
         11    1    1    2    0    0 -0.29759184218E+02 -0.44695767144E+02 -0.88429435951E+02  0.10345571897E+03  0.00000000000E+00 0. -1.
</event>
<event>
 7    1  0.2612213E-009  0.1229003E+03  0.7561462E-02  0.1238388E+00
          1   -1    0    0  501    0  0.00000000000E+00  0.00000000000E+00  0.16777639899E+04  0.16777639899E+04  0.00000000000E+00 0. -1.
         -1   -1    0    0    0  501 -0.00000000000E+00 -0.00000000000E+00 -0.11631194317E+02  0.11631194317E+02  0.00000000000E+00 0.  1.
         25    2    1    2    0    0 -0.18410821313E+02  0.67957638387E+02  0.12195992473E+04  0.12280174047E+04  0.12508886098E+03 0.  0.
          5    1    3    3  502    0 -0.55096987407E+02  0.33814102621E+01  0.79707298155E+03  0.79899306772E+03  0.41800000000E+01 0.  1.
         -5    1    3    3    0  502  0.36686166094E+02  0.64576228125E+02  0.42252626579E+03  0.42902433696E+03  0.41800000000E+01 0.  1.
        -11    1    1    2    0    0 -0.30558348656E+02 -0.58757701793E+02  0.24906429957E+03  0.25771943177E+03  0.00000000000E+00 0. -1.
         11    1    1    2    0    0  0.48969169969E+02 -0.91999365935E+01  0.19746924871E+03  0.20365834779E+03  0.00000000000E+00 0.  1.
</event>
<event>
 7    1  0.2612213E-009  0.1373171E+03  0.7561462E-02  0.1216985E+00
          2   -1    0    0  501    0  0.00000000000E+00  0.00000000000E+00  0.82639282537E+03  0.82639282537E+03  0.00000000000E+00 0. -1.
         -2   -1    0    0    0  501 -0.00000000000E+00 -0.00000000000E+00 -0.40647681209E+02  0.40647681209E+02  0.00000000000E+00 0.  1.
         25    2    1    2    0    0  0.80353017339E+02 -0.41644018458E+02  0.68568206529E+03  0.70285015969E+03  0.12509044986E+03 0.  0.
          5    1    3    3  502    0 -0.26868206742E+02  0.68608385997E+01  0.60617194699E+02  0.66789881966E+02  0.41800000000E+01 0.  1.
         -5    1    3    3    0  502  0.10722122408E+03 -0.48504857058E+02  0.62506487059E+03  0.63606027773E+03  0.41800000000E+01 0.  1.
        -11    1    1    2    0    0 -0.90032667577E+02  0.59922563351E+02  0.74593614272E+02  0.13138037190E+03  0.00000000000E+00 0.  1.
         11    1    1    2    0    0  0.96796502377E+01 -0.18278544893E+02  0.25469464599E+02  0.32809974994E+02  0.00000000000E+00 0. -1.
</event>
<event>
 7    1  0.2612213E-009  0.1124413E+03  0.7561462E-02  0.1256115E+00
         -2   -1    0    0    0  501 -0.00000000000E+00  0.00000000000E+00  0.17780759053E+03  0.17780759053E+03  0.00000000000E+00 0.  1.
          2   -1    0    0  501    0  0.00000000000E+00 -0.00000000000E+00 -0.90071609734E+02  0.90071609734E+02  0.00000000000E+00 0. -1.
         25    2    1    2    0    0 -0.31330735371E+02  0.51479788782E+02  0.59883336298E+02  0.15121155314E+03  0.12508851348E+03 0.  0.
          5    1    3    3  502    0 -0.76255760838E+02  0.14939845029E+02  0.18712174209E+02  0.80035978748E+02  0.41800000000E+01 0.  1.
         -5    1    3    3    0  502  0.44925025467E+02  0.36539943753E+02  0.41171162089E+02  0.71175574395E+02  0.41800000000E+01 0.  1.
        -11    1    1    2    0    0  0.19199432991E+02  0.13134361044E+02  0.43282960211E+02  0.49138012901E+02  0.00000000000E+00 0.  1.
         11    1    1    2    0    0  0.12131302380E+02 -0.64614149826E+02 -0.15430315712E+02  0.67529634222E+02  0.00000000000E+00 0. -1.
</event>
<event>
 7    1  0.2612213E-009  0.8473980E+02  0.7561462E-02  0.1316114E+00
          4   -1    0    0  501    0  0.00000000000E+00  0.00000000000E+00  0.63317312063E+02  0.63317312063E+02  0.00000000000E+00 0.  1.
         -4   -1    0    0    0  501 -0.00000000000E+00 -0.00000000000E+00 -0.21737487946E+03  0.21737487946E+03  0.00000000000E+00 0. -1.
         25    2    1    2    0    0 -0.41815689595E+01 -0.13099923448E+02 -0.13866887230E+03  0.18725820667E+03  0.12508991289E+03 0.  0.
          5    1    3    3  502    0 -0.80469491355E+01 -0.46171912526E+02 -0.26147601729E+01  0.47126513423E+02  0.41800000000E+01 0. -1.
         -5    1    3    3    0  502  0.38653801759E+01  0.33071989078E+02 -0.13605411212E+03  0.14013169324E+03  0.41800000000E+01 0. -1.
        -11    1    1    2    0    0  0.48551018736E+01  0.50864978676E+02 -0.21009720768E+02  0.55246958619E+02  0.00000000000E+00 0. -1.
         11    1    1    2    0    0 -0.67353291411E+00 -0.37765055228E+02  0.56210256715E+01  0.38187026233E+02  0.00000000000E+00 0.  1.
</event>
<event>
 7    1  0.2612213E-009  0.1211863E+03  0.7561462E-02  0.1241153E+00
         -2   -1    0    0    0  501 -0.00000000000E+00  0.00000000000E+00  0.16769566410E+02  0.16769566410E+02  0.00000000000E+00 0.  1.
          2   -1    0    0  501    0  0.00000000000E+00 -0.00000000000E+00 -0.96354476474E+03  0.96354476474E+03  0.00000000000E+00 0. -1.
         25    2    1    2    0    0 -0.67915937191E+02 -0.15124279640E+02 -0.52907027198E+03  0.54809161550E+03  0.12509095863E+03 0.  0.
          5    1    3    3  502    0 -0.97350236770E+01 -0.65296188463E+02 -0.25184335581E+03  0.26038608100E+03  0.41800000000E+01 0.  1.
         -5    1    3    3    0  502 -0.58180913514E+02  0.50171908823E+02 -0.27722691617E+03  0.28770553450E+03  0.41800000000E+01 0.  1.
        -11    1    1    2    0    0  0.75565114860E+02 -0.69853910962E+01 -0.38248405289E+03  0.38993965301E+03  0.00000000000E+00 0.  1.
         11    1    1    2    0    0 -0.76491776685E+01  0.22109670737E+02 -0.35220873463E+02  0.42283062644E+02  0.00000000000E+00 0. -1.
</event>
<event>
 7    1  0.3888225E-009  0.1089490E+03  0.7561462E-02  0.1262529E+00
         -2   -1    0    0    0  501 -0.00000000000E+00  0.00000000000E+00  0.27693401272E+02  0.27693401272E+02  0.00000000000E+00 0.  1.
          2   -1    0    0  501    0  0.00000000000E+00 -0.00000000000E+00 -0.63252907940E+03  0.63252907940E+03  0.00000000000E+00 0. -1.
         25    2    1    2    0    0  0.73214586961E+02 -0.14629261535E+01 -0.29181512629E+03  0.32582925033E+03  0.12508443764E+03 0.  0.
          5    1    3    3  502    0  0.87019931899E+02 -0.24297789271E+01 -0.96701319572E+02  0.13018060524E+03  0.41800000000E+01 0. -1.
         -5    1    3    3    0  502 -0.13805344938E+02  0.96685277358E+00 -0.19511380672E+03  0.19564864509E+03  0.41800000000E+01 0. -1.
        -11    1    1    2    0    0 -0.33260272549E+01  0.37505081406E+02 -0.12622315428E+03  0.13171931622E+03  0.00000000000E+00 0. -1.
         11    1    1    2    0    0 -0.69888559706E+02 -0.36042155252E+02 -0.18679739756E+03  0.20267391413E+03  0.00000000000E+00 0.  1.
</event>
<event>
 7    1  0.2612213E-009  0.1343328E+03  0.7561462E-02  0.1221165E+00
          1   -1    0    0  501    0  0.00000000000E+00  0.00000000000E+00  0.68175275133E+03  0.68175275133E+03  0.00000000000E+00 0. -1.
         -1   -1    0    0    0  501 -0.00000000000E+00 -0.00000000000E+00 -0.29752335262E+02  0.29752335262E+02  0.00000000000E+00 0.  1.
         25    2    1    2    0    0  0.70133184057E+02  0.62853445401E+02  0.33713176252E+03  0.37171667806E+03  0.12508494852E+03 0.  0.
          5    1    3    3  502    0  0.53998752926E+02  0.93536418022E+02  0.30742536875E+03  0.32587230100E+03  0.41800000000E+01 0.  1.
         -5    1    3    3    0  502  0.16134431130E+02 -0.30682972621E+02  0.29706393777E+02  0.45844377059E+02  0.41800000000E+01 0.  1.
        -11    1    1    2    0    0  0.17189958188E+02 -0.25345989898E+02  0.53061561447E+02  0.61265350481E+02  0.00000000000E+00 0. -1.
         11    1    1    2    0    0 -0.87323142245E+02 -0.37507455503E+02  0.26180709210E+03  0.27852305805E+03  0.00000000000E+00 0.  1.
</event>
<event>
 7    1  0.2612213E-009  0.1281551E+03  0.7561462E-02  0.1230219E+00
         -1   -1    0    0    0  501 -0.00000000000E+00  0.00000000000E+00  0.10602087084E+03  0.10602087084E+03  0.00000000000E+00 0.  1.
          1   -1    0    0  501    0  0.00000000000E+00 -0.00000000000E+00 -0.48882154613E+03  0.48882154613E+03  0.00000000000E+00 0. -1.
         25    2    1    2    0    0 -0.70606393172E+02 -0.86502297212E+02  0.17825180294E+02  0.16862327519E+03  0.12509261250E+03 0.  0.
          5    1    3    3  502    0 -0.26482015078E+02 -0.39995227966E+02 -0.53939177693E+02  0.72303683674E+02  0.41800000000E+01 0. -1.
         -5    1    3    3    0  502 -0.44124378093E+02 -0.46507069247E+02  0.71764357986E+02  0.96319591513E+02  0.41800000000E+01 0. -1.
        -11    1    1    2    0    0  0.42064525555E+02 -0.10037535430E+02 -0.15063043754E+03  0.15671536345E+03  0.00000000000E+00 0. -1.
         11    1    1    2    0    0  0.28541867617E+02  0.96539832642E+02 -0.24999541804E+03  0.26950377833E+03  0.00000000000E+00 0.  1.
</event>
<event>
 7    1  0.2612213E-009  0.1657302E+03  0.7561462E-02  0.1182375E+00
          1   -1    0    0  501    0  0.00000000000E+00  0.00000000000E+00  0.66025289979E+03  0.66025289979E+03  0.00000000000E+00 0. -1.
         -1   -1    0    0    0  501 -0.00000000000E+00 -0.00000000000E+00 -0.57009641380E+02  0.57009641380E+02  0.00000000000E+00 0.  1.
         25    2    1    2    0    0  0.13410485573E+03  0.57233141389E+02  0.19310948816E+03  0.27239303065E+03  0.12508774489E+03 0.  0.
          5    1    3    3  502    0  0.31394985228E+02 -0.24963207621E+02  0.20398258181E+01  0.40378708765E+02  0.41800000000E+01 0. -1.
         -5    1    3    3    0  502  0.10270987050E+03  0.82196349010E+02  0.19106966234E+03  0.23201432188E+03  0.41800000000E+01 0. -1.
        -11    1    1    2    0    0 -0.10191999417E+03 -0.71307780609E+02  0.37539077362E+03  0.39546266284E+03  0.00000000000E+00 0. -1.
         11    1    1    2    0    0 -0.32184861561E+02  0.14074639220E+02  0.34742996629E+02  0.49406847680E+02  0.00000000000E+00 0.  1.
</event>
<event>
 7    1  0.2612213E-009  0.7983365E+02  0.7561462E-02  0.1329524E+00
         -2   -1    0    0    0  501 -0.00000000000E+00  0.00000000000E+00  0.69874051570E+02  0.69874051570E+02  0.00000000000E+00 0.  1.
          2   -1    0    0  501    0  0.00000000000E+00 -0.00000000000E+00 -0.19769398450E+03  0.19769398450E+03  0.00000000000E+00 0. -1.
         25    2    1    2    0    0 -0.50108781470E+01  0.13132680450E+02 -0.24569417103E+02  0.12825306450E+03  0.12509043170E+03 0.  0.
          5    1    3    3  502    0 -0.18658292086E+00  0.48000631817E+02 -0.60792606831E+02  0.77571315016E+02  0.41800000000E+01 0. -1.
         -5    1    3    3    0  502 -0.48242952261E+01 -0.34867951367E+02  0.36223189729E+02  0.50681749487E+02  0.41800000000E+01 0.  1.
        -11    1    1    2    0    0  0.27846837894E+02 -0.34791689539E+02 -0.97662171901E+02  0.10734900028E+03  0.00000000000E+00 0. -1.
         11    1    1    2    0    0 -0.22835959747E+02  0.21659009089E+02 -0.55883439291E+01  0.31965971284E+02  0.00000000000E+00 0.  1.
</event>
<event>
 7    1  0.2612213E-009  0.2261412E+03  0.7561462E-02  0.1129386E+00
         -2   -1    0    0    0  501 -0.00000000000E+00  0.00000000000E+00  0.24260666502E+03  0.24260666502E+03  0.00000000000E+00 0. -1.
          2   -1    0    0  501    0  0.00000000000E+00 -0.00000000000E+00 -0.43048159072E+03  0.43048159072E+03  0.00000000000E+00 0.  1.
         25    2    1    2    0    0  0.22191044087E+03  0.13245989186E+02  0.12042343969E+03  0.28208348050E+03  0.12509830195E+03 0.  0.
          5    1    3    3  502    0  0.58842839782E+02 -0.56311916446E+01 -0.23480396412E+02  0.63741599670E+02  0.41800000000E+01 0.  1.
         -5    1    3    3    0  502  0.16306760108E+03  0.18877180830E+02  0.14390383611E+03  0.21834188083E+03  0.41800000000E+01 0.  1.
        -11    1    1    2    0    0 -0.45688955099E+02 -0.25216287752E+02 -0.26757242290E+02  0.58645475538E+02  0.00000000000E+00 0.  1.
         11    1    1    2    0    0 -0.17622148577E+03  0.11970298566E+02 -0.28154112311E+03  0.33235929969E+03  0.00000000000E+00 0. -1.
</event>
<event>
 7    1  0.2612213E-009  0.1013960E+03  0.7561462E-02  0.1277388E+00
          2   -1    0    0  501    0  0.00000000000E+00  0.00000000000E+00  0.14561242511E+04  0.14561242511E+04  0.00000000000E+00 0. -1.
         -2   -1    0    0    0  501 -0.00000000000E+00 -0.00000000000E+00 -0.15685519435E+02  0.15685519435E+02  0.00000000000E+00 0.  1.
         25    2    1    2    0    0 -0.58596179530E+02  0.70142737208E+01  0.12054663509E+04  0.12133752093E+04  0.12509022016E+03 0.  0.
          5    1    3    3  502    0 -0.29549462453E+01  0.39902672538E+02  0.13291065808E+03  0.13886565599E+03  0.41800000000E+01 0. -1.
         -5    1    3    3    0  502 -0.55641233284E+02 -0.32888398817E+02  0.10725556928E+04  0.10745095533E+04  0.41800000000E+01 0. -1.
        -11    1    1    2    0    0  0.68314719336E+02  0.18261302261E+02  0.21004463749E+03  0.22162835057E+03  0.00000000000E+00 0. -1.
         11    1    1    2    0    0 -0.97185398068E+01 -0.25275575982E+02  0.24927743315E+02  0.36806210671E+02  0.00000000000E+00 0.  1.
</event>
<event>
 7    1  0.2612213E-009  0.5394833E+02  0.7561462E-02  0.1425139E+00
          1   -1    0    0  501    0  0.00000000000E+00  0.00000000000E+00  0.10441587046E+03  0.10441587046E+03  0.00000000000E+00 0. -1.
         -1   -1    0    0    0  501 -0.00000000000E+00 -0.00000000000E+00 -0.11551125278E+03  0.11551125278E+03  0.00000000000E+00 0.  1.
         25    2    1    2    0    0 -0.16847878701E+02 -0.13580295892E+01 -0.13191815781E+02  0.12691377040E+03  0.12508951136E+03 0.  0.
          5    1    3    3  502    0 -0.51986757639E+01 -0.24090905136E+02  0.51494456836E+02  0.57241151498E+02  0.41800000000E+01 0.  1.
         -5    1    3    3    0  502 -0.11649202937E+02  0.22732875547E+02 -0.64686272617E+02  0.69672618903E+02  0.41800000000E+01 0.  1.
        -11    1    1    2    0    0 -0.16320353758E+02 -0.13007814911E+02 -0.35297356473E+02  0.41005616318E+02  0.00000000000E+00 0.  1.
         11    1    1    2    0    0  0.33168232459E+02  0.14365844501E+02  0.37393789936E+02  0.52007736525E+02  0.00000000000E+00 0. -1.
</event>
<event>
 7    1  0.2612213E-009  0.7652122E+02  0.7561462E-02  0.1339224E+00
         -2   -1    0    0    0  501 -0.00000000000E+00  0.00000000000E+00  0.35723648592E+03  0.35723648592E+03  0.00000000000E+00 0.  1.
          2   -1    0    0  501    0  0.00000000000E+00 -0.00000000000E+00 -0.36330837316E+02  0.36330837316E+02  0.00000000000E+00 0. -1.
         25    2    1    2    0    0  0.19537373747E+02  0.27027846363E+02  0.16759157068E+03  0.21176867860E+03  0.12508727042E+03 0.  0.
          5    1    3    3  502    0  0.48029524005E+01 -0.27307800836E+02 -0.64736562641E+01  0.28777855440E+02  0.41800000000E+01 0. -1.
         -5    1    3    3    0  502  0.14734421346E+02  0.54335647199E+02  0.17406522694E+03  0.18299082316E+03  0.41800000000E+01 0. -1.
        -11    1    1    2    0    0  0.40858611062E+01 -0.40933600896E+02  0.20084356192E+02  0.45778109473E+02  0.00000000000E+00 0. -1.
         11    1    1    2    0    0 -0.23623234853E+02  0.13905754533E+02  0.13322972173E+03  0.13602053517E+03  0.00000000000E+00 0.  1.
</event>
<event>
 7    1  0.2612213E-009  0.1064114E+03  0.7561462E-02  0.1267363E+00
         -1   -1    0    0    0  501 -0.00000000000E+00  0.00000000000E+00  0.90363153420E+02  0.90363153420E+02  0.00000000000E+00 0.  1.
          1   -1    0    0  501    0  0.00000000000E+00 -0.00000000000E+00 -0.24187389040E+03  0.24187389040E+03  0.00000000000E+00 0. -1.
         25    2    1    2    0    0 -0.42102983890E-01 -0.71223474891E+02 -0.47033212851E+01  0.14403792467E+03  0.12510802278E+03 0.  0.
          5    1    3    3  502    0 -0.26160051563E+02 -0.46806478254E+01 -0.51773429564E+02  0.58345669682E+02  0.41800000000E+01 0.  1.
         -5    1    3    3    0  502  0.26117948579E+02 -0.66542827066E+02  0.47070108279E+02  0.85692254990E+02  0.41800000000E+01 0.  1.
        -11    1    1    2    0    0  0.36217781041E+02  0.20789006534E+01 -0.69252669172E+02  0.78179163969E+02  0.00000000000E+00 0.  1.
         11    1    1    2    0    0 -0.36175678057E+02  0.69144574238E+02 -0.77554746523E+02  0.11001995518E+03  0.00000000000E+00 0. -1.
</event>
<event>
 7    1  0.2612213E-009  0.1654284E+03  0.7561462E-02  0.1182701E+00
          2   -1    0    0  501    0  0.00000000000E+00  0.00000000000E+00  0.12712689507E+04  0.12712689507E+04  0.00000000000E+00 0. -1.
         -2   -1    0    0    0  501 -0.00000000000E+00 -0.00000000000E+00 -0.31001102340E+02  0.31001102340E+02  0.00000000000E+00 0.  1.
         25    2    1    2    0    0  0.10346315033E+03  0.10320860652E+03  0.90775037908E+03  0.92790608870E+03  0.12506925605E+03 0.  0.
          5    1    3    3  502    0  0.69457136959E+02  0.11371500038E+03  0.46572053412E+03  0.48442593189E+03  0.41800000000E+01 0.  1.
         -5    1    3    3    0  502  0.34006013369E+02 -0.10506393865E+02  0.44202984495E+03  0.44348015681E+03  0.41800000000E+01 0.  1.
        -11    1    1    2    0    0 -0.96001677976E+01 -0.55667361407E+02  0.18311723595E+03  0.19163230534E+03  0.00000000000E+00 0. -1.
         11    1    1    2    0    0 -0.93862982530E+02 -0.47541245109E+02  0.14940023329E+03  0.18273165895E+03  0.00000000000E+00 0.  1.
</event>
<event>
 7    1  0.2612213E-009  0.1010828E+03  0.7561462E-02  0.1278035E+00
          2   -1    0    0  501    0  0.00000000000E+00  0.00000000000E+00  0.97533785689E+03  0.97533785689E+03  0.00000000000E+00 0. -1.
         -2   -1    0    0    0  501 -0.00000000000E+00 -0.00000000000E+00 -0.12757479285E+02  0.12757479285E+02  0.00000000000E+00 0.  1.
         25    2    1    2    0    0 -0.19879202899E+02  0.26841086062E+02  0.55540374486E+03  0.57029423863E+03  0.12508625902E+03 0.  0.
          5    1    3    3  502    0  0.38916030201E+02 -0.10167617585E+02  0.78154649669E+02  0.87996929031E+02  0.41800000000E+01 0.  1.
         -5    1    3    3    0  502 -0.58795233099E+02  0.37008703646E+02  0.47724909520E+03  0.48229730960E+03  0.41800000000E+01 0.  1.
        -11    1    1    2    0    0 -0.23542537770E+02 -0.40296024671E+02  0.24333995130E+03  0.24777480216E+03  0.00000000000E+00 0. -1.
         11    1    1    2    0    0  0.43421740668E+02  0.13454938610E+02  0.16383668144E+03  0.17002629538E+03  0.00000000000E+00 0.  1.
</event>
<event>
 7    1  0.2612213E-009  0.1207320E+03  0.7561462E-02  0.1241894E+00
         -2   -1    0    0    0  501 -0.00000000000E+00  0.00000000000E+00  0.10803867425E+02  0.10803867425E+02  0.00000000000E+00 0.  1.
          2   -1    0    0  501    0  0.00000000000E+00 -0.00000000000E+00 -0.14823790040E+04  0.14823790040E+04  0.00000000000E+00 0. -1.
         25    2    1    2    0    0  0.11112405924E+02 -0.63831185875E+02 -0.87348216517E+03  0.88476916564E+03  0.12508987867E+03 0.  0.
          5    1    3    3  502    0  0.43456498704E+01 -0.96280745926E+02 -0.46377404439E+03  0.47370106962E+03  0.41800000000E+01 0. -1.
         -5    1    3    3    0  502  0.67667560537E+01  0.32449560051E+02 -0.40970812078E+03  0.41106809602E+03  0.41800000000E+01 0. -1.
        -11    1    1    2    0    0  0.35834180986E+02  0.47891459723E+01 -0.19624918327E+03  0.19955141288E+03  0.00000000000E+00 0. -1.
         11    1    1    2    0    0 -0.46946586910E+02  0.59042039903E+02 -0.40184378812E+03  0.40886229289E+03  0.00000000000E+00 0.  1.
</event>
<event>
 7    1  0.2612213E-009  0.1107899E+03  0.7561462E-02  0.1259114E+00
         -1   -1    0    0    0  501 -0.00000000000E+00  0.00000000000E+00  0.94376494080E+02  0.94376494080E+02  0.00000000000E+00 0.  1.
          1   -1    0    0  501    0  0.00000000000E+00 -0.00000000000E+00 -0.19250942227E+03  0.19250942227E+03  0.00000000000E+00 0. -1.
         25    2    1    2    0    0 -0.73977961868E+02  0.18958037038E+02 -0.83325007867E+02  0.16859084831E+03  0.12509065188E+03 0.  0.
          5    1    3    3  502    0 -0.67655641547E+02 -0.21086034446E+02 -0.10158594289E+03  0.12393176701E+03  0.41800000000E+01 0. -1.
         -5    1    3    3    0  502 -0.63223203210E+01  0.40044071484E+02  0.18260935019E+02  0.44659081305E+02  0.41800000000E+01 0. -1.
        -11    1    1    2    0    0  0.38348092323E+02  0.30417969728E+02 -0.27433450310E+02  0.56110812354E+02  0.00000000000E+00 0. -1.
         11    1    1    2    0    0  0.35629869545E+02 -0.49376006766E+02  0.12625529982E+02  0.62184255686E+02  0.00000000000E+00 0.  1.
</event>
<event>
 7    1  0.2612213E-009  0.6011086E+02  0.7561462E-02  0.1397367E+00
          2   -1    0    0  501    0  0.00000000000E+00  0.00000000000E+00  0.60957272215E+03  0.60957272215E+03  0.00000000000E+00 0. -1.
         -2   -1    0    0    0  501 -0.00000000000E+00 -0.00000000000E+00 -0.22770805027E+02  0.22770805027E+02  0.00000000000E+00 0.  1.
         25    2    1    2    0    0  0.19446633632E+02  0.20476950371E+02  0.43563731894E+03  0.45412096664E+03  0.12509397122E+03 0.  0.
          5    1    3    3  502    0  0.16567227412E+02  0.12114924466E+02  0.27525117262E+01  0.21125651227E+02  0.41800000000E+01 0. -1.
         -5    1    3    3    0  502  0.28794062196E+01  0.83620259049E+01  0.43288480721E+03  0.43299531541E+03  0.41800000000E+01 0. -1.
        -11    1    1    2    0    0 -0.42175179180E+02  0.17155385155E+02  0.48405958854E+02  0.66454419201E+02  0.00000000000E+00 0.  1.
         11    1    1    2    0    0  0.22728545549E+02 -0.37632335526E+02  0.10275863933E+03  0.11176814133E+03  0.00000000000E+00 0. -1.
</event>
<event>
 7    1  0.2612213E-009  0.1251693E+03  0.7561462E-02  0.1234805E+00
         -2   -1    0    0    0  501 -0.00000000000E+00  0.00000000000E+00  0.11653996436E+02  0.11653996436E+02  0.00000000000E+00 0.  1.
          2   -1    0    0  501    0  0.00000000000E+00 -0.00000000000E+00 -0.13729850492E+04  0.13729850492E+04  0.00000000000E+00 0. -1.
         25    2    1    2    0    0  0.23451344254E+02 -0.63235486934E+02 -0.83868372282E+03  0.85063938873E+03  0.12509312689E+03 0.  0.
          5    1    3    3  502    0  0.74178168643E+02 -0.44481729593E+02 -0.56936525847E+03  0.57591257577E+03  0.41800000000E+01 0. -1.
         -5    1    3    3    0  502 -0.50726824389E+02 -0.18753757342E+02 -0.26931846434E+03  0.27472681297E+03  0.41800000000E+01 0. -1.
        -11    1    1    2    0    0 -0.39857401529E+02 -0.42189100466E+01 -0.19655728118E+03  0.20060203499E+03  0.00000000000E+00 0.  1.
         11    1    1    2    0    0  0.16406057275E+02  0.67454396981E+02 -0.32609004873E+03  0.33339762187E+03  0.00000000000E+00 0. -1.
</event>
<event>
 7    1  0.2612213E-009  0.1170719E+03  0.7561462E-02  0.1248007E+00
          1   -1    0    0  501    0  0.00000000000E+00  0.00000000000E+00  0.11244524581E+04  0.11244524581E+04  0.00000000000E+00 0. -1.
         -1   -1    0    0    0  501 -0.00000000000E+00 -0.00000000000E+00 -0.26557048416E+02  0.26557048416E+02  0.00000000000E+00 0.  1.
         25    2    1    2    0    0 -0.11505960833E+02 -0.65849101096E+02  0.97025508825E+03  0.98056607008E+03  0.12508553180E+03 0.  0.
          5    1    3    3  502    0  0.51542320654E+02 -0.16417228840E+02  0.24777851306E+03  0.25364897035E+03  0.41800000000E+01 0.  1.
         -5    1    3    3    0  502 -0.63048281487E+02 -0.49431872256E+02  0.72247657519E+03  0.72691709974E+03  0.41800000000E+01 0.  1.
        -11    1    1    2    0    0  0.38519297251E+01  0.81842513756E+02  0.12882582281E+03  0.15267326892E+03  0.00000000000E+00 0. -1.
         11    1    1    2    0    0  0.76540311076E+01 -0.15993412659E+02 -0.11855013580E+01  0.17770167533E+02  0.00000000000E+00 0.  1.
</event>
<event>
 7    1  0.2612213E-009  0.8153447E+02  0.7561462E-02  0.1324752E+00
          2   -1    0    0  501    0  0.00000000000E+00  0.00000000000E+00  0.11851890076E+04  0.11851890076E+04  0.00000000000E+00 0. -1.
         -2   -1    0    0    0  501 -0.00000000000E+00 -0.00000000000E+00 -0.17420843792E+02  0.17420843792E+02  0.00000000000E+00 0.  1.
         25    2    1    2    0    0  0.49355367663E+02  0.14369101391E+02  0.96101021328E+03  0.97047951165E+03  0.12508968429E+03 0.  0.
          5    1    3    3  502    0 -0.56748392790E+00 -0.11006981163E+02  0.49719307618E+01  0.12793286045E+02  0.41800000000E+01 0.  1.
         -5    1    3    3    0  502  0.49922851591E+02  0.25376082554E+02  0.95603828252E+03  0.95768622561E+03  0.41800000000E+01 0.  1.
        -11    1    1    2    0    0 -0.41067859347E+02 -0.46442988019E+02  0.80541004775E+02  0.10163844577E+03  0.00000000000E+00 0.  1.
         11    1    1    2    0    0 -0.82875083163E+01  0.32073886629E+02  0.12621694570E+03  0.13049189392E+03  0.00000000000E+00 0. -1.
</event>
<event>
 7    1  0.2612213E-009  0.2105804E+03  0.7561462E-02  0.1141107E+00
         -2   -1    0    0    0  501 -0.00000000000E+00  0.00000000000E+00  0.84312024473E+02  0.84312024473E+02  0.00000000000E+00 0.  1.
          2   -1    0    0  501    0  0.00000000000E+00 -0.00000000000E+00 -0.65265195386E+03  0.65265195386E+03  0.00000000000E+00 0. -1.
         25    2    1    2    0    0  0.65510551972E+02  0.18127528605E+03 -0.17067307430E+03  0.28623279048E+03  0.12509016869E+03 0.  0.
          5    1    3    3  502    0  0.22841683568E+02 -0.14901162547E+02 -0.11086971113E+02  0.29735172471E+02  0.41800000000E+01 0. -1.
         -5    1    3    3    0  502  0.42668868405E+02  0.19617644859E+03 -0.15958610318E+03  0.25649761801E+03  0.41800000000E+01 0. -1.
        -11    1    1    2    0    0 -0.37317548014E+02 -0.99892020013E+02 -0.31002982079E+03  0.32785592084E+03  0.00000000000E+00 0. -1.
         11    1    1    2    0    0 -0.28193003958E+02 -0.81383266034E+02 -0.87637034298E+02  0.12287526701E+03  0.00000000000E+00 0.  1.
</event>
<event>
 7    1  0.2612213E-009  0.1082789E+03  0.7561462E-02  0.1263791E+00
          2   -1    0    0  501    0  0.00000000000E+00  0.00000000000E+00  0.93422322985E+02  0.93422322985E+02  0.00000000000E+00 0. -1.
         -2   -1    0    0    0  501 -0.00000000000E+00 -0.00000000000E+00 -0.41788581633E+03  0.41788581633E+03  0.00000000000E+00 0.  1.
         25    2    1    2    0    0  0.91173978854E+01  0.54544724114E+02 -0.37078571370E+03  0.39520252032E+03  0.12507890594E+03 0.  0.
          5    1    3    3  502    0  0.50925462918E+02  0.61461322703E+02 -0.31522930785E+03  0.32520437556E+03  0.41800000000E+01 0. -1.
         -5    1    3    3    0  502 -0.41808065033E+02 -0.69165985890E+01 -0.55556405852E+02  0.69998144754E+02  0.41800000000E+01 0. -1.
        -11    1    1    2    0    0  0.32021011001E+02 -0.10307513239E+02 -0.83166289132E+01  0.34651930555E+02  0.00000000000E+00 0.  1.
         11    1    1    2    0    0 -0.41138408887E+02 -0.44237210875E+02  0.54638849265E+02  0.81453688441E+02  0.00000000000E+00 0. -1.
</event>
<event>
 7    1  0.2612213E-009  0.7564431E+02  0.7561462E-02  0.1341887E+00
         -1   -1    0    0    0  501 -0.00000000000E+00  0.00000000000E+00  0.30180770031E+02  0.30180770031E+02  0.00000000000E+00 0.  1.
          1   -1    0    0  501    0  0.00000000000E+00 -0.00000000000E+00 -0.64633239353E+03  0.64633239353E+03  0.00000000000E+00 0. -1.
         25    2    1    2    0    0 -0.24014660532E+01  0.27984248666E+02 -0.53940528541E+03  0.55443108510E+03  0.12508749334E+03 0.  0.
          5    1    3    3  502    0 -0.24694145451E+02  0.72585833563E+01 -0.17011170794E+02  0.31134228490E+02  0.41800000000E+01 0. -1.
         -5    1    3    3    0  502  0.22292679398E+02  0.20725665309E+02 -0.52239411461E+03  0.52329685661E+03  0.41800000000E+01 0. -1.
        -11    1    1    2    0    0 -0.11643108754E+02  0.31387742692E+02 -0.33005091036E+02  0.47011577373E+02  0.00000000000E+00 0. -1.
         11    1    1    2    0    0  0.14044574808E+02 -0.59371991357E+02 -0.43741247056E+02  0.75070501086E+02  0.00000000000E+00 0.  1.
</event>
<event>
 7    1  0.2612213E-009  0.1354264E+03  0.7561462E-02  0.1219619E+00
         -1   -1    0    0    0  501 -0.00000000000E+00  0.00000000000E+00  0.36341628795E+03  0.36341628795E+03  0.00000000000E+00 0.  1.
          1   -1    0    0  501    0  0.00000000000E+00 -0.00000000000E+00 -0.67569845213E+02  0.67569845213E+02  0.00000000000E+00 0. -1.
         25    2    1    2    0    0  0.48589418570E+02 -0.93290143209E+02  0.10222650672E+03  0.19277472129E+03  0.12509137490E+03 0.  0.
          5    1    3    3  502    0  0.73426755362E+02 -0.47332156120E+02  0.11790820424E+02  0.88251443343E+02  0.41800000000E+01 0.  1.
         -5    1    3    3    0  502 -0.24837336791E+02 -0.45957987089E+02  0.90435686296E+02  0.10452327794E+03  0.41800000000E+01 0.  1.
        -11    1    1    2    0    0  0.21222722863E+02  0.30049072774E+02  0.94803036777E+02  0.10169054294E+03  0.00000000000E+00 0.  1.
         11    1    1    2    0    0 -0.69812141434E+02  0.63241070435E+02  0.98816899241E+02  0.13652086894E+03  0.00000000000E+00 0. -1.
</event>
<event>
 7    1  0.2612213E-009  0.1016004E+03  0.7561462E-02  0.1276966E+00
          3   -1    0    0  501    0  0.00000000000E+00  0.00000000000E+00  0.47748046409E+03  0.47748046409E+03  0.00000000000E+00 0. -1.
         -3   -1    0    0    0  501 -0.00000000000E+00 -0.00000000000E+00 -0.23751497007E+02  0.23751497007E+02  0.00000000000E+00 0.  1.
         25    2    1    2    0    0 -0.36894088743E+01 -0.32690277432E+01  0.29204584749E+03  0.31774299145E+03  0.12508210624E+03 0.  0.
          5    1    3    3  502    0 -0.19479233168E+02 -0.57325165599E+02  0.20655094361E+03  0.21528209364E+03  0.41800000000E+01 0.  1.
         -5    1    3    3    0  502  0.15789824294E+02  0.54056137856E+02  0.85494903881E+02  0.10246089781E+03  0.41800000000E+01 0.  1.
        -11    1    1    2    0    0 -0.27217610831E+02 -0.30085189942E+02  0.64578823778E+02  0.76264942626E+02  0.00000000000E+00 0.  1.
         11    1    1    2    0    0  0.30907019705E+02  0.33354217685E+02  0.97104295816E+02  0.10722402702E+03  0.00000000000E+00 0. -1.
</event>
<event>
 7    1  0.3655846E-009  0.2130059E+03  0.7561462E-02  0.1139208E+00
          2   -1    0    0  501    0  0.00000000000E+00  0.00000000000E+00  0.15351846767E+04  0.15351846767E+04  0.00000000000E+00 0. -1.
         -2   -1    0    0    0  501 -0.00000000000E+00 -0.00000000000E+00 -0.36310103230E+02  0.36310103230E+02  0.00000000000E+00 0.  1.
         25    2    1    2    0    0 -0.17444116717E+03  0.10803223369E+03  0.63429619131E+03  0.67829148187E+03  0.12508793605E+03 0.  0.
          5    1    3    3  502    0 -0.13029607482E+02  0.21295997845E+02  0.26304678563E+03  0.26426194207E+03  0.41800000000E+01 0.  1.
         -5    1    3    3    0  502 -0.16141155969E+03  0.86736235844E+02  0.37124940568E+03  0.41402953980E+03  0.41800000000E+01 0.  1.
        -11    1    1    2    0    0  0.93855503907E+02 -0.98841316004E+02  0.42883142717E+03  0.44997205946E+03  0.00000000000E+00 0. -1.
         11    1    1    2    0    0  0.80585663263E+02 -0.91909176855E+01  0.43574695495E+03  0.44323123856E+03  0.00000000000E+00 0.  1.
</event>
<event>
 7    1  0.2612213E-009  0.1684470E+03  0.7561462E-02  0.1179477E+00
          2   -1    0    0  501    0  0.00000000000E+00  0.00000000000E+00  0.46742242174E+03  0.46742242174E+03  0.00000000000E+00 0. -1.
         -2   -1    0    0    0  501 -0.00000000000E+00 -0.00000000000E+00 -0.69619459757E+02  0.69619459757E+02  0.00000000000E+00 0.  1.
         25    2    1    2    0    0  0.37260543990E+02  0.12777935396E+03  0.12787315403E+03  0.22297009024E+03  0.12509279030E+03 0.  0.
          5    1    3    3  502    0 -0.12989020618E+02  0.12517207989E+03  0.11577599901E+03  0.17105063164E+03  0.41800000000E+01 0.  1.
         -5    1    3    3    0  502  0.50249564608E+02  0.26072740716E+01  0.12097155017E+02  0.51919458596E+02  0.41800000000E+01 0.  1.
        -11    1    1    2    0    0  0.13748095423E+02 -0.10276044393E+03  0.16995754823E+03  0.19908361853E+03  0.00000000000E+00 0.  1.
         11    1    1    2    0    0 -0.51008639413E+02 -0.25018910032E+02  0.99972259727E+02  0.11498817273E+03  0.00000000000E+00 0. -1.
</event>
<event>
 7    1  0.2612213E-009  0.1046088E+03  0.7561462E-02  0.1270892E+00
         -3   -1    0    0    0  501 -0.00000000000E+00  0.00000000000E+00  0.37669003324E+03  0.37669003324E+03  0.00000000000E+00 0.  1.
          3   -1    0    0  501    0  0.00000000000E+00 -0.00000000000E+00 -0.54284764020E+02  0.54284764020E+02  0.00000000000E+00 0. -1.
         25    2    1    2    0    0 -0.82680736925E+02 -0.41412046019E+02  0.18725161281E+03  0.24343667467E+03  0.12508871355E+03 0.  0.
          5    1    3    3  502    0 -0.43424820642E+02  0.16395605242E+02  0.34223568036E+01  0.46730245507E+02  0.41800000000E+01 0. -1.
         -5    1    3    3    0  502 -0.39255916283E+02 -0.57807651261E+02  0.18382925601E+03  0.19670642916E+03  0.41800000000E+01 0. -1.
        -11    1    1    2    0    0  0.70527280471E+02  0.33256522427E+02  0.14850221731E+03  0.16772895433E+03  0.00000000000E+00 0.  1.
         11    1    1    2    0    0  0.12153456454E+02  0.81555235921E+01 -0.13348560907E+02  0.19809168260E+02  0.00000000000E+00 0. -1.
</event>
<event>
 7    1  0.2612213E-009  0.1974303E+03  0.7561462E-02  0.1151925E+00
          2   -1    0    0  501    0  0.00000000000E+00  0.00000000000E+00  0.32859151518E+03  0.32859151518E+03  0.00000000000E+00 0. -1.
         -2   -1    0    0    0  501 -0.00000000000E+00 -0.00000000000E+00 -0.13143229139E+03  0.13143229139E+03  0.00000000000E+00 0.  1.
         25    2    1    2    0    0  0.80381100618E+02 -0.15627692025E+03  0.82134851189E+02  0.23081857004E+03  0.12508989311E+03 0.  0.
          5    1    3    3  502    0 -0.25359058106E+02 -0.26425662527E+02  0.46881658485E+02  0.59638576193E+02  0.41800000000E+01 0. -1.
         -5    1    3    3    0  502  0.10574015872E+03 -0.12985125772E+03  0.35253192704E+02  0.17117999385E+03  0.41800000000E+01 0. -1.
        -11    1    1    2    0    0 -0.18282628152E+02  0.11377981287E+03  0.37549572243E+02  0.12120260181E+03  0.00000000000E+00 0.  1.
         11    1    1    2    0    0 -0.62098472466E+02  0.42497107375E+02  0.77474800359E+02  0.10800263473E+03  0.00000000000E+00 0. -1.
</event>
<event>
 7    1  0.2612213E-009  0.1109525E+03  0.7561462E-02  0.1258816E+00
         -2   -1    0    0    0  501 -0.00000000000E+00  0.00000000000E+00  0.90638470804E+02  0.90638470804E+02  0.00000000000E+00 0. -1.
          2   -1    0    0  501    0  0.00000000000E+00 -0.00000000000E+00 -0.15774554717E+03  0.15774554717E+03  0.00000000000E+00 0.  1.
         25    2    1    2    0    0 -0.14958226796E+02 -0.20206883684E+02  0.75166048258E+01  0.12781539964E+03  0.12509280691E+03 0.  0.
          5    1    3    3  502    0 -0.20770457499E+02  0.51244718509E+02 -0.12982344712E+01  0.55467025272E+02  0.41800000000E+01 0.  1.
         -5    1    3    3    0  502  0.58122307029E+01 -0.71451602193E+02  0.88148392971E+01  0.72348374367E+02  0.41800000000E+01 0.  1.
        -11    1    1    2    0    0 -0.13952469874E+02 -0.32031833265E+02 -0.29563481878E+02  0.45767993386E+02  0.00000000000E+00 0.  1.
         11    1    1    2    0    0  0.28910696670E+02  0.52238716949E+02 -0.45060199310E+02  0.74800624946E+02  0.00000000000E+00 0. -1.
</event>
<event>
 7    1  0.2612213E-009  0.8043018E+02  0.7561462E-02  0.1327835E+00
          3   -1    0    0  501    0  0.00000000000E+00  0.00000000000E+00  0.77755711875E+02  0.77755711875E+02  0.00000000000E+00 0. -1.
         -3   -1    0    0    0  501 -0.00000000000E+00 -0.00000000000E+00 -0.15881247476E+03  0.15881247476E+03  0.00000000000E+00 0.  1.
         25    2    1    2    0    0  0.89971360645E+01  0.97667574818E+00 -0.18596845341E+02  0.12680703304E+03  0.12510906690E+03 0.  0.
          5    1    3    3  502    0 -0.48631210443E+02  0.14227412425E+02 -0.39039787566E+02  0.64101414233E+02  0.41800000000E+01 0.  1.
         -5    1    3    3    0  502  0.57628346508E+02 -0.13250736677E+02  0.20442942224E+02  0.62705618811E+02  0.41800000000E+01 0.  1.
        -11    1    1    2    0    0 -0.25923380806E+01  0.24414826645E+02 -0.76292248936E+02  0.80145562725E+02  0.00000000000E+00 0.  1.
         11    1    1    2    0    0 -0.64047979839E+01 -0.25391502393E+02  0.13832331388E+02  0.29615590871E+02  0.00000000000E+00 0. -1.
</event>
<event>
 7    1  0.2612213E-009  0.9584394E+02  0.7561462E-02  0.1289287E+00
          2   -1    0    0  501    0  0.00000000000E+00  0.00000000000E+00  0.98573271284E+03  0.98573271284E+03  0.00000000000E+00 0. -1.
         -2   -1    0    0    0  501 -0.00000000000E+00 -0.00000000000E+00 -0.22803261982E+02  0.22803261982E+02  0.00000000000E+00 0.  1.
         25    2    1    2    0    0  0.11926309354E+02 -0.82993680745E+02  0.71659051531E+03  0.73224412396E+03  0.12509717236E+03 0.  0.
          5    1    3    3  502    0  0.75491869417E+01 -0.43230903534E+02  0.60161430014E+02  0.74583988263E+02  0.41800000000E+01 0. -1.
         -5    1    3    3    0  502  0.43771224118E+01 -0.39762777211E+02  0.65642908530E+03  0.65766013569E+03  0.41800000000E+01 0. -1.
        -11    1    1    2    0    0  0.26769852111E+02  0.49186227107E+02  0.56218915073E+02  0.79350339200E+02  0.00000000000E+00 0.  1.
         11    1    1    2    0    0 -0.38696161465E+02  0.33807453638E+02  0.19012002047E+03  0.19694151167E+03  0.00000000000E+00 0. -1.
</event>
<event>
 7    1  0.2612213E-009  0.1208796E+03  0.7561462E-02  0.1241653E+00
          2   -1    0    0  501    0  0.00000000000E+00  0.00000000000E+00  0.43937557299E+02  0.43937557299E+02  0.00000000000E+00 0. -1.
         -2   -1    0    0    0  501 -0.00000000000E+00 -0.00000000000E+00 -0.51868573011E+03  0.51868573011E+03  0.00000000000E+00 0.  1.
         25    2    1    2    0    0 -0.18602134555E+02 -0.80654631497E+02 -0.13576567359E+03  0.20231119852E+03  0.12508514671E+03 0.  0.
          5    1    3    3  502    0 -0.58877942792E+02 -0.55932791882E+02 -0.13158608736E+03  0.15468503528E+03  0.41800000000E+01 0. -1.
         -5    1    3    3    0  502  0.40275808237E+02 -0.24721839615E+02 -0.41795862337E+01  0.47626163232E+02  0.41800000000E+01 0. -1.
        -11    1    1    2    0    0 -0.28400829342E+02  0.47977230650E+02 -0.23591820358E+03  0.24241662597E+03  0.00000000000E+00 0.  1.
         11    1    1    2    0    0  0.47002963897E+02  0.32677400847E+02 -0.10306429565E+03  0.11789546293E+03  0.00000000000E+00 0. -1.
</event>
<event>
 7    1  0.2612213E-009  0.9192550E+02  0.7561462E-02  0.1298255E+00
         -2   -1    0    0    0  501 -0.00000000000E+00  0.00000000000E+00  0.16588471349E+02  0.16588471349E+02  0.00000000000E+00 0.  1.
          2   -1    0    0  501    0  0.00000000000E+00 -0.00000000000E+00 -0.10903778348E+04  0.10903778348E+04  0.00000000000E+00 0. -1.
         25    2    1    2    0    0 -0.45824670888E+02 -0.48993428338E+02 -0.75379513321E+03  0.76704313378E+03  0.12509120572E+03 0.  0.
          5    1    3    3  502    0 -0.45346468588E+02 -0.44638639891E+02 -0.14721358540E+03  0.16043136387E+03  0.41800000000E+01 0. -1.
         -5    1    3    3    0  502 -0.47820229950E+00 -0.43547884465E+01 -0.60658154781E+03  0.60661176992E+03  0.41800000000E+01 0. -1.
        -11    1    1    2    0    0  0.23070489678E+02  0.75586214965E+02 -0.23778957559E+03  0.25057814280E+03  0.00000000000E+00 0. -1.
         11    1    1    2    0    0  0.22754181210E+02 -0.26592786627E+02 -0.82204654641E+02  0.89345029564E+02  0.00000000000E+00 0.  1.
</event>
<event>
 7    1  0.2612213E-009  0.9908019E+02  0.7561462E-02  0.1282242E+00
         -1   -1    0    0    0  501 -0.00000000000E+00  0.00000000000E+00  0.89835053220E+02  0.89835053220E+02  0.00000000000E+00 0.  1.
          1   -1    0    0  501    0  0.00000000000E+00 -0.00000000000E+00 -0.18024823002E+03  0.18024823002E+03  0.00000000000E+00 0. -1.
         25    2    1    2    0    0 -0.59797868119E+02 -0.17078396275E+02 -0.34608653127E+02  0.14391493791E+03  0.12508514633E+03 0.  0.
          5    1    3    3  502    0  0.36129977265E+02 -0.16469270519E+02 -0.25698648384E+02  0.47481628630E+02  0.41800000000E+01 0.  1.
         -5    1    3    3    0  502 -0.95927845384E+02 -0.60912575628E+00 -0.89100047432E+01  0.96433309280E+02  0.41800000000E+01 0.  1.
        -11    1    1    2    0    0  0.48956177232E+02  0.14679891423E+02 -0.82616651754E+02  0.97147916336E+02  0.00000000000E+00 0. -1.
         11    1    1    2    0    0  0.10841690887E+02  0.23985048526E+01  0.26812128080E+02  0.29020428994E+02  0.00000000000E+00 0.  1.
</event>
<event>
 7    1  0.2612213E-009  0.1078147E+03  0.7561462E-02  0.1264671E+00
         -1   -1    0    0    0  501 -0.00000000000E+00  0.00000000000E+00  0.34603699729E+02  0.34603699729E+02  0.00000000000E+00 0.  1.
          1   -1    0    0  501    0  0.00000000000E+00 -0.00000000000E+00 -0.50148139045E+03  0.50148139045E+03  0.00000000000E+00 0. -1.
         25    2    1    2    0    0 -0.53950419646E+02 -0.50034159615E+02 -0.24610738674E+03  0.28570997132E+03  0.12508907625E+03 0.  0.
          5    1    3    3  502    0 -0.10223984224E+02  0.15271391326E+02 -0.18529030041E+03  0.18624637734E+03  0.41800000000E+01 0.  1.
         -5    1    3    3    0  502 -0.43726435422E+02 -0.65305550941E+02 -0.60817086333E+02  0.99463593985E+02  0.41800000000E+01 0.  1.
        -11    1    1    2    0    0  0.27895056066E+02 -0.25735915028E+02 -0.68619065830E+02  0.78415863641E+02  0.00000000000E+00 0.  1.
         11    1    1    2    0    0  0.26055363580E+02  0.75770074643E+02 -0.15215123815E+03  0.17195925521E+03  0.00000000000E+00 0. -1.
</event>
<event>
 7    1  0.2612213E-009  0.2179578E+03  0.7561462E-02  0.1135415E+00
          2   -1    0    0  501    0  0.00000000000E+00  0.00000000000E+00  0.17662647755E+04  0.17662647755E+04  0.00000000000E+00 0. -1.
         -2   -1    0    0    0  501 -0.00000000000E+00 -0.00000000000E+00 -0.32208658788E+02  0.32208658788E+02  0.00000000000E+00 0.  1.
         25    2    1    2    0    0 -0.19211577212E+03 -0.80861151950E+02  0.75649752278E+03  0.79459623071E+03  0.12509065551E+03 0.  0.
          5    1    3    3  502    0 -0.69255429028E+02 -0.51585972786E+02  0.51326173169E+03  0.52049255965E+03  0.41800000000E+01 0. -1.
         -5    1    3    3    0  502 -0.12286034309E+03 -0.29275179163E+02  0.24323579109E+03  0.27410367106E+03  0.41800000000E+01 0. -1.
        -11    1    1    2    0    0  0.94552876982E+02 -0.27607759624E+01  0.52393192327E+03  0.53240260015E+03  0.00000000000E+00 0. -1.
         11    1    1    2    0    0  0.97562895138E+02  0.83621927912E+02  0.45362667063E+03  0.47147460339E+03  0.00000000000E+00 0.  1.
</event>
<event>
 7    1  0.2612213E-009  0.9925303E+02  0.7561462E-02  0.1281875E+00
          2   -1    0    0  501    0  0.00000000000E+00  0.00000000000E+00  0.12794436600E+03  0.12794436600E+03  0.00000000000E+00 0. -1.
         -2   -1    0    0    0  501 -0.00000000000E+00 -0.00000000000E+00 -0.89987941039E+02  0.89987941039E+02  0.00000000000E+00 0.  1.
         25    2    1    2    0    0 -0.25162642905E+02 -0.11834529104E+02  0.13951528516E+02  0.12890024469E+03  0.12508962090E+03 0.  0.
          5    1    3    3  502    0  0.36976988256E+02 -0.44278447821E+02  0.40361575632E+01  0.57979665140E+02  0.41800000000E+01 0. -1.
         -5    1    3    3    0  502 -0.62139631161E+02  0.32443918717E+02  0.99153709530E+01  0.70920579550E+02  0.41800000000E+01 0. -1.
        -11    1    1    2    0    0  0.13560804680E+01  0.36288946696E+02 -0.13112508207E+02  0.38609124285E+02  0.00000000000E+00 0.  1.
         11    1    1    2    0    0  0.23806562438E+02 -0.24454417592E+02  0.37117404651E+02  0.50422938063E+02  0.00000000000E+00 0. -1.
</event>
<event>
 7    1  0.2612213E-009  0.1118794E+03  0.7561462E-02  0.1257129E+00
          4   -1    0    0  501    0  0.00000000000E+00  0.00000000000E+00  0.63337490869E+02  0.63337490869E+02  0.00000000000E+00 0. -1.
         -4   -1    0    0    0  501 -0.00000000000E+00 -0.00000000000E+00 -0.30820933478E+03  0.30820933478E+03  0.00000000000E+00 0.  1.
         25    2    1    2    0    0  0.81196201359E+02 -0.32289672981E+02 -0.15119792391E+03  0.21481260404E+03  0.12509275185E+03 0.  0.
          5    1    3    3  502    0  0.68293662316E+02 -0.44927880843E+02 -0.22642766106E+02  0.84927651837E+02  0.41800000000E+01 0. -1.
         -5    1    3    3    0  502  0.12902539043E+02  0.12638207862E+02 -0.12855515780E+03  0.12988495220E+03  0.41800000000E+01 0. -1.
        -11    1    1    2    0    0 -0.98486632290E+02  0.16319776259E+02 -0.62907562229E+02  0.11799708989E+03  0.00000000000E+00 0.  1.
         11    1    1    2    0    0  0.17290430931E+02  0.15969896722E+02 -0.30766357772E+02  0.38737131717E+02  0.00000000000E+00 0. -1.
</event>
<event>
 7    1  0.2612213E-009  0.2255991E+03  0.7561462E-02  0.1129776E+00
         -1   -1    0    0    0  501 -0.00000000000E+00  0.00000000000E+00  0.25955505429E+04  0.25955505429E+04  0.00000000000E+00 0.  1.
          1   -1    0    0  501    0  0.00000000000E+00 -0.00000000000E+00 -0.48340586354E+02  0.48340586354E+02  0.00000000000E+00 0. -1.
         25    2    1    2    0    0 -0.70777865111E+02 -0.20736077932E+03  0.22491679137E+04  0.22632745591E+04  0.12508967664E+03 0.  0.
          5    1    3    3  502    0 -0.59686287170E+02 -0.68571217639E+02  0.47448867618E+03  0.48313708302E+03  0.41800000000E+01 0.  1.
         -5    1    3    3    0  502 -0.11091577940E+02 -0.13878956168E+03  0.17746792375E+04  0.17801374761E+04  0.41800000000E+01 0.  1.
        -11    1    1    2    0    0  0.52228932889E+02  0.10979065720E+03  0.23021709316E+03  0.26034930348E+03  0.00000000000E+00 0.  1.
         11    1    1    2    0    0  0.18548932222E+02  0.97570122117E+02  0.67824949694E+02  0.12026726661E+03  0.00000000000E+00 0. -1.
</event>
<event>
 7    1  0.2612213E-009  0.1341857E+03  0.7561462E-02  0.1221374E+00
         -1   -1    0    0    0  501 -0.00000000000E+00  0.00000000000E+00  0.52276048978E+02  0.52276048978E+02  0.00000000000E+00 0.  1.
          1   -1    0    0  501    0  0.00000000000E+00 -0.00000000000E+00 -0.41797960420E+03  0.41797960420E+03  0.00000000000E+00 0. -1.
         25    2    1    2    0    0  0.50095298604E+02  0.83698243330E+02 -0.23166123613E+03  0.28076601689E+03  0.12509073922E+03 0.  0.
          5    1    3    3  502    0  0.35180415573E+02 -0.13325241585E+02 -0.14466253189E+03  0.14953241868E+03  0.41800000000E+01 0.  1.
         -5    1    3    3    0  502  0.14914883031E+02  0.97023484915E+02 -0.86998704241E+02  0.13123359822E+03  0.41800000000E+01 0.  1.
        -11    1    1    2    0    0 -0.76107978256E+02 -0.66653492344E+02 -0.11435091502E+03  0.15268020226E+03  0.00000000000E+00 0. -1.
         11    1    1    2    0    0  0.26012679651E+02 -0.17044750986E+02 -0.19691404069E+02  0.36809434022E+02  0.00000000000E+00 0.  1.
</event>
<event>
 7    1  0.2612213E-009  0.1096377E+03  0.7561462E-02  0.1261242E+00
          3   -1    0    0  501    0  0.00000000000E+00  0.00000000000E+00  0.38517701205E+02  0.38517701205E+02  0.00000000000E+00 0. -1.
         -3   -1    0    0    0  501 -0.00000000000E+00 -0.00000000000E+00 -0.43339630433E+03  0.43339630433E+03  0.00000000000E+00 0.  1.
         25    2    1    2    0    0  0.52521962688E+02  0.47700463300E+02 -0.23853648435E+03  0.27853128912E+03  0.12508450699E+03 0.  0.
          5    1    3    3  502    0 -0.22761055440E+02  0.23958279027E+02 -0.17203496199E+03  0.17523003545E+03  0.41800000000E+01 0.  1.
         -5    1    3    3    0  502  0.75283018128E+02  0.23742184273E+02 -0.66501522364E+02  0.10330125367E+03  0.41800000000E+01 0.  1.
        -11    1    1    2    0    0  0.12452916464E+01 -0.52885542558E+02 -0.44300577413E+02  0.68999800884E+02  0.00000000000E+00 0.  1.
         11    1    1    2    0    0 -0.53767254334E+02  0.51850792576E+01 -0.11204154137E+03  0.12438291554E+03  0.00000000000E+00 0. -1.
</event>
<event>
 7    1  0.2612213E-009  0.9083706E+02  0.7561462E-02  0.1300837E+00
          2   -1    0    0  501    0  0.00000000000E+00  0.00000000000E+00  0.62335385455E+02  0.62335385455E+02  0.00000000000E+00 0. -1.
         -2   -1    0    0    0  501 -0.00000000000E+00 -0.00000000000E+00 -0.25651350015E+03  0.25651350015E+03  0.00000000000E+00 0.  1.
         25    2    1    2    0    0 -0.63541619119E+02  0.15300944353E+02 -0.11419252615E+03  0.18150712018E+03  0.12503297720E+03 0.  0.
          5    1    3    3  502    0 -0.43794529245E+02 -0.68386652764E+01 -0.13687217827E+03  0.14393121176E+03  0.41800000000E+01 0.  1.
         -5    1    3    3    0  502 -0.19747089875E+02  0.22139609629E+02  0.22679652117E+02  0.37575908415E+02  0.41800000000E+01 0.  1.
        -11    1    1    2    0    0  0.81527083825E+02 -0.26830816505E+02 -0.77842503211E+02  0.11587067540E+03  0.00000000000E+00 0.  1.
         11    1    1    2    0    0 -0.17985464706E+02  0.11529872152E+02 -0.21430853348E+01  0.21471090035E+02  0.00000000000E+00 0. -1.
</event>
<event>
 7    1  0.2612213E-009  0.1310942E+03  0.7561462E-02  0.1225841E+00
          2   -1    0    0  501    0  0.00000000000E+00  0.00000000000E+00  0.73675172671E+03  0.73675172671E+03  0.00000000000E+00 0. -1.
         -2   -1    0    0    0  501 -0.00000000000E+00 -0.00000000000E+00 -0.28882039400E+02  0.28882039400E+02  0.00000000000E+00 0.  1.
         25    2    1    2    0    0  0.81318720647E+02 -0.82041517539E+01  0.24179647705E+03  0.28424106485E+03  0.12508958469E+03 0.  0.
          5    1    3    3  502    0  0.86736503891E+02 -0.50096669895E+02  0.20443542915E+03  0.22769324657E+03  0.41800000000E+01 0. -1.
         -5    1    3    3    0  502 -0.54177832443E+01  0.41892518141E+02  0.37361047900E+02  0.56547818275E+02  0.41800000000E+01 0. -1.
        -11    1    1    2    0    0 -0.61054191110E+02  0.46107779909E+02  0.26781211905E+03  0.27852625142E+03  0.00000000000E+00 0.  1.
         11    1    1    2    0    0 -0.20264529537E+02 -0.37903628155E+02  0.19826109121E+03  0.20286644985E+03  0.00000000000E+00 0. -1.
</event>
<event>
 7    1  0.2612213E-009  0.2333778E+03  0.7561462E-02  0.1124285E+00
          3   -1    0    0  501    0  0.00000000000E+00  0.00000000000E+00  0.71490843736E+02  0.71490843736E+02  0.00000000000E+00 0. -1.
         -3   -1    0    0    0  501 -0.00000000000E+00 -0.00000000000E+00 -0.99064566869E+03  0.99064566869E+03  0.00000000000E+00 0.  1.
         25    2    1    2    0    0 -0.16237166835E+03 -0.14871882234E+03 -0.67929063618E+03  0.72495922981E+03  0.12509304412E+03 0.  0.
          5    1    3    3  502    0 -0.88490909654E+02 -0.35271445173E+02 -0.43792543945E+03  0.44818621002E+03  0.41800000000E+01 0.  1.
         -5    1    3    3    0  502 -0.73880758699E+02 -0.11344737717E+03 -0.24136519673E+03  0.27677301979E+03  0.41800000000E+01 0.  1.
        -11    1    1    2    0    0  0.71075470170E+02  0.12797554659E+02 -0.88175087542E+02  0.11397519874E+03  0.00000000000E+00 0.  1.
         11    1    1    2    0    0  0.91296198183E+02  0.13592126768E+03 -0.15168910124E+03  0.22320208387E+03  0.00000000000E+00 0. -1.
</event>
<event>
 7    1  0.2612213E-009  0.1009565E+03  0.7561462E-02  0.1278297E+00
          2   -1    0    0  501    0  0.00000000000E+00  0.00000000000E+00  0.33934067198E+03  0.33934067198E+03  0.00000000000E+00 0. -1.
         -2   -1    0    0    0  501 -0.00000000000E+00 -0.00000000000E+00 -0.51325396580E+02  0.51325396580E+02  0.00000000000E+00 0.  1.
         25    2    1    2    0    0  0.88405701654E+01  0.35801172658E+02  0.61497594335E+02  0.14418362088E+03  0.12508829992E+03 0.  0.
          5    1    3    3  502    0 -0.27865092076E+02 -0.25310889921E+02 -0.13891116316E+02  0.40342781480E+02  0.41800000000E+01 0. -1.
         -5    1    3    3    0  502  0.36705662242E+02  0.61112062579E+02  0.75388710651E+02  0.10384083940E+03  0.41800000000E+01 0. -1.
        -11    1    1    2    0    0  0.32592667390E+02  0.66969168308E+01  0.12018882636E+03  0.12470960125E+03  0.00000000000E+00 0. -1.
         11    1    1    2    0    0 -0.41433237555E+02 -0.42498089489E+02  0.10632885470E+03  0.12177284643E+03  0.00000000000E+00 0.  1.
</event>
<event>
 7    1  0.2612213E-009  0.1755860E+03  0.7561462E-02  0.1172145E+00
         -2   -1    0    0    0  501 -0.00000000000E+00  0.00000000000E+00  0.19395839064E+03  0.19395839064E+03  0.00000000000E+00 0. -1.
          2   -1    0    0  501    0  0.00000000000E+00 -0.00000000000E+00 -0.18641238493E+03  0.18641238493E+03  0.00000000000E+00 0.  1.
         25    2    1    2    0    0  0.10598542975E+03 -0.97491348577E+02 -0.57207123003E+02  0.19914189401E+03  0.12508942665E+03 0.  0.
          5    1    3    3  502    0  0.10975972904E+03 -0.11769390398E+03 -0.28341883561E+02  0.16346188521E+03  0.41800000000E+01 0.  1.
         -5    1    3    3    0  502 -0.37742992876E+01  0.20202555400E+02 -0.28865239441E+02  0.35680008798E+02  0.41800000000E+01 0.  1.
        -11    1    1    2    0    0 -0.29525286944E+02  0.87200465099E+02  0.37485865232E+02  0.99402483746E+02  0.00000000000E+00 0.  1.
         11    1    1    2    0    0 -0.76460142807E+02  0.10290883478E+02  0.27267263485E+02  0.81826397812E+02  0.00000000000E+00 0. -1.
</event>
<event>
 7    1  0.2612213E-009  0.1269842E+03  0.7561462E-02  0.1232000E+00
         -1   -1    0    0    0  501 -0.00000000000E+00  0.00000000000E+00  0.35389061135E+02  0.35389061135E+02  0.00000000000E+00 0.  1.
          1   -1    0    0  501    0  0.00000000000E+00 -0.00000000000E+00 -0.55531843275E+03  0.55531843275E+03  0.00000000000E+00 0. -1.
         25    2    1    2    0    0  0.70164907098E+02  0.34317452146E+01 -0.17109207184E+03  0.22328234644E+03  0.12509043977E+03 0.  0.
          5    1    3    3  502    0 -0.12656999048E+02  0.47548857243E+02 -0.54125777008E+02  0.73267766356E+02  0.41800000000E+01 0. -1.
         -5    1    3    3    0  502  0.82821906146E+02 -0.44117112029E+02 -0.11696629484E+03  0.15001458009E+03  0.41800000000E+01 0. -1.
        -11    1    1    2    0    0 -0.56206865444E+02 -0.41656756475E+02 -0.26720857566E+03  0.27621535075E+03  0.00000000000E+00 0.  1.
         11    1    1    2    0    0 -0.13958041654E+02  0.38225011260E+02 -0.81628724108E+02  0.91209796689E+02  0.00000000000E+00 0. -1.
</event>
<event>
 7    1  0.2612213E-009  0.2187214E+03  0.7561462E-02  0.1134840E+00
          1   -1    0    0  501    0  0.00000000000E+00  0.00000000000E+00  0.12547037271E+04  0.12547037271E+04  0.00000000000E+00 0. -1.
         -1   -1    0    0    0  501 -0.00000000000E+00 -0.00000000000E+00 -0.50525457675E+02  0.50525457675E+02  0.00000000000E+00 0.  1.
         25    2    1    2    0    0  0.21108636800E+03  0.20806063289E+01  0.83464740601E+03  0.86996801200E+03  0.12508503457E+03 0.  0.
          5    1    3    3  502    0  0.31876985425E+02  0.29671039947E+02  0.34586124682E+03  0.34861725038E+03  0.41800000000E+01 0. -1.
         -5    1    3    3    0  502  0.17920938257E+03 -0.27590433619E+02  0.48878615919E+03  0.52135076162E+03  0.41800000000E+01 0. -1.
        -11    1    1    2    0    0 -0.11599579470E+03 -0.12488734774E+02  0.11703246668E+03  0.16525008666E+03  0.00000000000E+00 0.  1.
         11    1    1    2    0    0 -0.95090573293E+02  0.10408128445E+02  0.25249839675E+03  0.27001108612E+03  0.00000000000E+00 0. -1.
</event>
<event>
 7    1  0.2612213E-009  0.1227612E+03  0.7561462E-02  0.1238610E+00
          1   -1    0    0  501    0  0.00000000000E+00  0.00000000000E+00  0.35145261570E+03  0.35145261570E+03  0.00000000000E+00 0. -1.
         -1   -1    0    0    0  501 -0.00000000000E+00 -0.00000000000E+00 -0.66060390155E+02  0.66060390155E+02  0.00000000000E+00 0.  1.
         25    2    1    2    0    0 -0.48149843363E+02  0.72260386133E+02  0.23949560828E+03  0.28380751052E+03  0.12509430770E+03 0.  0.
          5    1    3    3  502    0 -0.69734427934E+02  0.84106693190E+02  0.12258877318E+03  0.16426291726E+03  0.41800000000E+01 0. -1.
         -5    1    3    3    0  502  0.21584584571E+02 -0.11846307058E+02  0.11690683510E+03  0.11954459325E+03  0.41800000000E+01 0. -1.
        -11    1    1    2    0    0 -0.12833159634E+02 -0.40439398090E+02 -0.11677387933E+02  0.44004503099E+02  0.00000000000E+00 0.  1.
         11    1    1    2    0    0  0.60983002997E+02 -0.31820988042E+02  0.57574005199E+02  0.89700992241E+02  0.00000000000E+00 0. -1.
</event>
<event>
 7    1  0.2612213E-009  0.1470447E+03  0.7561462E-02  0.1204152E+00
          3   -1    0    0  501    0  0.00000000000E+00  0.00000000000E+00  0.76836870026E+03  0.76836870026E+03  0.00000000000E+00 0. -1.
         -3   -1    0    0    0  501 -0.00000000000E+00 -0.00000000000E+00 -0.41802690988E+02  0.41802690988E+02  0.00000000000E+00 0.  1.
         25    2    1    2    0    0 -0.53969802515E+02 -0.10352217958E+03  0.56869215745E+03  0.59387459757E+03  0.12508671569E+03 0.  0.
          5    1    3    3  502    0 -0.79865835609E+01  0.20262196231E+02  0.21243844229E+02  0.30710184478E+02  0.41800000000E+01 0.  1.
         -5    1    3    3    0  502 -0.45983218954E+02 -0.12378437581E+03  0.54744831322E+03  0.56316441309E+03  0.41800000000E+01 0.  1.
        -11    1    1    2    0    0  0.66329006030E+02  0.45407413688E+02  0.12437459857E+03  0.14808919957E+03  0.00000000000E+00 0. -1.
         11    1    1    2    0    0 -0.12359203514E+02  0.58114765894E+02  0.33499253249E+02  0.68207594112E+02  0.00000000000E+00 0.  1.
</event>
<event>
 7    1  0.2612213E-009  0.1567899E+03  0.7561462E-02  0.1192369E+00
         -3   -1    0    0    0  501 -0.00000000000E+00  0.00000000000E+00  0.62465340456E+03  0.62465340456E+03  0.00000000000E+00 0.  1.
          3   -1    0    0  501    0  0.00000000000E+00 -0.00000000000E+00 -0.46972709911E+02  0.46972709911E+02  0.00000000000E+00 0. -1.
         25    2    1    2    0    0  0.20555190488E+02  0.12849526712E+03  0.35229776464E+03  0.39584669985E+03  0.12508934921E+03 0.  0.
          5    1    3    3  502    0  0.18340634049E+02 -0.22493378391E+02  0.52168321849E+02  0.59844274023E+02  0.41800000000E+01 0. -1.
         -5    1    3    3    0  502  0.22145564382E+01  0.15098864551E+03  0.30012944279E+03  0.33600242583E+03  0.41800000000E+01 0. -1.
        -11    1    1    2    0    0  0.72422090249E+01 -0.24430458305E+02  0.12818961150E+03  0.13069764107E+03  0.00000000000E+00 0.  1.
         11    1    1    2    0    0 -0.27797399513E+02 -0.10406480882E+03  0.97193318510E+02  0.14508177355E+03  0.00000000000E+00 0. -1.
</event>
<event>
 7    1  0.2612213E-009  0.2207911E+03  0.7561462E-02  0.1133295E+00
          2   -1    0    0  501    0  0.00000000000E+00  0.00000000000E+00  0.67847321873E+03  0.67847321873E+03  0.00000000000E+00 0. -1.
         -2   -1    0    0    0  501 -0.00000000000E+00 -0.00000000000E+00 -0.85102573513E+02  0.85102573513E+02  0.00000000000E+00 0.  1.
         25    2    1    2    0    0 -0.70676476900E+02  0.20217588168E+03  0.29386584032E+03  0.38454371921E+03  0.12508592390E+03 0.  0.
          5    1    3    3  502    0 -0.36154452955E+01 -0.53669890264E+01  0.75463552056E+02  0.75855758547E+02  0.41800000000E+01 0.  1.
         -5    1    3    3    0  502 -0.67061031604E+02  0.20754287070E+03  0.21840228826E+03  0.30868796066E+03  0.41800000000E+01 0.  1.
        -11    1    1    2    0    0  0.67869285982E+02 -0.16451426623E+03  0.28972991996E+03  0.34002148505E+03  0.00000000000E+00 0. -1.
         11    1    1    2    0    0  0.28071909179E+01 -0.37661615451E+02  0.97748849316E+01  0.39010587982E+02  0.00000000000E+00 0.  1.
</event>
<event>
 7    1  0.2612213E-009  0.9865032E+02  0.7561462E-02  0.1283160E+00
          1   -1    0    0  501    0  0.00000000000E+00  0.00000000000E+00  0.35421669773E+02  0.35421669773E+02  0.00000000000E+00 0. -1.
         -1   -1    0    0    0  501 -0.00000000000E+00 -0.00000000000E+00 -0.46375677289E+03  0.46375677289E+03  0.00000000000E+00 0.  1.
         25    2    1    2    0    0  0.22691550647E+02  0.59580085493E+02 -0.27948862479E+03  0.31276726497E+03  0.12507908534E+03 0.  0.
          5    1    3    3  502    0  0.68878447875E+02  0.49058019128E+02 -0.12383715964E+03  0.15001348049E+03  0.41800000000E+01 0.  1.
         -5    1    3    3    0  502 -0.46186897228E+02  0.10522066365E+02 -0.15565146515E+03  0.16275378447E+03  0.41800000000E+01 0.  1.
        -11    1    1    2    0    0 -0.14595947749E+01 -0.20939456579E+02  0.87667204443E+01  0.22747453617E+02  0.00000000000E+00 0. -1.
         11    1    1    2    0    0 -0.21231955872E+02 -0.38640628914E+02 -0.15761319877E+03  0.16366372408E+03  0.00000000000E+00 0.  1.
</event>
<event>
 7    1  0.2612213E-009  0.8423048E+02  0.7561462E-02  0.1317457E+00
         -1   -1    0    0    0  501 -0.00000000000E+00  0.00000000000E+00  0.49101416972E+02  0.49101416972E+02  0.00000000000E+00 0.  1.
          1   -1    0    0  501    0  0.00000000000E+00 -0.00000000000E+00 -0.24309304892E+03  0.24309304892E+03  0.00000000000E+00 0. -1.
         25    2    1    2    0    0  0.49814999616E+01 -0.92060827754E+01 -0.10727532595E+03  0.16512061866E+03  0.12508899171E+03 0.  0.
          5    1    3    3  502    0  0.50085354951E+02  0.60889024550E+01 -0.33644472266E+01  0.50738638323E+02  0.41800000000E+01 0.  1.
         -5    1    3    3    0  502 -0.45103854990E+02 -0.15294985230E+02 -0.10391087873E+03  0.11438198034E+03  0.41800000000E+01 0.  1.
        -11    1    1    2    0    0  0.20513286375E+02  0.30534007925E+02 -0.86321044302E+02  0.93831994796E+02  0.00000000000E+00 0. -1.
         11    1    1    2    0    0 -0.25494786337E+02 -0.21327925149E+02 -0.39526169099E+00  0.33241852435E+02  0.00000000000E+00 0.  1.
</event>
<event>
 7    1  0.2612213E-009  0.1309191E+03  0.7561462E-02  0.1226098E+00
          1   -1    0    0  501    0  0.00000000000E+00  0.00000000000E+00  0.16887727690E+03  0.16887727690E+03  0.00000000000E+00 0. -1.
         -1   -1    0    0    0  501 -0.00000000000E+00 -0.00000000000E+00 -0.21369927932E+03  0.21369927932E+03  0.00000000000E+00 0.  1.
         25    2    1    2    0    0  0.81176779272E+02  0.36910923035E+01  0.10997238358E+03  0.18532192587E+03  0.12508795866E+03 0.  0.
          5    1    3    3  502    0 -0.50634888440E+01 -0.42725202791E+02  0.63550581567E+02  0.76858510852E+02  0.41800000000E+01 0.  1.
         -5    1    3    3    0  502  0.86240268116E+02  0.46416295095E+02  0.46421802010E+02  0.10846341502E+03  0.41800000000E+01 0.  1.
        -11    1    1    2    0    0 -0.10017753175E+03 -0.97250613982E+01 -0.11555866040E+03  0.15324463671E+03  0.00000000000E+00 0. -1.
         11    1    1    2    0    0  0.19000752475E+02  0.60339690948E+01 -0.39235725596E+02  0.44009993646E+02  0.00000000000E+00 0.  1.
</event>
<event>
 7    1  0.2612213E-009  0.4879610E+02  0.7561462E-02  0.1451945E+00
          2   -1    0    0  501    0  0.00000000000E+00  0.00000000000E+00  0.14984011700E+03  0.14984011700E+03  0.00000000000E+00 0. -1.
         -2   -1    0    0    0  501 -0.00000000000E+00 -0.00000000000E+00 -0.54825839531E+02  0.54825839531E+02  0.00000000000E+00 0.  1.
         25    2    1    2    0    0  0.72452641599E+01 -0.11449760809E+02  0.43546779572E+02  0.13313818908E+03  0.12508343017E+03 0.  0.
          5    1    3    3  502    0  0.85211544063E+00  0.22079337968E+02 -0.38270244352E+02  0.44388143333E+02  0.41800000000E+01 0.  1.
         -5    1    3    3    0  502  0.63931487192E+01 -0.33529098777E+02  0.81817023924E+02  0.88750045742E+02  0.41800000000E+01 0.  1.
        -11    1    1    2    0    0  0.48611203795E+01  0.23284402760E+02  0.48934510364E+02  0.54409376102E+02  0.00000000000E+00 0. -1.
         11    1    1    2    0    0 -0.12106384539E+02 -0.11834641951E+02  0.25329875338E+01  0.17118391354E+02  0.00000000000E+00 0.  1.
</event>
<event>
 7    1  0.2612213E-009  0.1135364E+03  0.7561462E-02  0.1254158E+00
          2   -1    0    0  501    0  0.00000000000E+00  0.00000000000E+00  0.51948976233E+03  0.51948976233E+03  0.00000000000E+00 0. -1.
         -2   -1    0    0    0  501 -0.00000000000E+00 -0.00000000000E+00 -0.35924302662E+02  0.35924302662E+02  0.00000000000E+00 0.  1.
         25    2    1    2    0    0 -0.40724633097E+01 -0.78287982368E+02  0.32726295389E+03  0.35901873409E+03  0.12509123591E+03 0.  0.
          5    1    3    3  502    0  0.48124781388E+02 -0.49164348690E+02  0.84881944490E+02  0.10934141332E+03  0.41800000000E+01 0. -1.
         -5    1    3    3    0  502 -0.52197244697E+02 -0.29123633677E+02  0.24238100940E+03  0.24967732078E+03  0.41800000000E+01 0. -1.
        -11    1    1    2    0    0  0.31691854574E+02  0.40591362456E+02  0.25439773211E+02  0.57438788405E+02  0.00000000000E+00 0.  1.
         11    1    1    2    0    0 -0.27619391264E+02  0.37696619912E+02  0.13086273257E+03  0.13895654249E+03  0.00000000000E+00 0. -1.
</event>
<event>
 7    1  0.2612213E-009  0.6581415E+02  0.7561462E-02  0.1374935E+00
          2   -1    0    0  501    0  0.00000000000E+00  0.00000000000E+00  0.30612340545E+03  0.30612340545E+03  0.00000000000E+00 0. -1.
         -2   -1    0    0    0  501 -0.00000000000E+00 -0.00000000000E+00 -0.44315729573E+02  0.44315729573E+02  0.00000000000E+00 0.  1.
         25    2    1    2    0    0 -0.16342992448E+01  0.33335499791E+02  0.19112115991E+03  0.23084332335E+03  0.12508963063E+03 0.  0.
          5    1    3    3  502    0 -0.21536607657E+02  0.13587804570E+02  0.19959554749E+03  0.20125682319E+03  0.41800000000E+01 0. -1.
         -5    1    3    3    0  502  0.19902308412E+02  0.19747695220E+02 -0.84743875846E+01  0.29586500158E+02  0.41800000000E+01 0. -1.
        -11    1    1    2    0    0  0.35425710227E+02 -0.11509054923E+02  0.70079671412E+02  0.79363717375E+02  0.00000000000E+00 0. -1.
         11    1    1    2    0    0 -0.33791410982E+02 -0.21826444868E+02  0.60684456142E+00  0.40232094304E+02  0.00000000000E+00 0.  1.
</event>
<event>
 7    1  0.2612213E-009  0.2255196E+03  0.7561462E-02  0.1129834E+00
         -2   -1    0    0    0  501 -0.00000000000E+00  0.00000000000E+00  0.69383910194E+02  0.69383910194E+02  0.00000000000E+00 0.  1.
          2   -1    0    0  501    0  0.00000000000E+00 -0.00000000000E+00 -0.80149429853E+03  0.80149429853E+03  0.00000000000E+00 0. -1.
         25    2    1    2    0    0 -0.18845423801E+03  0.60655455320E+02 -0.25713631289E+03  0.34779308763E+03  0.12508742667E+03 0.  0.
          5    1    3    3  502    0  0.13838685240E+02 -0.10312739596E+02 -0.92003504997E+01  0.19999516406E+02  0.41800000000E+01 0.  1.
         -5    1    3    3    0  502 -0.20229292325E+03  0.70968194916E+02 -0.24793596239E+03  0.32779357122E+03  0.41800000000E+01 0.  1.
        -11    1    1    2    0    0  0.46239354219E+02 -0.61125802023E+02 -0.15415347392E+03  0.17215613574E+03  0.00000000000E+00 0. -1.
         11    1    1    2    0    0  0.14221488379E+03  0.47034670286E+00 -0.32082060152E+03  0.35092898535E+03  0.00000000000E+00 0.  1.
</event>
<event>
 7    1  0.2612213E-009  0.1611927E+03  0.7561462E-02  0.1187357E+00
         -2   -1    0    0    0  501 -0.00000000000E+00  0.00000000000E+00  0.33135104358E+03  0.33135104358E+03  0.00000000000E+00 0.  1.
          2   -1    0    0  501    0  0.00000000000E+00 -0.00000000000E+00 -0.14222344115E+03  0.14222344115E+03  0.00000000000E+00 0. -1.
         25    2    1    2    0    0 -0.12380894956E+03  0.82269601681E+02  0.22476377145E+03  0.29709594357E+03  0.12510117257E+03 0.  0.
          5    1    3    3  502    0 -0.95089801863E+02  0.82542712670E+02  0.79527417887E+02  0.14898809492E+03  0.41800000000E+01 0.  1.
         -5    1    3    3    0  502 -0.28719147695E+02 -0.27311098884E+00  0.14523635357E+03  0.14810784865E+03  0.41800000000E+01 0.  1.
        -11    1    1    2    0    0 -0.72910371705E+01 -0.21826711915E+02  0.99761109279E+01  0.25081614089E+02  0.00000000000E+00 0.  1.
         11    1    1    2    0    0  0.13109998673E+03 -0.60442889766E+02 -0.45612279959E+02  0.15139692707E+03  0.00000000000E+00 0. -1.
</event>
<event>
 7    1  0.2612213E-009  0.9664128E+02  0.7561462E-02  0.1287522E+00
          2   -1    0    0  501    0  0.00000000000E+00  0.00000000000E+00  0.51949524202E+02  0.51949524202E+02  0.00000000000E+00 0. -1.
         -2   -1    0    0    0  501 -0.00000000000E+00 -0.00000000000E+00 -0.42827276338E+03  0.42827276338E+03  0.00000000000E+00 0.  1.
         25    2    1    2    0    0 -0.45634265279E+02 -0.21633987187E+02 -0.34744632474E+03  0.37271546278E+03  0.12508937626E+03 0.  0.
          5    1    3    3  502    0 -0.80038267197E+02 -0.14528892182E+02 -0.13754815199E+03  0.15985674662E+03  0.41800000000E+01 0.  1.
         -5    1    3    3    0  502  0.34404001919E+02 -0.71050950050E+01 -0.20989817274E+03  0.21285871616E+03  0.41800000000E+01 0.  1.
        -11    1    1    2    0    0 -0.95726718291E+01  0.18888833078E+02  0.23307028420E+02  0.31490341928E+02  0.00000000000E+00 0. -1.
         11    1    1    2    0    0  0.55206937108E+02  0.27451541094E+01 -0.52183942858E+02  0.76016482871E+02  0.00000000000E+00 0.  1.
</event>
<event>
 7    1  0.2612213E-009  0.1207959E+03  0.7561462E-02  0.1241790E+00
          2   -1    0    0  501    0  0.00000000000E+00  0.00000000000E+00  0.45713134689E+03  0.45713134689E+03  0.00000000000E+00 0.  1.
         -2   -1    0    0    0  501 -0.00000000000E+00 -0.00000000000E+00 -0.37503951099E+02  0.37503951099E+02  0.00000000000E+00 0. -1.
         25    2    1    2    0    0  0.58677535905E+02 -0.21476635396E+02  0.16110277397E+03  0.21332267480E+03  0.12509260855E+03 0.  0.
          5    1    3    3  502    0 -0.29521286449E+02 -0.39717538696E+02  0.56416408250E+02  0.75161644164E+02  0.41800000000E+01 0.  1.
         -5    1    3    3    0  502  0.88198822354E+02  0.18240903300E+02  0.10468636572E+03  0.13816103064E+03  0.41800000000E+01 0.  1.
        -11    1    1    2    0    0  0.10573976013E+02  0.30171486735E+02  0.14139880672E+03  0.14496810036E+03  0.00000000000E+00 0. -1.
         11    1    1    2    0    0 -0.69251511918E+02 -0.86948513392E+01  0.11712581509E+03  0.13634452282E+03  0.00000000000E+00 0.  1.
</event>
<event>
 7    1  0.2612213E-009  0.6786821E+02  0.7561462E-02  0.1367496E+00
          2   -1    0    0  501    0  0.00000000000E+00  0.00000000000E+00  0.47171220172E+03  0.47171220172E+03  0.00000000000E+00 0. -1.
         -2   -1    0    0    0  501 -0.00000000000E+00 -0.00000000000E+00 -0.41238014887E+02  0.41238014887E+02  0.00000000000E+00 0.  1.
         25    2    1    2    0    0  0.38195082602E+02 -0.34480096174E+02  0.10616890719E+03  0.17195297887E+03  0.12509296031E+03 0.  0.
          5    1    3    3  502    0  0.16895218283E+02 -0.21851055450E+02 -0.25552411807E+02  0.37859149149E+02  0.41800000000E+01 0. -1.
         -5    1    3    3    0  502  0.21299864319E+02 -0.12629040724E+02  0.13172131900E+03  0.13409382972E+03  0.41800000000E+01 0. -1.
        -11    1    1    2    0    0  0.18388690596E+02  0.60110422170E+01  0.12988532112E+02  0.23301899854E+02  0.00000000000E+00 0.  1.
         11    1    1    2    0    0 -0.56583773198E+02  0.28469053957E+02  0.31131674752E+03  0.31769533788E+03  0.00000000000E+00 0. -1.
</event>
<event>
 7    1  0.2612213E-009  0.1007914E+03  0.7561462E-02  0.1278640E+00
          1   -1    0    0  501    0  0.00000000000E+00  0.00000000000E+00  0.13504262851E+04  0.13504262851E+04  0.00000000000E+00 0. -1.
         -1   -1    0    0    0  501 -0.00000000000E+00 -0.00000000000E+00 -0.98649619886E+01  0.98649619886E+01  0.00000000000E+00 0.  1.
         25    2    1    2    0    0  0.13530308315E+02 -0.44792115473E+01  0.10301705694E+04  0.10378354550E+04  0.12509155480E+03 0.  0.
          5    1    3    3  502    0  0.17552059940E+02  0.53781622174E+02  0.29964709087E+03  0.30496948890E+03  0.41800000000E+01 0. -1.
         -5    1    3    3    0  502 -0.40217516247E+01 -0.58260833721E+02  0.73052347849E+03  0.73286596609E+03  0.41800000000E+01 0. -1.
        -11    1    1    2    0    0 -0.36974116733E+02  0.32880336218E+02  0.20232446677E+03  0.20828680148E+03  0.00000000000E+00 0.  1.
         11    1    1    2    0    0  0.23443808418E+02 -0.28401124671E+02  0.10806628694E+03  0.11416899058E+03  0.00000000000E+00 0. -1.
</event>
<event>
 6    1  0.2612213E-009  0.1105630E+03  0.7561462E-02  0.1259531E+00
         -1   -1    0    0    0  501 -0.00000000000E+00  0.00000000000E+00  0.23894119180E+02  0.23894119180E+02  0.00000000000E+00 0. -1.
          1   -1    0    0  501    0  0.00000000000E+00 -0.00000000000E+00 -0.94845112318E+03  0.94845112318E+03  0.00000000000E+00 0.  1.
          5    1    1    2  502    0 -0.24948313560E+02 -0.94586430240E+01 -0.27155851966E+03  0.27289812436E+03  0.41800000000E+01 0.  1.
         -5    1    1    2    0  502 -0.28835024703E+02 -0.60610587390E+02 -0.51873045075E+02  0.84931661698E+02  0.41800000000E+01 0.  1.
        -11    1    1    2    0    0 -0.24944274237E+02  0.28382865829E+02 -0.21010992407E+03  0.21348064100E+03  0.00000000000E+00 0.  1.
         11    1    1    2    0    0  0.78727612500E+02  0.41686364586E+02 -0.39101551519E+03  0.40103481530E+03  0.00000000000E+00 0. -1.
</event>
<event>
 7    1  0.2612213E-009  0.7092249E+02  0.7561462E-02  0.1356984E+00
          1   -1    0    0  501    0  0.00000000000E+00  0.00000000000E+00  0.34422455288E+03  0.34422455288E+03  0.00000000000E+00 0. -1.
         -1   -1    0    0    0  501 -0.00000000000E+00 -0.00000000000E+00 -0.39714750996E+02  0.39714750996E+02  0.00000000000E+00 0.  1.
         25    2    1    2    0    0  0.33988043650E+01  0.48424689818E+01  0.25498988569E+03  0.28408023752E+03  0.12508692247E+03 0.  0.
          5    1    3    3  502    0 -0.35762634323E+02 -0.15126292189E+02  0.23010146017E+03  0.23339221303E+03  0.41800000000E+01 0.  1.
         -5    1    3    3    0  502  0.39161438688E+02  0.19968761171E+02  0.24888425517E+02  0.50688024498E+02  0.41800000000E+01 0.  1.
        -11    1    1    2    0    0  0.86628994067E+01  0.24993250385E+02 -0.13051703785E+02  0.29496700877E+02  0.00000000000E+00 0.  1.
         11    1    1    2    0    0 -0.12061703772E+02 -0.29835719366E+02  0.62571619978E+02  0.70362365471E+02  0.00000000000E+00 0. -1.
</event>
<event>
 7    1  0.2612213E-009  0.1304267E+03  0.7561462E-02  0.1226824E+00
          1   -1    0    0  501    0  0.00000000000E+00  0.00000000000E+00  0.10180037221E+03  0.10180037221E+03  0.00000000000E+00 0. -1.
         -1   -1    0    0    0  501 -0.00000000000E+00 -0.00000000000E+00 -0.24884866600E+03  0.24884866600E+03  0.00000000000E+00 0.  1.
         25    2    1    2    0    0 -0.69210868605E+02  0.90499051795E+02 -0.10490219448E+03  0.19907842786E+03  0.12509007685E+03 0.  0.
          5    1    3    3  502    0 -0.27195166116E+02 -0.13327284276E+02 -0.78048977963E+02  0.83823081113E+02  0.41800000000E+01 0. -1.
         -5    1    3    3    0  502 -0.42015702488E+02  0.10382633607E+03 -0.26853216514E+02  0.11525534675E+03  0.41800000000E+01 0. -1.
        -11    1    1    2    0    0  0.20972885012E+02 -0.76423058144E+01  0.25757734476E+02  0.34084125766E+02  0.00000000000E+00 0. -1.
         11    1    1    2    0    0  0.48237983593E+02 -0.82856745981E+02 -0.67903833785E+02  0.11748648458E+03  0.00000000000E+00 0.  1.
</event>
<event>
 7    1  0.2612213E-009  0.1488584E+03  0.7561462E-02  0.1201883E+00
          1   -1    0    0  501    0  0.00000000000E+00  0.00000000000E+00  0.54376266285E+02  0.54376266285E+02  0.00000000000E+00 0. -1.
         -1   -1    0    0    0  501 -0.00000000000E+00 -0.00000000000E+00 -0.50550790253E+03  0.50550790253E+03  0.00000000000E+00 0.  1.
         25    2    1    2    0    0 -0.75963077961E+02 -0.98565087470E+02 -0.24073991621E+03  0.29847496663E+03  0.12508450250E+03 0.  0.
          5    1    3    3  502    0 -0.90697282431E+02 -0.11501223691E+03 -0.23192013262E+03  0.27433233859E+03  0.41800000000E+01 0. -1.
         -5    1    3    3    0  502  0.14734204470E+02  0.16447149441E+02 -0.88197835877E+01  0.24142628039E+02  0.41800000000E+01 0. -1.
        -11    1    1    2    0    0  0.29823377645E+02  0.15303046280E+02 -0.13746696694E+03  0.14149481997E+03  0.00000000000E+00 0.  1.
         11    1    1    2    0    0  0.46139700316E+02  0.83262041189E+02 -0.72924753098E+02  0.11991438222E+03  0.00000000000E+00 0. -1.
</event>
<event>
 6    1  0.2612213E-009  0.1177877E+03  0.7561462E-02  0.1246792E+00
          2   -1    0    0  501    0  0.00000000000E+00  0.00000000000E+00  0.63989344112E+02  0.63989344112E+02  0.00000000000E+00 0. -1.
         -2   -1    0    0    0  501 -0.00000000000E+00 -0.00000000000E+00 -0.28485380859E+03  0.28485380859E+03  0.00000000000E+00 0.  1.
          5    1    1    2  502    0  0.22591433432E+02 -0.71168524333E+02 -0.13681997142E+03  0.15592468919E+03  0.41800000000E+01 0. -1.
         -5    1    1    2    0  502  0.39147825082E+02  0.21332447021E+02  0.18673910312E+01  0.44817240587E+02  0.41800000000E+01 0. -1.
        -11    1    1    2    0    0 -0.47173741128E+02  0.74023670230E+02 -0.45684762941E+02  0.98954348926E+02  0.00000000000E+00 0. -1.
         11    1    1    2    0    0 -0.14565517386E+02 -0.24187592918E+02 -0.40227121149E+02  0.49146873998E+02  0.00000000000E+00 0.  1.
</event>
<event>
 7    1  0.2612213E-009  0.8113627E+02  0.7561462E-02  0.1325857E+00
         -1   -1    0    0    0  501 -0.00000000000E+00  0.00000000000E+00  0.19523430970E+03  0.19523430970E+03  0.00000000000E+00 0.  1.
          1   -1    0    0  501    0  0.00000000000E+00 -0.00000000000E+00 -0.13172785627E+03  0.13172785627E+03  0.00000000000E+00 0. -1.
         25    2    1    2    0    0  0.37002780957E+02 -0.52976865083E+02  0.13485211070E+03  0.19495762127E+03  0.12509048044E+03 0.  0.
          5    1    3    3  502    0  0.47878555321E+01 -0.39650357622E+02  0.15104465886E+03  0.15629150901E+03  0.41800000000E+01 0.  1.
         -5    1    3    3    0  502  0.32214925425E+02 -0.13326507462E+02 -0.16192548154E+02  0.38666112256E+02  0.41800000000E+01 0.  1.
        -11    1    1    2    0    0 -0.38346829519E+02  0.46153474257E+01 -0.74083162763E+02  0.83546967455E+02  0.00000000000E+00 0.  1.
         11    1    1    2    0    0  0.13440485614E+01  0.48361517658E+02  0.27375054920E+01  0.48457577251E+02  0.00000000000E+00 0. -1.
</event>
<event>
 7    1  0.2612213E-009  0.9631791E+02  0.7561462E-02  0.1288235E+00
         -2   -1    0    0    0  501 -0.00000000000E+00  0.00000000000E+00  0.55863659168E+03  0.55863659168E+03  0.00000000000E+00 0.  1.
          2   -1    0    0  501    0  0.00000000000E+00 -0.00000000000E+00 -0.23879195614E+02  0.23879195614E+02  0.00000000000E+00 0. -1.
         25    2    1    2    0    0  0.13971599744E+02  0.65251519038E+01  0.17714112060E+03  0.21740415910E+03  0.12509120104E+03 0.  0.
          5    1    3    3  502    0 -0.56988966919E+01  0.60955341271E+02  0.12561746198E+03  0.13980432828E+03  0.41800000000E+01 0. -1.
         -5    1    3    3    0  502  0.19670496436E+02 -0.54430189368E+02  0.51523658622E+02  0.77599830814E+02  0.41800000000E+01 0. -1.
        -11    1    1    2    0    0 -0.33830401271E+02 -0.28059438034E+02  0.19669810119E+03  0.20154892986E+03  0.00000000000E+00 0. -1.
         11    1    1    2    0    0  0.19858801528E+02  0.21534286130E+02  0.16091817428E+03  0.16356269834E+03  0.00000000000E+00 0.  1.
</event>
<event>
 7    1  0.2612213E-009  0.1676927E+03  0.7561462E-02  0.1180276E+00
          2   -1    0    0  501    0  0.00000000000E+00  0.00000000000E+00  0.23973921484E+03  0.23973921484E+03  0.00000000000E+00 0. -1.
         -2   -1    0    0    0  501 -0.00000000000E+00 -0.00000000000E+00 -0.21545612411E+03  0.21545612411E+03  0.00000000000E+00 0.  1.
         25    2    1    2    0    0 -0.12765610147E+03 -0.25720994453E+02 -0.13695575523E+03  0.22663406760E+03  0.12509385240E+03 0.  0.
          5    1    3    3  502    0  0.21739267770E+02 -0.14798640471E+02 -0.40338047621E+02  0.48334521916E+02  0.41800000000E+01 0.  1.
         -5    1    3    3    0  502 -0.14939536924E+03 -0.10922353982E+02 -0.96617707612E+02  0.17829954568E+03  0.41800000000E+01 0.  1.
        -11    1    1    2    0    0  0.10346104903E+03  0.57965146003E+02  0.99385003451E+02  0.15473049385E+03  0.00000000000E+00 0.  1.
         11    1    1    2    0    0  0.24195052443E+02 -0.32244151550E+02  0.61853842514E+02  0.73830777496E+02  0.00000000000E+00 0. -1.
</event>
<event>
 7    1  0.2612213E-009  0.2755108E+03  0.7561462E-02  0.1098166E+00
          1   -1    0    0  501    0  0.00000000000E+00  0.00000000000E+00  0.39895412219E+03  0.39895412219E+03  0.00000000000E+00 0. -1.
         -1   -1    0    0    0  501 -0.00000000000E+00 -0.00000000000E+00 -0.19778438429E+03  0.19778438429E+03  0.00000000000E+00 0.  1.
         25    2    1    2    0    0 -0.49838794425E+01 -0.25834706675E+03  0.12532302783E+03  0.31324846716E+03  0.12510273747E+03 0.  0.
          5    1    3    3  502    0  0.18236771624E+02  0.53124957374E+00  0.31964111623E+02  0.37041043415E+02  0.41800000000E+01 0. -1.
         -5    1    3    3    0  502 -0.23220651066E+02 -0.25887831632E+03  0.93358916206E+02  0.27620742375E+03  0.41800000000E+01 0. -1.
        -11    1    1    2    0    0 -0.40201959810E+02  0.14056414284E+03  0.29871767788E+02  0.14922063643E+03  0.00000000000E+00 0. -1.
         11    1    1    2    0    0  0.45185839252E+02  0.11778292390E+03  0.45974942282E+02  0.13426940288E+03  0.00000000000E+00 0.  1.
</event>
<event>
 7    1  0.2612213E-009  0.1045197E+03  0.7561462E-02  0.1271069E+00
         -2   -1    0    0    0  501 -0.00000000000E+00  0.00000000000E+00  0.17735331811E+03  0.17735331811E+03  0.00000000000E+00 0.  1.
          2   -1    0    0  501    0  0.00000000000E+00 -0.00000000000E+00 -0.94270271826E+02  0.94270271826E+02  0.00000000000E+00 0. -1.
         25    2    1    2    0    0 -0.56314533660E+02 -0.33309734130E+02  0.78930800502E+02  0.16173473890E+03  0.12508872616E+03 0.  0.
          5    1    3    3  502    0 -0.52177638288E+02 -0.70823239683E+02  0.17919588922E+02  0.89872249797E+02  0.41800000000E+01 0.  1.
         -5    1    3    3    0  502 -0.41368953725E+01  0.37513505553E+02  0.61011211580E+02  0.71862489108E+02  0.41800000000E+01 0.  1.
        -11    1    1    2    0    0  0.43045759628E+02  0.47138203361E+02  0.35577986783E+02  0.73080372068E+02  0.00000000000E+00 0.  1.
         11    1    1    2    0    0  0.13268774033E+02 -0.13828469231E+02 -0.31425741005E+02  0.36808478960E+02  0.00000000000E+00 0. -1.
</event>
<event>
 7    1  0.2612213E-009  0.9234990E+02  0.7561462E-02  0.1297259E+00
         -2   -1    0    0    0  501 -0.00000000000E+00  0.00000000000E+00  0.17763439220E+03  0.17763439220E+03  0.00000000000E+00 0.  1.
          2   -1    0    0  501    0  0.00000000000E+00 -0.00000000000E+00 -0.85664479509E+02  0.85664479509E+02  0.00000000000E+00 0. -1.
         25    2    1    2    0    0  0.19003416928E+02 -0.40301851946E+00  0.10837937012E+03  0.16659889704E+03  0.12509121612E+03 0.  0.
          5    1    3    3  502    0 -0.95278376064E+01  0.47654427027E+02  0.50354997430E+01  0.49036239276E+02  0.41800000000E+01 0. -1.
         -5    1    3    3    0  502  0.28531254534E+02 -0.48057445546E+02  0.10334387037E+03  0.11756265777E+03  0.41800000000E+01 0. -1.
        -11    1    1    2    0    0  0.25935810952E+02  0.18049448292E+02  0.18960584253E+02  0.36850408798E+02  0.00000000000E+00 0.  1.
         11    1    1    2    0    0 -0.44939227880E+02 -0.17646429773E+02 -0.35370041678E+02  0.59849565867E+02  0.00000000000E+00 0. -1.
</event>
<event>
 7    1  0.2612213E-009  0.1433811E+03  0.7561462E-02  0.1208850E+00
         -3   -1    0    0    0  501 -0.00000000000E+00  0.00000000000E+00  0.60181614120E+02  0.60181614120E+02  0.00000000000E+00 0.  1.
          3   -1    0    0  501    0  0.00000000000E+00 -0.00000000000E+00 -0.47874861816E+03  0.47874861816E+03  0.00000000000E+00 0. -1.
         25    2    1    2    0    0 -0.85256995693E+02  0.97838388667E+02 -0.20530960113E+03  0.27320070645E+03  0.12508192545E+03 0.  0.
          5    1    3    3  502    0 -0.97702508480E+01 -0.89577554348E+00 -0.12436671330E+03  0.12482312283E+03  0.41800000000E+01 0.  1.
         -5    1    3    3    0  502 -0.75486744845E+02  0.98734164210E+02 -0.80942887826E+02  0.14837758361E+03  0.41800000000E+01 0.  1.
        -11    1    1    2    0    0 -0.14830856877E+02 -0.20266701254E+02 -0.70828571776E+02  0.75149052391E+02  0.00000000000E+00 0. -1.
         11    1    1    2    0    0  0.10008785257E+03 -0.77571687413E+02 -0.14242883114E+03  0.19058047345E+03  0.00000000000E+00 0.  1.
</event>
<event>
 7    1  0.2612213E-009  0.1511213E+03  0.7561462E-02  0.1199102E+00
         -1   -1    0    0    0  501 -0.00000000000E+00  0.00000000000E+00  0.23875183171E+02  0.23875183171E+02  0.00000000000E+00 0.  1.
          1   -1    0    0  501    0  0.00000000000E+00 -0.00000000000E+00 -0.10601561424E+04  0.10601561424E+04  0.00000000000E+00 0. -1.
         25    2    1    2    0    0  0.11031763898E+03 -0.24828556387E+02 -0.67699590278E+03  0.69767984831E+03  0.12508908697E+03 0.  0.
          5    1    3    3  502    0  0.64506059181E+01 -0.54537720984E+02 -0.15208225156E+03  0.16174812817E+03  0.41800000000E+01 0.  1.
         -5    1    3    3    0  502  0.10386703306E+03  0.29709164597E+02 -0.52491365122E+03  0.53593172015E+03  0.41800000000E+01 0.  1.
        -11    1    1    2    0    0  0.12767117791E+02  0.73540644191E+01 -0.18834233665E+02  0.23912547290E+02  0.00000000000E+00 0. -1.
         11    1    1    2    0    0 -0.12308475677E+03  0.17474491968E+02 -0.34045082273E+03  0.36243892992E+03  0.00000000000E+00 0.  1.
</event>
<event>
 7    1  0.2612213E-009  0.9805051E+02  0.7561462E-02  0.1284450E+00
         -2   -1    0    0    0  501 -0.00000000000E+00  0.00000000000E+00  0.87919908014E+02  0.87919908014E+02  0.00000000000E+00 0.  1.
          2   -1    0    0  501    0  0.00000000000E+00 -0.00000000000E+00 -0.14722320411E+03  0.14722320411E+03  0.00000000000E+00 0. -1.
         25    2    1    2    0    0 -0.15363952990E+02  0.25307287914E+02 -0.40938169809E+02  0.13490819330E+03  0.12509107482E+03 0.  0.
          5    1    3    3  502    0  0.16727532720E+02  0.68456581309E+02 -0.64520679535E+01  0.70888754089E+02  0.41800000000E+01 0.  1.
         -5    1    3    3    0  502 -0.32091485710E+02 -0.43149293394E+02 -0.34486101856E+02  0.64019439210E+02  0.41800000000E+01 0.  1.
        -11    1    1    2    0    0 -0.14524308839E+02 -0.36788552453E+02  0.24655585541E+02  0.46607413973E+02  0.00000000000E+00 0.  1.
         11    1    1    2    0    0  0.29888261829E+02  0.11481264539E+02 -0.43020711825E+02  0.53627504851E+02  0.00000000000E+00 0. -1.
</event>
<event>
 7    1  0.2612213E-009  0.7823341E+02  0.7561462E-02  0.1334141E+00
          2   -1    0    0  501    0  0.00000000000E+00  0.00000000000E+00  0.39019183330E+02  0.39019183330E+02  0.00000000000E+00 0.  1.
         -2   -1    0    0    0  501 -0.00000000000E+00 -0.00000000000E+00 -0.32041621910E+03  0.32041621910E+03  0.00000000000E+00 0. -1.
         25    2    1    2    0    0 -0.68641778807E+01 -0.10385610850E+02 -0.20428558048E+03  0.23986441162E+03  0.12508940691E+03 0.  0.
          5    1    3    3  502    0 -0.51774644261E+01  0.44434701658E+02 -0.16815492510E+03  0.17405401485E+03  0.41800000000E+01 0.  1.
         -5    1    3    3    0  502 -0.16867134546E+01 -0.54820312508E+02 -0.36130655378E+02  0.65810396776E+02  0.41800000000E+01 0.  1.
        -11    1    1    2    0    0  0.22734780801E+02  0.25813475155E+02  0.47916377092E+01  0.34729894178E+02  0.00000000000E+00 0.  1.
         11    1    1    2    0    0 -0.15870602921E+02 -0.15427864305E+02 -0.81903092998E+02  0.84841096626E+02  0.00000000000E+00 0. -1.
</event>
<event>
 7    1  0.2612213E-009  0.7961917E+02  0.7561462E-02  0.1330136E+00
         -4   -1    0    0    0  501 -0.00000000000E+00  0.00000000000E+00  0.15396233317E+03  0.15396233317E+03  0.00000000000E+00 0.  1.
          4   -1    0    0  501    0  0.00000000000E+00 -0.00000000000E+00 -0.83541524198E+02  0.83541524198E+02  0.00000000000E+00 0. -1.
         25    2    1    2    0    0 -0.24678070860E+02 -0.21475605034E+02  0.46348416125E+02  0.13734967229E+03  0.12508616233E+03 0.  0.
          5    1    3    3  502    0  0.28832616398E+02  0.19485707046E+01  0.68714901267E+02  0.74661414079E+02  0.41800000000E+01 0.  1.
         -5    1    3    3    0  502 -0.53510687257E+02 -0.23424175738E+02 -0.22366485142E+02  0.62688258210E+02  0.41800000000E+01 0.  1.
        -11    1    1    2    0    0 -0.18378818784E+02  0.21676786650E+02 -0.22852921461E+02  0.36468069302E+02  0.00000000000E+00 0. -1.
         11    1    1    2    0    0  0.43056889643E+02 -0.20118161626E+00  0.46925314304E+02  0.63686115774E+02  0.00000000000E+00 0.  1.
</event>
<event>
 7    1  0.2612213E-009  0.1090830E+03  0.7561462E-02  0.1262277E+00
          2   -1    0    0  501    0  0.00000000000E+00  0.00000000000E+00  0.34125329802E+03  0.34125329802E+03  0.00000000000E+00 0. -1.
         -2   -1    0    0    0  501 -0.00000000000E+00 -0.00000000000E+00 -0.39831078091E+02  0.39831078091E+02  0.00000000000E+00 0.  1.
         25    2    1    2    0    0  0.28579362429E+02  0.28769959442E+02  0.19368558826E+03  0.23410250617E+03  0.12508151650E+03 0.  0.
          5    1    3    3  502    0 -0.33580953383E+02  0.44362542025E+02  0.43458707039E+02  0.70723738465E+02  0.41800000000E+01 0. -1.
         -5    1    3    3    0  502  0.62160315812E+02 -0.15592582583E+02  0.15022688122E+03  0.16337876770E+03  0.41800000000E+01 0. -1.
        -11    1    1    2    0    0  0.29694997448E+02 -0.26546488967E+02  0.57863827524E+02  0.70247643987E+02  0.00000000000E+00 0. -1.
         11    1    1    2    0    0 -0.58274359877E+02 -0.22234704747E+01  0.49872804140E+02  0.76734225954E+02  0.00000000000E+00 0.  1.
</event>
<event>
 7    1  0.2612213E-009  0.1246638E+03  0.7561462E-02  0.1235596E+00
         -2   -1    0    0    0  501 -0.00000000000E+00  0.00000000000E+00  0.11669325435E+03  0.11669325435E+03  0.00000000000E+00 0.  1.
          2   -1    0    0  501    0  0.00000000000E+00 -0.00000000000E+00 -0.18935808686E+03  0.18935808686E+03  0.00000000000E+00 0. -1.
         25    2    1    2    0    0 -0.80167714876E+02  0.58303341190E+02 -0.15781359731E+02  0.16038256660E+03  0.12508946499E+03 0.  0.
          5    1    3    3  502    0 -0.50941840595E+02 -0.28824434790E+01 -0.60344536509E+02  0.79134790643E+02  0.41800000000E+01 0. -1.
         -5    1    3    3    0  502 -0.29225874282E+02  0.61185784669E+02  0.44563176778E+02  0.81247775955E+02  0.41800000000E+01 0. -1.
        -11    1    1    2    0    0  0.97896386841E+02 -0.54574554579E+02 -0.35339590411E+02  0.11752008856E+03  0.00000000000E+00 0.  1.
         11    1    1    2    0    0 -0.17728671964E+02 -0.37287866102E+01 -0.21543882362E+02  0.28148686052E+02  0.00000000000E+00 0. -1.
</event>
<event>
 7    1  0.2612213E-009  0.1154214E+03  0.7561462E-02  0.1250847E+00
         -4   -1    0    0    0  501 -0.00000000000E+00  0.00000000000E+00  0.24671037576E+03  0.24671037576E+03  0.00000000000E+00 0.  1.
          4   -1    0    0  501    0  0.00000000000E+00 -0.00000000000E+00 -0.89500534491E+02  0.89500534491E+02  0.00000000000E+00 0. -1.
         25    2    1    2    0    0  0.11852139929E+02  0.76940216574E+02  0.11571249374E+02  0.14778831783E+03  0.12508886012E+03 0.  0.
          5    1    3    3  502    0  0.56425774560E+02 -0.11681782046E+01 -0.25938892856E+01  0.56651860840E+02  0.41800000000E+01 0.  1.
         -5    1    3    3    0  502 -0.44573634630E+02  0.78108394778E+02  0.14165138660E+02  0.91136456988E+02  0.41800000000E+01 0.  1.
        -11    1    1    2    0    0 -0.22580076072E+02 -0.42183437537E+02  0.14429736104E+03  0.15202312535E+03  0.00000000000E+00 0.  1.
         11    1    1    2    0    0  0.10727936143E+02 -0.34756779036E+02  0.13412308528E+01  0.36399467071E+02  0.00000000000E+00 0. -1.
</event>
<event>
 7    1  0.2612213E-009  0.2371626E+03  0.7561462E-02  0.1121698E+00
         -1   -1    0    0    0  501 -0.00000000000E+00  0.00000000000E+00  0.82954054526E+02  0.82954054526E+02  0.00000000000E+00 0.  1.
          1   -1    0    0  501    0  0.00000000000E+00 -0.00000000000E+00 -0.10830974844E+04  0.10830974844E+04  0.00000000000E+00 0. -1.
         25    2    1    2    0    0  0.21626476890E+03  0.29917375209E+02 -0.85510209070E+03  0.89135416501E+03  0.12508861799E+03 0.  0.
          5    1    3    3  502    0  0.87254152226E+02  0.68097604231E+02 -0.28975031153E+03  0.31019878500E+03  0.41800000000E+01 0.  1.
         -5    1    3    3    0  502  0.12901061668E+03 -0.38180229022E+02 -0.56535177917E+03  0.58115538001E+03  0.41800000000E+01 0.  1.
        -11    1    1    2    0    0 -0.17023689275E+03 -0.51868084448E+02 -0.13334900840E+03  0.22237998084E+03  0.00000000000E+00 0. -1.
         11    1    1    2    0    0 -0.46027876151E+02  0.21950709238E+02 -0.11692330771E+02  0.52317393072E+02  0.00000000000E+00 0.  1.
</event>
<event>
 7    1  0.2612213E-009  0.8491689E+02  0.7561462E-02  0.1315650E+00
          3   -1    0    0  501    0  0.00000000000E+00  0.00000000000E+00  0.30177708132E+03  0.30177708132E+03  0.00000000000E+00 0. -1.
         -3   -1    0    0    0  501 -0.00000000000E+00 -0.00000000000E+00 -0.46692045916E+02  0.46692045916E+02  0.00000000000E+00 0.  1.
         25    2    1    2    0    0  0.34154951011E+02  0.21116224573E+02  0.20873681024E+03  0.24663782933E+03  0.12508679901E+03 0.  0.
          5    1    3    3  502    0  0.23007787989E+02 -0.33425029279E+02  0.12575226567E+02  0.42687230101E+02  0.41800000000E+01 0. -1.
         -5    1    3    3    0  502  0.11147163022E+02  0.54541253852E+02  0.19616158368E+03  0.20395059923E+03  0.41800000000E+01 0. -1.
        -11    1    1    2    0    0 -0.24512738985E+02 -0.42890849934E+02 -0.35990093161E+00  0.49402721679E+02  0.00000000000E+00 0.  1.
         11    1    1    2    0    0 -0.96422120259E+01  0.21774625361E+02  0.46708126095E+02  0.52428576232E+02  0.00000000000E+00 0. -1.
</event>
<event>
 7    1  0.2612213E-009  0.1134658E+03  0.7561462E-02  0.1254283E+00
          1   -1    0    0  501    0  0.00000000000E+00  0.00000000000E+00  0.18784455551E+02  0.18784455551E+02  0.00000000000E+00 0. -1.
         -1   -1    0    0    0  501 -0.00000000000E+00 -0.00000000000E+00 -0.70159801069E+03  0.70159801069E+03  0.00000000000E+00 0.  1.
         25    2    1    2    0    0  0.51929195309E+00  0.37580454425E+02 -0.38987894104E+03  0.41117501345E+03  0.12508694099E+03 0.  0.
          5    1    3    3  502    0 -0.57554019277E+02 -0.53555001694E+01 -0.18769555741E+03  0.19643889938E+03  0.41800000000E+01 0.  1.
         -5    1    3    3    0  502  0.58073311230E+02  0.42935954595E+02 -0.20218338362E+03  0.21473611407E+03  0.41800000000E+01 0.  1.
        -11    1    1    2    0    0  0.33377177384E+02  0.12939389204E+02 -0.77881903073E+02  0.85714961293E+02  0.00000000000E+00 0. -1.
         11    1    1    2    0    0 -0.33896469337E+02 -0.50519843629E+02 -0.21505271103E+03  0.22349249149E+03  0.00000000000E+00 0.  1.
</event>
<event>
 7    1  0.2612213E-009  0.1117456E+03  0.7561462E-02  0.1257371E+00
         -1   -1    0    0    0  501 -0.00000000000E+00  0.00000000000E+00  0.59912331085E+02  0.59912331085E+02  0.00000000000E+00 0.  1.
          1   -1    0    0  501    0  0.00000000000E+00 -0.00000000000E+00 -0.39932698373E+03  0.39932698373E+03  0.00000000000E+00 0. -1.
         25    2    1    2    0    0 -0.51792871034E+02 -0.74494034668E+02 -0.27724898385E+03  0.31740522794E+03  0.12508883638E+03 0.  0.
          5    1    3    3  502    0  0.18140771892E+02 -0.55884109555E+02 -0.21147125583E+03  0.21952149268E+03  0.41800000000E+01 0. -1.
         -5    1    3    3    0  502 -0.69933642926E+02 -0.18609925114E+02 -0.65777728026E+02  0.97883735267E+02  0.41800000000E+01 0. -1.
        -11    1    1    2    0    0  0.36572908439E+02  0.63659750103E+02 -0.85009010556E+02  0.11232396579E+03  0.00000000000E+00 0. -1.
         11    1    1    2    0    0  0.15219962594E+02  0.10834284565E+02  0.22843341764E+02  0.29510121083E+02  0.00000000000E+00 0.  1.
</event>
<event>
 7    1  0.2612213E-009  0.9584628E+02  0.7561462E-02  0.1289281E+00
         -3   -1    0    0    0  501 -0.00000000000E+00  0.00000000000E+00  0.68483911168E+02  0.68483911168E+02  0.00000000000E+00 0.  1.
          3   -1    0    0  501    0  0.00000000000E+00 -0.00000000000E+00 -0.21299414473E+03  0.21299414473E+03  0.00000000000E+00 0. -1.
         25    2    1    2    0    0  0.31768107470E+02 -0.36201343380E+02 -0.67359571540E+02  0.15001464060E+03  0.12508929051E+03 0.  0.
          5    1    3    3  502    0  0.66443532717E+01 -0.67060849784E+02 -0.83052452710E+02  0.10703498169E+03  0.41800000000E+01 0. -1.
         -5    1    3    3    0  502  0.25123754199E+02  0.30859506404E+02  0.15692881170E+02  0.42979658910E+02  0.41800000000E+01 0. -1.
        -11    1    1    2    0    0 -0.47098263038E+02  0.25318368173E+01 -0.81549963528E+02  0.94207500392E+02  0.00000000000E+00 0. -1.
         11    1    1    2    0    0  0.15330155567E+02  0.33669506562E+02  0.43993015046E+01  0.37255914907E+02  0.00000000000E+00 0.  1.
</event>
<event>
 7    1  0.2612213E-009  0.1312034E+03  0.7561462E-02  0.1225681E+00
         -1   -1    0    0    0  501 -0.00000000000E+00  0.00000000000E+00  0.20029158748E+03  0.20029158748E+03  0.00000000000E+00 0.  1.
          1   -1    0    0  501    0  0.00000000000E+00 -0.00000000000E+00 -0.12090239699E+03  0.12090239699E+03  0.00000000000E+00 0. -1.
         25    2    1    2    0    0 -0.70833601426E+02  0.68485098756E+02  0.95759218833E+02  0.18581127898E+03  0.12509354725E+03 0.  0.
          5    1    3    3  502    0  0.22325091344E+01  0.63985570154E+02  0.92295402967E+02  0.11240574315E+03  0.41800000000E+01 0.  1.
         -5    1    3    3    0  502 -0.73066110560E+02  0.44995286017E+01  0.34638158662E+01  0.73405535830E+02  0.41800000000E+01 0.  1.
        -11    1    1    2    0    0 -0.14308620851E+02  0.19254234741E+01 -0.20203160629E+02  0.24831664978E+02  0.00000000000E+00 0. -1.
         11    1    1    2    0    0  0.85142222277E+02 -0.70410522230E+02  0.38331322912E+01  0.11055104051E+03  0.00000000000E+00 0.  1.
</event>
<event>
 7    1  0.2612213E-009  0.9645920E+02  0.7561462E-02  0.1287923E+00
          4   -1    0    0  501    0  0.00000000000E+00  0.00000000000E+00  0.34248122558E+03  0.34248122558E+03  0.00000000000E+00 0. -1.
         -4   -1    0    0    0  501 -0.00000000000E+00 -0.00000000000E+00 -0.40620284210E+02  0.40620284210E+02  0.00000000000E+00 0.  1.
         25    2    1    2    0    0  0.35521398065E+02 -0.19241171732E+02  0.17035984019E+03  0.21517916856E+03  0.12509039540E+03 0.  0.
          5    1    3    3  502    0 -0.17837745244E+02  0.34777365516E+02  0.14753421064E+02  0.41985546807E+02  0.41800000000E+01 0.  1.
         -5    1    3    3    0  502  0.53359143310E+02 -0.54018537247E+02  0.15560641913E+03  0.17319362175E+03  0.41800000000E+01 0.  1.
        -11    1    1    2    0    0 -0.54235450257E+02  0.58400913158E+01  0.26904452075E+02  0.60823024198E+02  0.00000000000E+00 0.  1.
         11    1    1    2    0    0  0.18714052192E+02  0.13401080416E+02  0.10459664911E+03  0.10709931704E+03  0.00000000000E+00 0. -1.
</event>
<event>
 7    1  0.2612213E-009  0.1347718E+03  0.7561462E-02  0.1220542E+00
         -2   -1    0    0    0  501 -0.00000000000E+00  0.00000000000E+00  0.73600056256E+02  0.73600056256E+02  0.00000000000E+00 0.  1.
          2   -1    0    0  501    0  0.00000000000E+00 -0.00000000000E+00 -0.31949207342E+03  0.31949207342E+03  0.00000000000E+00 0. -1.
         25    2    1    2    0    0  0.50572375352E+02 -0.85430185735E+02 -0.80686444951E+02  0.17892281689E+03  0.12508872940E+03 0.  0.
          5    1    3    3  502    0 -0.31136219775E+02 -0.33976388637E+02  0.89187747096E+01  0.47126172230E+02  0.41800000000E+01 0.  1.
         -5    1    3    3    0  502  0.81708595127E+02 -0.51453797098E+02 -0.89605219661E+02  0.13179664466E+03  0.41800000000E+01 0.  1.
        -11    1    1    2    0    0 -0.22802813170E+02  0.94650622065E+02 -0.86623065651E+02  0.13031601609E+03  0.00000000000E+00 0.  1.
         11    1    1    2    0    0 -0.27769562182E+02 -0.92204363294E+01 -0.78582506565E+02  0.83853296703E+02  0.00000000000E+00 0. -1.
</event>
<event>
 7    1  0.2612213E-009  0.1802339E+03  0.7561462E-02  0.1167577E+00
          1   -1    0    0  501    0  0.00000000000E+00  0.00000000000E+00  0.38096609282E+03  0.38096609282E+03  0.00000000000E+00 0. -1.
         -1   -1    0    0    0  501 -0.00000000000E+00 -0.00000000000E+00 -0.89823521039E+02  0.89823521039E+02  0.00000000000E+00 0.  1.
         25    2    1    2    0    0  0.13135709033E+03 -0.64490348061E+02  0.11573006321E+03  0.22462050950E+03  0.12508891071E+03 0.  0.
          5    1    3    3  502    0 -0.17435044555E+02 -0.37036644714E+02  0.24256450550E+02  0.47765485694E+02  0.41800000000E+01 0.  1.
         -5    1    3    3    0  502  0.14879213489E+03 -0.27453703347E+02  0.91473612664E+02  0.17685502381E+03  0.41800000000E+01 0.  1.
        -11    1    1    2    0    0 -0.11702495075E+03  0.16878159605E+02  0.95212977467E+02  0.15180652966E+03  0.00000000000E+00 0. -1.
         11    1    1    2    0    0 -0.14332139584E+02  0.47612188457E+02  0.80199531097E+02  0.94362574694E+02  0.00000000000E+00 0.  1.
</event>
<event>
 7    1  0.2612213E-009  0.2433921E+03  0.7561462E-02  0.1117554E+00
          1   -1    0    0  501    0  0.00000000000E+00  0.00000000000E+00  0.27087653999E+03  0.27087653999E+03  0.00000000000E+00 0. -1.
         -1   -1    0    0    0  501 -0.00000000000E+00 -0.00000000000E+00 -0.22740915707E+03  0.22740915707E+03  0.00000000000E+00 0.  1.
         25    2    1    2    0    0  0.21588511820E+03 -0.46020322950E+02 -0.67034325855E+01  0.25380466314E+03  0.12509043383E+03 0.  0.
          5    1    3    3  502    0 -0.14692253642E+02  0.68593199161E+01 -0.38765814417E+01  0.17187578959E+02  0.41800000000E+01 0.  1.
         -5    1    3    3    0  502  0.23057737185E+03 -0.52879642866E+02 -0.28268511438E+01  0.23661708418E+03  0.41800000000E+01 0.  1.
        -11    1    1    2    0    0 -0.85729551216E+02 -0.19205747767E+02 -0.68653491556E+01  0.88122356517E+02  0.00000000000E+00 0.  1.
         11    1    1    2    0    0 -0.13015556699E+03  0.65226070716E+02  0.57036164662E+02  0.15635867740E+03  0.00000000000E+00 0. -1.
</event>
<event>
 7    1  0.2612213E-009  0.7303021E+02  0.7561462E-02  0.1350082E+00
          1   -1    0    0  501    0  0.00000000000E+00  0.00000000000E+00  0.10697740508E+03  0.10697740508E+03  0.00000000000E+00 0.  1.
         -1   -1    0    0    0  501 -0.00000000000E+00 -0.00000000000E+00 -0.14027268620E+03  0.14027268620E+03  0.00000000000E+00 0. -1.
         25    2    1    2    0    0  0.17488067271E+02 -0.79380725374E+01 -0.71942080466E+02  0.14557450739E+03  0.12508968289E+03 0.  0.
          5    1    3    3  502    0  0.47220269638E+02 -0.26148891796E+02 -0.90800569492E+02  0.10571534528E+03  0.41800000000E+01 0.  1.
         -5    1    3    3    0  502 -0.29732202367E+02  0.18210819259E+02  0.18858489026E+02  0.39859162109E+02  0.41800000000E+01 0.  1.
        -11    1    1    2    0    0 -0.15558589627E+02 -0.21922963436E+02  0.59440426078E+02  0.65236878292E+02  0.00000000000E+00 0.  1.
         11    1    1    2    0    0 -0.19294776441E+01  0.29861035973E+02 -0.20793626732E+02  0.36438705604E+02  0.00000000000E+00 0. -1.
</event>
<event>
 7    1  0.2612213E-009  0.1680177E+03  0.7561462E-02  0.1179931E+00
          2   -1    0    0  501    0  0.00000000000E+00  0.00000000000E+00  0.31676799871E+03  0.31676799871E+03  0.00000000000E+00 0. -1.
         -2   -1    0    0    0  501 -0.00000000000E+00 -0.00000000000E+00 -0.92052701963E+02  0.92052701963E+02  0.00000000000E+00 0.  1.
         25    2    1    2    0    0 -0.11231779565E+03  0.59336914947E+02  0.11994218013E+03  0.21487541746E+03  0.12509660970E+03 0.  0.
          5    1    3    3  502    0 -0.75886154235E+02  0.98640764075E+02  0.84598932335E+02  0.15054288590E+03  0.41800000000E+01 0. -1.
         -5    1    3    3    0  502 -0.36431641414E+02 -0.39303849128E+02  0.35343247798E+02  0.64332531564E+02  0.41800000000E+01 0. -1.
        -11    1    1    2    0    0  0.42511614980E+02  0.24181259648E+02  0.10670641459E+02  0.50058299167E+02  0.00000000000E+00 0.  1.
         11    1    1    2    0    0  0.69806180669E+02 -0.83518174595E+02  0.94102475152E+02  0.14388698404E+03  0.00000000000E+00 0. -1.
</event>
<event>
 7    1  0.2612213E-009  0.1067096E+03  0.7561462E-02  0.1266787E+00
          3   -1    0    0  501    0  0.00000000000E+00  0.00000000000E+00  0.61412600266E+02  0.61412600266E+02  0.00000000000E+00 0. -1.
         -3   -1    0    0    0  501 -0.00000000000E+00 -0.00000000000E+00 -0.21135952168E+03  0.21135952168E+03  0.00000000000E+00 0.  1.
         25    2    1    2    0    0  0.18268396528E+02 -0.16435075382E+02 -0.53445864912E+02  0.13823305656E+03  0.12509225170E+03 0.  0.
          5    1    3    3  502    0  0.57510669630E+02 -0.46259873545E+02 -0.14638599872E+02  0.75360560162E+02  0.41800000000E+01 0.  1.
         -5    1    3    3    0  502 -0.39242273101E+02  0.29824798163E+02 -0.38807265040E+02  0.62872496400E+02  0.41800000000E+01 0.  1.
        -11    1    1    2    0    0  0.26981043990E+02 -0.18624763177E+02 -0.54270109121E+02  0.63404284415E+02  0.00000000000E+00 0. -1.
         11    1    1    2    0    0 -0.45249440518E+02  0.35059838559E+02 -0.42230947382E+02  0.71134780971E+02  0.00000000000E+00 0.  1.
</event>
<event>
 7    1  0.2612213E-009  0.9861527E+02  0.7561462E-02  0.1283235E+00
          3   -1    0    0  501    0  0.00000000000E+00  0.00000000000E+00  0.92774060885E+02  0.92774060885E+02  0.00000000000E+00 0. -1.
         -3   -1    0    0    0  501 -0.00000000000E+00 -0.00000000000E+00 -0.14771145945E+03  0.14771145945E+03  0.00000000000E+00 0.  1.
         25    2    1    2    0    0  0.17438800316E+02  0.30645343553E+02 -0.65654878071E+01  0.13013083944E+03  0.12509069072E+03 0.  0.
          5    1    3    3  502    0  0.59859056189E+02  0.10536392334E+02 -0.39522847778E+02  0.72619901320E+02  0.41800000000E+01 0. -1.
         -5    1    3    3    0  502 -0.42420255872E+02  0.20108951219E+02  0.32957359971E+02  0.57510938122E+02  0.41800000000E+01 0. -1.
        -11    1    1    2    0    0 -0.20584670984E+02  0.25596657995E+02 -0.42508419055E+02  0.53720417633E+02  0.00000000000E+00 0.  1.
         11    1    1    2    0    0  0.31458706677E+01 -0.56242001548E+02 -0.58634917055E+01  0.56634263263E+02  0.00000000000E+00 0. -1.
</event>
<event>
 7    1  0.2612213E-009  0.8729361E+02  0.7561462E-02  0.1309541E+00
         -1   -1    0    0    0  501 -0.00000000000E+00  0.00000000000E+00  0.44306955081E+02  0.44306955081E+02  0.00000000000E+00 0.  1.
          1   -1    0    0  501    0  0.00000000000E+00 -0.00000000000E+00 -0.39683856303E+03  0.39683856303E+03  0.00000000000E+00 0. -1.
         25    2    1    2    0    0  0.16414779075E+02  0.58693919242E+01 -0.31946088845E+03  0.34351498279E+03  0.12507353606E+03 0.  0.
          5    1    3    3  502    0 -0.38587512562E+02 -0.13161118187E+02 -0.24749416976E+03  0.25086460018E+03  0.41800000000E+01 0. -1.
         -5    1    3    3    0  502  0.55002291636E+02  0.19030510112E+02 -0.71966718690E+02  0.92650382618E+02  0.41800000000E+01 0. -1.
        -11    1    1    2    0    0  0.25593644646E+02 -0.18276669108E+02 -0.42454560056E+02  0.52834278167E+02  0.00000000000E+00 0. -1.
         11    1    1    2    0    0 -0.42008423720E+02  0.12407277184E+02  0.93838405581E+01  0.44796257145E+02  0.00000000000E+00 0.  1.
</event>
<event>
 7    1  0.2612213E-009  0.1144428E+03  0.7561462E-02  0.1252557E+00
         -2   -1    0    0    0  501 -0.00000000000E+00  0.00000000000E+00  0.31197198883E+02  0.31197198883E+02  0.00000000000E+00 0.  1.
          2   -1    0    0  501    0  0.00000000000E+00 -0.00000000000E+00 -0.59446450486E+03  0.59446450486E+03  0.00000000000E+00 0. -1.
         25    2    1    2    0    0 -0.71044067832E+02 -0.36372678544E+02 -0.34125690513E+03  0.37212069400E+03  0.12508918532E+03 0.  0.
          5    1    3    3  502    0  0.10185052771E+02 -0.60179260100E+02 -0.11068811881E+03  0.12646980150E+03  0.41800000000E+01 0.  1.
         -5    1    3    3    0  502 -0.81229120603E+02  0.23806581556E+02 -0.23056878632E+03  0.24565089250E+03  0.41800000000E+01 0.  1.
        -11    1    1    2    0    0  0.57747896305E+02  0.38622853187E+02 -0.22831777304E+03  0.23865361887E+03  0.00000000000E+00 0.  1.
         11    1    1    2    0    0  0.13296171527E+02 -0.22501746431E+01  0.63073721862E+01  0.14887390876E+02  0.00000000000E+00 0. -1.
</event>
<event>
 7    1  0.2612213E-009  0.1493857E+03  0.7561462E-02  0.1201230E+00
          2   -1    0    0  501    0  0.00000000000E+00  0.00000000000E+00  0.48066433014E+03  0.48066433014E+03  0.00000000000E+00 0. -1.
         -2   -1    0    0    0  501 -0.00000000000E+00 -0.00000000000E+00 -0.58578903905E+02  0.58578903905E+02  0.00000000000E+00 0.  1.
         25    2    1    2    0    0 -0.11315763433E+03  0.57366914995E+02  0.19957130702E+03  0.26753383970E+03  0.12510010254E+03 0.  0.
          5    1    3    3  502    0 -0.40696471386E+02  0.82556231533E+02  0.65627044489E+02  0.11311991653E+03  0.41800000000E+01 0.  1.
         -5    1    3    3    0  502 -0.72461162947E+02 -0.25189316538E+02  0.13394426253E+03  0.15441392317E+03  0.41800000000E+01 0.  1.
        -11    1    1    2    0    0  0.63513783844E+02 -0.47200181726E+02  0.20216813004E+03  0.21710322590E+03  0.00000000000E+00 0. -1.
         11    1    1    2    0    0  0.49643850488E+02 -0.10166733269E+02  0.20345989181E+02  0.54606168446E+02  0.00000000000E+00 0.  1.
</event>
<event>
 7    1  0.2612213E-009  0.1185567E+03  0.7561462E-02  0.1245497E+00
          2   -1    0    0  501    0  0.00000000000E+00  0.00000000000E+00  0.16712280935E+04  0.16712280935E+04  0.00000000000E+00 0. -1.
         -2   -1    0    0    0  501 -0.00000000000E+00 -0.00000000000E+00 -0.15175613845E+02  0.15175613845E+02  0.00000000000E+00 0.  1.
         25    2    1    2    0    0  0.11916012130E+02  0.76962021810E+02  0.13432018182E+04  0.13512601343E+04  0.12509069449E+03 0.  0.
          5    1    3    3  502    0  0.51565565086E+02  0.54378612124E+01  0.27177163794E+03  0.27670539103E+03  0.41800000000E+01 0.  1.
         -5    1    3    3    0  502 -0.39649552956E+02  0.71524160598E+02  0.10714301803E+04  0.10745547432E+04  0.41800000000E+01 0.  1.
        -11    1    1    2    0    0  0.26919554247E+02 -0.17231366693E+02  0.31363437047E+02  0.44779990870E+02  0.00000000000E+00 0.  1.
         11    1    1    2    0    0 -0.38835566377E+02 -0.59730655116E+02  0.28148722435E+03  0.29036358216E+03  0.00000000000E+00 0. -1.
</event>
<event>
 7    1  0.2612213E-009  0.9487093E+02  0.7561462E-02  0.1291467E+00
          2   -1    0    0  501    0  0.00000000000E+00  0.00000000000E+00  0.75795358122E+02  0.75795358122E+02  0.00000000000E+00 0. -1.
         -2   -1    0    0    0  501 -0.00000000000E+00 -0.00000000000E+00 -0.24306395184E+03  0.24306395184E+03  0.00000000000E+00 0.  1.
         25    2    1    2    0    0 -0.18802496156E+02  0.71025745059E+02 -0.13720436532E+03  0.19967794968E+03  0.12509218762E+03 0.  0.
          5    1    3    3  502    0  0.12388265556E+02 -0.33757547564E+01  0.19299731499E+02  0.23554551144E+02  0.41800000000E+01 0. -1.
         -5    1    3    3    0  502 -0.31190761712E+02  0.74401499815E+02 -0.15650409682E+03  0.17612339854E+03  0.41800000000E+01 0. -1.
        -11    1    1    2    0    0 -0.86279639336E+01 -0.67209237580E+02 -0.50712781499E+02  0.84636337262E+02  0.00000000000E+00 0.  1.
         11    1    1    2    0    0  0.27430460089E+02 -0.38165074786E+01  0.20648553103E+02  0.34545023018E+02  0.00000000000E+00 0. -1.
</event>
<event>
 7    1  0.2612213E-009  0.2523837E+03  0.7561462E-02  0.1111808E+00
          2   -1    0    0  501    0  0.00000000000E+00  0.00000000000E+00  0.23646999762E+04  0.23646999762E+04  0.00000000000E+00 0. -1.
         -2   -1    0    0    0  501 -0.00000000000E+00 -0.00000000000E+00 -0.28234461489E+02  0.28234461489E+02  0.00000000000E+00 0.  1.
         25    2    1    2    0    0 -0.14726856826E+03  0.18198314149E+03  0.11854323671E+04  0.12147851608E+04  0.12508874825E+03 0.  0.
          5    1    3    3  502    0 -0.45837488477E+01 -0.12520971373E+02  0.19075282224E+03  0.19126394608E+03  0.41800000000E+01 0. -1.
         -5    1    3    3    0  502 -0.14268481941E+03  0.19450411286E+03  0.99467954490E+03  0.10235212148E+04  0.41800000000E+01 0. -1.
        -11    1    1    2    0    0 -0.16395153677E+01 -0.51545249988E+02  0.29960390975E+03  0.30401003856E+03  0.00000000000E+00 0. -1.
         11    1    1    2    0    0  0.14890808363E+03 -0.13043789150E+03  0.85142923778E+03  0.87413923826E+03  0.00000000000E+00 0.  1.
</event>
<event>
 7    1  0.2612213E-009  0.6129360E+02  0.7561462E-02  0.1392482E+00
          2   -1    0    0  501    0  0.00000000000E+00  0.00000000000E+00  0.12479129000E+03  0.12479129000E+03  0.00000000000E+00 0. -1.
         -2   -1    0    0    0  501 -0.00000000000E+00 -0.00000000000E+00 -0.19070692922E+03  0.19070692922E+03  0.00000000000E+00 0.  1.
         25    2    1    2    0    0 -0.23809185198E+02  0.20444449921E+02 -0.14200045138E+03  0.19182327642E+03  0.12508872192E+03 0.  0.
          5    1    3    3  502    0  0.19217811943E+02  0.70743219943E+01 -0.14497673322E+03  0.14647558125E+03  0.41800000000E+01 0. -1.
         -5    1    3    3    0  502 -0.43026997141E+02  0.13370127927E+02  0.29762818360E+01  0.45347695171E+02  0.41800000000E+01 0. -1.
        -11    1    1    2    0    0  0.60999976740E-01 -0.30605689035E+02 -0.11244154636E+02  0.32605872720E+02  0.00000000000E+00 0.  1.
         11    1    1    2    0    0  0.23748185221E+02  0.10161239114E+02  0.87328966805E+02  0.91069070078E+02  0.00000000000E+00 0. -1.
</event>
<event>
 7    1  0.2612213E-009  0.2694882E+03  0.7561462E-02  0.1101573E+00
          1   -1    0    0  501    0  0.00000000000E+00  0.00000000000E+00  0.17041357134E+04  0.17041357134E+04  0.00000000000E+00 0. -1.
         -1   -1    0    0    0  501 -0.00000000000E+00 -0.00000000000E+00 -0.50865851460E+02  0.50865851460E+02  0.00000000000E+00 0.  1.
         25    2    1    2    0    0  0.24976693590E+03  0.17570325199E+02  0.51897025654E+03  0.58963486811E+03  0.12508761698E+03 0.  0.
          5    1    3    3  502    0  0.97512346975E+02  0.67538949973E+02  0.24440746223E+03  0.27170323438E+03  0.41800000000E+01 0. -1.
         -5    1    3    3    0  502  0.15225458893E+03 -0.49968624774E+02  0.27456279431E+03  0.31793163374E+03  0.41800000000E+01 0. -1.
        -11    1    1    2    0    0 -0.59574269963E+02  0.25783863770E+02  0.18036075950E+03  0.19168699706E+03  0.00000000000E+00 0.  1.
         11    1    1    2    0    0 -0.19019266594E+03 -0.43354188969E+02  0.95393884594E+03  0.97367969973E+03  0.00000000000E+00 0. -1.
</event>
<event>
 7    1  0.2612213E-009  0.1962613E+03  0.7561462E-02  0.1152932E+00
          2   -1    0    0  501    0  0.00000000000E+00  0.00000000000E+00  0.40703698372E+03  0.40703698372E+03  0.00000000000E+00 0. -1.
         -2   -1    0    0    0  501 -0.00000000000E+00 -0.00000000000E+00 -0.10768146178E+03  0.10768146178E+03  0.00000000000E+00 0.  1.
         25    2    1    2    0    0  0.10523374941E+02 -0.16999914077E+03  0.22436789465E+03  0.30821946929E+03  0.12509132590E+03 0.  0.
          5    1    3    3  502    0  0.38818201412E+01  0.20123160688E+02  0.19159233434E+02  0.28364744833E+02  0.41800000000E+01 0. -1.
         -5    1    3    3    0  502  0.66415548003E+01 -0.19012230146E+03  0.20520866122E+03  0.27985472446E+03  0.41800000000E+01 0. -1.
        -11    1    1    2    0    0 -0.33395950883E+02  0.13803553569E+03  0.27157234970E+02  0.14459119634E+03  0.00000000000E+00 0.  1.
         11    1    1    2    0    0  0.22872575941E+02  0.31963605082E+02  0.47830392313E+02  0.61907779874E+02  0.00000000000E+00 0. -1.
</event>
<event>
 7    1  0.2612213E-009  0.2120586E+03  0.7561462E-02  0.1139946E+00
         -1   -1    0    0    0  501 -0.00000000000E+00  0.00000000000E+00  0.11024227982E+03  0.11024227982E+03  0.00000000000E+00 0.  1.
          1   -1    0    0  501    0  0.00000000000E+00 -0.00000000000E+00 -0.43057158236E+03  0.43057158236E+03  0.00000000000E+00 0. -1.
         25    2    1    2    0    0 -0.78227764978E+02 -0.16866507343E+03 -0.20534708434E+03  0.30394507952E+03  0.12509075148E+03 0.  0.
          5    1    3    3  502    0 -0.38167335260E+02 -0.17654431798E+03 -0.14871290098E+03  0.23400350641E+03  0.41800000000E+01 0. -1.
         -5    1    3    3    0  502 -0.40060429718E+02  0.78792445556E+01 -0.56634183361E+02  0.69941573109E+02  0.41800000000E+01 0. -1.
        -11    1    1    2    0    0  0.63550223081E+02  0.44994529448E+02 -0.20423536423E+02  0.80500058223E+02  0.00000000000E+00 0. -1.
         11    1    1    2    0    0  0.14677541897E+02  0.12367054398E+03 -0.94558681771E+02  0.15636872444E+03  0.00000000000E+00 0.  1.
</event>
<event>
 7    1  0.2612213E-009  0.6346413E+02  0.7561462E-02  0.1383844E+00
          2   -1    0    0  501    0  0.00000000000E+00  0.00000000000E+00  0.23769336046E+03  0.23769336046E+03  0.00000000000E+00 0. -1.
         -2   -1    0    0    0  501 -0.00000000000E+00 -0.00000000000E+00 -0.74662376952E+02  0.74662376952E+02  0.00000000000E+00 0.  1.
         25    2    1    2    0    0  0.19763545785E+02 -0.15986984364E+02  0.38533835763E+01  0.12770273038E+03  0.12508779865E+03 0.  0.
          5    1    3    3  502    0 -0.20197756126E+02 -0.25396686657E+02  0.53767311253E+02  0.62939154785E+02  0.41800000000E+01 0. -1.
         -5    1    3    3    0  502  0.39961301911E+02  0.94097022930E+01 -0.49913927677E+02  0.64763575595E+02  0.41800000000E+01 0. -1.
        -11    1    1    2    0    0 -0.58241063464E+01  0.31531843909E+02  0.16055743842E+03  0.16372803189E+03  0.00000000000E+00 0. -1.
         11    1    1    2    0    0 -0.13939439439E+02 -0.15544859544E+02 -0.13798384937E+01  0.20924975134E+02  0.00000000000E+00 0.  1.
</event>
<event>
 7    1  0.2612213E-009  0.1179653E+03  0.7561462E-02  0.1246492E+00
         -3   -1    0    0    0  501 -0.00000000000E+00  0.00000000000E+00  0.47935368761E+03  0.47935368761E+03  0.00000000000E+00 0.  1.
          3   -1    0    0  501    0  0.00000000000E+00 -0.00000000000E+00 -0.77615176309E+02  0.77615176309E+02  0.00000000000E+00 0. -1.
         25    2    1    2    0    0  0.62154918084E+02  0.33213687160E+02  0.41717995759E+03  0.44119411389E+03  0.12508695480E+03 0.  0.
          5    1    3    3  502    0  0.68837659979E+02 -0.16461716319E+02  0.35089573504E+03  0.35798729140E+03  0.41800000000E+01 0.  1.
         -5    1    3    3    0  502 -0.66827418946E+01  0.49675403479E+02  0.66284222551E+02  0.83206822492E+02  0.41800000000E+01 0.  1.
        -11    1    1    2    0    0 -0.53568877861E+02  0.22687476504E+02 -0.71232131278E+01  0.58609610395E+02  0.00000000000E+00 0. -1.
         11    1    1    2    0    0 -0.85860402231E+01 -0.55901163664E+02 -0.83182331639E+01  0.57165139628E+02  0.00000000000E+00 0.  1.
</event>
<event>
 7    1  0.2612213E-009  0.1008867E+03  0.7561462E-02  0.1278442E+00
         -4   -1    0    0    0  501 -0.00000000000E+00  0.00000000000E+00  0.38867574634E+03  0.38867574634E+03  0.00000000000E+00 0.  1.
          4   -1    0    0  501    0  0.00000000000E+00 -0.00000000000E+00 -0.41760852069E+02  0.41760852069E+02  0.00000000000E+00 0. -1.
         25    2    1    2    0    0  0.63749006590E+02  0.49879893156E+01  0.16051628406E+03  0.21331140308E+03  0.12508981317E+03 0.  0.
          5    1    3    3  502    0  0.61747362149E+02 -0.20507289882E+02  0.16867969942E+02  0.67344535640E+02  0.41800000000E+01 0. -1.
         -5    1    3    3    0  502  0.20016444412E+01  0.25495279198E+02  0.14364831412E+03  0.14596686744E+03  0.41800000000E+01 0. -1.
        -11    1    1    2    0    0  0.10017186122E+02  0.28087527907E+02  0.61468316703E+02  0.68319888759E+02  0.00000000000E+00 0. -1.
         11    1    1    2    0    0 -0.73766192712E+02 -0.33075517223E+02  0.12493029352E+03  0.14880530657E+03  0.00000000000E+00 0.  1.
</event>
<event>
 7    1  0.2612213E-009  0.9813298E+02  0.7561462E-02  0.1284272E+00
          2   -1    0    0  501    0  0.00000000000E+00  0.00000000000E+00  0.24219022212E+03  0.24219022212E+03  0.00000000000E+00 0. -1.
         -2   -1    0    0    0  501 -0.00000000000E+00 -0.00000000000E+00 -0.50343263007E+02  0.50343263007E+02  0.00000000000E+00 0.  1.
         25    2    1    2    0    0  0.29847208504E+01 -0.50578059921E+01  0.99190752160E+02  0.15975623084E+03  0.12509499598E+03 0.  0.
          5    1    3    3  502    0 -0.29800376072E+02  0.39573200187E+02  0.44187397590E+01  0.49910903099E+02  0.41800000000E+01 0. -1.
         -5    1    3    3    0  502  0.32785096923E+02 -0.44631006179E+02  0.94772012401E+02  0.10984532774E+03  0.41800000000E+01 0. -1.
        -11    1    1    2    0    0 -0.28660895970E+02  0.39035077708E+02  0.68270015087E+02  0.83701727637E+02  0.00000000000E+00 0. -1.
         11    1    1    2    0    0  0.25676175120E+02 -0.33977271716E+02  0.24386191868E+02  0.49075526649E+02  0.00000000000E+00 0.  1.
</event>
<event>
 7    1  0.2612213E-009  0.1110236E+03  0.7561462E-02  0.1258686E+00
          1   -1    0    0  501    0  0.00000000000E+00  0.00000000000E+00  0.10569056010E+03  0.10569056010E+03  0.00000000000E+00 0. -1.
         -1   -1    0    0    0  501 -0.00000000000E+00 -0.00000000000E+00 -0.13189137397E+03  0.13189137397E+03  0.00000000000E+00 0.  1.
         25    2    1    2    0    0 -0.41940301960E+02 -0.16754822625E+02 -0.23001407837E+02  0.13496744810E+03  0.12508970491E+03 0.  0.
          5    1    3    3  502    0 -0.71128759930E+02 -0.50010379157E+02 -0.24709124570E+02  0.90489511821E+02  0.41800000000E+01 0. -1.
         -5    1    3    3    0  502  0.29188457970E+02  0.33255556532E+02  0.17077167334E+01  0.44477936276E+02  0.41800000000E+01 0. -1.
        -11    1    1    2    0    0  0.61341535693E+02 -0.48269202749E+01 -0.24899405129E+02  0.66378185697E+02  0.00000000000E+00 0.  1.
         11    1    1    2    0    0 -0.19401233734E+02  0.21581742900E+02  0.21699999091E+02  0.36236300274E+02  0.00000000000E+00 0. -1.
</event>
<event>
 7    1  0.3636659E-009  0.1469447E+03  0.7561462E-02  0.1204278E+00
          1   -1    0    0  501    0  0.00000000000E+00  0.00000000000E+00  0.61542250626E+03  0.61542250626E+03  0.00000000000E+00 0. -1.
         -1   -1    0    0    0  501 -0.00000000000E+00 -0.00000000000E+00 -0.46730872403E+02  0.46730872403E+02  0.00000000000E+00 0.  1.
         25    2    1    2    0    0  0.92029146493E+02 -0.36439578855E+02  0.13788170962E+03  0.21084455906E+03  0.12508739155E+03 0.  0.
          5    1    3    3  502    0  0.11549097039E+03 -0.56213079920E+02  0.11277984061E+03  0.17098198573E+03  0.41800000000E+01 0. -1.
         -5    1    3    3    0  502 -0.23461823895E+02  0.19773501065E+02  0.25101869008E+02  0.39862573331E+02  0.41800000000E+01 0. -1.
        -11    1    1    2    0    0 -0.60446943713E+02 -0.24933764219E+02  0.20279607742E+03  0.21307692184E+03  0.00000000000E+00 0.  1.
         11    1    1    2    0    0 -0.31582202780E+02  0.61373343075E+02  0.22801384681E+03  0.23823189776E+03  0.00000000000E+00 0. -1.
</event>
<event>
 7    1  0.2612213E-009  0.8657193E+02  0.7561462E-02  0.1311372E+00
         -1   -1    0    0    0  501 -0.00000000000E+00  0.00000000000E+00  0.13479097441E+03  0.13479097441E+03  0.00000000000E+00 0.  1.
          1   -1    0    0  501    0  0.00000000000E+00 -0.00000000000E+00 -0.14092255135E+03  0.14092255135E+03  0.00000000000E+00 0. -1.
         25    2    1    2    0    0  0.60541885472E+02  0.14050685622E+02  0.57652008465E+02  0.15110874422E+03  0.12508939538E+03 0.  0.
          5    1    3    3  502    0 -0.15756110041E+02 -0.94105490531E+01 -0.28137107120E+02  0.33852365268E+02  0.41800000000E+01 0.  1.
         -5    1    3    3    0  502  0.76297995514E+02  0.23461234675E+02  0.85789115585E+02  0.11725637895E+03  0.41800000000E+01 0.  1.
        -11    1    1    2    0    0 -0.43944404673E+02  0.10094369036E+02 -0.79470258693E+02  0.91370285131E+02  0.00000000000E+00 0. -1.
         11    1    1    2    0    0 -0.16597480800E+02 -0.24145054658E+02  0.15686673286E+02  0.33234496417E+02  0.00000000000E+00 0.  1.
</event>
<event>
 7    1  0.2612213E-009  0.3142378E+03  0.7561462E-02  0.1078332E+00
         -1   -1    0    0    0  501 -0.00000000000E+00  0.00000000000E+00  0.61277864869E+03  0.61277864869E+03  0.00000000000E+00 0.  1.
          1   -1    0    0  501    0  0.00000000000E+00 -0.00000000000E+00 -0.16178031255E+03  0.16178031255E+03  0.00000000000E+00 0. -1.
         25    2    1    2    0    0  0.17257898519E+03  0.23922619833E+03  0.22149182596E+03  0.38951115466E+03  0.12509048942E+03 0.  0.
          5    1    3    3  502    0  0.14756307025E+03  0.10060117170E+03  0.10976543915E+03  0.20966969137E+03  0.41800000000E+01 0. -1.
         -5    1    3    3    0  502  0.25015914940E+02  0.13862502663E+03  0.11172638681E+03  0.17984146329E+03  0.41800000000E+01 0. -1.
        -11    1    1    2    0    0 -0.93537922603E+02 -0.55166169921E+02  0.73109883136E+02  0.13091105485E+03  0.00000000000E+00 0.  1.
         11    1    1    2    0    0 -0.79041062586E+02 -0.18406002841E+03  0.15639662705E+03  0.25413675174E+03  0.00000000000E+00 0. -1.
</event>
<event>
 7    1  0.2612213E-009  0.1130747E+03  0.7561462E-02  0.1254980E+00
         -2   -1    0    0    0  501 -0.00000000000E+00  0.00000000000E+00  0.12685984021E+03  0.12685984021E+03  0.00000000000E+00 0.  1.
          2   -1    0    0  501    0  0.00000000000E+00 -0.00000000000E+00 -0.16181637601E+03  0.16181637601E+03  0.00000000000E+00 0. -1.
         25    2    1    2    0    0  0.51722111511E+01  0.71328591190E+02 -0.79038441620E+02  0.16437934487E+03  0.12513582252E+03 0.  0.
          5    1    3    3  502    0 -0.22661537520E+02  0.83293825962E+02 -0.77042439875E+01  0.86765399219E+02  0.41800000000E+01 0. -1.
         -5    1    3    3    0  502  0.27833748671E+02 -0.11965234772E+02 -0.71334197633E+02  0.77613945655E+02  0.41800000000E+01 0. -1.
        -11    1    1    2    0    0 -0.57975428484E+01  0.18461691601E+02 -0.74882641392E+01  0.20748967677E+02  0.00000000000E+00 0. -1.
         11    1    1    2    0    0  0.62533169727E+00 -0.89790282791E+02  0.51570169965E+02  0.10354790367E+03  0.00000000000E+00 0.  1.
</event>
<event>
 7    1  0.2612213E-009  0.1380786E+03  0.7561462E-02  0.1215938E+00
          3   -1    0    0  501    0  0.00000000000E+00  0.00000000000E+00  0.39646386100E+02  0.39646386100E+02  0.00000000000E+00 0. -1.
         -3   -1    0    0    0  501 -0.00000000000E+00 -0.00000000000E+00 -0.55947591875E+03  0.55947591875E+03  0.00000000000E+00 0.  1.
         25    2    1    2    0    0 -0.20605487442E+02  0.97538669431E+02 -0.22852956567E+03  0.27894756271E+03  0.12509037618E+03 0.  0.
          5    1    3    3  502    0  0.30830596739E+02  0.84944700434E+02 -0.19798132746E+03  0.21766994797E+03  0.41800000000E+01 0. -1.
         -5    1    3    3    0  502 -0.51436084181E+02  0.12593968997E+02 -0.30548238210E+02  0.61277614744E+02  0.41800000000E+01 0. -1.
        -11    1    1    2    0    0  0.54865296784E+02 -0.52048947210E+02 -0.17677163894E+03  0.19226935801E+03  0.00000000000E+00 0. -1.
         11    1    1    2    0    0 -0.34259809343E+02 -0.45489722221E+02 -0.11452832804E+03  0.12790538412E+03  0.00000000000E+00 0.  1.
</event>
<event>
 7    1  0.2612213E-009  0.1145074E+03  0.7561462E-02  0.1252443E+00
         -1   -1    0    0    0  501 -0.00000000000E+00  0.00000000000E+00  0.33999654922E+02  0.33999654922E+02  0.00000000000E+00 0.  1.
          1   -1    0    0  501    0  0.00000000000E+00 -0.00000000000E+00 -0.50625880507E+03  0.50625880507E+03  0.00000000000E+00 0. -1.
         25    2    1    2    0    0 -0.58946396376E+02  0.10817631011E+02 -0.17541120591E+03  0.22362509311E+03  0.12508953722E+03 0.  0.
          5    1    3    3  502    0 -0.75501444334E+02 -0.32864058719E+02 -0.14768720943E+03  0.16914342636E+03  0.41800000000E+01 0. -1.
         -5    1    3    3    0  502  0.16555047958E+02  0.43681689730E+02 -0.27723996481E+02  0.54481666746E+02  0.41800000000E+01 0. -1.
        -11    1    1    2    0    0  0.59380182353E+02  0.24578500746E+02 -0.24872335257E+03  0.25689183496E+03  0.00000000000E+00 0. -1.
         11    1    1    2    0    0 -0.43378597689E+00 -0.35396131757E+02 -0.48124591667E+02  0.59741531925E+02  0.00000000000E+00 0.  1.
</event>
<event>
 7    1  0.2612213E-009  0.6944369E+02  0.7561462E-02  0.1361995E+00
         -1   -1    0    0    0  501 -0.00000000000E+00  0.00000000000E+00  0.27410185045E+02  0.27410185045E+02  0.00000000000E+00 0.  1.
          1   -1    0    0  501    0  0.00000000000E+00 -0.00000000000E+00 -0.45880373587E+03  0.45880373587E+03  0.00000000000E+00 0. -1.
         25    2    1    2    0    0  0.29392654231E+02 -0.14348897334E+02 -0.28604973337E+03  0.31391610876E+03  0.12509618061E+03 0.  0.
          5    1    3    3  502    0 -0.27800709425E+02 -0.92661551433E+01 -0.23534735057E+03  0.23720157862E+03  0.41800000000E+01 0.  1.
         -5    1    3    3    0  502  0.57193363655E+02 -0.50827421908E+01 -0.50702382795E+02  0.76714530146E+02  0.41800000000E+01 0.  1.
        -11    1    1    2    0    0 -0.84885338209E+01 -0.14072622888E+02  0.55406235768E+01  0.17343368502E+02  0.00000000000E+00 0.  1.
         11    1    1    2    0    0 -0.20904120410E+02  0.28421520222E+02 -0.15088444103E+03  0.15495444365E+03  0.00000000000E+00 0. -1.
</event>
<event>
 7    1  0.2612213E-009  0.1168810E+03  0.7561462E-02  0.1248333E+00
          2   -1    0    0  501    0  0.00000000000E+00  0.00000000000E+00  0.14544011375E+04  0.14544011375E+04  0.00000000000E+00 0. -1.
         -2   -1    0    0    0  501 -0.00000000000E+00 -0.00000000000E+00 -0.16621222604E+02  0.16621222604E+02  0.00000000000E+00 0.  1.
         25    2    1    2    0    0  0.20535669284E+02 -0.69813288605E+02  0.11727283854E+04  0.11816237303E+04  0.12508862817E+03 0.  0.
          5    1    3    3  502    0  0.60872402470E+02 -0.21218884283E+02  0.86751391580E+03  0.86991583325E+03  0.41800000000E+01 0.  1.
         -5    1    3    3    0  502 -0.40336733186E+02 -0.48594404322E+02  0.30521446964E+03  0.31170789700E+03  0.41800000000E+01 0.  1.
        -11    1    1    2    0    0 -0.49712028959E+02  0.37061813032E+02  0.21026233093E+03  0.21921476140E+03  0.00000000000E+00 0. -1.
         11    1    1    2    0    0  0.29176359675E+02  0.32751475573E+02  0.54789198546E+02  0.70183868470E+02  0.00000000000E+00 0.  1.
</event>
<event>
 7    1  0.2612213E-009  0.1084801E+03  0.7561462E-02  0.1263411E+00
         -2   -1    0    0    0  501 -0.00000000000E+00  0.00000000000E+00  0.17499599547E+02  0.17499599547E+02  0.00000000000E+00 0. -1.
          2   -1    0    0  501    0  0.00000000000E+00 -0.00000000000E+00 -0.86418572025E+03  0.86418572025E+03  0.00000000000E+00 0.  1.
         25    2    1    2    0    0  0.53228365763E+02  0.13459035332E+02 -0.41456238035E+03  0.43649074433E+03  0.12509115926E+03 0.  0.
          5    1    3    3  502    0  0.76373643784E+02 -0.12671580047E+02 -0.37760655097E+03  0.38548369893E+03  0.41800000000E+01 0. -1.
         -5    1    3    3    0  502 -0.23145278021E+02  0.26130615379E+02 -0.36955829387E+02  0.51007045400E+02  0.41800000000E+01 0. -1.
        -11    1    1    2    0    0 -0.60547964180E+02  0.24719308837E+02 -0.21907769986E+03  0.22863101008E+03  0.00000000000E+00 0. -1.
         11    1    1    2    0    0  0.73195984173E+01 -0.38178344169E+02 -0.21304604049E+03  0.21656356539E+03  0.00000000000E+00 0.  1.
</event>
<event>
 7    1  0.2612213E-009  0.2046568E+03  0.7561462E-02  0.1145869E+00
         -2   -1    0    0    0  501 -0.00000000000E+00  0.00000000000E+00  0.67960705031E+02  0.67960705031E+02  0.00000000000E+00 0.  1.
          2   -1    0    0  501    0  0.00000000000E+00 -0.00000000000E+00 -0.64064020714E+03  0.64064020714E+03  0.00000000000E+00 0. -1.
         25    2    1    2    0    0  0.13729344074E+01  0.17590982684E+03 -0.34562235498E+03  0.40749047429E+03  0.12509005653E+03 0.  0.
          5    1    3    3  502    0  0.48037986119E+02  0.15291099644E+03 -0.22720051706E+03  0.27807727037E+03  0.41800000000E+01 0.  1.
         -5    1    3    3    0  502 -0.46665051711E+02  0.22998830394E+02 -0.11842183793E+03  0.12941320392E+03  0.41800000000E+01 0.  1.
        -11    1    1    2    0    0 -0.40117150385E+02 -0.13325712371E+03 -0.14645720712E+03  0.20203108744E+03  0.00000000000E+00 0.  1.
         11    1    1    2    0    0  0.38744215978E+02 -0.42652703124E+02 -0.80599939999E+02  0.99079350439E+02  0.00000000000E+00 0. -1.
</event>
<event>
 7    1  0.2612213E-009  0.1262317E+03  0.7561462E-02  0.1233157E+00
          2   -1    0    0  501    0  0.00000000000E+00  0.00000000000E+00  0.16623569989E+03  0.16623569989E+03  0.00000000000E+00 0. -1.
         -2   -1    0    0    0  501 -0.00000000000E+00 -0.00000000000E+00 -0.11123481458E+03  0.11123481458E+03  0.00000000000E+00 0.  1.
         25    2    1    2    0    0 -0.68901334905E+02  0.41853786671E+01 -0.11665517983E+02  0.14334747780E+03  0.12508998255E+03 0.  0.
          5    1    3    3  502    0  0.23314325890E+02  0.37772874302E+02 -0.55047822432E+01  0.44923522260E+02  0.41800000000E+01 0.  1.
         -5    1    3    3    0  502 -0.92215660795E+02 -0.33587495635E+02 -0.61607357394E+01  0.98423955538E+02  0.41800000000E+01 0.  1.
        -11    1    1    2    0    0  0.53223940394E+02 -0.42589638779E+02  0.62415449474E+02  0.92424853234E+02  0.00000000000E+00 0.  1.
         11    1    1    2    0    0  0.15677394511E+02  0.38404260111E+02  0.42509538174E+01  0.41698183434E+02  0.00000000000E+00 0. -1.
</event>
<event>
 7    1  0.2612213E-009  0.1137238E+03  0.7561462E-02  0.1253825E+00
          2   -1    0    0  501    0  0.00000000000E+00  0.00000000000E+00  0.99173320306E+02  0.99173320306E+02  0.00000000000E+00 0. -1.
         -2   -1    0    0    0  501 -0.00000000000E+00 -0.00000000000E+00 -0.15966098115E+03  0.15966098115E+03  0.00000000000E+00 0.  1.
         25    2    1    2    0    0  0.28866171849E+02  0.54449988087E+02 -0.50049403457E+02  0.14815426921E+03  0.12508672039E+03 0.  0.
          5    1    3    3  502    0  0.38180133763E+02  0.87471321924E+02 -0.11249924148E+02  0.96192452753E+02  0.41800000000E+01 0. -1.
         -5    1    3    3    0  502 -0.93139619141E+01 -0.33021333837E+02 -0.38799479309E+02  0.51961816458E+02  0.41800000000E+01 0. -1.
        -11    1    1    2    0    0  0.19065545435E+02 -0.44480495580E+02 -0.31116421850E+02  0.57534695781E+02  0.00000000000E+00 0.  1.
         11    1    1    2    0    0 -0.47931717284E+02 -0.99694925070E+01  0.20678164461E+02  0.53145336466E+02  0.00000000000E+00 0. -1.
</event>
<event>
 7    1  0.2612213E-009  0.8241588E+02  0.7561462E-02  0.1322332E+00
         -2   -1    0    0    0  501 -0.00000000000E+00  0.00000000000E+00  0.27268711111E+02  0.27268711111E+02  0.00000000000E+00 0.  1.
          2   -1    0    0  501    0  0.00000000000E+00 -0.00000000000E+00 -0.48832608553E+03  0.48832608553E+03  0.00000000000E+00 0. -1.
         25    2    1    2    0    0  0.29741346147E+02  0.20060978674E+02 -0.30767110127E+03  0.33405385285E+03  0.12507389621E+03 0.  0.
          5    1    3    3  502    0 -0.22772527965E+01 -0.32698091660E+02 -0.24042604166E+03  0.24268602141E+03  0.41800000000E+01 0.  1.
         -5    1    3    3    0  502  0.32018598944E+02  0.52759070334E+02 -0.67245059606E+02  0.91367831441E+02  0.41800000000E+01 0.  1.
        -11    1    1    2    0    0  0.15890888238E+02  0.64596750485E+01  0.21553871105E+01  0.17288534476E+02  0.00000000000E+00 0.  1.
         11    1    1    2    0    0 -0.45632234385E+02 -0.26520653723E+02 -0.15554166026E+03  0.16425240932E+03  0.00000000000E+00 0. -1.
</event>
<event>
 7    1  0.2612213E-009  0.1539627E+03  0.7561462E-02  0.1195686E+00
          2   -1    0    0  501    0  0.00000000000E+00  0.00000000000E+00  0.38070564533E+03  0.38070564533E+03  0.00000000000E+00 0.  1.
         -2   -1    0    0    0  501 -0.00000000000E+00 -0.00000000000E+00 -0.82851244230E+02  0.82851244230E+02  0.00000000000E+00 0. -1.
         25    2    1    2    0    0 -0.45308349666E+02 -0.10864291585E+03  0.53662837054E+02  0.17995600790E+03  0.12509330512E+03 0.  0.
          5    1    3    3  502    0  0.37934154073E+02 -0.68912237041E+02  0.16855135243E+02  0.80557212236E+02  0.41800000000E+01 0. -1.
         -5    1    3    3    0  502 -0.83242503739E+02 -0.39730678805E+02  0.36807701811E+02  0.99398795665E+02  0.41800000000E+01 0. -1.
        -11    1    1    2    0    0  0.35368599731E+01  0.91657731897E+02  0.20198668714E+03  0.22183838932E+03  0.00000000000E+00 0.  1.
         11    1    1    2    0    0  0.41771489693E+02  0.16985183949E+02  0.42204876899E+02  0.61762492332E+02  0.00000000000E+00 0. -1.
</event>
<event>
 7    1  0.2612213E-009  0.1535813E+03  0.7561462E-02  0.1196140E+00
          2   -1    0    0  501    0  0.00000000000E+00  0.00000000000E+00  0.43512337048E+02  0.43512337048E+02  0.00000000000E+00 0. -1.
         -2   -1    0    0    0  501 -0.00000000000E+00 -0.00000000000E+00 -0.62601472920E+03  0.62601472920E+03  0.00000000000E+00 0.  1.
         25    2    1    2    0    0 -0.11970114400E+03 -0.21392030412E+02 -0.26901642102E+03  0.32062943468E+03  0.12508963492E+03 0.  0.
          5    1    3    3  502    0 -0.81016817503E+02 -0.61198152063E+02 -0.99550747713E+02  0.14225597458E+03  0.41800000000E+01 0.  1.
         -5    1    3    3    0  502 -0.38684326501E+02  0.39806121651E+02 -0.16946567331E+03  0.17837346010E+03  0.41800000000E+01 0.  1.
        -11    1    1    2    0    0  0.57736404688E+02  0.54697050455E+02 -0.20175529080E+03  0.21686506662E+03  0.00000000000E+00 0.  1.
         11    1    1    2    0    0  0.61964739317E+02 -0.33305020043E+02 -0.11173068032E+03  0.13203256494E+03  0.00000000000E+00 0. -1.
</event>
<event>
 7    1  0.2730744E-009  0.1616709E+03  0.7561462E-02  0.1186823E+00
         -1   -1    0    0    0  501 -0.00000000000E+00  0.00000000000E+00  0.57278121226E+02  0.57278121226E+02  0.00000000000E+00 0.  1.
          1   -1    0    0  501    0  0.00000000000E+00 -0.00000000000E+00 -0.78367116034E+03  0.78367116034E+03  0.00000000000E+00 0. -1.
         25    2    1    2    0    0  0.93067833679E+02  0.10019875955E+03 -0.61530192821E+03  0.64260799411E+03  0.12508860123E+03 0.  0.
          5    1    3    3  502    0  0.65201045034E+02 -0.11831894414E+02 -0.16840308881E+03  0.18102000641E+03  0.41800000000E+01 0.  1.
         -5    1    3    3    0  502  0.27866788646E+02  0.11203065397E+03 -0.44689883940E+03  0.46158798770E+03  0.41800000000E+01 0.  1.
        -11    1    1    2    0    0 -0.35977296165E+02 -0.15255230247E+02  0.94575967286E+01  0.40206144121E+02  0.00000000000E+00 0.  1.
         11    1    1    2    0    0 -0.57090537515E+02 -0.84943529306E+02 -0.12054870764E+03  0.15813514334E+03  0.00000000000E+00 0. -1.
</event>
<event>
 7    1  0.2612213E-009  0.1097826E+03  0.7561462E-02  0.1260973E+00
         -1   -1    0    0    0  501 -0.00000000000E+00  0.00000000000E+00  0.10101744502E+02  0.10101744502E+02  0.00000000000E+00 0.  1.
          1   -1    0    0  501    0  0.00000000000E+00 -0.00000000000E+00 -0.28468073819E+04  0.28468073819E+04  0.00000000000E+00 0. -1.
         25    2    1    2    0    0 -0.61573075164E+02  0.66292762034E+02 -0.23004682015E+04  0.23056424199E+04  0.12508816267E+03 0.  0.
          5    1    3    3  502    0 -0.58451793484E+01  0.17540449511E+02 -0.17608466274E+04  0.17609486509E+04  0.41800000000E+01 0.  1.
         -5    1    3    3    0  502 -0.55727895816E+02  0.48752312523E+02 -0.53962157410E+03  0.54469376900E+03  0.41800000000E+01 0.  1.
        -11    1    1    2    0    0  0.72569828580E+02 -0.15146493907E+02 -0.27334468993E+03  0.28321920100E+03  0.00000000000E+00 0.  1.
         11    1    1    2    0    0 -0.10996753416E+02 -0.51146268127E+02 -0.26289274600E+03  0.26804750554E+03  0.00000000000E+00 0. -1.
</event>
<event>
 7    1  0.2612213E-009  0.2475616E+03  0.7561462E-02  0.1114856E+00
          2   -1    0    0  501    0  0.00000000000E+00  0.00000000000E+00  0.20374469727E+03  0.20374469727E+03  0.00000000000E+00 0. -1.
         -2   -1    0    0    0  501 -0.00000000000E+00 -0.00000000000E+00 -0.33420402579E+03  0.33420402579E+03  0.00000000000E+00 0.  1.
         25    2    1    2    0    0  0.15271138583E+03  0.17588907730E+03 -0.20921797403E+02  0.26522237028E+03  0.12508976462E+03 0.  0.
          5    1    3    3  502    0  0.90370968037E+02  0.18364459583E+02  0.10373059798E+02  0.92893691978E+02  0.41800000000E+01 0.  1.
         -5    1    3    3    0  502  0.62340417796E+02  0.15752461771E+03 -0.31294857201E+02  0.17232867830E+03  0.41800000000E+01 0.  1.
        -11    1    1    2    0    0 -0.96523012388E+02 -0.10078030070E+03 -0.11193856979E+03  0.17889551234E+03  0.00000000000E+00 0.  1.
         11    1    1    2    0    0 -0.56188373446E+02 -0.75108776596E+02  0.24010386728E+01  0.93830840446E+02  0.00000000000E+00 0. -1.
</event>
<event>
 7    1  0.2612213E-009  0.1404374E+03  0.7561462E-02  0.1212742E+00
          2   -1    0    0  501    0  0.00000000000E+00  0.00000000000E+00  0.18539787644E+04  0.18539787644E+04  0.00000000000E+00 0. -1.
         -2   -1    0    0    0  501 -0.00000000000E+00 -0.00000000000E+00 -0.11954360225E+02  0.11954360225E+02  0.00000000000E+00 0.  1.
         25    2    1    2    0    0  0.53714142792E+01 -0.93300445118E+02  0.12427109842E+04  0.12524814078E+04  0.12508102035E+03 0.  0.
          5    1    3    3  502    0 -0.56196189406E+02 -0.41299754774E+02  0.41433588122E+03  0.42018493109E+03  0.41800000000E+01 0. -1.
         -5    1    3    3    0  502  0.61567603685E+02 -0.52000690344E+02  0.82837510293E+03  0.83229647673E+03  0.41800000000E+01 0. -1.
        -11    1    1    2    0    0 -0.46454170915E+02  0.31591933329E+02  0.28859493947E+03  0.29401203944E+03  0.00000000000E+00 0.  1.
         11    1    1    2    0    0  0.41082756636E+02  0.61708511789E+02  0.31071848057E+03  0.31943967739E+03  0.00000000000E+00 0. -1.
</event>
<event>
 7    1  0.2612213E-009  0.3124539E+03  0.7561462E-02  0.1079176E+00
          2   -1    0    0  501    0  0.00000000000E+00  0.00000000000E+00  0.98175489509E+03  0.98175489509E+03  0.00000000000E+00 0. -1.
         -2   -1    0    0    0  501 -0.00000000000E+00 -0.00000000000E+00 -0.16170873801E+03  0.16170873801E+03  0.00000000000E+00 0.  1.
         25    2    1    2    0    0 -0.29283875955E+03  0.10216215968E+03  0.92384633744E+02  0.34695151547E+03  0.12509511410E+03 0.  0.
          5    1    3    3  502    0 -0.26886018049E+03  0.90033419235E+02  0.37939019974E+02  0.28609203916E+03  0.41800000000E+01 0.  1.
         -5    1    3    3    0  502 -0.23978579055E+02  0.12128740448E+02  0.54445613770E+02  0.60859476314E+02  0.41800000000E+01 0.  1.
        -11    1    1    2    0    0  0.27940422919E+03 -0.84392622136E+02  0.71135563129E+03  0.76890550273E+03  0.00000000000E+00 0. -1.
         11    1    1    2    0    0  0.13434530360E+02 -0.17769537547E+02  0.16305892048E+02  0.27606614897E+02  0.00000000000E+00 0.  1.
</event>
<event>
 7    1  0.2612213E-009  0.1054700E+03  0.7561462E-02  0.1269196E+00
          2   -1    0    0  501    0  0.00000000000E+00  0.00000000000E+00  0.27244327327E+03  0.27244327327E+03  0.00000000000E+00 0. -1.
         -2   -1    0    0    0  501 -0.00000000000E+00 -0.00000000000E+00 -0.77029824942E+02  0.77029824942E+02  0.00000000000E+00 0.  1.
         25    2    1    2    0    0  0.24336580927E+02 -0.40351627609E+02  0.14852019168E+00  0.13366390196E+03  0.12508194757E+03 0.  0.
          5    1    3    3  502    0  0.10541327010E+02 -0.84415577854E+02  0.11462277397E+02  0.85941640447E+02  0.41800000000E+01 0. -1.
         -5    1    3    3    0  502  0.13795253917E+02  0.44063950245E+02 -0.11313757206E+02  0.47722261513E+02  0.41800000000E+01 0. -1.
        -11    1    1    2    0    0  0.21827414766E+02  0.90518167463E+01  0.17236350818E+02  0.29248302708E+02  0.00000000000E+00 0.  1.
         11    1    1    2    0    0 -0.46163995693E+02  0.31299810863E+02  0.17802857732E+03  0.18656089355E+03  0.00000000000E+00 0. -1.
</event>
<event>
 7    1  0.2612213E-009  0.9746723E+02  0.7561462E-02  0.1285714E+00
         -3   -1    0    0    0  501 -0.00000000000E+00  0.00000000000E+00  0.12148014851E+04  0.12148014851E+04  0.00000000000E+00 0.  1.
          3   -1    0    0  501    0  0.00000000000E+00 -0.00000000000E+00 -0.26835996613E+02  0.26835996613E+02  0.00000000000E+00 0. -1.
         25    2    1    2    0    0  0.76682979990E+02 -0.15195002577E+01  0.10500653023E+04  0.10602679450E+04  0.12509351616E+03 0.  0.
          5    1    3    3  502    0  0.28287939455E+02 -0.75589211956E+01  0.93184877147E+03  0.93231805201E+03  0.41800000000E+01 0. -1.
         -5    1    3    3    0  502  0.48395040535E+02  0.60394209379E+01  0.11821653082E+03  0.12794989298E+03  0.41800000000E+01 0. -1.
        -11    1    1    2    0    0  0.12854777387E+02  0.21143808240E+02  0.18781688891E+02  0.31065378899E+02  0.00000000000E+00 0. -1.
         11    1    1    2    0    0 -0.89537757377E+02 -0.19624307983E+02  0.11911849729E+03  0.15030415782E+03  0.00000000000E+00 0.  1.
</event>
<event>
 7    1  0.2612213E-009  0.1696322E+03  0.7561462E-02  0.1178232E+00
          2   -1    0    0  501    0  0.00000000000E+00  0.00000000000E+00  0.21331598146E+04  0.21331598146E+04  0.00000000000E+00 0. -1.
         -2   -1    0    0    0  501 -0.00000000000E+00 -0.00000000000E+00 -0.18053430870E+02  0.18053430870E+02  0.00000000000E+00 0.  1.
         25    2    1    2    0    0  0.15365044636E+03 -0.14282685297E+02  0.14119212010E+04  0.14258267435E+04  0.12509184576E+03 0.  0.
          5    1    3    3  502    0  0.34832450995E+02  0.15940813788E+02  0.85946942434E+02  0.94190012741E+02  0.41800000000E+01 0. -1.
         -5    1    3    3    0  502  0.11881799537E+03 -0.30223499084E+02  0.13259742585E+04  0.13316367307E+04  0.41800000000E+01 0. -1.
        -11    1    1    2    0    0 -0.69019405690E+02 -0.37791684508E+02  0.30383534346E+03  0.31385953182E+03  0.00000000000E+00 0.  1.
         11    1    1    2    0    0 -0.84631040670E+02  0.52074369805E+02  0.39934983925E+03  0.41152697013E+03  0.00000000000E+00 0. -1.
</event>
<event>
 7    1  0.2741985E-009  0.2107783E+03  0.7561462E-02  0.1140951E+00
          2   -1    0    0  501    0  0.00000000000E+00  0.00000000000E+00  0.12361471971E+04  0.12361471971E+04  0.00000000000E+00 0.  1.
         -2   -1    0    0    0  501 -0.00000000000E+00 -0.00000000000E+00 -0.41982572000E+02  0.41982572000E+02  0.00000000000E+00 0. -1.
         25    2    1    2    0    0  0.14231666930E+03 -0.13437195843E+03  0.73050316655E+03  0.76654541871E+03  0.12508854872E+03 0.  0.
          5    1    3    3  502    0  0.24313387659E+02 -0.85488748052E+02  0.17250824103E+03  0.19410314909E+03  0.41800000000E+01 0. -1.
         -5    1    3    3    0  502  0.11800328164E+03 -0.48883210380E+02  0.55799492552E+03  0.57244226961E+03  0.41800000000E+01 0. -1.
        -11    1    1    2    0    0 -0.68811669636E+02  0.10518892553E+03  0.19912818536E+03  0.23548203782E+03  0.00000000000E+00 0.  1.
         11    1    1    2    0    0 -0.73504999661E+02  0.29183032901E+02  0.26453327318E+03  0.27610231256E+03  0.00000000000E+00 0. -1.
</event>
<event>
 7    1  0.2612213E-009  0.1120910E+03  0.7561462E-02  0.1256746E+00
         -1   -1    0    0    0  501 -0.00000000000E+00  0.00000000000E+00  0.57579312602E+02  0.57579312602E+02  0.00000000000E+00 0.  1.
          1   -1    0    0  501    0  0.00000000000E+00 -0.00000000000E+00 -0.27354747964E+03  0.27354747964E+03  0.00000000000E+00 0. -1.
         25    2    1    2    0    0  0.32282742448E+02 -0.23805592661E+02 -0.19326487005E+03  0.23368327961E+03  0.12509070098E+03 0.  0.
          5    1    3    3  502    0  0.71736267115E+02 -0.45602239754E+02 -0.11207290816E+03  0.14072478613E+03  0.41800000000E+01 0. -1.
         -5    1    3    3    0  502 -0.39453524668E+02  0.21796647093E+02 -0.81191961895E+02  0.92958493477E+02  0.41800000000E+01 0. -1.
        -11    1    1    2    0    0 -0.81720385249E+01  0.54312280556E+02 -0.64574299587E+01  0.55301938795E+02  0.00000000000E+00 0.  1.
         11    1    1    2    0    0 -0.24110703923E+02 -0.30506687895E+02 -0.16245867034E+02  0.42141573840E+02  0.00000000000E+00 0. -1.
</event>
<event>
 7    1  0.2612213E-009  0.1953082E+03  0.7561462E-02  0.1153759E+00
         -2   -1    0    0    0  501 -0.00000000000E+00  0.00000000000E+00  0.14404769622E+03  0.14404769622E+03  0.00000000000E+00 0. -1.
          2   -1    0    0  501    0  0.00000000000E+00 -0.00000000000E+00 -0.35258607961E+03  0.35258607961E+03  0.00000000000E+00 0.  1.
         25    2    1    2    0    0  0.13750316774E+03 -0.12163141099E+03 -0.28007335343E+02  0.22390712842E+03  0.12509464434E+03 0.  0.
          5    1    3    3  502    0  0.33419376169E+02 -0.93550709472E+01  0.42728586873E+02  0.55204860222E+02  0.41800000000E+01 0. -1.
         -5    1    3    3    0  502  0.10408379157E+03 -0.11227634005E+03 -0.70735922216E+02  0.16870226819E+03  0.41800000000E+01 0. -1.
        -11    1    1    2    0    0 -0.50480506213E+02 -0.29194322819E+01 -0.62099668555E+02  0.80082291594E+02  0.00000000000E+00 0. -1.
         11    1    1    2    0    0 -0.87022661525E+02  0.12455084328E+03 -0.11843137950E+03  0.19264435582E+03  0.00000000000E+00 0.  1.
</event>
<event>
 7    1  0.2612213E-009  0.1194604E+03  0.7561462E-02  0.1243990E+00
          2   -1    0    0  501    0  0.00000000000E+00  0.00000000000E+00  0.96331085494E+03  0.96331085494E+03  0.00000000000E+00 0. -1.
         -2   -1    0    0    0  501 -0.00000000000E+00 -0.00000000000E+00 -0.17708447829E+02  0.17708447829E+02  0.00000000000E+00 0.  1.
         25    2    1    2    0    0 -0.74102937762E+02 -0.91970027375E+01  0.58798364535E+03  0.60576233396E+03  0.12508959906E+03 0.  0.
          5    1    3    3  502    0 -0.60545309010E+02  0.47683976623E+02  0.43763445888E+03  0.44438821774E+03  0.41800000000E+01 0. -1.
         -5    1    3    3    0  502 -0.13557628752E+02 -0.56880979360E+02  0.15034918647E+03  0.16137411621E+03  0.41800000000E+01 0. -1.
        -11    1    1    2    0    0  0.23745883306E+02  0.38218453577E+02  0.81578077330E+02  0.93163833480E+02  0.00000000000E+00 0.  1.
         11    1    1    2    0    0  0.50357054456E+02 -0.29021450840E+02  0.27604068443E+03  0.28209313534E+03  0.00000000000E+00 0. -1.
</event>
<event>
 7    1  0.2612213E-009  0.1028531E+03  0.7561462E-02  0.1274408E+00
          2   -1    0    0  501    0  0.00000000000E+00  0.00000000000E+00  0.61228741101E+02  0.61228741101E+02  0.00000000000E+00 0. -1.
         -2   -1    0    0    0  501 -0.00000000000E+00 -0.00000000000E+00 -0.25999932110E+03  0.25999932110E+03  0.00000000000E+00 0.  1.
         25    2    1    2    0    0 -0.22813960606E+02  0.58448327794E+02 -0.13126636671E+03  0.19187395818E+03  0.12509225786E+03 0.  0.
          5    1    3    3  502    0 -0.39996231703E+02  0.82987015859E+02 -0.49435570210E+02  0.10463217170E+03  0.41800000000E+01 0.  1.
         -5    1    3    3    0  502  0.17182271097E+02 -0.24538688066E+02 -0.81830796503E+02  0.87241786481E+02  0.41800000000E+01 0.  1.
        -11    1    1    2    0    0  0.24393973476E+02 -0.68683104938E+02 -0.13201055698E+02  0.74072280358E+02  0.00000000000E+00 0. -1.
         11    1    1    2    0    0 -0.15800128700E+01  0.10234777144E+02 -0.54303157587E+02  0.55281823665E+02  0.00000000000E+00 0.  1.
</event>
<event>
 7    1  0.2612213E-009  0.1191259E+03  0.7561462E-02  0.1244546E+00
          2   -1    0    0  501    0  0.00000000000E+00  0.00000000000E+00  0.68238526312E+03  0.68238526312E+03  0.00000000000E+00 0. -1.
         -2   -1    0    0    0  501 -0.00000000000E+00 -0.00000000000E+00 -0.35116358065E+02  0.35116358065E+02  0.00000000000E+00 0.  1.
         25    2    1    2    0    0 -0.66318215202E+02  0.25273587722E+02  0.15424827576E+03  0.21089451405E+03  0.12508839105E+03 0.  0.
          5    1    3    3  502    0 -0.92096552425E+02  0.36759854515E+01  0.58307756172E+02  0.10914465020E+03  0.41800000000E+01 0.  1.
         -5    1    3    3    0  502  0.25778337222E+02  0.21597602270E+02  0.95940519588E+02  0.10174986385E+03  0.41800000000E+01 0.  1.
        -11    1    1    2    0    0 -0.20053830786E+02  0.48357748482E+01  0.47378763659E+02  0.51674830367E+02  0.00000000000E+00 0.  1.
         11    1    1    2    0    0  0.86372045988E+02 -0.30109362570E+02  0.44564186563E+03  0.45493227677E+03  0.00000000000E+00 0. -1.
</event>
<event>
 7    1  0.2612213E-009  0.1047157E+03  0.7561462E-02  0.1270681E+00
          2   -1    0    0  501    0  0.00000000000E+00  0.00000000000E+00  0.35370302931E+03  0.35370302931E+03  0.00000000000E+00 0. -1.
         -2   -1    0    0    0  501 -0.00000000000E+00 -0.00000000000E+00 -0.37748927841E+02  0.37748927841E+02  0.00000000000E+00 0.  1.
         25    2    1    2    0    0  0.18032676990E+02 -0.26861357443E+02  0.19379781204E+03  0.23292139562E+03  0.12509226443E+03 0.  0.
          5    1    3    3  502    0 -0.15668508581E+00 -0.67948350410E+02  0.56729549649E+02  0.88615557760E+02  0.41800000000E+01 0. -1.
         -5    1    3    3    0  502  0.18189362076E+02  0.41086992967E+02  0.13706826239E+03  0.14430583786E+03  0.41800000000E+01 0. -1.
        -11    1    1    2    0    0 -0.29574613037E+02  0.56856314161E+02  0.56530364400E+02  0.85457476533E+02  0.00000000000E+00 0.  1.
         11    1    1    2    0    0  0.11541936047E+02 -0.29994956718E+02  0.65625925030E+02  0.73073085006E+02  0.00000000000E+00 0. -1.
</event>
<event>
 7    1  0.2612213E-009  0.7655138E+02  0.7561462E-02  0.1339133E+00
          1   -1    0    0  501    0  0.00000000000E+00  0.00000000000E+00  0.11963480872E+03  0.11963480872E+03  0.00000000000E+00 0. -1.
         -1   -1    0    0    0  501 -0.00000000000E+00 -0.00000000000E+00 -0.11879360391E+03  0.11879360391E+03  0.00000000000E+00 0.  1.
         25    2    1    2    0    0 -0.38319392751E+02 -0.11978466908E+02 -0.31537155064E+02  0.13510807924E+03  0.12509093251E+03 0.  0.
          5    1    3    3  502    0 -0.32015258851E+02  0.92381043401E+01  0.44531306263E+02  0.55774806217E+02  0.41800000000E+01 0.  1.
         -5    1    3    3    0  502 -0.63041339004E+01 -0.21216571248E+02 -0.76068461327E+02  0.79333273022E+02  0.41800000000E+01 0.  1.
        -11    1    1    2    0    0 -0.25322120421E+02 -0.13197921183E+02  0.16795611122E+02  0.33128348270E+02  0.00000000000E+00 0.  1.
         11    1    1    2    0    0  0.63641513172E+02  0.25176388090E+02  0.15582748754E+02  0.70191985118E+02  0.00000000000E+00 0. -1.
</event>
<event>
 7    1  0.2612213E-009  0.2183605E+03  0.7561462E-02  0.1135111E+00
          1   -1    0    0  501    0  0.00000000000E+00  0.00000000000E+00  0.11210943850E+04  0.11210943850E+04  0.00000000000E+00 0. -1.
         -1   -1    0    0    0  501 -0.00000000000E+00 -0.00000000000E+00 -0.44301603804E+02  0.44301603804E+02  0.00000000000E+00 0.  1.
         25    2    1    2    0    0  0.19316407157E+03  0.13985594843E+02  0.52324349765E+03  0.57178598065E+03  0.12508994533E+03 0.  0.
          5    1    3    3  502    0  0.20093156489E+03  0.37176656142E+02  0.44475778648E+03  0.48947171376E+03  0.41800000000E+01 0. -1.
         -5    1    3    3    0  502 -0.77674933162E+01 -0.23191061299E+02  0.78485711165E+02  0.82314266890E+02  0.41800000000E+01 0. -1.
        -11    1    1    2    0    0 -0.31205116890E+02  0.26096919006E+02  0.17925874648E+03  0.18381650277E+03  0.00000000000E+00 0. -1.
         11    1    1    2    0    0 -0.16195895468E+03 -0.40082513849E+02  0.37429053705E+03  0.40979350537E+03  0.00000000000E+00 0.  1.
</event>
<event>
 7    1  0.2612213E-009  0.9904895E+02  0.7561462E-02  0.1282309E+00
         -1   -1    0    0    0  501 -0.00000000000E+00  0.00000000000E+00  0.14540404547E+02  0.14540404547E+02  0.00000000000E+00 0.  1.
          1   -1    0    0  501    0  0.00000000000E+00 -0.00000000000E+00 -0.12338834033E+04  0.12338834033E+04  0.00000000000E+00 0. -1.
         25    2    1    2    0    0  0.34057384668E+02 -0.47050241500E+02 -0.90976694486E+03  0.92016173926E+03  0.12509237290E+03 0.  0.
          5    1    3    3  502    0  0.18700803933E+02 -0.71235107989E+02 -0.85532663370E+03  0.85850176668E+03  0.41800000000E+01 0.  1.
         -5    1    3    3    0  502  0.15356580735E+02  0.24184866489E+02 -0.54440311164E+02  0.61659972580E+02  0.41800000000E+01 0.  1.
        -11    1    1    2    0    0 -0.58117709925E+02  0.27110972973E+02 -0.27166825617E+03  0.27913493954E+03  0.00000000000E+00 0. -1.
         11    1    1    2    0    0  0.24060325257E+02  0.19939268527E+02 -0.37907797745E+02  0.49127129071E+02  0.00000000000E+00 0.  1.
</event>
