<event>
 8    1  0.7262913E-009  0.1004897E+03  0.7561462E-02  0.1279270E+00
         -1   -1    0    0    0  501 -0.00000000000E+00  0.00000000000E+00  0.18973731842E+02  0.18973731842E+02  0.00000000000E+00 0.  1.
          1   -1    0    0  501    0  0.00000000000E+00 -0.00000000000E+00 -0.75582273734E+03  0.75582273734E+03  0.00000000000E+00 0. -1.
         25    2    1    2    0    0  0.51151666137E+02  0.41555232461E+01 -0.39925258210E+03  0.42152487321E+03  0.12508730191E+03 0.  0.
         23    2    1    2    0    0 -0.51151666137E+02 -0.41555232461E+01 -0.33759642340E+03  0.35327159598E+03  0.90530183408E+02 0.  0.
          5    1    3    3  502    0  0.79671999824E+02 -0.29024646264E+01 -0.14481922424E+03  0.16536665918E+03  0.41800000000E+01 0. -1.
         -5    1    3    3    0  502 -0.28520333687E+02  0.70579878725E+01 -0.25443335785E+03  0.25615821403E+03  0.41800000000E+01 0. -1.
        -11    1    4    4    0    0 -0.21061165827E+02  0.35748227127E+02 -0.72742059338E+02  0.83743152827E+02  0.00000000000E+00 0.  1.
         11    1    4    4    0    0 -0.30090500310E+02 -0.39903750373E+02 -0.26485436406E+03  0.26952844315E+03  0.00000000000E+00 0. -1.
</event>
<event>
 8    1  0.7262913E-009  0.1225501E+03  0.7561462E-02  0.1238948E+00
         -2   -1    0    0    0  501 -0.00000000000E+00  0.00000000000E+00  0.21642779060E+03  0.21642779060E+03  0.00000000000E+00 0. -1.
          2   -1    0    0  501    0  0.00000000000E+00 -0.00000000000E+00 -0.96119989316E+02  0.96119989316E+02  0.00000000000E+00 0.  1.
         25    2    1    2    0    0 -0.59126533206E+02 -0.66793903265E+02  0.90848561568E+02  0.17849302761E+03  0.12509567269E+03 0.  0.
         23    2    1    2    0    0  0.59126533206E+02  0.66793903265E+02  0.29459239720E+02  0.13405475231E+03  0.95631884686E+02 0.  0.
          5    1    3    3  502    0 -0.65946962822E+02 -0.77725621555E+02  0.17015496467E+02  0.10342762528E+03  0.41800000000E+01 0. -1.
         -5    1    3    3    0  502  0.68204296160E+01  0.10931718290E+02  0.73833065101E+02  0.75065402331E+02  0.41800000000E+01 0. -1.
        -11    1    4    4    0    0 -0.23996601116E+02  0.30568298327E+02  0.48822372387E+00  0.38865101185E+02  0.00000000000E+00 0.  1.
         11    1    4    4    0    0  0.83123134322E+02  0.36225604938E+02  0.28971015996E+02  0.95189651120E+02  0.00000000000E+00 0. -1.
</event>
<event>
 8    1  0.7262913E-009  0.1436735E+03  0.7561462E-02  0.1208470E+00
          2   -1    0    0  501    0  0.00000000000E+00  0.00000000000E+00  0.18695031221E+03  0.18695031221E+03  0.00000000000E+00 0. -1.
         -2   -1    0    0    0  501 -0.00000000000E+00 -0.00000000000E+00 -0.14066351952E+03  0.14066351952E+03  0.00000000000E+00 0.  1.
         25    2    1    2    0    0  0.77555159040E+02  0.80988718895E+02  0.65372112127E+02  0.18027094897E+03  0.12510046650E+03 0.  0.
         23    2    1    2    0    0 -0.77555159040E+02 -0.80988718895E+02 -0.19085319433E+02  0.14734288275E+03  0.93657356347E+02 0.  0.
          5    1    3    3  502    0 -0.28812541458E+02  0.11116294200E+02 -0.94705799258E+01  0.32571441880E+02  0.41800000000E+01 0. -1.
         -5    1    3    3    0  502  0.10636770050E+03  0.69872424694E+02  0.74842692053E+02  0.14769950709E+03  0.41800000000E+01 0. -1.
        -11    1    4    4    0    0 -0.58504827184E+01 -0.50656872513E+02 -0.42132050895E+02  0.66147234209E+02  0.00000000000E+00 0.  1.
         11    1    4    4    0    0 -0.71704676322E+02 -0.30331846381E+02  0.23046731462E+02  0.81195648543E+02  0.00000000000E+00 0. -1.
</event>
<event>
 8    1  0.7262913E-009  0.1380356E+03  0.7561462E-02  0.1215997E+00
         -1   -1    0    0    0  501 -0.00000000000E+00  0.00000000000E+00  0.19364933642E+03  0.19364933642E+03  0.00000000000E+00 0.  1.
          1   -1    0    0  501    0  0.00000000000E+00 -0.00000000000E+00 -0.12982864649E+03  0.12982864649E+03  0.00000000000E+00 0. -1.
         25    2    1    2    0    0  0.78500069107E+02 -0.65422480670E+02 -0.22458940835E+02  0.16307480026E+03  0.12508646861E+03 0.  0.
         23    2    1    2    0    0 -0.78500069107E+02  0.65422480670E+02  0.86279630768E+02  0.16040318265E+03  0.88558706480E+02 0.  0.
          5    1    3    3  502    0 -0.33149775713E+02 -0.26390101758E+02 -0.12149784304E+02  0.44276797075E+02  0.41800000000E+01 0.  1.
         -5    1    3    3    0  502  0.11164984482E+03 -0.39032378912E+02 -0.10309156531E+02  0.11879800318E+03  0.41800000000E+01 0.  1.
        -11    1    4    4    0    0 -0.83577076217E+02  0.46686925083E+02  0.98586459494E+02  0.13741938232E+03  0.00000000000E+00 0.  1.
         11    1    4    4    0    0  0.50770071099E+01  0.18735555587E+02 -0.12306828726E+02  0.22983800330E+02  0.00000000000E+00 0. -1.
</event>
<event>
 8    1  0.7262913E-009  0.1038338E+03  0.7561462E-02  0.1272434E+00
          3   -1    0    0  501    0  0.00000000000E+00  0.00000000000E+00  0.14427566780E+03  0.14427566780E+03  0.00000000000E+00 0. -1.
         -3   -1    0    0    0  501 -0.00000000000E+00 -0.00000000000E+00 -0.11204433318E+03  0.11204433318E+03  0.00000000000E+00 0.  1.
         25    2    1    2    0    0 -0.38664475058E+02  0.53470348282E+02  0.28909023513E+02  0.14435169812E+03  0.12509061248E+03 0.  0.
         23    2    1    2    0    0  0.38664475058E+02 -0.53470348282E+02  0.33223111145E+01  0.11196830287E+03  0.90398248426E+02 0.  0.
          5    1    3    3  502    0 -0.72522850403E+02  0.29663655815E+02 -0.19169176966E+02  0.80773919383E+02  0.41800000000E+01 0. -1.
         -5    1    3    3    0  502  0.33858375346E+02  0.23806692467E+02  0.48078200479E+02  0.63577778732E+02  0.41800000000E+01 0. -1.
        -11    1    4    4    0    0  0.33908483180E+02  0.10698649558E-01  0.35726121452E+02  0.49255873762E+02  0.00000000000E+00 0.  1.
         11    1    4    4    0    0  0.47559918775E+01 -0.53481046932E+02 -0.32403810338E+02  0.62712429103E+02  0.00000000000E+00 0. -1.
</event>
<event>
 8    1  0.7262913E-009  0.2195119E+03  0.7561462E-02  0.1134247E+00
         -2   -1    0    0    0  501 -0.00000000000E+00  0.00000000000E+00  0.66664420641E+02  0.66664420641E+02  0.00000000000E+00 0.  1.
          2   -1    0    0  501    0  0.00000000000E+00 -0.00000000000E+00 -0.10314914473E+04  0.10314914473E+04  0.00000000000E+00 0. -1.
         25    2    1    2    0    0  0.20350750164E+03  0.56892391774E+02 -0.72783583936E+03  0.76814365434E+03  0.12509043602E+03 0.  0.
         23    2    1    2    0    0 -0.20350750164E+03 -0.56892391774E+02 -0.23699118731E+03  0.33001221361E+03  0.89951046693E+02 0.  0.
          5    1    3    3  502    0  0.14889074771E+03  0.75908422149E+02 -0.64957891960E+03  0.67074644128E+03  0.41800000000E+01 0.  1.
         -5    1    3    3    0  502  0.54616753932E+02 -0.19016030375E+02 -0.78256919760E+02  0.97397213059E+02  0.41800000000E+01 0.  1.
        -11    1    4    4    0    0 -0.69710771113E+02 -0.35961213953E+02 -0.14937152950E+03  0.16871471288E+03  0.00000000000E+00 0. -1.
         11    1    4    4    0    0 -0.13379673053E+03 -0.20931177821E+02 -0.87619657810E+02  0.16129750072E+03  0.00000000000E+00 0.  1.
</event>
<event>
 8    1  0.7262913E-009  0.9161449E+02  0.7561462E-02  0.1298988E+00
          2   -1    0    0  501    0  0.00000000000E+00  0.00000000000E+00  0.35411605382E+03  0.35411605382E+03  0.00000000000E+00 0. -1.
         -2   -1    0    0    0  501 -0.00000000000E+00 -0.00000000000E+00 -0.47783916279E+02  0.47783916279E+02  0.00000000000E+00 0.  1.
         25    2    1    2    0    0 -0.59413984354E+02  0.43325412366E+02  0.16983712796E+03  0.22338258645E+03  0.12509203413E+03 0.  0.
         23    2    1    2    0    0  0.59413984354E+02 -0.43325412366E+02  0.13649500959E+03  0.17851738365E+03  0.88489862306E+02 0.  0.
          5    1    3    3  502    0 -0.68096826901E+02  0.36164403205E+01  0.24773128985E+02  0.72673494441E+02  0.41800000000E+01 0.  1.
         -5    1    3    3    0  502  0.86828425471E+01  0.39708972046E+02  0.14506399897E+03  0.15070909201E+03  0.41800000000E+01 0.  1.
        -11    1    4    4    0    0  0.24531957489E+02 -0.12680937527E+02 -0.63324961567E+01  0.28332377634E+02  0.00000000000E+00 0.  1.
         11    1    4    4    0    0  0.34882026865E+02 -0.30644474840E+02  0.14282750574E+03  0.15018500602E+03  0.00000000000E+00 0. -1.
</event>
<event>
 8    1  0.7262913E-009  0.2048116E+03  0.7561462E-02  0.1145742E+00
          2   -1    0    0  501    0  0.00000000000E+00  0.00000000000E+00  0.57691227310E+02  0.57691227310E+02  0.00000000000E+00 0. -1.
         -2   -1    0    0    0  501 -0.00000000000E+00 -0.00000000000E+00 -0.81125963676E+03  0.81125963676E+03  0.00000000000E+00 0.  1.
         25    2    1    2    0    0 -0.18198672298E+03 -0.61976286980E+01 -0.46989832511E+03  0.51923916759E+03  0.12508916528E+03 0.  0.
         23    2    1    2    0    0  0.18198672298E+03  0.61976286980E+01 -0.28367008434E+03  0.34971169648E+03  0.93123444782E+02 0.  0.
          5    1    3    3  502    0 -0.15413951428E+03 -0.55708431213E+02 -0.35078034181E+03  0.38720374452E+03  0.41800000000E+01 0.  1.
         -5    1    3    3    0  502 -0.27847208693E+02  0.49510802515E+02 -0.11911798330E+03  0.13203542306E+03  0.41800000000E+01 0.  1.
        -11    1    4    4    0    0  0.29692179002E+02 -0.17682415488E+02 -0.10624170928E+02  0.36154755140E+02  0.00000000000E+00 0. -1.
         11    1    4    4    0    0  0.15229454397E+03  0.23880044186E+02 -0.27304591341E+03  0.31355694134E+03  0.00000000000E+00 0.  1.
</event>
<event>
 8    1  0.7262913E-009  0.3157474E+02  0.7561462E-02  0.1581307E+00
         -1   -1    0    0    0  501 -0.00000000000E+00  0.00000000000E+00  0.25806806336E+02  0.25806806336E+02  0.00000000000E+00 0.  1.
          1   -1    0    0  501    0  0.00000000000E+00 -0.00000000000E+00 -0.63535433449E+03  0.63535433449E+03  0.00000000000E+00 0. -1.
         25    2    1    2    0    0 -0.62720063362E+01 -0.42632656548E+01 -0.51691201636E+03  0.53188526747E+03  0.12508553714E+03 0.  0.
         23    2    1    2    0    0  0.62720063362E+01  0.42632656548E+01 -0.92635511800E+02  0.12927587336E+03  0.89852100079E+02 0.  0.
          5    1    3    3  502    0  0.53916986033E+01 -0.77750251017E+01  0.37957775581E+01  0.11018246523E+02  0.41800000000E+01 0.  1.
         -5    1    3    3    0  502 -0.11663704939E+02  0.35117594469E+01 -0.52070779391E+03  0.52086702095E+03  0.41800000000E+01 0.  1.
        -11    1    4    4    0    0  0.16287547799E+02 -0.12410509784E+02 -0.10450328706E+03  0.10649057222E+03  0.00000000000E+00 0. -1.
         11    1    4    4    0    0 -0.10015541463E+02  0.16673775439E+02  0.11867775259E+02  0.22785301134E+02  0.00000000000E+00 0.  1.
</event>
<event>
 8    1  0.7262913E-009  0.8054751E+02  0.7561462E-02  0.1327505E+00
          1   -1    0    0  501    0  0.00000000000E+00  0.00000000000E+00  0.38697344880E+03  0.38697344880E+03  0.00000000000E+00 0. -1.
         -1   -1    0    0    0  501 -0.00000000000E+00 -0.00000000000E+00 -0.42632175555E+02  0.42632175555E+02  0.00000000000E+00 0.  1.
         25    2    1    2    0    0 -0.62813720573E+02 -0.10115576804E+02  0.21527515581E+03  0.25698118066E+03  0.12509215051E+03 0.  0.
         23    2    1    2    0    0  0.62813720573E+02  0.10115576804E+02  0.12906611744E+03  0.17262444370E+03  0.95358520883E+02 0.  0.
          5    1    3    3  502    0 -0.32264337713E+02 -0.17899797645E+02  0.22148748331E+03  0.22457864526E+03  0.41800000000E+01 0. -1.
         -5    1    3    3    0  502 -0.30549382859E+02  0.77842208417E+01 -0.62123275024E+01  0.32402535398E+02  0.41800000000E+01 0. -1.
        -11    1    4    4    0    0  0.11117602920E+02  0.33591687643E+02  0.10527886810E+03  0.11106593826E+03  0.00000000000E+00 0. -1.
         11    1    4    4    0    0  0.51696117653E+02 -0.23476110840E+02  0.23787249338E+02  0.61558505437E+02  0.00000000000E+00 0.  1.
</event>
<event>
 8    1  0.7262913E-009  0.9196374E+02  0.7561462E-02  0.1298165E+00
         -2   -1    0    0    0  501 -0.00000000000E+00  0.00000000000E+00  0.10485821070E+03  0.10485821070E+03  0.00000000000E+00 0.  1.
          2   -1    0    0  501    0  0.00000000000E+00 -0.00000000000E+00 -0.18200565148E+03  0.18200565148E+03  0.00000000000E+00 0. -1.
         25    2    1    2    0    0  0.24340876586E+02 -0.63616749644E+01  0.41899189775E+02  0.13430115907E+03  0.12509320542E+03 0.  0.
         23    2    1    2    0    0 -0.24340876586E+02  0.63616749644E+01 -0.11904663056E+03  0.15256270311E+03  0.92034390052E+02 0.  0.
          5    1    3    3  502    0  0.33838149530E+01  0.41829821293E+02 -0.25077278164E+02  0.49066551063E+02  0.41800000000E+01 0. -1.
         -5    1    3    3    0  502  0.20957061633E+02 -0.48191496258E+02  0.66976467939E+02  0.85234608003E+02  0.41800000000E+01 0. -1.
        -11    1    4    4    0    0 -0.40369856862E+02 -0.29337263416E+02 -0.38554458876E+02  0.63062244386E+02  0.00000000000E+00 0. -1.
         11    1    4    4    0    0  0.16028980275E+02  0.35698938380E+02 -0.80492171682E+02  0.89500458726E+02  0.00000000000E+00 0.  1.
</event>
<event>
 8    1  0.7262913E-009  0.1480401E+03  0.7561462E-02  0.1202902E+00
          2   -1    0    0  501    0  0.00000000000E+00  0.00000000000E+00  0.95243155143E+03  0.95243155143E+03  0.00000000000E+00 0. -1.
         -2   -1    0    0    0  501 -0.00000000000E+00 -0.00000000000E+00 -0.25428417899E+02  0.25428417899E+02  0.00000000000E+00 0.  1.
         25    2    1    2    0    0  0.14292249360E+02 -0.11023724672E+03  0.45476761335E+03  0.48458012168E+03  0.12509113964E+03 0.  0.
         23    2    1    2    0    0 -0.14292249360E+02  0.11023724672E+03  0.47223552018E+03  0.49327984765E+03  0.89230614832E+02 0.  0.
          5    1    3    3  502    0 -0.45462572177E+02 -0.35301470444E+02  0.86224633795E+02  0.10375547772E+03  0.41800000000E+01 0.  1.
         -5    1    3    3    0  502  0.59754821536E+02 -0.74935776279E+02  0.36854297956E+03  0.38082464395E+03  0.41800000000E+01 0.  1.
        -11    1    4    4    0    0 -0.34517895770E+02  0.45344131713E+01  0.12388005071E+03  0.12867910861E+03  0.00000000000E+00 0. -1.
         11    1    4    4    0    0  0.20225646410E+02  0.10570283355E+03  0.34835546948E+03  0.36460073904E+03  0.00000000000E+00 0.  1.
</event>
<event>
 8    1  0.7262913E-009  0.1602842E+03  0.7561462E-02  0.1188376E+00
          2   -1    0    0  501    0  0.00000000000E+00  0.00000000000E+00  0.15872892723E+04  0.15872892723E+04  0.00000000000E+00 0. -1.
         -2   -1    0    0    0  501 -0.00000000000E+00 -0.00000000000E+00 -0.28107963471E+02  0.28107963471E+02  0.00000000000E+00 0.  1.
         25    2    1    2    0    0 -0.11708541734E+02 -0.12825014043E+03  0.12951939905E+04  0.13075780409E+04  0.12509065395E+03 0.  0.
         23    2    1    2    0    0  0.11708541734E+02  0.12825014043E+03  0.26398731839E+03  0.30781919487E+03  0.92076946022E+02 0.  0.
          5    1    3    3  502    0 -0.51050219399E+02 -0.10882905835E+03  0.11374813286E+04  0.11438230345E+04  0.41800000000E+01 0. -1.
         -5    1    3    3    0  502  0.39341677665E+02 -0.19421082087E+02  0.15771266184E+03  0.16375500644E+03  0.41800000000E+01 0. -1.
        -11    1    4    4    0    0 -0.21134245086E+02  0.12067300230E+03  0.22573096458E+03  0.25683282144E+03  0.00000000000E+00 0. -1.
         11    1    4    4    0    0  0.32842786820E+02  0.75771381322E+01  0.38256353805E+02  0.50986373423E+02  0.00000000000E+00 0.  1.
</event>
<event>
 8    1  0.7262913E-009  0.1235640E+03  0.7561462E-02  0.1237331E+00
          3   -1    0    0  501    0  0.00000000000E+00  0.00000000000E+00  0.66953800062E+02  0.66953800062E+02  0.00000000000E+00 0. -1.
         -3   -1    0    0    0  501 -0.00000000000E+00 -0.00000000000E+00 -0.25124280360E+03  0.25124280360E+03  0.00000000000E+00 0.  1.
         25    2    1    2    0    0  0.65100583303E+02 -0.18776237992E+02 -0.61965753670E+02  0.15516878179E+03  0.12508782177E+03 0.  0.
         23    2    1    2    0    0 -0.65100583303E+02  0.18776237992E+02 -0.12232324987E+03  0.16302782187E+03  0.83812052753E+02 0.  0.
          5    1    3    3  502    0  0.92746227793E+02 -0.43584782752E+02 -0.57344765967E+02  0.11750485369E+03  0.41800000000E+01 0. -1.
         -5    1    3    3    0  502 -0.27645644491E+02  0.24808544760E+02 -0.46209877030E+01  0.37663928098E+02  0.41800000000E+01 0. -1.
        -11    1    4    4    0    0  0.17725975510E+02  0.16670222109E+02 -0.20999051908E+02  0.32141354887E+02  0.00000000000E+00 0.  1.
         11    1    4    4    0    0 -0.82826558812E+02  0.21060158827E+01 -0.10132419796E+03  0.13088646698E+03  0.00000000000E+00 0. -1.
</event>
<event>
 8    1  0.7262913E-009  0.1111792E+03  0.7561462E-02  0.1258402E+00
         -1   -1    0    0    0  501 -0.00000000000E+00  0.00000000000E+00  0.14817412543E+03  0.14817412543E+03  0.00000000000E+00 0.  1.
          1   -1    0    0  501    0  0.00000000000E+00 -0.00000000000E+00 -0.13773917971E+03  0.13773917971E+03  0.00000000000E+00 0. -1.
         25    2    1    2    0    0  0.60924339192E+02  0.49841748135E+02  0.51828285479E+02  0.15662261740E+03  0.12509395725E+03 0.  0.
         23    2    1    2    0    0 -0.60924339192E+02 -0.49841748135E+02 -0.41393339760E+02  0.12929068775E+03  0.93844010993E+02 0.  0.
          5    1    3    3  502    0  0.74749019782E+02  0.65196022098E+02 -0.14931969383E+01  0.99285644949E+02  0.41800000000E+01 0.  1.
         -5    1    3    3    0  502 -0.13824680590E+02 -0.15354273963E+02  0.53321482417E+02  0.57336972448E+02  0.41800000000E+01 0.  1.
        -11    1    4    4    0    0 -0.12650544931E+02 -0.52162757547E+02 -0.57201874288E+02  0.78441341039E+02  0.00000000000E+00 0.  1.
         11    1    4    4    0    0 -0.48273794261E+02  0.23210094118E+01  0.15808534527E+02  0.50849346711E+02  0.00000000000E+00 0. -1.
</event>
<event>
 8    1  0.7262913E-009  0.1198819E+03  0.7561462E-02  0.1243292E+00
         -2   -1    0    0    0  501 -0.00000000000E+00  0.00000000000E+00  0.11689571141E+02  0.11689571141E+02  0.00000000000E+00 0.  1.
          2   -1    0    0  501    0  0.00000000000E+00 -0.00000000000E+00 -0.14093474805E+04  0.14093474805E+04  0.00000000000E+00 0. -1.
         25    2    1    2    0    0 -0.43552162998E+02  0.32969771103E+02 -0.10026713046E+04  0.10119182381E+04  0.12507988948E+03 0.  0.
         23    2    1    2    0    0  0.43552162998E+02 -0.32969771103E+02 -0.39498660478E+03  0.40911881360E+03  0.91542279714E+02 0.  0.
          5    1    3    3  502    0 -0.93625505341E+00 -0.45497541299E+02 -0.41091711661E+03  0.41345042261E+03  0.41800000000E+01 0. -1.
         -5    1    3    3    0  502 -0.42615907945E+02  0.78467312401E+02 -0.59175418800E+03  0.59846781546E+03  0.41800000000E+01 0. -1.
        -11    1    4    4    0    0 -0.98451372476E+01 -0.48161843190E+02 -0.22457453845E+03  0.22989174232E+03  0.00000000000E+00 0. -1.
         11    1    4    4    0    0  0.53397300246E+02  0.15192072087E+02 -0.17041206634E+03  0.17922707128E+03  0.00000000000E+00 0.  1.
</event>
<event>
 8    1  0.7262913E-009  0.1046579E+03  0.7561462E-02  0.1270795E+00
         -1   -1    0    0    0  501 -0.00000000000E+00  0.00000000000E+00  0.32293307979E+03  0.32293307979E+03  0.00000000000E+00 0.  1.
          1   -1    0    0  501    0  0.00000000000E+00 -0.00000000000E+00 -0.46691689771E+02  0.46691689771E+02  0.00000000000E+00 0. -1.
         25    2    1    2    0    0 -0.43139209188E+02 -0.44276619535E+01  0.94847979063E+02  0.16286107283E+03  0.12508794647E+03 0.  0.
         23    2    1    2    0    0  0.43139209188E+02  0.44276619535E+01  0.18139341096E+03  0.20676369673E+03  0.89258395608E+02 0.  0.
          5    1    3    3  502    0 -0.35450883285E+01 -0.58415333142E+02  0.19151149315E+02  0.61718374229E+02  0.41800000000E+01 0.  1.
         -5    1    3    3    0  502 -0.39594120860E+02  0.53987671189E+02  0.75696829748E+02  0.10114269860E+03  0.41800000000E+01 0.  1.
        -11    1    4    4    0    0  0.39863132037E+02 -0.29428301916E+02  0.15772608510E+03  0.16532577588E+03  0.00000000000E+00 0.  1.
         11    1    4    4    0    0  0.32760771512E+01  0.33855963869E+02  0.23667325858E+02  0.41437920849E+02  0.00000000000E+00 0. -1.
</event>
<event>
 8    1  0.7262913E-009  0.1867462E+03  0.7561462E-02  0.1161429E+00
          2   -1    0    0  501    0  0.00000000000E+00  0.00000000000E+00  0.19733097610E+03  0.19733097610E+03  0.00000000000E+00 0. -1.
         -2   -1    0    0    0  501 -0.00000000000E+00 -0.00000000000E+00 -0.23271783617E+03  0.23271783617E+03  0.00000000000E+00 0.  1.
         25    2    1    2    0    0  0.17166172609E+03 -0.63456271144E+02  0.24901911537E+01  0.22169323364E+03  0.12508893732E+03 0.  0.
         23    2    1    2    0    0 -0.17166172609E+03  0.63456271144E+02 -0.37877051227E+02  0.20835557863E+03  0.92102820720E+02 0.  0.
          5    1    3    3  502    0  0.16669140419E+02 -0.25633490906E+02 -0.45553596300E+02  0.55023073653E+02  0.41800000000E+01 0. -1.
         -5    1    3    3    0  502  0.15499258567E+03 -0.37822780237E+02  0.48043787454E+02  0.16667015999E+03  0.41800000000E+01 0. -1.
        -11    1    4    4    0    0 -0.92894033429E+02  0.32870189615E+02  0.26602661425E+02  0.10206592187E+03  0.00000000000E+00 0. -1.
         11    1    4    4    0    0 -0.78767692657E+02  0.30586081529E+02 -0.64479712652E+02  0.10628965676E+03  0.00000000000E+00 0.  1.
</event>
<event>
 8    1  0.7262913E-009  0.7000014E+02  0.7561462E-02  0.1360093E+00
          4   -1    0    0  501    0  0.00000000000E+00  0.00000000000E+00  0.11542836578E+03  0.11542836578E+03  0.00000000000E+00 0. -1.
         -4   -1    0    0    0  501 -0.00000000000E+00 -0.00000000000E+00 -0.14074943359E+03  0.14074943359E+03  0.00000000000E+00 0.  1.
         25    2    1    2    0    0  0.64944619099E+01 -0.20083044376E+02  0.49186703738E+02  0.13606099831E+03  0.12509099379E+03 0.  0.
         23    2    1    2    0    0 -0.64944619099E+01  0.20083044376E+02 -0.74507771542E+02  0.12011680107E+03  0.91821191297E+02 0.  0.
          5    1    3    3  502    0  0.40517738447E+02  0.16755597238E+02  0.69100264172E+02  0.81943615225E+02  0.41800000000E+01 0. -1.
         -5    1    3    3    0  502 -0.34023276537E+02 -0.36838641614E+02 -0.19913560434E+02  0.54117383080E+02  0.41800000000E+01 0. -1.
        -11    1    4    4    0    0 -0.22119832124E+02  0.27354912951E+01 -0.89590617002E+02  0.92321441392E+02  0.00000000000E+00 0.  1.
         11    1    4    4    0    0  0.15625370214E+02  0.17347553081E+02  0.15082845461E+02  0.27795359674E+02  0.00000000000E+00 0. -1.
</event>
<event>
 8    1  0.7262913E-009  0.8813287E+02  0.7561462E-02  0.1307437E+00
         -1   -1    0    0    0  501 -0.00000000000E+00  0.00000000000E+00  0.20485621602E+03  0.20485621602E+03  0.00000000000E+00 0.  1.
          1   -1    0    0  501    0  0.00000000000E+00 -0.00000000000E+00 -0.16037000137E+03  0.16037000137E+03  0.00000000000E+00 0. -1.
         25    2    1    2    0    0 -0.35101260574E+02 -0.67949533335E+02  0.14863828915E+03  0.20878259634E+03  0.12509034318E+03 0.  0.
         23    2    1    2    0    0  0.35101260574E+02  0.67949533335E+02 -0.10415207450E+03  0.15644362106E+03  0.88191350891E+02 0.  0.
          5    1    3    3  502    0  0.27436264534E+01 -0.18427800562E+02 -0.20776747086E+02  0.28218025075E+02  0.41800000000E+01 0. -1.
         -5    1    3    3    0  502 -0.37844887027E+02 -0.49521732773E+02  0.16941503624E+03  0.18056457126E+03  0.41800000000E+01 0. -1.
        -11    1    4    4    0    0  0.50504935580E+02  0.50326406199E+02 -0.27702679583E+02  0.76491399091E+02  0.00000000000E+00 0.  1.
         11    1    4    4    0    0 -0.15403675006E+02  0.17623127136E+02 -0.76449394920E+02  0.79952221967E+02  0.00000000000E+00 0. -1.
</event>
<event>
 8    1  0.7262913E-009  0.1090572E+03  0.7561462E-02  0.1262326E+00
          1   -1    0    0  501    0  0.00000000000E+00  0.00000000000E+00  0.97598661883E+02  0.97598661883E+02  0.00000000000E+00 0. -1.
         -1   -1    0    0    0  501 -0.00000000000E+00 -0.00000000000E+00 -0.24025424890E+03  0.24025424890E+03  0.00000000000E+00 0.  1.
         25    2    1    2    0    0  0.72248991482E+02  0.95110286109E+01 -0.16476078078E+03  0.21932577965E+03  0.12508919338E+03 0.  0.
         23    2    1    2    0    0 -0.72248991482E+02 -0.95110286109E+01  0.22105193762E+02  0.11852713113E+03  0.90827665324E+02 0.  0.
          5    1    3    3  502    0  0.53860219967E+02  0.39173604752E+02 -0.17106110602E+03  0.18361609133E+03  0.41800000000E+01 0.  1.
         -5    1    3    3    0  502  0.18388771514E+02 -0.29662576142E+02  0.63003252431E+01  0.35709688312E+02  0.41800000000E+01 0.  1.
        -11    1    4    4    0    0  0.20672181478E+02 -0.10759772459E+02  0.15825851230E+01  0.23358432441E+02  0.00000000000E+00 0.  1.
         11    1    4    4    0    0 -0.92921172960E+02  0.12487438481E+01  0.20522608639E+02  0.95168698692E+02  0.00000000000E+00 0. -1.
</event>
<event>
 8    1  0.7262913E-009  0.9597525E+02  0.7561462E-02  0.1288995E+00
          1   -1    0    0  501    0  0.00000000000E+00  0.00000000000E+00  0.64028909041E+03  0.64028909041E+03  0.00000000000E+00 0. -1.
         -1   -1    0    0    0  501 -0.00000000000E+00 -0.00000000000E+00 -0.33131405396E+02  0.33131405396E+02  0.00000000000E+00 0.  1.
         25    2    1    2    0    0 -0.64022143984E+02  0.69408291467E+02  0.28623096531E+03  0.32633049231E+03  0.12508828429E+03 0.  0.
         23    2    1    2    0    0  0.64022143984E+02 -0.69408291467E+02  0.32092671971E+03  0.34709000350E+03  0.92526565159E+02 0.  0.
          5    1    3    3  502    0 -0.24644816216E+02  0.14431649071E+02  0.24567929414E+03  0.24736901066E+03  0.41800000000E+01 0. -1.
         -5    1    3    3    0  502 -0.39377327768E+02  0.54976642396E+02  0.40551671166E+02  0.78961481658E+02  0.41800000000E+01 0. -1.
        -11    1    4    4    0    0  0.26672823473E+02 -0.19707980922E+02  0.17770974511E+02  0.37625145303E+02  0.00000000000E+00 0.  1.
         11    1    4    4    0    0  0.37349320511E+02 -0.49700310545E+02  0.30315574520E+03  0.30946485819E+03  0.00000000000E+00 0. -1.
</event>
<event>
 8    1  0.7262913E-009  0.1333040E+03  0.7561462E-02  0.1222634E+00
          1   -1    0    0  501    0  0.00000000000E+00  0.00000000000E+00  0.91907993950E+02  0.91907993950E+02  0.00000000000E+00 0. -1.
         -1   -1    0    0    0  501 -0.00000000000E+00 -0.00000000000E+00 -0.36258473747E+03  0.36258473747E+03  0.00000000000E+00 0.  1.
         25    2    1    2    0    0 -0.10215815771E+03  0.18595204690E+02 -0.27195366350E+03  0.31684288471E+03  0.12509415522E+03 0.  0.
         23    2    1    2    0    0  0.10215815771E+03 -0.18595204690E+02  0.12769199862E+01  0.13764984671E+03  0.90353632745E+02 0.  0.
          5    1    3    3  502    0 -0.10929681667E+03 -0.29888027478E+02 -0.19073061853E+03  0.22188900281E+03  0.41800000000E+01 0. -1.
         -5    1    3    3    0  502  0.71386589590E+01  0.48483232168E+02 -0.81223044974E+02  0.94953881901E+02  0.41800000000E+01 0. -1.
        -11    1    4    4    0    0  0.80024858374E+02 -0.17251019383E+02  0.41453461610E+02  0.91760367845E+02  0.00000000000E+00 0. -1.
         11    1    4    4    0    0  0.22133299338E+02 -0.13441853071E+01 -0.40176541624E+02  0.45889478866E+02  0.00000000000E+00 0.  1.
</event>
<event>
 8    1  0.7262913E-009  0.7345032E+02  0.7561462E-02  0.1348738E+00
         -1   -1    0    0    0  501 -0.00000000000E+00  0.00000000000E+00  0.14649850733E+03  0.14649850733E+03  0.00000000000E+00 0.  1.
          1   -1    0    0  501    0  0.00000000000E+00 -0.00000000000E+00 -0.94104245655E+02  0.94104245655E+02  0.00000000000E+00 0. -1.
         25    2    1    2    0    0 -0.13549046349E+02 -0.18509386630E+01 -0.14670451157E+02  0.12668563861E+03  0.12508807402E+03 0.  0.
         23    2    1    2    0    0  0.13549046349E+02  0.18509386630E+01  0.67064712828E+02  0.11391711437E+03  0.91062783888E+02 0.  0.
          5    1    3    3  502    0 -0.39307541496E+02 -0.26438989854E+02  0.39434345011E+02  0.61778984852E+02  0.41800000000E+01 0. -1.
         -5    1    3    3    0  502  0.25758495147E+02  0.24588051191E+02 -0.54104796167E+02  0.64906653757E+02  0.41800000000E+01 0. -1.
        -11    1    4    4    0    0  0.37959345612E+02  0.68519413783E+01  0.77760020599E+02  0.86801392981E+02  0.00000000000E+00 0.  1.
         11    1    4    4    0    0 -0.24410299263E+02 -0.50010027153E+01 -0.10695307771E+02  0.27115721392E+02  0.00000000000E+00 0. -1.
</event>
<event>
 8    1  0.7262913E-009  0.1670543E+03  0.7561462E-02  0.1180955E+00
          4   -1    0    0  501    0  0.00000000000E+00  0.00000000000E+00  0.12146225775E+03  0.12146225775E+03  0.00000000000E+00 0. -1.
         -4   -1    0    0    0  501 -0.00000000000E+00 -0.00000000000E+00 -0.28690215315E+03  0.28690215315E+03  0.00000000000E+00 0.  1.
         25    2    1    2    0    0 -0.92127327615E+02 -0.11586558519E+03 -0.52984802270E+02  0.20091430405E+03  0.12508752926E+03 0.  0.
         23    2    1    2    0    0  0.92127327615E+02  0.11586558519E+03 -0.11245509313E+03  0.20745010685E+03  0.92071279657E+02 0.  0.
          5    1    3    3  502    0 -0.83421037220E+02 -0.13833682477E+03 -0.64357193450E+02  0.17394098795E+03  0.41800000000E+01 0. -1.
         -5    1    3    3    0  502 -0.87062903957E+01  0.22471239582E+02  0.11372391180E+02  0.26973316109E+02  0.41800000000E+01 0. -1.
        -11    1    4    4    0    0  0.35307046489E+02  0.42301300806E+02  0.75945388248E+01  0.55620720974E+02  0.00000000000E+00 0.  1.
         11    1    4    4    0    0  0.56820281126E+02  0.73564284384E+02 -0.12004963195E+03  0.15182938588E+03  0.00000000000E+00 0. -1.
</event>
<event>
 8    1  0.7262913E-009  0.1231571E+03  0.7561462E-02  0.1237978E+00
          2   -1    0    0  501    0  0.00000000000E+00  0.00000000000E+00  0.18382903143E+03  0.18382903143E+03  0.00000000000E+00 0. -1.
         -2   -1    0    0    0  501 -0.00000000000E+00 -0.00000000000E+00 -0.10347088079E+03  0.10347088079E+03  0.00000000000E+00 0.  1.
         25    2    1    2    0    0 -0.36563988330E+02  0.53125627460E+02 -0.14023680213E+02  0.14143543458E+03  0.12509221004E+03 0.  0.
         23    2    1    2    0    0  0.36563988330E+02 -0.53125627460E+02  0.94381830849E+02  0.14586447764E+03  0.90604957411E+02 0.  0.
          5    1    3    3  502    0 -0.24794962745E+02  0.94311619959E+02 -0.73412954510E+01  0.97881759566E+02  0.41800000000E+01 0.  1.
         -5    1    3    3    0  502 -0.11769025585E+02 -0.41185992499E+02 -0.66823847623E+01  0.43553675017E+02  0.41800000000E+01 0.  1.
        -11    1    4    4    0    0  0.47989365269E+02  0.32969105413E+01  0.20718260034E+02  0.52374565362E+02  0.00000000000E+00 0.  1.
         11    1    4    4    0    0 -0.11425376939E+02 -0.56422538001E+02  0.73663570815E+02  0.93489912279E+02  0.00000000000E+00 0. -1.
</event>
<event>
 8    1  0.7262913E-009  0.2656040E+03  0.7561462E-02  0.1103822E+00
          2   -1    0    0  501    0  0.00000000000E+00  0.00000000000E+00  0.40100937998E+03  0.40100937998E+03  0.00000000000E+00 0. -1.
         -2   -1    0    0    0  501 -0.00000000000E+00 -0.00000000000E+00 -0.20645015514E+03  0.20645015514E+03  0.00000000000E+00 0.  1.
         25    2    1    2    0    0 -0.54771153664E+02  0.25358921687E+03  0.16316999951E+03  0.33102821931E+03  0.12509141878E+03 0.  0.
         23    2    1    2    0    0  0.54771153664E+02 -0.25358921687E+03  0.31389225321E+02  0.27643131581E+03  0.90120023908E+02 0.  0.
          5    1    3    3  502    0 -0.68910799477E+02  0.18352845128E+03  0.59263443638E+02  0.20484388901E+03  0.41800000000E+01 0.  1.
         -5    1    3    3    0  502  0.14139645813E+02  0.70060765590E+02  0.10390655588E+03  0.12618433030E+03  0.41800000000E+01 0.  1.
        -11    1    4    4    0    0 -0.52700094427E+01 -0.73615953903E+02  0.44623799451E+02  0.86245957274E+02  0.00000000000E+00 0.  1.
         11    1    4    4    0    0  0.60041163107E+02 -0.17997326297E+03 -0.13234574130E+02  0.19018535854E+03  0.00000000000E+00 0. -1.
</event>
<event>
 8    1  0.7262913E-009  0.1107654E+03  0.7561462E-02  0.1259159E+00
         -1   -1    0    0    0  501 -0.00000000000E+00  0.00000000000E+00  0.29578089498E+02  0.29578089498E+02  0.00000000000E+00 0.  1.
          1   -1    0    0  501    0  0.00000000000E+00 -0.00000000000E+00 -0.43484111692E+03  0.43484111692E+03  0.00000000000E+00 0. -1.
         25    2    1    2    0    0  0.21489846234E+02  0.14914005186E+02 -0.18907872784E+03  0.22821710725E+03  0.12509213276E+03 0.  0.
         23    2    1    2    0    0 -0.21489846234E+02 -0.14914005186E+02 -0.21618429958E+03  0.23620209917E+03  0.91496115890E+02 0.  0.
          5    1    3    3  502    0 -0.14354575869E+02 -0.50677885007E+02 -0.73884296226E+02  0.90833163030E+02  0.41800000000E+01 0. -1.
         -5    1    3    3    0  502  0.35844422103E+02  0.65591890193E+02 -0.11519443161E+03  0.13738394422E+03  0.41800000000E+01 0. -1.
        -11    1    4    4    0    0  0.34745168061E+02  0.28341203513E+01 -0.62042186939E+02  0.71165243637E+02  0.00000000000E+00 0.  1.
         11    1    4    4    0    0 -0.56235014296E+02 -0.17748125537E+02 -0.15414211264E+03  0.16503685553E+03  0.00000000000E+00 0. -1.
</event>
<event>
 8    1  0.7262913E-009  0.9727489E+02  0.7561462E-02  0.1286133E+00
          1   -1    0    0  501    0  0.00000000000E+00  0.00000000000E+00  0.13173350912E+03  0.13173350912E+03  0.00000000000E+00 0. -1.
         -1   -1    0    0    0  501 -0.00000000000E+00 -0.00000000000E+00 -0.98630901602E+02  0.98630901602E+02  0.00000000000E+00 0.  1.
         25    2    1    2    0    0  0.89561124686E+01  0.21829158089E+02 -0.76135120984E+01  0.12752285130E+03  0.12508951972E+03 0.  0.
         23    2    1    2    0    0 -0.89561124686E+01 -0.21829158089E+02  0.40716119616E+02  0.10284155942E+03  0.91443205619E+02 0.  0.
          5    1    3    3  502    0  0.56787450354E+02 -0.74375823857E+01  0.24875866739E+02  0.62581253546E+02  0.41800000000E+01 0. -1.
         -5    1    3    3    0  502 -0.47831337885E+02  0.29266740475E+02 -0.32489378837E+02  0.64941597756E+02  0.41800000000E+01 0. -1.
        -11    1    4    4    0    0 -0.42709182130E+02 -0.44789780624E+01  0.47775967455E+02  0.64239229050E+02  0.00000000000E+00 0. -1.
         11    1    4    4    0    0  0.33753069661E+02 -0.17350180027E+02 -0.70598478381E+01  0.38602330371E+02  0.00000000000E+00 0.  1.
</event>
<event>
 8    1  0.7262913E-009  0.1017977E+03  0.7561462E-02  0.1276560E+00
         -1   -1    0    0    0  501 -0.00000000000E+00  0.00000000000E+00  0.12502445066E+03  0.12502445066E+03  0.00000000000E+00 0.  1.
          1   -1    0    0  501    0  0.00000000000E+00 -0.00000000000E+00 -0.16518071033E+03  0.16518071033E+03  0.00000000000E+00 0. -1.
         25    2    1    2    0    0  0.47941288152E+02 -0.66689361476E+02  0.20384943485E+02  0.15102670708E+03  0.12509069624E+03 0.  0.
         23    2    1    2    0    0 -0.47941288152E+02  0.66689361476E+02 -0.60541203160E+02  0.13917845391E+03  0.94654987768E+02 0.  0.
          5    1    3    3  502    0 -0.73149237961E+01 -0.52363286976E+02 -0.41045587734E+02  0.67064406397E+02  0.41800000000E+01 0.  1.
         -5    1    3    3    0  502  0.55256211948E+02 -0.14326074500E+02  0.61430531219E+02  0.83962300679E+02  0.41800000000E+01 0.  1.
        -11    1    4    4    0    0 -0.33662925238E+02  0.70858473794E+02 -0.16792332972E+01  0.78466143453E+02  0.00000000000E+00 0.  1.
         11    1    4    4    0    0 -0.14278362914E+02 -0.41691123179E+01 -0.58861969863E+02  0.60712310458E+02  0.00000000000E+00 0. -1.
</event>
<event>
 8    1  0.7262913E-009  0.7298141E+02  0.7561462E-02  0.1350238E+00
         -1   -1    0    0    0  501 -0.00000000000E+00  0.00000000000E+00  0.51534398281E+02  0.51534398281E+02  0.00000000000E+00 0.  1.
          1   -1    0    0  501    0  0.00000000000E+00 -0.00000000000E+00 -0.47301611200E+03  0.47301611200E+03  0.00000000000E+00 0. -1.
         25    2    1    2    0    0 -0.15305182498E+02 -0.57312190095E+02 -0.37918091703E+03  0.40366266214E+03  0.12508573548E+03 0.  0.
         23    2    1    2    0    0  0.15305182498E+02  0.57312190095E+02 -0.42300796697E+02  0.12088784815E+03  0.96465427404E+02 0.  0.
          5    1    3    3  502    0 -0.38585403716E+02 -0.46675798423E+02 -0.67013477736E+02  0.90419810532E+02  0.41800000000E+01 0.  1.
         -5    1    3    3    0  502  0.23280221218E+02 -0.10636391671E+02 -0.31216743929E+03  0.31324285160E+03  0.41800000000E+01 0.  1.
        -11    1    4    4    0    0  0.28147146952E+01  0.11677633531E+02 -0.66617447490E+02  0.67691757650E+02  0.00000000000E+00 0. -1.
         11    1    4    4    0    0  0.12490467803E+02  0.45634556564E+02  0.24316650792E+02  0.53196090500E+02  0.00000000000E+00 0.  1.
</event>
<event>
 8    1  0.7262913E-009  0.1080877E+03  0.7561462E-02  0.1264153E+00
         -1   -1    0    0    0  501 -0.00000000000E+00  0.00000000000E+00  0.15154400666E+02  0.15154400666E+02  0.00000000000E+00 0.  1.
          1   -1    0    0  501    0  0.00000000000E+00 -0.00000000000E+00 -0.16580514235E+04  0.16580514235E+04  0.00000000000E+00 0. -1.
         25    2    1    2    0    0 -0.39921659669E+01 -0.50785801117E+02 -0.14236446630E+04  0.14300370369E+04  0.12508663124E+03 0.  0.
         23    2    1    2    0    0  0.39921659669E+01  0.50785801117E+02 -0.21925235979E+03  0.24316878727E+03  0.92001776299E+02 0.  0.
          5    1    3    3  502    0  0.43333262556E+02 -0.70773023851E+02 -0.82221096584E+03  0.82639877620E+03  0.41800000000E+01 0.  1.
         -5    1    3    3    0  502 -0.47325428523E+02  0.19987222734E+02 -0.60143369718E+03  0.60363826069E+03  0.41800000000E+01 0.  1.
        -11    1    4    4    0    0 -0.26677830454E+02  0.41790849265E+02 -0.19956164106E+03  0.20562837912E+03  0.00000000000E+00 0. -1.
         11    1    4    4    0    0  0.30669996421E+02  0.89949518518E+01 -0.19690718738E+02  0.37540408145E+02  0.00000000000E+00 0.  1.
</event>
<event>
 8    1  0.7262913E-009  0.1163676E+03  0.7561462E-02  0.1249213E+00
          4   -1    0    0  501    0  0.00000000000E+00  0.00000000000E+00  0.12998554435E+03  0.12998554435E+03  0.00000000000E+00 0. -1.
         -4   -1    0    0    0  501 -0.00000000000E+00 -0.00000000000E+00 -0.17235825925E+03  0.17235825925E+03  0.00000000000E+00 0.  1.
         25    2    1    2    0    0 -0.89877214421E+02  0.44189064168E+02 -0.45886424888E+02  0.16668432349E+03  0.12509001816E+03 0.  0.
         23    2    1    2    0    0  0.89877214421E+02 -0.44189064168E+02  0.35137099928E+01  0.13565948011E+03  0.91436105131E+02 0.  0.
          5    1    3    3  502    0 -0.91559856060E+02  0.10199978370E+02  0.18202628768E+02  0.94000291992E+02  0.41800000000E+01 0. -1.
         -5    1    3    3    0  502  0.16826416390E+01  0.33989085798E+02 -0.64089053655E+02  0.72684031498E+02  0.41800000000E+01 0. -1.
        -11    1    4    4    0    0  0.26613200709E+02 -0.32307966563E+02  0.43108520175E+02  0.60086701250E+02  0.00000000000E+00 0. -1.
         11    1    4    4    0    0  0.63264013712E+02 -0.11881097606E+02 -0.39594810182E+02  0.75572778860E+02  0.00000000000E+00 0.  1.
</event>
<event>
 8    1  0.7262913E-009  0.1158051E+03  0.7561462E-02  0.1250182E+00
         -2   -1    0    0    0  501 -0.00000000000E+00  0.00000000000E+00  0.58488997227E+03  0.58488997227E+03  0.00000000000E+00 0.  1.
          2   -1    0    0  501    0  0.00000000000E+00 -0.00000000000E+00 -0.34250165195E+02  0.34250165195E+02  0.00000000000E+00 0. -1.
         25    2    1    2    0    0  0.71614559894E+02 -0.47561307297E+02  0.33152474371E+03  0.36461896917E+03  0.12509042268E+03 0.  0.
         23    2    1    2    0    0 -0.71614559894E+02  0.47561307297E+02  0.21911506336E+03  0.25452116829E+03  0.96844674481E+02 0.  0.
          5    1    3    3  502    0 -0.31983926755E+02 -0.29055363266E+01  0.36845802033E+02  0.49056082594E+02  0.41800000000E+01 0.  1.
         -5    1    3    3    0  502  0.10359848665E+03 -0.44655770971E+02  0.29467894168E+03  0.31556288658E+03  0.41800000000E+01 0.  1.
        -11    1    4    4    0    0 -0.85777581024E+01  0.90217640172E+01 -0.85929026588E+01  0.15126405262E+02  0.00000000000E+00 0. -1.
         11    1    4    4    0    0 -0.63036801792E+02  0.38539543280E+02  0.22770796602E+03  0.23939476303E+03  0.00000000000E+00 0.  1.
</event>
<event>
 8    1  0.7262913E-009  0.1722436E+03  0.7561462E-02  0.1175528E+00
         -2   -1    0    0    0  501 -0.00000000000E+00  0.00000000000E+00  0.26751011385E+03  0.26751011385E+03  0.00000000000E+00 0.  1.
          2   -1    0    0  501    0  0.00000000000E+00 -0.00000000000E+00 -0.15858610051E+03  0.15858610051E+03  0.00000000000E+00 0. -1.
         25    2    1    2    0    0 -0.12863837851E+03 -0.11238042987E+03  0.10227128847E+03  0.23512560077E+03  0.12508972080E+03 0.  0.
         23    2    1    2    0    0  0.12863837851E+03  0.11238042987E+03  0.66527248744E+01  0.19097061358E+03  0.85137083916E+02 0.  0.
          5    1    3    3  502    0 -0.47802321923E+02 -0.36958695095E+02  0.10855746892E+03  0.12431091498E+03  0.41800000000E+01 0.  1.
         -5    1    3    3    0  502 -0.80836056589E+02 -0.75421734780E+02 -0.62861804588E+01  0.11081468579E+03  0.41800000000E+01 0.  1.
        -11    1    4    4    0    0  0.75671942397E+02  0.46760676480E+02 -0.36608328165E+02  0.96192377152E+02  0.00000000000E+00 0. -1.
         11    1    4    4    0    0  0.52966436115E+02  0.65619753394E+02  0.43261053040E+02  0.94778236428E+02  0.00000000000E+00 0.  1.
</event>
<event>
 8    1  0.7262913E-009  0.1012463E+03  0.7561462E-02  0.1277697E+00
         -3   -1    0    0    0  501 -0.00000000000E+00  0.00000000000E+00  0.22707205536E+03  0.22707205536E+03  0.00000000000E+00 0.  1.
          3   -1    0    0  501    0  0.00000000000E+00 -0.00000000000E+00 -0.54718143382E+02  0.54718143382E+02  0.00000000000E+00 0. -1.
         25    2    1    2    0    0  0.41593301407E+01 -0.12424849216E+02  0.13535460886E+03  0.18477015176E+03  0.12508981547E+03 0.  0.
         23    2    1    2    0    0 -0.41593301407E+01  0.12424849216E+02  0.36999303116E+02  0.97020046985E+02  0.88725780812E+02 0.  0.
          5    1    3    3  502    0  0.62657375111E+02  0.67081263126E+01  0.79678640448E+02  0.10167154842E+03  0.41800000000E+01 0.  1.
         -5    1    3    3    0  502 -0.58498044970E+02 -0.19132975529E+02  0.55675968415E+02  0.83098603338E+02  0.41800000000E+01 0.  1.
        -11    1    4    4    0    0 -0.32255785441E+02 -0.17420864886E+02  0.41974174122E+02  0.55729287821E+02  0.00000000000E+00 0.  1.
         11    1    4    4    0    0  0.28096455301E+02  0.29845714102E+02 -0.49748710067E+01  0.41290759163E+02  0.00000000000E+00 0. -1.
</event>
<event>
 8    1  0.7262913E-009  0.1511286E+03  0.7561462E-02  0.1199093E+00
         -2   -1    0    0    0  501 -0.00000000000E+00  0.00000000000E+00  0.22953875199E+02  0.22953875199E+02  0.00000000000E+00 0.  1.
          2   -1    0    0  501    0  0.00000000000E+00 -0.00000000000E+00 -0.14137562806E+04  0.14137562806E+04  0.00000000000E+00 0. -1.
         25    2    1    2    0    0 -0.69110801568E+02 -0.10475144124E+03 -0.10195612035E+04  0.10348437884E+04  0.12508977308E+03 0.  0.
         23    2    1    2    0    0  0.69110801568E+02  0.10475144124E+03 -0.37124120192E+03  0.40186636744E+03  0.89035835150E+02 0.  0.
          5    1    3    3  502    0 -0.58788483397E+02  0.86263699683E+01 -0.45680776604E+03  0.46067483928E+03  0.41800000000E+01 0. -1.
         -5    1    3    3    0  502 -0.10322318171E+02 -0.11337781121E+03 -0.56275343748E+03  0.57416894911E+03  0.41800000000E+01 0. -1.
        -11    1    4    4    0    0  0.51982940683E+02  0.52919078689E+02 -0.96298446017E+02  0.12155675924E+03  0.00000000000E+00 0.  1.
         11    1    4    4    0    0  0.17127860885E+02  0.51832362552E+02 -0.27494275590E+03  0.28030960820E+03  0.00000000000E+00 0. -1.
</event>
<event>
 8    1  0.7262913E-009  0.9689314E+02  0.7561462E-02  0.1286968E+00
          2   -1    0    0  501    0  0.00000000000E+00  0.00000000000E+00  0.10386719407E+04  0.10386719407E+04  0.00000000000E+00 0.  1.
         -2   -1    0    0    0  501 -0.00000000000E+00 -0.00000000000E+00 -0.28336349157E+02  0.28336349157E+02  0.00000000000E+00 0. -1.
         25    2    1    2    0    0 -0.65592793112E+01  0.28604995025E+02  0.93572673424E+03  0.94450829150E+03  0.12510044626E+03 0.  0.
         23    2    1    2    0    0  0.65592793112E+01 -0.28604995025E+02  0.74608857348E+02  0.12249999840E+03  0.92620182078E+02 0.  0.
          5    1    3    3  502    0  0.28712178087E+02  0.50443281696E+02  0.21994009318E+03  0.22750830935E+03  0.41800000000E+01 0. -1.
         -5    1    3    3    0  502 -0.35271457398E+02 -0.21838286671E+02  0.71578664106E+03  0.71699998215E+03  0.41800000000E+01 0. -1.
        -11    1    4    4    0    0 -0.39211613947E+02  0.12849577566E+01  0.47110162003E+02  0.61307170451E+02  0.00000000000E+00 0. -1.
         11    1    4    4    0    0  0.45770893258E+02 -0.29889952782E+02  0.27498695345E+02  0.61192827951E+02  0.00000000000E+00 0.  1.
</event>
<event>
 8    1  0.7262913E-009  0.1310889E+03  0.7561462E-02  0.1225849E+00
          2   -1    0    0  501    0  0.00000000000E+00  0.00000000000E+00  0.53789715345E+03  0.53789715345E+03  0.00000000000E+00 0. -1.
         -2   -1    0    0    0  501 -0.00000000000E+00 -0.00000000000E+00 -0.33952941201E+02  0.33952941201E+02  0.00000000000E+00 0.  1.
         25    2    1    2    0    0  0.51264138717E+02 -0.55038298892E+02  0.21093419404E+03  0.25651030103E+03  0.12508826507E+03 0.  0.
         23    2    1    2    0    0 -0.51264138717E+02  0.55038298892E+02  0.29301001821E+03  0.31533979361E+03  0.89034197945E+02 0.  0.
          5    1    3    3  502    0 -0.31325036679E+02  0.17169852066E+02  0.46264992008E+02  0.58600201607E+02  0.41800000000E+01 0. -1.
         -5    1    3    3    0  502  0.82589175396E+02 -0.72208150958E+02  0.16466920203E+03  0.19791009943E+03  0.41800000000E+01 0. -1.
        -11    1    4    4    0    0  0.23486434498E+02 -0.19212863678E+00  0.53468241942E+02  0.58399506978E+02  0.00000000000E+00 0.  1.
         11    1    4    4    0    0 -0.74750573215E+02  0.55230427529E+02  0.23954177626E+03  0.25694028664E+03  0.00000000000E+00 0. -1.
</event>
<event>
 8    1  0.7262913E-009  0.2118109E+03  0.7561462E-02  0.1140140E+00
         -2   -1    0    0    0  501 -0.00000000000E+00  0.00000000000E+00  0.52003393173E+02  0.52003393173E+02  0.00000000000E+00 0.  1.
          2   -1    0    0  501    0  0.00000000000E+00 -0.00000000000E+00 -0.93569649595E+03  0.93569649595E+03  0.00000000000E+00 0. -1.
         25    2    1    2    0    0  0.15923894993E+03  0.10155609893E+03 -0.52855039229E+03  0.57505112050E+03  0.12509032573E+03 0.  0.
         23    2    1    2    0    0 -0.15923894993E+03 -0.10155609893E+03 -0.35514271049E+03  0.41264876863E+03  0.92097649424E+02 0.  0.
          5    1    3    3  502    0 -0.34254718445E+01 -0.13370939173E+02 -0.11630352933E+03  0.11719427975E+03  0.41800000000E+01 0. -1.
         -5    1    3    3    0  502  0.16266442178E+03  0.11492703811E+03 -0.41224686296E+03  0.45785684075E+03  0.41800000000E+01 0. -1.
        -11    1    4    4    0    0 -0.16146007800E+03 -0.66106600753E+02 -0.28932316395E+03  0.33785697069E+03  0.00000000000E+00 0. -1.
         11    1    4    4    0    0  0.22211280637E+01 -0.35449498181E+02 -0.65819546540E+02  0.74791797932E+02  0.00000000000E+00 0.  1.
</event>
<event>
 8    1  0.7262913E-009  0.1651619E+03  0.7561462E-02  0.1182989E+00
         -1   -1    0    0    0  501 -0.00000000000E+00  0.00000000000E+00  0.27734077518E+03  0.27734077518E+03  0.00000000000E+00 0.  1.
          1   -1    0    0  501    0  0.00000000000E+00 -0.00000000000E+00 -0.19992847039E+03  0.19992847039E+03  0.00000000000E+00 0. -1.
         25    2    1    2    0    0 -0.80854217489E+02  0.12726168255E+03 -0.10465277824E+03  0.22210969143E+03  0.12509025022E+03 0.  0.
         23    2    1    2    0    0  0.80854217489E+02 -0.12726168255E+03  0.18206508303E+03  0.25515955414E+03  0.96050836930E+02 0.  0.
          5    1    3    3  502    0 -0.43911625192E+02  0.13328073108E+03 -0.11670728986E+03  0.18256518838E+03  0.41800000000E+01 0.  1.
         -5    1    3    3    0  502 -0.36942592298E+02 -0.60190485242E+01  0.12054511616E+02  0.39544503045E+02  0.41800000000E+01 0.  1.
        -11    1    4    4    0    0  0.26482157775E+02 -0.61387174285E+02  0.14946234565E+03  0.16373357204E+03  0.00000000000E+00 0.  1.
         11    1    4    4    0    0  0.54372059714E+02 -0.65874508268E+02  0.32602737389E+02  0.91425982097E+02  0.00000000000E+00 0. -1.
</event>
<event>
 8    1  0.7262913E-009  0.8834840E+02  0.7561462E-02  0.1306901E+00
         -2   -1    0    0    0  501 -0.00000000000E+00  0.00000000000E+00  0.71311056428E+02  0.71311056428E+02  0.00000000000E+00 0.  1.
          2   -1    0    0  501    0  0.00000000000E+00 -0.00000000000E+00 -0.18383462602E+03  0.18383462602E+03  0.00000000000E+00 0. -1.
         25    2    1    2    0    0  0.54126999569E+01  0.31132714553E+02 -0.90852458099E+02  0.15779169270E+03  0.12508199673E+03 0.  0.
         23    2    1    2    0    0 -0.54126999569E+01 -0.31132714553E+02 -0.21671111498E+02  0.97353989755E+02  0.89496474854E+02 0.  0.
          5    1    3    3  502    0  0.28059317019E+02 -0.15039152745E+02 -0.10032066900E+03  0.10533380471E+03  0.41800000000E+01 0.  1.
         -5    1    3    3    0  502 -0.22646617062E+02  0.46171867298E+02  0.94682109004E+01  0.52457887984E+02  0.41800000000E+01 0.  1.
        -11    1    4    4    0    0  0.25624191868E+02 -0.50344115968E+02 -0.35492689403E+01  0.56601471107E+02  0.00000000000E+00 0.  1.
         11    1    4    4    0    0 -0.31036891825E+02  0.19211401414E+02 -0.18121842558E+02  0.40752518648E+02  0.00000000000E+00 0. -1.
</event>
<event>
 8    1  0.7262913E-009  0.1073445E+03  0.7561462E-02  0.1265568E+00
          1   -1    0    0  501    0  0.00000000000E+00  0.00000000000E+00  0.82097445775E+02  0.82097445775E+02  0.00000000000E+00 0. -1.
         -1   -1    0    0    0  501 -0.00000000000E+00 -0.00000000000E+00 -0.18497951384E+03  0.18497951384E+03  0.00000000000E+00 0.  1.
         25    2    1    2    0    0  0.45771497136E+02  0.32315066712E+02 -0.34466498058E+02  0.14133395703E+03  0.12509218374E+03 0.  0.
         23    2    1    2    0    0 -0.45771497136E+02 -0.32315066712E+02 -0.68415570007E+02  0.12574300259E+03  0.89394177626E+02 0.  0.
          5    1    3    3  502    0  0.19825742884E+02 -0.48065723584E+02 -0.83545248510E+01  0.52826549670E+02  0.41800000000E+01 0.  1.
         -5    1    3    3    0  502  0.25945754252E+02  0.80380790296E+02 -0.26111973207E+02  0.88507407358E+02  0.41800000000E+01 0.  1.
        -11    1    4    4    0    0 -0.49727562958E+02 -0.45737880874E+01  0.19784158906E+01  0.49976636388E+02  0.00000000000E+00 0. -1.
         11    1    4    4    0    0  0.39560658216E+01 -0.27741278625E+02 -0.70393985897E+02  0.75766366199E+02  0.00000000000E+00 0.  1.
</event>
<event>
 8    1  0.7262913E-009  0.3157750E+03  0.7561462E-02  0.1077610E+00
         -2   -1    0    0    0  501 -0.00000000000E+00  0.00000000000E+00  0.62909806173E+02  0.62909806173E+02  0.00000000000E+00 0.  1.
          2   -1    0    0  501    0  0.00000000000E+00 -0.00000000000E+00 -0.18110783093E+04  0.18110783093E+04  0.00000000000E+00 0. -1.
         25    2    1    2    0    0 -0.10555250593E+03  0.29105519110E+03 -0.11058067129E+04  0.11551240546E+04  0.12509452209E+03 0.  0.
         23    2    1    2    0    0  0.10555250593E+03 -0.29105519110E+03 -0.64236179028E+03  0.71886406092E+03  0.91007761716E+02 0.  0.
          5    1    3    3  502    0 -0.30112040146E+01 -0.26125972139E+01  0.60819461430E+00  0.58082109559E+01  0.41800000000E+01 0.  1.
         -5    1    3    3    0  502 -0.10254130191E+03  0.29366778832E+03 -0.11064149075E+04  0.11493158436E+04  0.41800000000E+01 0.  1.
        -11    1    4    4    0    0  0.10073678941E+03 -0.20414634272E+03 -0.52929302928E+03  0.57617249226E+03  0.00000000000E+00 0.  1.
         11    1    4    4    0    0  0.48157165137E+01 -0.86908848389E+02 -0.11306876099E+03  0.14269156866E+03  0.00000000000E+00 0. -1.
</event>
<event>
 8    1  0.7262913E-009  0.1379822E+03  0.7561462E-02  0.1216070E+00
         -1   -1    0    0    0  501 -0.00000000000E+00  0.00000000000E+00  0.18061065291E+03  0.18061065291E+03  0.00000000000E+00 0.  1.
          1   -1    0    0  501    0  0.00000000000E+00 -0.00000000000E+00 -0.11835889711E+03  0.11835889711E+03  0.00000000000E+00 0. -1.
         25    2    1    2    0    0  0.35909559363E+02  0.78705009371E+02 -0.13471769565E+02  0.15269432032E+03  0.12510032745E+03 0.  0.
         23    2    1    2    0    0 -0.35909559363E+02 -0.78705009371E+02  0.75723525361E+02  0.14627522969E+03  0.90434592803E+02 0.  0.
          5    1    3    3  502    0  0.45917775309E+02 -0.20939322875E+02 -0.13704195506E+02  0.52461173322E+02  0.41800000000E+01 0. -1.
         -5    1    3    3    0  502 -0.10008215946E+02  0.99644332246E+02  0.23242594093E+00  0.10023314700E+03  0.41800000000E+01 0. -1.
        -11    1    4    4    0    0 -0.48634466582E+02 -0.34369495064E+01  0.27357689645E+02  0.55906771901E+02  0.00000000000E+00 0.  1.
         11    1    4    4    0    0  0.12724907219E+02 -0.75268059865E+02  0.48365835716E+02  0.90368457794E+02  0.00000000000E+00 0. -1.
</event>
<event>
 8    1  0.7262913E-009  0.1167710E+03  0.7561462E-02  0.1248521E+00
         -2   -1    0    0    0  501 -0.00000000000E+00  0.00000000000E+00  0.81816338051E+02  0.81816338051E+02  0.00000000000E+00 0.  1.
          2   -1    0    0  501    0  0.00000000000E+00 -0.00000000000E+00 -0.18563827233E+03  0.18563827233E+03  0.00000000000E+00 0. -1.
         25    2    1    2    0    0  0.60208646484E+02 -0.59384300173E+01 -0.37728865984E+02  0.14398703903E+03  0.12509378089E+03 0.  0.
         23    2    1    2    0    0 -0.60208646484E+02  0.59384300173E+01 -0.66093068293E+02  0.12346757135E+03  0.84944696340E+02 0.  0.
          5    1    3    3  502    0  0.13278889930E+02 -0.63011872518E+02 -0.12026177742E+02  0.65642412715E+02  0.41800000000E+01 0.  1.
         -5    1    3    3    0  502  0.46929756554E+02  0.57073442501E+02 -0.25702688242E+02  0.78344626312E+02  0.41800000000E+01 0.  1.
        -11    1    4    4    0    0 -0.43649555873E+02  0.38673399251E+02 -0.14380369351E+02  0.60064220300E+02  0.00000000000E+00 0. -1.
         11    1    4    4    0    0 -0.16559090611E+02 -0.32734969234E+02 -0.51712698942E+02  0.63403351051E+02  0.00000000000E+00 0.  1.
</event>
<event>
 8    1  0.7262913E-009  0.1034508E+03  0.7561462E-02  0.1273202E+00
         -2   -1    0    0    0  501 -0.00000000000E+00  0.00000000000E+00  0.16225215598E+02  0.16225215598E+02  0.00000000000E+00 0.  1.
          2   -1    0    0  501    0  0.00000000000E+00 -0.00000000000E+00 -0.11745159606E+04  0.11745159606E+04  0.00000000000E+00 0. -1.
         25    2    1    2    0    0 -0.83657264601E+02  0.24293625055E+02 -0.65195427432E+03  0.66953720480E+03  0.12508786777E+03 0.  0.
         23    2    1    2    0    0  0.83657264601E+02 -0.24293625055E+02 -0.50633647072E+03  0.52120397144E+03  0.87682610164E+02 0.  0.
          5    1    3    3  502    0 -0.11328098832E+02  0.14262251394E+02 -0.50540010914E+03  0.50574546994E+03  0.41800000000E+01 0. -1.
         -5    1    3    3    0  502 -0.72329165769E+02  0.10031373661E+02 -0.14655416518E+03  0.16379173486E+03  0.41800000000E+01 0. -1.
        -11    1    4    4    0    0  0.98009113768E+02 -0.22939450916E+02 -0.48576534199E+03  0.49608464225E+03  0.00000000000E+00 0. -1.
         11    1    4    4    0    0 -0.14351849168E+02 -0.13541741388E+01 -0.20571128729E+02  0.25119329197E+02  0.00000000000E+00 0.  1.
</event>
<event>
 8    1  0.7262913E-009  0.1298650E+03  0.7561462E-02  0.1227656E+00
         -1   -1    0    0    0  501 -0.00000000000E+00  0.00000000000E+00  0.63519192060E+02  0.63519192060E+02  0.00000000000E+00 0.  1.
          1   -1    0    0  501    0  0.00000000000E+00 -0.00000000000E+00 -0.40125491352E+03  0.40125491352E+03  0.00000000000E+00 0. -1.
         25    2    1    2    0    0 -0.58639089462E+02  0.80968739173E+02 -0.26997118650E+03  0.31389171325E+03  0.12509630917E+03 0.  0.
         23    2    1    2    0    0  0.58639089462E+02 -0.80968739173E+02 -0.67764534961E+02  0.15088239233E+03  0.90437738703E+02 0.  0.
          5    1    3    3  502    0 -0.28680960361E+02 -0.90928494904E+01 -0.30057135880E+01  0.30525139038E+02  0.41800000000E+01 0. -1.
         -5    1    3    3    0  502 -0.29958129101E+02  0.90061588663E+02 -0.26696547291E+03  0.28336657421E+03  0.41800000000E+01 0. -1.
        -11    1    4    4    0    0 -0.90985152939E+01 -0.63830279002E+02 -0.26299092329E+02  0.69632820964E+02  0.00000000000E+00 0.  1.
         11    1    4    4    0    0  0.67737604756E+02 -0.17138460170E+02 -0.41465442632E+02  0.81249571370E+02  0.00000000000E+00 0. -1.
</event>
<event>
 8    1  0.7262913E-009  0.8478796E+02  0.7561462E-02  0.1315988E+00
         -1   -1    0    0    0  501 -0.00000000000E+00  0.00000000000E+00  0.13675203083E+03  0.13675203083E+03  0.00000000000E+00 0.  1.
          1   -1    0    0  501    0  0.00000000000E+00 -0.00000000000E+00 -0.16135142832E+03  0.16135142832E+03  0.00000000000E+00 0. -1.
         25    2    1    2    0    0  0.17287853288E+02  0.69860369636E+02 -0.84662186834E+02  0.16731408993E+03  0.12508787988E+03 0.  0.
         23    2    1    2    0    0 -0.17287853288E+02 -0.69860369636E+02  0.60062789338E+02  0.13078936922E+03  0.91208438874E+02 0.  0.
          5    1    3    3  502    0  0.96953642800E+01  0.80913037920E+02 -0.11082184572E+03  0.13762221362E+03  0.41800000000E+01 0.  1.
         -5    1    3    3    0  502  0.75924890082E+01 -0.11052668285E+02  0.26159658885E+02  0.29691876305E+02  0.41800000000E+01 0.  1.
        -11    1    4    4    0    0 -0.19775015745E+02 -0.47768863507E+02  0.83674954806E+02  0.98358597135E+02  0.00000000000E+00 0.  1.
         11    1    4    4    0    0  0.24871624566E+01 -0.22091506129E+02 -0.23612165469E+02  0.32430772088E+02  0.00000000000E+00 0. -1.
</event>
<event>
 8    1  0.7262913E-009  0.1469479E+03  0.7561462E-02  0.1204274E+00
         -1   -1    0    0    0  501 -0.00000000000E+00  0.00000000000E+00  0.30687247776E+02  0.30687247776E+02  0.00000000000E+00 0.  1.
          1   -1    0    0  501    0  0.00000000000E+00 -0.00000000000E+00 -0.75880986528E+03  0.75880986528E+03  0.00000000000E+00 0. -1.
         25    2    1    2    0    0 -0.10241304087E+03 -0.16757643899E+02 -0.45990165663E+03  0.48777642319E+03  0.12508819159E+03 0.  0.
         23    2    1    2    0    0  0.10241304087E+03  0.16757643899E+02 -0.26822096087E+03  0.30172068986E+03  0.91233991872E+02 0.  0.
          5    1    3    3  502    0 -0.11298987694E+03  0.26256650675E+02 -0.36393055348E+03  0.38199351323E+03  0.41800000000E+01 0.  1.
         -5    1    3    3    0  502  0.10576836064E+02 -0.43014294573E+02 -0.95971103152E+02  0.10578290996E+03  0.41800000000E+01 0.  1.
        -11    1    4    4    0    0  0.65182877021E+02 -0.31485736162E+02 -0.18431416576E+03  0.19801987461E+03  0.00000000000E+00 0. -1.
         11    1    4    4    0    0  0.37230163852E+02  0.48243380060E+02 -0.83906795103E+02  0.10370081525E+03  0.00000000000E+00 0.  1.
</event>
<event>
 8    1  0.7262913E-009  0.2470155E+03  0.7561462E-02  0.1115206E+00
          3   -1    0    0  501    0  0.00000000000E+00  0.00000000000E+00  0.94553749585E+02  0.94553749585E+02  0.00000000000E+00 0. -1.
         -3   -1    0    0    0  501 -0.00000000000E+00 -0.00000000000E+00 -0.88045118189E+03  0.88045118189E+03  0.00000000000E+00 0.  1.
         25    2    1    2    0    0  0.38435489416E+02  0.23585688563E+03 -0.19963366732E+03  0.33557095835E+03  0.12509400311E+03 0.  0.
         23    2    1    2    0    0 -0.38435489416E+02 -0.23585688563E+03 -0.58626376498E+03  0.63943397312E+03  0.89804490491E+02 0.  0.
          5    1    3    3  502    0  0.37645692905E+02  0.17887943535E+03 -0.20897712329E+03  0.27767600012E+03  0.41800000000E+01 0. -1.
         -5    1    3    3    0  502  0.78979651103E+00  0.56977450276E+02  0.93434559670E+01  0.57894958225E+02  0.41800000000E+01 0. -1.
        -11    1    4    4    0    0 -0.64238296529E+02 -0.12884781677E+03 -0.30072096868E+03  0.33340878757E+03  0.00000000000E+00 0.  1.
         11    1    4    4    0    0  0.25802807112E+02 -0.10700906886E+03 -0.28554279630E+03  0.30602518555E+03  0.00000000000E+00 0. -1.
</event>
<event>
 8    1  0.7262913E-009  0.1789509E+03  0.7561462E-02  0.1168822E+00
          1   -1    0    0  501    0  0.00000000000E+00  0.00000000000E+00  0.19072525639E+03  0.19072525639E+03  0.00000000000E+00 0. -1.
         -1   -1    0    0    0  501 -0.00000000000E+00 -0.00000000000E+00 -0.22803006233E+03  0.22803006233E+03  0.00000000000E+00 0.  1.
         25    2    1    2    0    0 -0.19767555439E+02  0.15349010642E+03 -0.10607008439E+03  0.22549592253E+03  0.12509028442E+03 0.  0.
         23    2    1    2    0    0  0.19767555439E+02 -0.15349010642E+03  0.68765278455E+02  0.19325939619E+03  0.93115850846E+02 0.  0.
          5    1    3    3  502    0 -0.51766372336E+02  0.15652228395E+03 -0.77194540664E+02  0.18208638661E+03  0.41800000000E+01 0. -1.
         -5    1    3    3    0  502  0.31998816897E+02 -0.30321775352E+01 -0.28875543727E+02  0.43409535921E+02  0.41800000000E+01 0. -1.
        -11    1    4    4    0    0  0.32687090020E+02 -0.89209777083E+02 -0.42774445195E+01  0.95105871075E+02  0.00000000000E+00 0.  1.
         11    1    4    4    0    0 -0.12919534581E+02 -0.64280329334E+02  0.73042722975E+02  0.98153525115E+02  0.00000000000E+00 0. -1.
</event>
<event>
 8    1  0.7262913E-009  0.1064090E+03  0.7561462E-02  0.1267368E+00
          1   -1    0    0  501    0  0.00000000000E+00  0.00000000000E+00  0.56600682692E+02  0.56600682692E+02  0.00000000000E+00 0. -1.
         -1   -1    0    0    0  501 -0.00000000000E+00 -0.00000000000E+00 -0.32136882178E+03  0.32136882178E+03  0.00000000000E+00 0.  1.
         25    2    1    2    0    0  0.61531071895E+02  0.50564366322E+02 -0.14457349618E+03  0.20710003938E+03  0.12508438177E+03 0.  0.
         23    2    1    2    0    0 -0.61531071895E+02 -0.50564366322E+02 -0.12019464291E+03  0.17086946509E+03  0.91688570534E+02 0.  0.
          5    1    3    3  502    0  0.70626194193E+02  0.91034323231E+01 -0.14801718458E+03  0.16430913278E+03  0.41800000000E+01 0. -1.
         -5    1    3    3    0  502 -0.90951222981E+01  0.41460933998E+02  0.34436883969E+01  0.42790906597E+02  0.41800000000E+01 0. -1.
        -11    1    4    4    0    0 -0.55983552663E+02 -0.87633144841E+01 -0.11523194314E+03  0.12841088182E+03  0.00000000000E+00 0.  1.
         11    1    4    4    0    0 -0.55475192323E+01 -0.41801051838E+02 -0.49626997651E+01  0.42458583270E+02  0.00000000000E+00 0. -1.
</event>
<event>
 8    1  0.7262913E-009  0.1082692E+03  0.7561462E-02  0.1263809E+00
         -1   -1    0    0    0  501 -0.00000000000E+00  0.00000000000E+00  0.18685573037E+03  0.18685573037E+03  0.00000000000E+00 0.  1.
          1   -1    0    0  501    0  0.00000000000E+00 -0.00000000000E+00 -0.84656482103E+02  0.84656482103E+02  0.00000000000E+00 0. -1.
         25    2    1    2    0    0 -0.31334718187E+02 -0.45631100254E+02  0.23452393576E+02  0.13878770176E+03  0.12509176440E+03 0.  0.
         23    2    1    2    0    0  0.31334718187E+02  0.45631100254E+02  0.78746854693E+02  0.13272451072E+03  0.91381982618E+02 0.  0.
          5    1    3    3  502    0  0.30569094641E+02 -0.64289278246E+02  0.53151007409E+01  0.71507367036E+02  0.41800000000E+01 0.  1.
         -5    1    3    3    0  502 -0.61903812828E+02  0.18658177992E+02  0.18137292835E+02  0.67280334720E+02  0.41800000000E+01 0.  1.
        -11    1    4    4    0    0  0.48697149439E+02  0.36221070214E+02  0.91074791851E+02  0.10944403137E+03  0.00000000000E+00 0.  1.
         11    1    4    4    0    0 -0.17362431252E+02  0.94100300399E+01 -0.12327937158E+02  0.23280479353E+02  0.00000000000E+00 0. -1.
</event>
<event>
 8    1  0.7262913E-009  0.1664790E+03  0.7561462E-02  0.1181570E+00
          3   -1    0    0  501    0  0.00000000000E+00  0.00000000000E+00  0.23117540219E+03  0.23117540219E+03  0.00000000000E+00 0. -1.
         -3   -1    0    0    0  501 -0.00000000000E+00 -0.00000000000E+00 -0.13491926241E+03  0.13491926241E+03  0.00000000000E+00 0.  1.
         25    2    1    2    0    0 -0.10306178004E+03  0.77789379653E+02 -0.57679861868E+00  0.17977531529E+03  0.12508362482E+03 0.  0.
         23    2    1    2    0    0  0.10306178004E+03 -0.77789379653E+02  0.96832938405E+02  0.18631934931E+03  0.93087936261E+02 0.  0.
          5    1    3    3  502    0 -0.18116128559E+02  0.91154265009E+02 -0.79380053376E+01  0.93369044506E+02  0.41800000000E+01 0. -1.
         -5    1    3    3    0  502 -0.84945651479E+02 -0.13364885356E+02  0.73612067189E+01  0.86406270780E+02  0.41800000000E+01 0. -1.
        -11    1    4    4    0    0 -0.58901789740E-01  0.15067710271E+02  0.27121600485E+02  0.31026127297E+02  0.00000000000E+00 0.  1.
         11    1    4    4    0    0  0.10312068183E+03 -0.92857089924E+02  0.69711337921E+02  0.15529322202E+03  0.00000000000E+00 0. -1.
</event>
<event>
 8    1  0.7262913E-009  0.9153928E+02  0.7561462E-02  0.1299166E+00
         -1   -1    0    0    0  501 -0.00000000000E+00  0.00000000000E+00  0.55679422466E+02  0.55679422466E+02  0.00000000000E+00 0.  1.
          1   -1    0    0  501    0  0.00000000000E+00 -0.00000000000E+00 -0.23659137337E+03  0.23659137337E+03  0.00000000000E+00 0. -1.
         25    2    1    2    0    0 -0.35400312571E+02 -0.48947736898E+01 -0.11984899379E+03  0.17689444689E+03  0.12510285004E+03 0.  0.
         23    2    1    2    0    0  0.35400312571E+02  0.48947736898E+01 -0.61062957115E+02  0.11537634895E+03  0.91136580062E+02 0.  0.
          5    1    3    3  502    0  0.24881462987E+02 -0.21922600507E+01  0.14765213687E+02  0.29315134994E+02  0.41800000000E+01 0.  1.
         -5    1    3    3    0  502 -0.60281775558E+02 -0.27025136390E+01 -0.13461420748E+03  0.14757931189E+03  0.41800000000E+01 0.  1.
        -11    1    4    4    0    0  0.53425207029E+02 -0.27580445732E+02 -0.31319662903E+02  0.67792735726E+02  0.00000000000E+00 0.  1.
         11    1    4    4    0    0 -0.18024894457E+02  0.32475219422E+02 -0.29743294212E+02  0.47583613222E+02  0.00000000000E+00 0. -1.
</event>
<event>
 8    1  0.7262913E-009  0.9168038E+02  0.7561462E-02  0.1298833E+00
          1   -1    0    0  501    0  0.00000000000E+00  0.00000000000E+00  0.70023810407E+03  0.70023810407E+03  0.00000000000E+00 0. -1.
         -1   -1    0    0    0  501 -0.00000000000E+00 -0.00000000000E+00 -0.24405741162E+02  0.24405741162E+02  0.00000000000E+00 0.  1.
         25    2    1    2    0    0  0.51184166933E+02 -0.46413011550E+02  0.30881627942E+03  0.34027750984E+03  0.12508917892E+03 0.  0.
         23    2    1    2    0    0 -0.51184166933E+02  0.46413011550E+02  0.36701608348E+03  0.38436633539E+03  0.90899327057E+02 0.  0.
          5    1    3    3  502    0  0.40716630403E+02 -0.36771354310E+02  0.33200514702E+02  0.64262921390E+02  0.41800000000E+01 0.  1.
         -5    1    3    3    0  502  0.10467536531E+02 -0.96416572397E+01  0.27561576472E+03  0.27601458845E+03  0.41800000000E+01 0.  1.
        -11    1    4    4    0    0 -0.21816032449E+02  0.71579302523E+02  0.22152048004E+03  0.23381800379E+03  0.00000000000E+00 0.  1.
         11    1    4    4    0    0 -0.29368134484E+02 -0.25166290974E+02  0.14549560344E+03  0.15054833159E+03  0.00000000000E+00 0. -1.
</event>
<event>
 8    1  0.7262913E-009  0.7348732E+02  0.7561462E-02  0.1348620E+00
          1   -1    0    0  501    0  0.00000000000E+00  0.00000000000E+00  0.28634623943E+02  0.28634623943E+02  0.00000000000E+00 0. -1.
         -1   -1    0    0    0  501 -0.00000000000E+00 -0.00000000000E+00 -0.49083318156E+03  0.49083318156E+03  0.00000000000E+00 0.  1.
         25    2    1    2    0    0 -0.42570036826E+02  0.20961709144E+02 -0.29455589320E+03  0.32351601545E+03  0.12509131364E+03 0.  0.
         23    2    1    2    0    0  0.42570036826E+02 -0.20961709144E+02 -0.16764266441E+03  0.19595179005E+03  0.89674075444E+02 0.  0.
          5    1    3    3  502    0 -0.50122358947E+02 -0.22514396437E+01 -0.29447688868E+03  0.29874977860E+03  0.41800000000E+01 0.  1.
         -5    1    3    3    0  502  0.75523221203E+01  0.23213148788E+02 -0.79004523518E-01  0.24766236852E+02  0.41800000000E+01 0.  1.
        -11    1    4    4    0    0  0.55257963407E+02 -0.21164027547E+02 -0.17249821820E+03  0.18236500175E+03  0.00000000000E+00 0.  1.
         11    1    4    4    0    0 -0.12687926580E+02  0.20231840208E+00  0.48555537880E+01  0.13586788297E+02  0.00000000000E+00 0. -1.
</event>
<event>
 8    1  0.7262913E-009  0.1022872E+03  0.7561462E-02  0.1275559E+00
          4   -1    0    0  501    0  0.00000000000E+00  0.00000000000E+00  0.16026986297E+03  0.16026986297E+03  0.00000000000E+00 0. -1.
         -4   -1    0    0    0  501 -0.00000000000E+00 -0.00000000000E+00 -0.82365520343E+02  0.82365520343E+02  0.00000000000E+00 0.  1.
         25    2    1    2    0    0 -0.37031360792E+02  0.33040525046E+01  0.55017957008E+02  0.14162366418E+03  0.12509215890E+03 0.  0.
         23    2    1    2    0    0  0.37031360792E+02 -0.33040525046E+01  0.22886385614E+02  0.10101171912E+03  0.91089748648E+02 0.  0.
          5    1    3    3  502    0  0.12927953518E+02  0.44349711746E+02  0.60912871974E+02  0.76562910644E+02  0.41800000000E+01 0.  1.
         -5    1    3    3    0  502 -0.49959314310E+02 -0.41045659241E+02 -0.58949149663E+01  0.65060753541E+02  0.41800000000E+01 0.  1.
        -11    1    4    4    0    0  0.55640861683E+02  0.23801593812E+02  0.29732806624E+02  0.67427450987E+02  0.00000000000E+00 0.  1.
         11    1    4    4    0    0 -0.18609500891E+02 -0.27105646317E+02 -0.68464210098E+01  0.33584268137E+02  0.00000000000E+00 0. -1.
</event>
<event>
 8    1  0.7262913E-009  0.1408072E+03  0.7561462E-02  0.1212247E+00
          1   -1    0    0  501    0  0.00000000000E+00  0.00000000000E+00  0.63070804604E+03  0.63070804604E+03  0.00000000000E+00 0. -1.
         -1   -1    0    0    0  501 -0.00000000000E+00 -0.00000000000E+00 -0.38922636801E+02  0.38922636801E+02  0.00000000000E+00 0.  1.
         25    2    1    2    0    0 -0.11131810333E+03 -0.18399995322E+02  0.33104638963E+03  0.37143954379E+03  0.12508134412E+03 0.  0.
         23    2    1    2    0    0  0.11131810333E+03  0.18399995322E+02  0.26073901961E+03  0.29819113905E+03  0.90569526356E+02 0.  0.
          5    1    3    3  502    0 -0.30910654443E+02  0.50091264804E+02  0.15802220812E+03  0.16868044945E+03  0.41800000000E+01 0.  1.
         -5    1    3    3    0  502 -0.80407448890E+02 -0.68491260125E+02  0.17302418151E+03  0.20275909434E+03  0.41800000000E+01 0.  1.
        -11    1    4    4    0    0  0.35906489688E+02  0.20711492252E+02  0.19101180524E+03  0.19545780019E+03  0.00000000000E+00 0. -1.
         11    1    4    4    0    0  0.75411613646E+02 -0.23114969298E+01  0.69727214374E+02  0.10273333887E+03  0.00000000000E+00 0.  1.
</event>
<event>
 8    1  0.7262913E-009  0.9010935E+02  0.7561462E-02  0.1302587E+00
          2   -1    0    0  501    0  0.00000000000E+00  0.00000000000E+00  0.37464936060E+03  0.37464936060E+03  0.00000000000E+00 0. -1.
         -2   -1    0    0    0  501 -0.00000000000E+00 -0.00000000000E+00 -0.43816865057E+02  0.43816865057E+02  0.00000000000E+00 0.  1.
         25    2    1    2    0    0  0.65908922688E+02 -0.33669265438E+01  0.20625985345E+03  0.25009240238E+03  0.12509100807E+03 0.  0.
         23    2    1    2    0    0 -0.65908922688E+02  0.33669265438E+01  0.12457264209E+03  0.16837382328E+03  0.92065622915E+02 0.  0.
          5    1    3    3  502    0  0.51287601744E+02  0.28207151107E+02  0.22223285489E+02  0.62748771176E+02  0.41800000000E+01 0.  1.
         -5    1    3    3    0  502  0.14621320944E+02 -0.31574077651E+02  0.18403656796E+03  0.18734363121E+03  0.41800000000E+01 0.  1.
        -11    1    4    4    0    0 -0.17497146576E+02 -0.24899134553E+02  0.10448077038E+03  0.10882255473E+03  0.00000000000E+00 0. -1.
         11    1    4    4    0    0 -0.48411776112E+02  0.28266061097E+02  0.20091871715E+02  0.59551268545E+02  0.00000000000E+00 0.  1.
</event>
<event>
 8    1  0.7262913E-009  0.1936813E+03  0.7561462E-02  0.1155182E+00
         -1   -1    0    0    0  501 -0.00000000000E+00  0.00000000000E+00  0.13227946434E+03  0.13227946434E+03  0.00000000000E+00 0.  1.
          1   -1    0    0  501    0  0.00000000000E+00 -0.00000000000E+00 -0.41156361481E+03  0.41156361481E+03  0.00000000000E+00 0. -1.
         25    2    1    2    0    0  0.15204293392E+03  0.10731899158E+03 -0.40700407654E+02  0.22790210926E+03  0.12509367895E+03 0.  0.
         23    2    1    2    0    0 -0.15204293392E+03 -0.10731899158E+03 -0.23858374281E+03  0.31594096989E+03  0.90895953780E+02 0.  0.
          5    1    3    3  502    0  0.87131149194E+02  0.10036357184E+03 -0.76418940241E+02  0.15336887083E+03  0.41800000000E+01 0. -1.
         -5    1    3    3    0  502  0.64911784723E+02  0.69554197350E+01  0.35718532588E+02  0.74533238423E+02  0.41800000000E+01 0. -1.
        -11    1    4    4    0    0 -0.73602002755E+02 -0.71941611500E+02 -0.19260110734E+03  0.21837590715E+03  0.00000000000E+00 0. -1.
         11    1    4    4    0    0 -0.78440931162E+02 -0.35377380077E+02 -0.45982635473E+02  0.97565062741E+02  0.00000000000E+00 0.  1.
</event>
<event>
 8    1  0.7262913E-009  0.1076500E+03  0.7561462E-02  0.1264985E+00
         -1   -1    0    0    0  501 -0.00000000000E+00  0.00000000000E+00  0.78066056990E+02  0.78066056990E+02  0.00000000000E+00 0.  1.
          1   -1    0    0  501    0  0.00000000000E+00 -0.00000000000E+00 -0.17643395974E+03  0.17643395974E+03  0.00000000000E+00 0. -1.
         25    2    1    2    0    0 -0.32115443437E+02 -0.22461654653E+02 -0.31450560232E+02  0.13480544155E+03  0.12508973458E+03 0.  0.
         23    2    1    2    0    0  0.32115443437E+02  0.22461654653E+02 -0.66917342517E+02  0.11969457518E+03  0.91175287005E+02 0.  0.
          5    1    3    3  502    0  0.32219728286E+02  0.25524089777E+02  0.12549591840E+02  0.43180489866E+02  0.41800000000E+01 0. -1.
         -5    1    3    3    0  502 -0.64335171722E+02 -0.47985744430E+02 -0.44000152072E+02  0.91624951686E+02  0.41800000000E+01 0. -1.
        -11    1    4    4    0    0  0.43461097460E+02  0.48553042497E+02 -0.26678195906E+02  0.70413003522E+02  0.00000000000E+00 0.  1.
         11    1    4    4    0    0 -0.11345654024E+02 -0.26091387844E+02 -0.40239146611E+02  0.49281571655E+02  0.00000000000E+00 0. -1.
</event>
<event>
 8    1  0.7262913E-009  0.2423471E+03  0.7561462E-02  0.1118239E+00
         -2   -1    0    0    0  501 -0.00000000000E+00  0.00000000000E+00  0.13381224909E+03  0.13381224909E+03  0.00000000000E+00 0.  1.
          2   -1    0    0  501    0  0.00000000000E+00 -0.00000000000E+00 -0.50270799966E+03  0.50270799966E+03  0.00000000000E+00 0. -1.
         25    2    1    2    0    0  0.23502199257E+03  0.11317949244E+02 -0.19462032480E+03  0.32998258626E+03  0.12509197994E+03 0.  0.
         23    2    1    2    0    0 -0.23502199257E+03 -0.11317949244E+02 -0.17427542576E+03  0.30653766249E+03  0.90719245682E+02 0.  0.
          5    1    3    3  502    0  0.12953527018E+03  0.25440033597E+02 -0.17881935833E+03  0.22230703282E+03  0.41800000000E+01 0. -1.
         -5    1    3    3    0  502  0.10548672239E+03 -0.14122084353E+02 -0.15800966472E+02  0.10767555344E+03  0.41800000000E+01 0. -1.
        -11    1    4    4    0    0 -0.18126957389E+03  0.22411347885E+02 -0.15678620535E+03  0.24071319266E+03  0.00000000000E+00 0. -1.
         11    1    4    4    0    0 -0.53752418675E+02 -0.33729297129E+02 -0.17489220415E+02  0.65824469834E+02  0.00000000000E+00 0.  1.
</event>
<event>
 8    1  0.7262913E-009  0.1835306E+03  0.7561462E-02  0.1164429E+00
         -2   -1    0    0    0  501 -0.00000000000E+00  0.00000000000E+00  0.15616629855E+03  0.15616629855E+03  0.00000000000E+00 0.  1.
          2   -1    0    0  501    0  0.00000000000E+00 -0.00000000000E+00 -0.24782432697E+03  0.24782432697E+03  0.00000000000E+00 0. -1.
         25    2    1    2    0    0  0.35633967273E+02  0.15981610728E+03 -0.46537328509E+02  0.21124404830E+03  0.12508939696E+03 0.  0.
         23    2    1    2    0    0 -0.35633967273E+02 -0.15981610728E+03 -0.45120699903E+02  0.19274657721E+03  0.91128468109E+02 0.  0.
          5    1    3    3  502    0 -0.20778322069E+02 -0.69669974310E+01  0.12405517613E+02  0.25527377234E+02  0.41800000000E+01 0.  1.
         -5    1    3    3    0  502  0.56412289342E+02  0.16678310471E+03 -0.58942846122E+02  0.18571667107E+03  0.41800000000E+01 0.  1.
        -11    1    4    4    0    0 -0.29145419126E+02 -0.44856936143E+02 -0.55566859046E+02  0.77131549967E+02  0.00000000000E+00 0. -1.
         11    1    4    4    0    0 -0.64885481470E+01 -0.11495917113E+03  0.10446159142E+02  0.11561502725E+03  0.00000000000E+00 0.  1.
</event>
<event>
 8    1  0.7262913E-009  0.1203556E+03  0.7561462E-02  0.1242512E+00
         -2   -1    0    0    0  501 -0.00000000000E+00  0.00000000000E+00  0.72611994985E+02  0.72611994985E+02  0.00000000000E+00 0.  1.
          2   -1    0    0  501    0  0.00000000000E+00 -0.00000000000E+00 -0.32819130738E+03  0.32819130738E+03  0.00000000000E+00 0. -1.
         25    2    1    2    0    0 -0.71556633088E+02  0.37272830806E+02 -0.41231591615E+02  0.15445579600E+03  0.12508770170E+03 0.  0.
         23    2    1    2    0    0  0.71556633088E+02 -0.37272830806E+02 -0.21434772078E+03  0.24634750636E+03  0.90733306074E+02 0.  0.
          5    1    3    3  502    0  0.35236520377E+02  0.66649464659E+01 -0.65285958996E+00  0.36110005612E+02  0.41800000000E+01 0. -1.
         -5    1    3    3    0  502 -0.10679315347E+03  0.30607884340E+02 -0.40578732025E+02  0.11834579039E+03  0.41800000000E+01 0. -1.
        -11    1    4    4    0    0  0.72485775991E+02 -0.18726052851E+02 -0.21510618257E+03  0.22776198663E+03  0.00000000000E+00 0. -1.
         11    1    4    4    0    0 -0.92914290230E+00 -0.18546777955E+02  0.75846179324E+00  0.18585519722E+02  0.00000000000E+00 0.  1.
</event>
<event>
 8    1  0.7262913E-009  0.7683675E+02  0.7561462E-02  0.1338276E+00
          2   -1    0    0  501    0  0.00000000000E+00  0.00000000000E+00  0.45410249564E+02  0.45410249564E+02  0.00000000000E+00 0. -1.
         -2   -1    0    0    0  501 -0.00000000000E+00 -0.00000000000E+00 -0.56675691316E+03  0.56675691316E+03  0.00000000000E+00 0.  1.
         25    2    1    2    0    0 -0.17214997277E+02  0.12673830160E+02 -0.58182486388E+02  0.13960579695E+03  0.12509034622E+03 0.  0.
         23    2    1    2    0    0  0.17214997277E+02 -0.12673830160E+02 -0.46316417721E+03  0.47256136577E+03  0.91302832773E+02 0.  0.
          5    1    3    3  502    0  0.17579852592E+02 -0.74540927117E+01 -0.87513456895E+02  0.89669907176E+02  0.41800000000E+01 0.  1.
         -5    1    3    3    0  502 -0.34794849869E+02  0.20127922871E+02  0.29330970507E+02  0.49935889773E+02  0.41800000000E+01 0.  1.
        -11    1    4    4    0    0 -0.24634891792E+02  0.26646015089E+02 -0.17122054267E+03  0.17502389050E+03  0.00000000000E+00 0.  1.
         11    1    4    4    0    0  0.41849889069E+02 -0.39319845249E+02 -0.29194363453E+03  0.29753747527E+03  0.00000000000E+00 0. -1.
</event>
<event>
 8    1  0.7262913E-009  0.1438690E+03  0.7561462E-02  0.1208216E+00
          2   -1    0    0  501    0  0.00000000000E+00  0.00000000000E+00  0.21419758052E+03  0.21419758052E+03  0.00000000000E+00 0. -1.
         -2   -1    0    0    0  501 -0.00000000000E+00 -0.00000000000E+00 -0.32256117208E+03  0.32256117208E+03  0.00000000000E+00 0.  1.
         25    2    1    2    0    0 -0.67123505630E+02  0.98973176735E+02 -0.26676553564E+03  0.31797937185E+03  0.12508307318E+03 0.  0.
         23    2    1    2    0    0  0.67123505630E+02 -0.98973176735E+02  0.15840194408E+03  0.21877938076E+03  0.92043396471E+02 0.  0.
          5    1    3    3  502    0 -0.31404533651E+02 -0.11968733156E+02 -0.14684621201E+03  0.15070095450E+03  0.41800000000E+01 0. -1.
         -5    1    3    3    0  502 -0.35718971979E+02  0.11094190989E+03 -0.11991932364E+03  0.16727841735E+03  0.41800000000E+01 0. -1.
        -11    1    4    4    0    0  0.47556389531E+02 -0.13320691961E+02  0.16858692452E+02  0.52184926279E+02  0.00000000000E+00 0.  1.
         11    1    4    4    0    0  0.19567116099E+02 -0.85652484775E+02  0.14154325163E+03  0.16659445448E+03  0.00000000000E+00 0. -1.
</event>
<event>
 8    1  0.7262913E-009  0.6196170E+02  0.7561462E-02  0.1389779E+00
         -1   -1    0    0    0  501 -0.00000000000E+00  0.00000000000E+00  0.82078665864E+03  0.82078665864E+03  0.00000000000E+00 0.  1.
          1   -1    0    0  501    0  0.00000000000E+00 -0.00000000000E+00 -0.17361747688E+02  0.17361747688E+02  0.00000000000E+00 0. -1.
         25    2    1    2    0    0 -0.10460442288E+02  0.16214665603E+02  0.61827263697E+03  0.63109631231E+03  0.12509662487E+03 0.  0.
         23    2    1    2    0    0  0.10460442288E+02 -0.16214665603E+02  0.18515227399E+03  0.20705209402E+03  0.90646946130E+02 0.  0.
          5    1    3    3  502    0 -0.25050936101E+02  0.88536594341E+01  0.61276012244E+03  0.61335012573E+03  0.41800000000E+01 0.  1.
         -5    1    3    3    0  502  0.14590493812E+02  0.73610061689E+01  0.55125145258E+01  0.17746186574E+02  0.41800000000E+01 0.  1.
        -11    1    4    4    0    0 -0.28326222906E+02 -0.27789784716E+02  0.14384829520E+03  0.14922124202E+03  0.00000000000E+00 0.  1.
         11    1    4    4    0    0  0.38786665195E+02  0.11575119113E+02  0.41303978790E+02  0.57830852002E+02  0.00000000000E+00 0. -1.
</event>
<event>
 8    1  0.7262913E-009  0.8789005E+02  0.7561462E-02  0.1308043E+00
         -3   -1    0    0    0  501 -0.00000000000E+00  0.00000000000E+00  0.63006587631E+02  0.63006587631E+02  0.00000000000E+00 0.  1.
          3   -1    0    0  501    0  0.00000000000E+00 -0.00000000000E+00 -0.20526266998E+03  0.20526266998E+03  0.00000000000E+00 0. -1.
         25    2    1    2    0    0  0.15382019085E+02  0.22637630178E+02 -0.10800625961E+03  0.16751699672E+03  0.12509006061E+03 0.  0.
         23    2    1    2    0    0 -0.15382019085E+02 -0.22637630178E+02 -0.34249822745E+02  0.10075226089E+03  0.90713278554E+02 0.  0.
          5    1    3    3  502    0  0.22114901080E+02 -0.45472703224E+02 -0.77116350672E+02  0.92310560226E+02  0.41800000000E+01 0.  1.
         -5    1    3    3    0  502 -0.67328819949E+01  0.68110333402E+02 -0.30889908936E+02  0.75206436494E+02  0.41800000000E+01 0.  1.
        -11    1    4    4    0    0  0.15314870591E+02  0.40009815383E+01 -0.53491148911E+02  0.55784013178E+02  0.00000000000E+00 0. -1.
         11    1    4    4    0    0 -0.30696889676E+02 -0.26638611716E+02  0.19241326166E+02  0.44968247715E+02  0.00000000000E+00 0.  1.
</event>
<event>
 8    1  0.7262913E-009  0.1547472E+03  0.7561462E-02  0.1194758E+00
          2   -1    0    0  501    0  0.00000000000E+00  0.00000000000E+00  0.34895017716E+03  0.34895017716E+03  0.00000000000E+00 0. -1.
         -2   -1    0    0    0  501 -0.00000000000E+00 -0.00000000000E+00 -0.69964320219E+02  0.69964320219E+02  0.00000000000E+00 0.  1.
         25    2    1    2    0    0  0.46672072103E+02  0.10343072302E+03  0.15876381137E+03  0.23179610096E+03  0.12508911960E+03 0.  0.
         23    2    1    2    0    0 -0.46672072103E+02 -0.10343072302E+03  0.12022204558E+03  0.18711839642E+03  0.87657043400E+02 0.  0.
          5    1    3    3  502    0 -0.37595478295E+02  0.62395870087E+02  0.51615289617E+02  0.89377150964E+02  0.41800000000E+01 0.  1.
         -5    1    3    3    0  502  0.84267550398E+02  0.41034852931E+02  0.10714852175E+03  0.14241895000E+03  0.41800000000E+01 0.  1.
        -11    1    4    4    0    0 -0.68761889429E+02 -0.50386161305E+02  0.62771635697E+02  0.10586425713E+03  0.00000000000E+00 0. -1.
         11    1    4    4    0    0  0.22089817327E+02 -0.53044561713E+02  0.57450409878E+02  0.81254139292E+02  0.00000000000E+00 0.  1.
</event>
<event>
 8    1  0.7262913E-009  0.2910600E+03  0.7561462E-02  0.1089797E+00
         -1   -1    0    0    0  501 -0.00000000000E+00  0.00000000000E+00  0.53324742990E+03  0.53324742990E+03  0.00000000000E+00 0.  1.
          1   -1    0    0  501    0  0.00000000000E+00 -0.00000000000E+00 -0.19434473575E+03  0.19434473575E+03  0.00000000000E+00 0. -1.
         25    2    1    2    0    0  0.88336890150E+02  0.27041571956E+03  0.29219767662E+03  0.42656382899E+03  0.12509656443E+03 0.  0.
         23    2    1    2    0    0 -0.88336890150E+02 -0.27041571956E+03  0.46705017521E+02  0.30102833666E+03  0.86652370199E+02 0.  0.
          5    1    3    3  502    0  0.55512986518E+02  0.18363296934E+03  0.10779135839E+03  0.22008909206E+03  0.41800000000E+01 0. -1.
         -5    1    3    3    0  502  0.32823903633E+02  0.86782750225E+02  0.18440631824E+03  0.20647473693E+03  0.41800000000E+01 0. -1.
        -11    1    4    4    0    0 -0.66305395975E+02 -0.72613875505E+02  0.13570438148E+02  0.99263977569E+02  0.00000000000E+00 0.  1.
         11    1    4    4    0    0 -0.22031494175E+02 -0.19780184406E+03  0.33134579373E+02  0.20176435909E+03  0.00000000000E+00 0. -1.
</event>
<event>
 8    1  0.7262913E-009  0.3132539E+03  0.7561462E-02  0.1078797E+00
         -2   -1    0    0    0  501 -0.00000000000E+00  0.00000000000E+00  0.40060292059E+02  0.40060292059E+02  0.00000000000E+00 0.  1.
          2   -1    0    0  501    0  0.00000000000E+00 -0.00000000000E+00 -0.27688082419E+04  0.27688082419E+04  0.00000000000E+00 0. -1.
         25    2    1    2    0    0  0.10615452999E+03  0.27470454225E+03 -0.18499490333E+04  0.18774158535E+04  0.12508993242E+03 0.  0.
         23    2    1    2    0    0 -0.10615452999E+03 -0.27470454225E+03 -0.87879891649E+03  0.93145268046E+03  0.92656303342E+02 0.  0.
          5    1    3    3  502    0  0.39722580043E+01  0.17510956010E+03 -0.91365310073E+03  0.93030027290E+03  0.41800000000E+01 0.  1.
         -5    1    3    3    0  502  0.10218227198E+03  0.99594982146E+02 -0.93629593260E+03  0.94711558058E+03  0.41800000000E+01 0.  1.
        -11    1    4    4    0    0 -0.26654663596E+02 -0.19197282943E+03 -0.53644097025E+03  0.57037965680E+03  0.00000000000E+00 0. -1.
         11    1    4    4    0    0 -0.79499866390E+02 -0.82731712818E+02 -0.34235794624E+03  0.36107302366E+03  0.00000000000E+00 0.  1.
</event>
<event>
 8    1  0.7262913E-009  0.8655477E+02  0.7561462E-02  0.1311416E+00
         -2   -1    0    0    0  501 -0.00000000000E+00  0.00000000000E+00  0.21663784169E+02  0.21663784169E+02  0.00000000000E+00 0. -1.
          2   -1    0    0  501    0  0.00000000000E+00 -0.00000000000E+00 -0.89659832625E+03  0.89659832625E+03  0.00000000000E+00 0.  1.
         25    2    1    2    0    0 -0.15429165820E+02  0.14375488194E+02 -0.75423321981E+03  0.76482683302E+03  0.12509045057E+03 0.  0.
         23    2    1    2    0    0  0.15429165820E+02 -0.14375488194E+02 -0.12070132227E+03  0.15343527739E+03  0.92351834487E+02 0.  0.
          5    1    3    3  502    0 -0.53660588146E+02 -0.15288718796E+02 -0.17886719049E+03  0.18741437479E+03  0.41800000000E+01 0.  1.
         -5    1    3    3    0  502  0.38231422326E+02  0.29664206990E+02 -0.57536602932E+03  0.57741245823E+03  0.41800000000E+01 0.  1.
        -11    1    4    4    0    0 -0.22178730890E+02 -0.20832647347E+02 -0.10952601790E+03  0.11367428864E+03  0.00000000000E+00 0.  1.
         11    1    4    4    0    0  0.37607896710E+02  0.64571591525E+01 -0.11175304363E+02  0.39760988756E+02  0.00000000000E+00 0. -1.
</event>
<event>
 8    1  0.7262913E-009  0.1642640E+03  0.7561462E-02  0.1183965E+00
         -1   -1    0    0    0  501 -0.00000000000E+00  0.00000000000E+00  0.17867016509E+02  0.17867016509E+02  0.00000000000E+00 0.  1.
          1   -1    0    0  501    0  0.00000000000E+00 -0.00000000000E+00 -0.24731299578E+04  0.24731299578E+04  0.00000000000E+00 0. -1.
         25    2    1    2    0    0 -0.33748682983E+02  0.15067256124E+03 -0.18301644117E+04  0.18409210915E+04  0.12508995615E+03 0.  0.
         23    2    1    2    0    0  0.33748682983E+02 -0.15067256124E+03 -0.62509852958E+03  0.65007588275E+03  0.89494621850E+02 0.  0.
          5    1    3    3  502    0 -0.20546952916E+02  0.73044641703E+02 -0.32800253721E+03  0.33669100637E+03  0.41800000000E+01 0.  1.
         -5    1    3    3    0  502 -0.13201730067E+02  0.77627919540E+02 -0.15021618745E+04  0.15042300852E+04  0.41800000000E+01 0.  1.
        -11    1    4    4    0    0 -0.84507838848E+01 -0.12283608432E+03 -0.36792136865E+03  0.38797712931E+03  0.00000000000E+00 0. -1.
         11    1    4    4    0    0  0.42199466868E+02 -0.27836476918E+02 -0.25717716093E+03  0.26209875344E+03  0.00000000000E+00 0.  1.
</event>
<event>
 8    1  0.7262913E-009  0.1096352E+03  0.7561462E-02  0.1261247E+00
          2   -1    0    0  501    0  0.00000000000E+00  0.00000000000E+00  0.48110992448E+03  0.48110992448E+03  0.00000000000E+00 0. -1.
         -2   -1    0    0    0  501 -0.00000000000E+00 -0.00000000000E+00 -0.51185341229E+02  0.51185341229E+02  0.00000000000E+00 0.  1.
         25    2    1    2    0    0 -0.65073181059E+02 -0.67954934219E+02  0.35325167511E+03  0.38637543614E+03  0.12508732833E+03 0.  0.
         23    2    1    2    0    0  0.65073181059E+02  0.67954934219E+02  0.76672908145E+02  0.14591982957E+03  0.81002900199E+02 0.  0.
          5    1    3    3  502    0 -0.27554612648E+02 -0.64093775019E+02  0.33853464364E+03  0.34567390127E+03  0.41800000000E+01 0.  1.
         -5    1    3    3    0  502 -0.37518568411E+02 -0.38611592003E+01  0.14717031474E+02  0.40701534878E+02  0.41800000000E+01 0.  1.
        -11    1    4    4    0    0 -0.75328065585E+01  0.27085433350E+02 -0.57787026605E+01  0.28701172081E+02  0.00000000000E+00 0.  1.
         11    1    4    4    0    0  0.72605987617E+02  0.40869500869E+02  0.82451610805E+02  0.11721865749E+03  0.00000000000E+00 0. -1.
</event>
<event>
 8    1  0.7262913E-009  0.1015903E+03  0.7561462E-02  0.1276987E+00
          2   -1    0    0  501    0  0.00000000000E+00  0.00000000000E+00  0.44585413643E+03  0.44585413643E+03  0.00000000000E+00 0. -1.
         -2   -1    0    0    0  501 -0.00000000000E+00 -0.00000000000E+00 -0.33270217376E+02  0.33270217376E+02  0.00000000000E+00 0.  1.
         25    2    1    2    0    0  0.43269288733E+02 -0.21794849809E+02  0.17373659817E+03  0.21949726918E+03  0.12508956316E+03 0.  0.
         23    2    1    2    0    0 -0.43269288733E+02  0.21794849809E+02  0.23884732089E+03  0.25962708462E+03  0.89503818634E+02 0.  0.
          5    1    3    3  502    0 -0.11715642165E+02  0.42977728545E+02  0.35201123512E+02  0.56929192149E+02  0.41800000000E+01 0. -1.
         -5    1    3    3    0  502  0.54984930899E+02 -0.64772578354E+02  0.13853547466E+03  0.16256807704E+03  0.41800000000E+01 0. -1.
        -11    1    4    4    0    0 -0.19932997696E+01  0.31015257757E+02  0.20522899405E+02  0.37243910344E+02  0.00000000000E+00 0.  1.
         11    1    4    4    0    0 -0.41275988964E+02 -0.92204079483E+01  0.21832442148E+03  0.22238317428E+03  0.00000000000E+00 0. -1.
</event>
<event>
 8    1  0.7262913E-009  0.4264215E+03  0.7561462E-02  0.1034996E+00
         -1   -1    0    0    0  501 -0.00000000000E+00  0.00000000000E+00  0.12022481739E+03  0.12022481739E+03  0.00000000000E+00 0.  1.
          1   -1    0    0  501    0  0.00000000000E+00 -0.00000000000E+00 -0.15990669465E+04  0.15990669465E+04  0.00000000000E+00 0. -1.
         25    2    1    2    0    0  0.32043713855E+03 -0.27917509726E+03 -0.74647561903E+03  0.86803870724E+03  0.12508658111E+03 0.  0.
         23    2    1    2    0    0 -0.32043713855E+03  0.27917509726E+03 -0.73236651006E+03  0.85125305663E+03  0.87477806799E+02 0.  0.
          5    1    3    3  502    0  0.31624493037E+03 -0.27002724240E+03 -0.65466134927E+03  0.77558011982E+03  0.41800000000E+01 0.  1.
         -5    1    3    3    0  502  0.41922081787E+01 -0.91478548642E+01 -0.91814269753E+02  0.92458587423E+02  0.41800000000E+01 0.  1.
        -11    1    4    4    0    0 -0.15374489739E+03  0.11385680789E+03 -0.41020737433E+03  0.45262672936E+03  0.00000000000E+00 0. -1.
         11    1    4    4    0    0 -0.16669224116E+03  0.16531828937E+03 -0.32215913572E+03  0.39862632727E+03  0.00000000000E+00 0.  1.
</event>
<event>
 8    1  0.7262913E-009  0.2453412E+03  0.7561462E-02  0.1116285E+00
         -1   -1    0    0    0  501 -0.00000000000E+00  0.00000000000E+00  0.16924581823E+03  0.16924581823E+03  0.00000000000E+00 0.  1.
          1   -1    0    0  501    0  0.00000000000E+00 -0.00000000000E+00 -0.40262947285E+03  0.40262947285E+03  0.00000000000E+00 0. -1.
         25    2    1    2    0    0 -0.21937242366E+03 -0.59918306097E+02 -0.48314115359E+02  0.26400113520E+03  0.12509149443E+03 0.  0.
         23    2    1    2    0    0  0.21937242366E+03  0.59918306097E+02 -0.18506953927E+03  0.30787415588E+03  0.93921764391E+02 0.  0.
          5    1    3    3  502    0 -0.10487409171E+03  0.21442235171E+02  0.17982037980E+02  0.10862398745E+03  0.41800000000E+01 0. -1.
         -5    1    3    3    0  502 -0.11449833195E+03 -0.81360541268E+02 -0.66296153339E+02  0.15537714775E+03  0.41800000000E+01 0. -1.
        -11    1    4    4    0    0  0.11179454352E+03  0.74685595986E+02 -0.12600068007E+03  0.18426103654E+03  0.00000000000E+00 0.  1.
         11    1    4    4    0    0  0.10757788014E+03 -0.14767289889E+02 -0.59068859195E+02  0.12361311934E+03  0.00000000000E+00 0. -1.
</event>
<event>
 8    1  0.7262913E-009  0.1091710E+03  0.7561462E-02  0.1262113E+00
          1   -1    0    0  501    0  0.00000000000E+00  0.00000000000E+00  0.11613657541E+03  0.11613657541E+03  0.00000000000E+00 0. -1.
         -1   -1    0    0    0  501 -0.00000000000E+00 -0.00000000000E+00 -0.15262944609E+03  0.15262944609E+03  0.00000000000E+00 0.  1.
         25    2    1    2    0    0 -0.14904011452E+02  0.61585141216E+02  0.28247348290E+02  0.14303835719E+03  0.12508876755E+03 0.  0.
         23    2    1    2    0    0  0.14904011452E+02 -0.61585141216E+02 -0.64740218970E+02  0.12572766432E+03  0.87185379774E+02 0.  0.
          5    1    3    3  502    0 -0.56469007914E+02 -0.30734621119E+01  0.33529299402E+02  0.65877775786E+02  0.41800000000E+01 0.  1.
         -5    1    3    3    0  502  0.41564996461E+02  0.64658603328E+02 -0.52819511128E+01  0.77160581405E+02  0.41800000000E+01 0.  1.
        -11    1    4    4    0    0  0.83224384455E+01  0.98628815173E+01 -0.51084346768E+02  0.52689181985E+02  0.00000000000E+00 0.  1.
         11    1    4    4    0    0  0.65815730067E+01 -0.71448022733E+02 -0.13655872202E+02  0.73038482332E+02  0.00000000000E+00 0. -1.
</event>
<event>
 8    1  0.7262913E-009  0.1134835E+03  0.7561462E-02  0.1254252E+00
         -1   -1    0    0    0  501 -0.00000000000E+00  0.00000000000E+00  0.11285971112E+02  0.11285971112E+02  0.00000000000E+00 0.  1.
          1   -1    0    0  501    0  0.00000000000E+00 -0.00000000000E+00 -0.16668691096E+04  0.16668691096E+04  0.00000000000E+00 0. -1.
         25    2    1    2    0    0 -0.57626849657E+02  0.20784255311E+02 -0.12927701739E+04  0.13002520564E+04  0.12509136101E+03 0.  0.
         23    2    1    2    0    0  0.57626849657E+02 -0.20784255311E+02 -0.36281296460E+03  0.37790302432E+03  0.86166173376E+02 0.  0.
          5    1    3    3  502    0  0.32085030671E+02  0.91520754543E+01 -0.14212011199E+03  0.14604385749E+03  0.41800000000E+01 0. -1.
         -5    1    3    3    0  502 -0.89711880328E+02  0.11632179857E+02 -0.11506500619E+04  0.11542081990E+04  0.41800000000E+01 0. -1.
        -11    1    4    4    0    0  0.16445341221E+02 -0.49773836865E+02 -0.14058846189E+03  0.15004332608E+03  0.00000000000E+00 0.  1.
         11    1    4    4    0    0  0.41181508436E+02  0.28989581554E+02 -0.22222450271E+03  0.22785969823E+03  0.00000000000E+00 0. -1.
</event>
<event>
 8    1  0.7262913E-009  0.1407708E+03  0.7561462E-02  0.1212296E+00
         -3   -1    0    0    0  501 -0.00000000000E+00  0.00000000000E+00  0.60933079006E+02  0.60933079006E+02  0.00000000000E+00 0.  1.
          3   -1    0    0  501    0  0.00000000000E+00 -0.00000000000E+00 -0.40824700179E+03  0.40824700179E+03  0.00000000000E+00 0. -1.
         25    2    1    2    0    0 -0.52123121876E+02 -0.10072680111E+03 -0.14234368336E+03  0.22084311510E+03  0.12508896433E+03 0.  0.
         23    2    1    2    0    0  0.52123121876E+02  0.10072680111E+03 -0.20497023943E+03  0.24833696570E+03  0.82436285627E+02 0.  0.
          5    1    3    3  502    0 -0.79177168133E+01 -0.11953438188E+03 -0.11070130339E+03  0.16316681545E+03  0.41800000000E+01 0. -1.
         -5    1    3    3    0  502 -0.44205405063E+02  0.18807580771E+02 -0.31642379968E+02  0.57676299650E+02  0.41800000000E+01 0. -1.
        -11    1    4    4    0    0  0.16698401867E+02  0.35260280271E+02 -0.10941075190E+02  0.40519515249E+02  0.00000000000E+00 0.  1.
         11    1    4    4    0    0  0.35424720009E+02  0.65466520835E+02 -0.19402916424E+03  0.20781745045E+03  0.00000000000E+00 0. -1.
</event>
<event>
 8    1  0.7262913E-009  0.1887550E+03  0.7561462E-02  0.1159589E+00
         -1   -1    0    0    0  501 -0.00000000000E+00  0.00000000000E+00  0.15331748360E+03  0.15331748360E+03  0.00000000000E+00 0.  1.
          1   -1    0    0  501    0  0.00000000000E+00 -0.00000000000E+00 -0.25305973284E+03  0.25305973284E+03  0.00000000000E+00 0. -1.
         25    2    1    2    0    0  0.69225005484E+02  0.13817725931E+03  0.18632842673E+01  0.19883650016E+03  0.12508967021E+03 0.  0.
         23    2    1    2    0    0 -0.69225005484E+02 -0.13817725931E+03 -0.10160553351E+03  0.20754071629E+03  0.94150985685E+02 0.  0.
          5    1    3    3  502    0  0.10424273848E+03  0.88594420405E+02 -0.84239430743E+01  0.13712751390E+03  0.41800000000E+01 0. -1.
         -5    1    3    3    0  502 -0.35017732996E+02  0.49582838902E+02  0.10287227342E+02  0.61708986251E+02  0.41800000000E+01 0. -1.
        -11    1    4    4    0    0 -0.14833474978E+02 -0.12221321485E+03 -0.58360610811E+02  0.13624266130E+03  0.00000000000E+00 0. -1.
         11    1    4    4    0    0 -0.54391530506E+02 -0.15964044454E+02 -0.43244922696E+02  0.71298054988E+02  0.00000000000E+00 0.  1.
</event>
<event>
 8    1  0.7262913E-009  0.1226309E+03  0.7561462E-02  0.1238819E+00
         -2   -1    0    0    0  501 -0.00000000000E+00  0.00000000000E+00  0.64166501289E+02  0.64166501289E+02  0.00000000000E+00 0. -1.
          2   -1    0    0  501    0  0.00000000000E+00 -0.00000000000E+00 -0.24940788257E+03  0.24940788257E+03  0.00000000000E+00 0.  1.
         25    2    1    2    0    0  0.50020167309E+02  0.32811863032E+02 -0.72294690506E+02  0.15636930922E+03  0.12508478363E+03 0.  0.
         23    2    1    2    0    0 -0.50020167309E+02 -0.32811863032E+02 -0.11294669077E+03  0.15720507464E+03  0.91530568900E+02 0.  0.
          5    1    3    3  502    0  0.64746836448E+02 -0.30143730441E+02 -0.52108454051E+02  0.88507404766E+02  0.41800000000E+01 0.  1.
         -5    1    3    3    0  502 -0.14726669139E+02  0.62955593472E+02 -0.20186236455E+02  0.67861904450E+02  0.41800000000E+01 0.  1.
        -11    1    4    4    0    0  0.24703530619E+02 -0.22655058948E+02 -0.41247004603E+02  0.53149144016E+02  0.00000000000E+00 0.  1.
         11    1    4    4    0    0 -0.74723697928E+02 -0.10156804084E+02 -0.71699686169E+02  0.10405593062E+03  0.00000000000E+00 0. -1.
</event>
<event>
 8    1  0.7262913E-009  0.1880889E+03  0.7561462E-02  0.1160196E+00
          2   -1    0    0  501    0  0.00000000000E+00  0.00000000000E+00  0.51790454337E+03  0.51790454337E+03  0.00000000000E+00 0. -1.
         -2   -1    0    0    0  501 -0.00000000000E+00 -0.00000000000E+00 -0.93958554803E+02  0.93958554803E+02  0.00000000000E+00 0.  1.
         25    2    1    2    0    0  0.12569667963E+03  0.99100283389E+02  0.36938323580E+03  0.42155947140E+03  0.12509153288E+03 0.  0.
         23    2    1    2    0    0 -0.12569667963E+03 -0.99100283389E+02  0.54562752766E+02  0.19030362677E+03  0.87280323880E+02 0.  0.
          5    1    3    3  502    0  0.85410251317E+02  0.12616496522E+03  0.25254241861E+03  0.29497060036E+03  0.41800000000E+01 0. -1.
         -5    1    3    3    0  502  0.40286428311E+02 -0.27064681834E+02  0.11684081720E+03  0.12658887104E+03  0.41800000000E+01 0. -1.
        -11    1    4    4    0    0  0.52199796695E+01 -0.23080502390E+02  0.27904040305E+02  0.36586790562E+02  0.00000000000E+00 0. -1.
         11    1    4    4    0    0 -0.13091665930E+03 -0.76019780999E+02  0.26658712461E+02  0.15371683621E+03  0.00000000000E+00 0.  1.
</event>
<event>
 8    1  0.7262913E-009  0.9724947E+02  0.7561462E-02  0.1286189E+00
          2   -1    0    0  501    0  0.00000000000E+00  0.00000000000E+00  0.17994260944E+04  0.17994260944E+04  0.00000000000E+00 0. -1.
         -2   -1    0    0    0  501 -0.00000000000E+00 -0.00000000000E+00 -0.91509939561E+01  0.91509939561E+01  0.00000000000E+00 0.  1.
         25    2    1    2    0    0  0.19792422734E+01 -0.49899722512E+02  0.13415751149E+04  0.13483185313E+04  0.12508066656E+03 0.  0.
         23    2    1    2    0    0 -0.19792422734E+01  0.49899722512E+02  0.44869998551E+03  0.46025855705E+03  0.89511801648E+02 0.  0.
          5    1    3    3  502    0  0.14955931099E+02 -0.68896524083E+02  0.38293200138E+03  0.38939029391E+03  0.41800000000E+01 0.  1.
         -5    1    3    3    0  502 -0.12976688826E+02  0.18996801571E+02  0.95864311355E+03  0.95892823740E+03  0.41800000000E+01 0.  1.
        -11    1    4    4    0    0 -0.43115323491E+02  0.12488287810E+02  0.24644106171E+03  0.25049567930E+03  0.00000000000E+00 0.  1.
         11    1    4    4    0    0  0.41136081218E+02  0.37411434702E+02  0.20225892380E+03  0.20976287775E+03  0.00000000000E+00 0. -1.
</event>
<event>
 8    1  0.7262913E-009  0.1564719E+03  0.7561462E-02  0.1192739E+00
          1   -1    0    0  501    0  0.00000000000E+00  0.00000000000E+00  0.30682659029E+03  0.30682659029E+03  0.00000000000E+00 0. -1.
         -1   -1    0    0    0  501 -0.00000000000E+00 -0.00000000000E+00 -0.82460447109E+02  0.82460447109E+02  0.00000000000E+00 0.  1.
         25    2    1    2    0    0  0.39391877729E+02  0.10747512081E+03  0.98452509211E+02  0.19606989770E+03  0.12509151286E+03 0.  0.
         23    2    1    2    0    0 -0.39391877729E+02 -0.10747512081E+03  0.12591363397E+03  0.19321713970E+03  0.91520479842E+02 0.  0.
          5    1    3    3  502    0 -0.34503230667E+02 -0.17359089107E+01  0.36126409308E+02  0.50160503942E+02  0.41800000000E+01 0.  1.
         -5    1    3    3    0  502  0.73895108396E+02  0.10921102972E+03  0.62326099904E+02  0.14590939376E+03  0.41800000000E+01 0.  1.
        -11    1    4    4    0    0 -0.29476412540E+02 -0.12372114696E+03  0.10487690701E+03  0.16484825363E+03  0.00000000000E+00 0.  1.
         11    1    4    4    0    0 -0.99154651888E+01  0.16246026151E+02  0.21036726958E+02  0.28368886068E+02  0.00000000000E+00 0. -1.
</event>
<event>
 8    1  0.7262913E-009  0.7358606E+02  0.7561462E-02  0.1348306E+00
         -2   -1    0    0    0  501 -0.00000000000E+00  0.00000000000E+00  0.44528808562E+02  0.44528808562E+02  0.00000000000E+00 0.  1.
          2   -1    0    0  501    0  0.00000000000E+00 -0.00000000000E+00 -0.33756934044E+03  0.33756934044E+03  0.00000000000E+00 0. -1.
         25    2    1    2    0    0 -0.39250100752E+02 -0.40486458116E+02 -0.15352580166E+03  0.20590353521E+03  0.12508545215E+03 0.  0.
         23    2    1    2    0    0  0.39250100752E+02  0.40486458116E+02 -0.13951473022E+03  0.17619461379E+03  0.91654013984E+02 0.  0.
          5    1    3    3  502    0  0.40755342868E+01 -0.69995642148E+00  0.20935331401E+02  0.21745353977E+02  0.41800000000E+01 0. -1.
         -5    1    3    3    0  502 -0.43325635039E+02 -0.39786501695E+02 -0.17446113306E+03  0.18415818124E+03  0.41800000000E+01 0. -1.
        -11    1    4    4    0    0  0.42509655381E+02  0.81608730947E+00 -0.14382609855E+02  0.44884254092E+02  0.00000000000E+00 0.  1.
         11    1    4    4    0    0 -0.32595546294E+01  0.39670370807E+02 -0.12513212037E+03  0.13131035970E+03  0.00000000000E+00 0. -1.
</event>
<event>
 8    1  0.7262913E-009  0.1179335E+03  0.7561462E-02  0.1246546E+00
         -1   -1    0    0    0  501 -0.00000000000E+00  0.00000000000E+00  0.56026401909E+02  0.56026401909E+02  0.00000000000E+00 0.  1.
          1   -1    0    0  501    0  0.00000000000E+00 -0.00000000000E+00 -0.35301774839E+03  0.35301774839E+03  0.00000000000E+00 0. -1.
         25    2    1    2    0    0 -0.55537829624E+01 -0.56127286019E+02 -0.62211636893E+02  0.15066101146E+03  0.12508931157E+03 0.  0.
         23    2    1    2    0    0  0.55537829624E+01  0.56127286019E+02 -0.23477970959E+03  0.25838313884E+03  0.91974005360E+02 0.  0.
          5    1    3    3  502    0  0.48206284056E+02 -0.66242297308E+02 -0.42300606549E+02  0.92296811914E+02  0.41800000000E+01 0. -1.
         -5    1    3    3    0  502 -0.53760067018E+02  0.10115011289E+02 -0.19911030343E+02  0.58364199545E+02  0.41800000000E+01 0. -1.
        -11    1    4    4    0    0 -0.30076500599E+02 -0.26977817608E+01 -0.12691917564E+03  0.13046206752E+03  0.00000000000E+00 0. -1.
         11    1    4    4    0    0  0.35630283562E+02  0.58825067780E+02 -0.10786053395E+03  0.12792107133E+03  0.00000000000E+00 0.  1.
</event>
<event>
 8    1  0.7262913E-009  0.1050666E+03  0.7561462E-02  0.1269988E+00
          2   -1    0    0  501    0  0.00000000000E+00  0.00000000000E+00  0.47263612789E+03  0.47263612789E+03  0.00000000000E+00 0. -1.
         -2   -1    0    0    0  501 -0.00000000000E+00 -0.00000000000E+00 -0.26685144904E+02  0.26685144904E+02  0.00000000000E+00 0.  1.
         25    2    1    2    0    0 -0.16591937887E+02  0.36390315485E+01  0.30568995038E+03  0.33073022454E+03  0.12509037015E+03 0.  0.
         23    2    1    2    0    0  0.16591937887E+02 -0.36390315485E+01  0.14026103260E+03  0.16859104825E+03  0.91985049500E+02 0.  0.
          5    1    3    3  502    0 -0.70825553903E+02  0.87491897976E+01  0.16613929683E+03  0.18086609898E+03  0.41800000000E+01 0.  1.
         -5    1    3    3    0  502  0.54233616016E+02 -0.51101582491E+01  0.13955065355E+03  0.14986412556E+03  0.41800000000E+01 0.  1.
        -11    1    4    4    0    0  0.90047126671E+01 -0.42997304338E+02  0.10975394903E+03  0.11821921315E+03  0.00000000000E+00 0.  1.
         11    1    4    4    0    0  0.75872252195E+01  0.39358272789E+02  0.30507083570E+02  0.50371835101E+02  0.00000000000E+00 0. -1.
</event>
<event>
 8    1  0.7262913E-009  0.2129103E+03  0.7561462E-02  0.1139282E+00
         -1   -1    0    0    0  501 -0.00000000000E+00  0.00000000000E+00  0.30887950819E+03  0.30887950819E+03  0.00000000000E+00 0.  1.
          1   -1    0    0  501    0  0.00000000000E+00 -0.00000000000E+00 -0.20191562191E+03  0.20191562191E+03  0.00000000000E+00 0. -1.
         25    2    1    2    0    0 -0.16604133508E+03 -0.12210084992E+03 -0.35217957042E+02  0.24365011435E+03  0.12508689467E+03 0.  0.
         23    2    1    2    0    0  0.16604133508E+03  0.12210084992E+03  0.14218184331E+03  0.26714501575E+03  0.93125938225E+02 0.  0.
          5    1    3    3  502    0 -0.14463008368E+03 -0.68431395200E+02  0.22784944056E+02  0.16167047668E+03  0.41800000000E+01 0. -1.
         -5    1    3    3    0  502 -0.21411251396E+02 -0.53669454718E+02 -0.58002901098E+02  0.81979637666E+02  0.41800000000E+01 0. -1.
        -11    1    4    4    0    0  0.71182597998E+02  0.68921623665E+02  0.12093460658E+03  0.15634043474E+03  0.00000000000E+00 0.  1.
         11    1    4    4    0    0  0.94858737077E+02  0.53179226253E+02  0.21247236734E+02  0.11080458101E+03  0.00000000000E+00 0. -1.
</event>
<event>
 8    1  0.7262913E-009  0.7842408E+02  0.7561462E-02  0.1333584E+00
         -2   -1    0    0    0  501 -0.00000000000E+00  0.00000000000E+00  0.59513312895E+02  0.59513312895E+02  0.00000000000E+00 0. -1.
          2   -1    0    0  501    0  0.00000000000E+00 -0.00000000000E+00 -0.24249639954E+03  0.24249639954E+03  0.00000000000E+00 0.  1.
         25    2    1    2    0    0 -0.89309945205E+01 -0.30307978035E+02 -0.16068146995E+03  0.20606551818E+03  0.12508447866E+03 0.  0.
         23    2    1    2    0    0  0.89309945205E+01  0.30307978035E+02 -0.22301616703E+02  0.95944194263E+02  0.87804271590E+02 0.  0.
          5    1    3    3  502    0  0.25241140800E+02 -0.60129688584E+01  0.11584010881E+02  0.28721641518E+02  0.41800000000E+01 0. -1.
         -5    1    3    3    0  502 -0.34172135321E+02 -0.24295009177E+02 -0.17226548083E+03  0.17734387666E+03  0.41800000000E+01 0. -1.
        -11    1    4    4    0    0  0.40891846784E+02 -0.45421932460E+01  0.48313649610E+01  0.41426039399E+02  0.00000000000E+00 0. -1.
         11    1    4    4    0    0 -0.31960852264E+02  0.34850171281E+02 -0.27132981665E+02  0.54518154864E+02  0.00000000000E+00 0.  1.
</event>
<event>
 8    1  0.7262913E-009  0.3082881E+03  0.7561462E-02  0.1081169E+00
         -1   -1    0    0    0  501 -0.00000000000E+00  0.00000000000E+00  0.24578652114E+03  0.24578652114E+03  0.00000000000E+00 0.  1.
          1   -1    0    0  501    0  0.00000000000E+00 -0.00000000000E+00 -0.43932055293E+03  0.43932055293E+03  0.00000000000E+00 0. -1.
         25    2    1    2    0    0 -0.18201610056E+03  0.23494392962E+03 -0.19228071261E+03  0.37543025520E+03  0.12508994026E+03 0.  0.
         23    2    1    2    0    0  0.18201610056E+03 -0.23494392962E+03 -0.12533191836E+01  0.30967681887E+03  0.87003737906E+02 0.  0.
          5    1    3    3  502    0 -0.48753337590E+02  0.15508522854E+03 -0.67305707851E+02  0.17599956462E+03  0.41800000000E+01 0.  1.
         -5    1    3    3    0  502 -0.13326276297E+03  0.79858701078E+02 -0.12497500476E+03  0.19943069058E+03  0.41800000000E+01 0.  1.
        -11    1    4    4    0    0  0.11479329377E+03 -0.16955916313E+03 -0.39257091587E+02  0.20849203663E+03  0.00000000000E+00 0. -1.
         11    1    4    4    0    0  0.67222806785E+02 -0.65384766486E+02  0.38003772403E+02  0.10118478224E+03  0.00000000000E+00 0.  1.
</event>
<event>
 8    1  0.7262913E-009  0.2137346E+03  0.7561462E-02  0.1138642E+00
          1   -1    0    0  501    0  0.00000000000E+00  0.00000000000E+00  0.90549053863E+03  0.90549053863E+03  0.00000000000E+00 0. -1.
         -1   -1    0    0    0  501 -0.00000000000E+00 -0.00000000000E+00 -0.73935481147E+02  0.73935481147E+02  0.00000000000E+00 0.  1.
         25    2    1    2    0    0 -0.11370498593E+03 -0.17422299598E+03  0.62937488049E+03  0.67456895870E+03  0.12509222074E+03 0.  0.
         23    2    1    2    0    0  0.11370498593E+03  0.17422299598E+03  0.20218017699E+03  0.30485706108E+03  0.93693796855E+02 0.  0.
          5    1    3    3  502    0 -0.85406109123E+02 -0.16148945359E+03  0.36338237475E+03  0.40673980599E+03  0.41800000000E+01 0.  1.
         -5    1    3    3    0  502 -0.28298876803E+02 -0.12733542396E+02  0.26599250574E+03  0.26782915271E+03  0.41800000000E+01 0.  1.
        -11    1    4    4    0    0  0.10565281780E+03  0.12553816512E+03  0.10204710227E+03  0.19322515337E+03  0.00000000000E+00 0. -1.
         11    1    4    4    0    0  0.80521681264E+01  0.48684830864E+02  0.10013307472E+03  0.11163190772E+03  0.00000000000E+00 0.  1.
</event>
<event>
 8    1  0.7262913E-009  0.1440545E+03  0.7561462E-02  0.1207975E+00
          2   -1    0    0  501    0  0.00000000000E+00  0.00000000000E+00  0.66953729044E+03  0.66953729044E+03  0.00000000000E+00 0. -1.
         -2   -1    0    0    0  501 -0.00000000000E+00 -0.00000000000E+00 -0.40614283749E+02  0.40614283749E+02  0.00000000000E+00 0.  1.
         25    2    1    2    0    0 -0.69957517419E+02 -0.83814304604E+02  0.46285200785E+03  0.49173030001E+03  0.12509122619E+03 0.  0.
         23    2    1    2    0    0  0.69957517419E+02  0.83814304604E+02  0.16607099883E+03  0.21842127418E+03  0.90605653583E+02 0.  0.
          5    1    3    3  502    0  0.27181148325E+02 -0.16057806529E+02  0.33077047537E+02  0.45915481578E+02  0.41800000000E+01 0.  1.
         -5    1    3    3    0  502 -0.97138665745E+02 -0.67756498075E+02  0.42977496032E+03  0.44581481843E+03  0.41800000000E+01 0.  1.
        -11    1    4    4    0    0  0.24170547733E+02  0.88488035166E+02  0.84275391304E+02  0.12456600389E+03  0.00000000000E+00 0.  1.
         11    1    4    4    0    0  0.45786969686E+02 -0.46737305622E+01  0.81795607529E+02  0.93855270292E+02  0.00000000000E+00 0. -1.
</event>
<event>
 8    1  0.7262913E-009  0.1303193E+03  0.7561462E-02  0.1226983E+00
         -1   -1    0    0    0  501 -0.00000000000E+00  0.00000000000E+00  0.23989231925E+03  0.23989231925E+03  0.00000000000E+00 0.  1.
          1   -1    0    0  501    0  0.00000000000E+00 -0.00000000000E+00 -0.11035462592E+03  0.11035462592E+03  0.00000000000E+00 0. -1.
         25    2    1    2    0    0  0.93616664275E+02  0.73516410294E+02  0.43342865808E+02  0.17803029237E+03  0.12508972208E+03 0.  0.
         23    2    1    2    0    0 -0.93616664275E+02 -0.73516410294E+02  0.86194827513E+02  0.17221665280E+03  0.89779088880E+02 0.  0.
          5    1    3    3  502    0  0.77390839444E+02  0.70344958351E+02  0.83829204092E+02  0.13409907924E+03  0.41800000000E+01 0.  1.
         -5    1    3    3    0  502  0.16225824831E+02  0.31714519434E+01 -0.40486338283E+02  0.43931213123E+02  0.41800000000E+01 0.  1.
        -11    1    4    4    0    0 -0.55188158467E+02 -0.82685221149E+02  0.30600246015E+02  0.10401419945E+03  0.00000000000E+00 0. -1.
         11    1    4    4    0    0 -0.38428505808E+02  0.91688108545E+01  0.55594581499E+02  0.68202453351E+02  0.00000000000E+00 0.  1.
</event>
<event>
 8    1  0.7262913E-009  0.2199411E+03  0.7561462E-02  0.1133927E+00
          2   -1    0    0  501    0  0.00000000000E+00  0.00000000000E+00  0.10049787549E+03  0.10049787549E+03  0.00000000000E+00 0. -1.
         -2   -1    0    0    0  501 -0.00000000000E+00 -0.00000000000E+00 -0.59100341077E+03  0.59100341077E+03  0.00000000000E+00 0.  1.
         25    2    1    2    0    0  0.32392399930E+02  0.21490328825E+03 -0.22833088677E+03  0.33914184239E+03  0.12509797972E+03 0.  0.
         23    2    1    2    0    0 -0.32392399930E+02 -0.21490328825E+03 -0.26217464851E+03  0.35235944388E+03  0.90492764869E+02 0.  0.
          5    1    3    3  502    0  0.15463936711E+01  0.37895454709E+02 -0.12745320838E+03  0.13304228481E+03  0.41800000000E+01 0. -1.
         -5    1    3    3    0  502  0.30846006259E+02  0.17700783354E+03 -0.10087767839E+03  0.20609955758E+03  0.41800000000E+01 0. -1.
        -11    1    4    4    0    0  0.81959115005E+01 -0.96246061674E+02 -0.57772338771E+02  0.11255274532E+03  0.00000000000E+00 0.  1.
         11    1    4    4    0    0 -0.40588311430E+02 -0.11865722658E+03 -0.20440230974E+03  0.23980669855E+03  0.00000000000E+00 0. -1.
</event>
<event>
 8    1  0.7262913E-009  0.1720439E+03  0.7561462E-02  0.1175733E+00
          1   -1    0    0  501    0  0.00000000000E+00  0.00000000000E+00  0.50893497280E+03  0.50893497280E+03  0.00000000000E+00 0. -1.
         -1   -1    0    0    0  501 -0.00000000000E+00 -0.00000000000E+00 -0.66601992820E+02  0.66601992820E+02  0.00000000000E+00 0.  1.
         25    2    1    2    0    0 -0.13659563824E+03 -0.50163257159E+02  0.19282238970E+03  0.27203599705E+03  0.12509352088E+03 0.  0.
         23    2    1    2    0    0  0.13659563824E+03  0.50163257159E+02  0.24951059028E+03  0.30350096857E+03  0.93180376174E+02 0.  0.
          5    1    3    3  502    0 -0.73995232844E+00 -0.48555592860E+02  0.87186076790E+02  0.99885321812E+02  0.41800000000E+01 0.  1.
         -5    1    3    3    0  502 -0.13585568591E+03 -0.16076642986E+01  0.10563631291E+03  0.17215067524E+03  0.41800000000E+01 0.  1.
        -11    1    4    4    0    0  0.15673278770E+02  0.33975529826E+02  0.17365275763E+02  0.41249740566E+02  0.00000000000E+00 0.  1.
         11    1    4    4    0    0  0.12092235947E+03  0.16187727332E+02  0.23214531452E+03  0.26225122800E+03  0.00000000000E+00 0. -1.
</event>
<event>
 8    1  0.7262913E-009  0.1057869E+03  0.7561462E-02  0.1268577E+00
         -2   -1    0    0    0  501 -0.00000000000E+00  0.00000000000E+00  0.11238108331E+03  0.11238108331E+03  0.00000000000E+00 0.  1.
          2   -1    0    0  501    0  0.00000000000E+00 -0.00000000000E+00 -0.25171059890E+03  0.25171059890E+03  0.00000000000E+00 0. -1.
         25    2    1    2    0    0  0.62137352816E+02 -0.49536358299E+02  0.34545817090E+02  0.15216219064E+03  0.12508004386E+03 0.  0.
         23    2    1    2    0    0 -0.62137352816E+02  0.49536358299E+02 -0.17387533267E+03  0.21192949157E+03  0.91468992978E+02 0.  0.
          5    1    3    3  502    0  0.84233389110E+02 -0.12032896317E+02  0.57494721894E+02  0.10277728290E+03  0.41800000000E+01 0.  1.
         -5    1    3    3    0  502 -0.22096036294E+02 -0.37503461983E+02 -0.22948904804E+02  0.49384907738E+02  0.41800000000E+01 0.  1.
        -11    1    4    4    0    0 -0.34033424521E+02  0.12711517491E+02 -0.15926528047E+03  0.16335631676E+03  0.00000000000E+00 0. -1.
         11    1    4    4    0    0 -0.28103928295E+02  0.36824840808E+02 -0.14610052207E+02  0.48573174815E+02  0.00000000000E+00 0.  1.
</event>
<event>
 8    1  0.7262913E-009  0.9917924E+02  0.7561462E-02  0.1282031E+00
          2   -1    0    0  501    0  0.00000000000E+00  0.00000000000E+00  0.26577014753E+03  0.26577014753E+03  0.00000000000E+00 0. -1.
         -2   -1    0    0    0  501 -0.00000000000E+00 -0.00000000000E+00 -0.18175244832E+03  0.18175244832E+03  0.00000000000E+00 0.  1.
         25    2    1    2    0    0 -0.26031773111E+02 -0.26078747641E+02  0.23420203644E+03  0.26806039040E+03  0.12509206505E+03 0.  0.
         23    2    1    2    0    0  0.26031773111E+02  0.26078747641E+02 -0.15018433723E+03  0.17946220546E+03  0.91069170135E+02 0.  0.
          5    1    3    3  502    0 -0.13175485478E+02 -0.76462985741E+02  0.12801572261E+03  0.14975205922E+03  0.41800000000E+01 0.  1.
         -5    1    3    3    0  502 -0.12856287633E+02  0.50384238100E+02  0.10618631384E+03  0.11830833118E+03  0.41800000000E+01 0.  1.
        -11    1    4    4    0    0  0.27304473053E+02 -0.12401252794E+02 -0.13464387673E+03  0.13794310008E+03  0.00000000000E+00 0.  1.
         11    1    4    4    0    0 -0.12726999422E+01  0.38480000435E+02 -0.15540460498E+02  0.41519105374E+02  0.00000000000E+00 0. -1.
</event>
<event>
 8    1  0.7262913E-009  0.1205575E+03  0.7561462E-02  0.1242180E+00
          2   -1    0    0  501    0  0.00000000000E+00  0.00000000000E+00  0.13319226568E+03  0.13319226568E+03  0.00000000000E+00 0. -1.
         -2   -1    0    0    0  501 -0.00000000000E+00 -0.00000000000E+00 -0.12954275076E+03  0.12954275076E+03  0.00000000000E+00 0.  1.
         25    2    1    2    0    0  0.15286105229E+02 -0.72021717790E+02 -0.12109983820E+01  0.14515941377E+03  0.12509594734E+03 0.  0.
         23    2    1    2    0    0 -0.15286105229E+02  0.72021717790E+02  0.48605132932E+01  0.11757560268E+03  0.91540181934E+02 0.  0.
          5    1    3    3  502    0 -0.14766421403E+02  0.31650368179E+02  0.99723606031E+01  0.36561091107E+02  0.41800000000E+01 0.  1.
         -5    1    3    3    0  502  0.30052526632E+02 -0.10367208597E+03 -0.11183358985E+02  0.10859832266E+03  0.41800000000E+01 0.  1.
        -11    1    4    4    0    0 -0.40780379906E+02  0.46421326370E+02  0.34567005659E+02  0.70801531109E+02  0.00000000000E+00 0. -1.
         11    1    4    4    0    0  0.25494274677E+02  0.25600391420E+02 -0.29706492366E+02  0.46774071566E+02  0.00000000000E+00 0.  1.
</event>
<event>
 8    1  0.7262913E-009  0.1161761E+03  0.7561462E-02  0.1249542E+00
         -1   -1    0    0    0  501 -0.00000000000E+00  0.00000000000E+00  0.32204281037E+03  0.32204281037E+03  0.00000000000E+00 0.  1.
          1   -1    0    0  501    0  0.00000000000E+00 -0.00000000000E+00 -0.53117227498E+02  0.53117227498E+02  0.00000000000E+00 0. -1.
         25    2    1    2    0    0 -0.71964111660E+02  0.10817836878E+02  0.16679512554E+03  0.22082499771E+03  0.12508879545E+03 0.  0.
         23    2    1    2    0    0  0.71964111660E+02 -0.10817836878E+02  0.10213045733E+03  0.15433504016E+03  0.89960076394E+02 0.  0.
          5    1    3    3  502    0 -0.76704731803E+02  0.57903529695E+02  0.12353472770E+03  0.15657182371E+03  0.41800000000E+01 0.  1.
         -5    1    3    3    0  502  0.47406201426E+01 -0.47085692817E+02  0.43260397845E+02  0.64253174000E+02  0.41800000000E+01 0.  1.
        -11    1    4    4    0    0  0.48583632036E+02  0.17756089416E+02  0.68834470271E+01  0.52182658577E+02  0.00000000000E+00 0. -1.
         11    1    4    4    0    0  0.23380479624E+02 -0.28573926293E+02  0.95247010304E+02  0.10215238158E+03  0.00000000000E+00 0.  1.
</event>
<event>
 8    1  0.7262913E-009  0.1563914E+03  0.7561462E-02  0.1192832E+00
          1   -1    0    0  501    0  0.00000000000E+00  0.00000000000E+00  0.10247219399E+04  0.10247219399E+04  0.00000000000E+00 0. -1.
         -1   -1    0    0    0  501 -0.00000000000E+00 -0.00000000000E+00 -0.32827801404E+02  0.32827801404E+02  0.00000000000E+00 0.  1.
         25    2    1    2    0    0 -0.87670316260E+02 -0.11355410290E+03  0.42548204820E+03  0.46611610627E+03  0.12509449444E+03 0.  0.
         23    2    1    2    0    0  0.87670316260E+02  0.11355410290E+03  0.56641209034E+03  0.59143363508E+03  0.91599508665E+02 0.  0.
          5    1    3    3  502    0 -0.48885795467E+02 -0.50246080255E+02  0.57698820074E+02  0.90890680586E+02  0.41800000000E+01 0.  1.
         -5    1    3    3    0  502 -0.38784520793E+02 -0.63308022644E+02  0.36778322813E+03  0.37522542568E+03  0.41800000000E+01 0.  1.
        -11    1    4    4    0    0  0.45551816256E+02 -0.15985077930E+01  0.19701011781E+03  0.20221401957E+03  0.00000000000E+00 0. -1.
         11    1    4    4    0    0  0.42118500004E+02  0.11515261069E+03  0.36940197253E+03  0.38921961551E+03  0.00000000000E+00 0.  1.
</event>
<event>
 8    1  0.7262913E-009  0.9097251E+02  0.7561462E-02  0.1300514E+00
          1   -1    0    0  501    0  0.00000000000E+00  0.00000000000E+00  0.68452611275E+02  0.68452611275E+02  0.00000000000E+00 0. -1.
         -1   -1    0    0    0  501 -0.00000000000E+00 -0.00000000000E+00 -0.33558935915E+03  0.33558935915E+03  0.00000000000E+00 0.  1.
         25    2    1    2    0    0 -0.57389822996E+02  0.36647565886E+02 -0.25125016188E+03  0.28880843566E+03  0.12508810014E+03 0.  0.
         23    2    1    2    0    0  0.57389822996E+02 -0.36647565886E+02 -0.15886586002E+02  0.11523353477E+03  0.91595567857E+02 0.  0.
          5    1    3    3  502    0 -0.21573560156E+02 -0.28431921815E+02 -0.11423920858E+02  0.37706379349E+02  0.41800000000E+01 0.  1.
         -5    1    3    3    0  502 -0.35816262841E+02  0.65079487700E+02 -0.23982624102E+03  0.25110205631E+03  0.41800000000E+01 0.  1.
        -11    1    4    4    0    0  0.50836027690E+02 -0.21673031991E+02 -0.51819106315E+02  0.75757783800E+02  0.00000000000E+00 0.  1.
         11    1    4    4    0    0  0.65537953058E+01 -0.14974533895E+02  0.35932520313E+02  0.39475750966E+02  0.00000000000E+00 0. -1.
</event>
<event>
 8    1  0.7262913E-009  0.1378308E+03  0.7561462E-02  0.1216278E+00
         -2   -1    0    0    0  501 -0.00000000000E+00  0.00000000000E+00  0.38686848638E+03  0.38686848638E+03  0.00000000000E+00 0.  1.
          2   -1    0    0  501    0  0.00000000000E+00 -0.00000000000E+00 -0.64611990324E+02  0.64611990324E+02  0.00000000000E+00 0. -1.
         25    2    1    2    0    0  0.77419019492E+02 -0.81605026788E+02  0.14076322191E+03  0.21935214330E+03  0.12509193879E+03 0.  0.
         23    2    1    2    0    0 -0.77419019492E+02  0.81605026788E+02  0.18149327415E+03  0.23212833341E+03  0.91053114354E+02 0.  0.
          5    1    3    3  502    0  0.97123398196E+01 -0.92588630324E+02  0.10969723618E+03  0.14393727813E+03  0.41800000000E+01 0. -1.
         -5    1    3    3    0  502  0.67706679673E+02  0.10983603537E+02  0.31065985731E+02  0.75414865169E+02  0.41800000000E+01 0. -1.
        -11    1    4    4    0    0 -0.20239122292E+02  0.32968063402E+02  0.14226167204E+03  0.14742760463E+03  0.00000000000E+00 0.  1.
         11    1    4    4    0    0 -0.57179897201E+02  0.48636963386E+02  0.39231602108E+02  0.84700728776E+02  0.00000000000E+00 0. -1.
</event>
<event>
 8    1  0.7262913E-009  0.1463872E+03  0.7561462E-02  0.1204984E+00
          2   -1    0    0  501    0  0.00000000000E+00  0.00000000000E+00  0.30491090333E+03  0.30491090333E+03  0.00000000000E+00 0. -1.
         -2   -1    0    0    0  501 -0.00000000000E+00 -0.00000000000E+00 -0.82457904209E+02  0.82457904209E+02  0.00000000000E+00 0.  1.
         25    2    1    2    0    0 -0.96103793018E+02  0.56231093737E+02  0.16085939040E+03  0.23221133296E+03  0.12509390368E+03 0.  0.
         23    2    1    2    0    0  0.96103793018E+02 -0.56231093737E+02  0.61593608718E+02  0.15515747458E+03  0.88781723046E+02 0.  0.
          5    1    3    3  502    0  0.65427176033E+01 -0.20848746067E+02 -0.46373586413E+01  0.22725643256E+02  0.41800000000E+01 0.  1.
         -5    1    3    3    0  502 -0.10264651062E+03  0.77079839804E+02  0.16549674904E+03  0.20948568970E+03  0.41800000000E+01 0.  1.
        -11    1    4    4    0    0  0.59204316951E+02 -0.79009247337E+02  0.37997237211E+02  0.10578942455E+03  0.00000000000E+00 0.  1.
         11    1    4    4    0    0  0.36899476067E+02  0.22778153600E+02  0.23596371508E+02  0.49368050030E+02  0.00000000000E+00 0. -1.
</event>
<event>
 8    1  0.7262913E-009  0.1147035E+03  0.7561462E-02  0.1252100E+00
         -2   -1    0    0    0  501 -0.00000000000E+00  0.00000000000E+00  0.89655265115E+02  0.89655265115E+02  0.00000000000E+00 0.  1.
          2   -1    0    0  501    0  0.00000000000E+00 -0.00000000000E+00 -0.22984731422E+03  0.22984731422E+03  0.00000000000E+00 0. -1.
         25    2    1    2    0    0  0.40240517157E+02 -0.35745415344E+02 -0.15988360652E+03  0.21001325425E+03  0.12508303397E+03 0.  0.
         23    2    1    2    0    0 -0.40240517157E+02  0.35745415344E+02  0.19691557414E+02  0.10948932508E+03  0.93290518997E+02 0.  0.
          5    1    3    3  502    0 -0.27031663074E+01  0.39972306961E+02 -0.88951632508E+02  0.97647108291E+02  0.41800000000E+01 0.  1.
         -5    1    3    3    0  502  0.42943683465E+02 -0.75717722305E+02 -0.70931974009E+02  0.11236614596E+03  0.41800000000E+01 0.  1.
        -11    1    4    4    0    0  0.14425778164E+02 -0.19500880600E+02  0.20507693939E+02  0.31764019433E+02  0.00000000000E+00 0. -1.
         11    1    4    4    0    0 -0.54666295321E+02  0.55246295945E+02 -0.81613652488E+00  0.77725305651E+02  0.00000000000E+00 0.  1.
</event>
<event>
 8    1  0.7262913E-009  0.3445601E+03  0.7561462E-02  0.1064870E+00
         -2   -1    0    0    0  501 -0.00000000000E+00  0.00000000000E+00  0.70994162527E+02  0.70994162527E+02  0.00000000000E+00 0.  1.
          2   -1    0    0  501    0  0.00000000000E+00 -0.00000000000E+00 -0.17950139134E+04  0.17950139134E+04  0.00000000000E+00 0. -1.
         25    2    1    2    0    0 -0.26635042484E+03 -0.20736810621E+03 -0.97520532298E+03  0.10395270319E+04  0.12508776030E+03 0.  0.
         23    2    1    2    0    0  0.26635042484E+03  0.20736810621E+03 -0.74881442786E+03  0.82648104401E+03  0.91672179191E+02 0.  0.
          5    1    3    3  502    0 -0.41137945170E+02 -0.52083880841E+02 -0.36198788936E+03  0.36804587435E+03  0.41800000000E+01 0. -1.
         -5    1    3    3    0  502 -0.22521247967E+03 -0.15528422537E+03 -0.61321743362E+03  0.67148115755E+03  0.41800000000E+01 0. -1.
        -11    1    4    4    0    0  0.25237339976E+03  0.15807475510E+03 -0.65698900129E+03  0.72132829483E+03  0.00000000000E+00 0.  1.
         11    1    4    4    0    0  0.13977025086E+02  0.49293351114E+02 -0.91825426575E+02  0.10515274918E+03  0.00000000000E+00 0. -1.
</event>
<event>
 8    1  0.7262913E-009  0.1283612E+03  0.7561462E-02  0.1229908E+00
          1   -1    0    0  501    0  0.00000000000E+00  0.00000000000E+00  0.18351576254E+03  0.18351576254E+03  0.00000000000E+00 0. -1.
         -1   -1    0    0    0  501 -0.00000000000E+00 -0.00000000000E+00 -0.13671939562E+03  0.13671939562E+03  0.00000000000E+00 0.  1.
         25    2    1    2    0    0  0.43733059983E+02 -0.69072017881E+02  0.10776898180E+03  0.18423991539E+03  0.12508664516E+03 0.  0.
         23    2    1    2    0    0 -0.43733059983E+02  0.69072017881E+02 -0.60972614882E+02  0.13599524277E+03  0.89964004473E+02 0.  0.
          5    1    3    3  502    0  0.41594795644E+00 -0.96962577486E+02  0.78595941120E+02  0.12488678395E+03  0.41800000000E+01 0. -1.
         -5    1    3    3    0  502  0.43317112026E+02  0.27890559604E+02  0.29173040679E+02  0.59353131441E+02  0.41800000000E+01 0. -1.
        -11    1    4    4    0    0  0.60808813343E+01  0.56202504727E+02 -0.41396881035E+00  0.56532026548E+02  0.00000000000E+00 0. -1.
         11    1    4    4    0    0 -0.49813941317E+02  0.12869513154E+02 -0.60558646071E+02  0.79463216222E+02  0.00000000000E+00 0.  1.
</event>
<event>
 8    1  0.7262913E-009  0.8935112E+02  0.7561462E-02  0.1304431E+00
          2   -1    0    0  501    0  0.00000000000E+00  0.00000000000E+00  0.20984914297E+03  0.20984914297E+03  0.00000000000E+00 0.  1.
         -2   -1    0    0    0  501 -0.00000000000E+00 -0.00000000000E+00 -0.71189134964E+02  0.71189134964E+02  0.00000000000E+00 0. -1.
         25    2    1    2    0    0  0.32344593790E+02  0.28573183486E+02  0.11424992640E+03  0.17482521188E+03  0.12509280340E+03 0.  0.
         23    2    1    2    0    0 -0.32344593790E+02 -0.28573183486E+02  0.24410081599E+02  0.10621306605E+03  0.93929568053E+02 0.  0.
          5    1    3    3  502    0 -0.22314864685E+02  0.14934334672E+02 -0.16917614762E+02  0.32010398736E+02  0.41800000000E+01 0. -1.
         -5    1    3    3    0  502  0.54659458474E+02  0.13638848814E+02  0.13116754116E+03  0.14281481314E+03  0.41800000000E+01 0. -1.
        -11    1    4    4    0    0 -0.52929571345E+02 -0.44388237340E+02 -0.20992156101E+01  0.69110504579E+02  0.00000000000E+00 0. -1.
         11    1    4    4    0    0  0.20584977556E+02  0.15815053854E+02  0.26509297210E+02  0.37102561474E+02  0.00000000000E+00 0.  1.
</event>
<event>
 8    1  0.7262913E-009  0.8056037E+02  0.7561462E-02  0.1327469E+00
         -1   -1    0    0    0  501 -0.00000000000E+00  0.00000000000E+00  0.26084647593E+02  0.26084647593E+02  0.00000000000E+00 0.  1.
          1   -1    0    0  501    0  0.00000000000E+00 -0.00000000000E+00 -0.51559775301E+03  0.51559775301E+03  0.00000000000E+00 0. -1.
         25    2    1    2    0    0 -0.73767220079E+01 -0.88735419101E+01 -0.37446906931E+03  0.39497946233E+03  0.12509410866E+03 0.  0.
         23    2    1    2    0    0  0.73767220079E+01  0.88735419101E+01 -0.11504403611E+03  0.14670293827E+03  0.90296545225E+02 0.  0.
          5    1    3    3  502    0 -0.22954154841E+02  0.43984395543E+02 -0.72219413811E+02  0.87719076642E+02  0.41800000000E+01 0. -1.
         -5    1    3    3    0  502  0.15577432833E+02 -0.52857937453E+02 -0.30224965550E+03  0.30726038569E+03  0.41800000000E+01 0. -1.
        -11    1    4    4    0    0 -0.12692042401E+02  0.26483601801E+02 -0.11632275830E+03  0.11997271858E+03  0.00000000000E+00 0. -1.
         11    1    4    4    0    0  0.20068764409E+02 -0.17610059891E+02  0.12787221936E+01  0.26730219691E+02  0.00000000000E+00 0.  1.
</event>
<event>
 8    1  0.7262913E-009  0.6933775E+02  0.7561462E-02  0.1362360E+00
          2   -1    0    0  501    0  0.00000000000E+00  0.00000000000E+00  0.19589320493E+03  0.19589320493E+03  0.00000000000E+00 0.  1.
         -2   -1    0    0    0  501 -0.00000000000E+00 -0.00000000000E+00 -0.89068397722E+02  0.89068397722E+02  0.00000000000E+00 0. -1.
         25    2    1    2    0    0 -0.41531014559E+02  0.46158073719E+02  0.10768719947E+03  0.17634981677E+03  0.12508929612E+03 0.  0.
         23    2    1    2    0    0  0.41531014559E+02 -0.46158073719E+02 -0.86239225462E+00  0.10861178589E+03  0.89108828822E+02 0.  0.
          5    1    3    3  502    0 -0.14132236548E+02 -0.55433213783E+01  0.11603381787E+03  0.11709725792E+03  0.41800000000E+01 0.  1.
         -5    1    3    3    0  502 -0.27398778011E+02  0.51701395097E+02 -0.83466184044E+01  0.59252558850E+02  0.41800000000E+01 0.  1.
        -11    1    4    4    0    0  0.22820586013E+02 -0.13182960199E+02 -0.43932831207E+02  0.51231467317E+02  0.00000000000E+00 0. -1.
         11    1    4    4    0    0  0.18710428547E+02 -0.32975113519E+02  0.43070438952E+02  0.57380318573E+02  0.00000000000E+00 0.  1.
</event>
<event>
 8    1  0.7262913E-009  0.1282722E+03  0.7561462E-02  0.1230042E+00
         -2   -1    0    0    0  501 -0.00000000000E+00  0.00000000000E+00  0.37838311538E+02  0.37838311538E+02  0.00000000000E+00 0.  1.
          2   -1    0    0  501    0  0.00000000000E+00 -0.00000000000E+00 -0.47717275483E+03  0.47717275483E+03  0.00000000000E+00 0. -1.
         25    2    1    2    0    0 -0.63171853475E+02 -0.47971015466E+02 -0.24980475061E+03  0.29041675024E+03  0.12509026340E+03 0.  0.
         23    2    1    2    0    0  0.63171853475E+02  0.47971015466E+02 -0.18952969269E+03  0.22459431613E+03  0.90714943819E+02 0.  0.
          5    1    3    3  502    0 -0.31095097160E+02  0.36318995088E+02 -0.41730265413E+02  0.63599228950E+02  0.41800000000E+01 0. -1.
         -5    1    3    3    0  502 -0.32076756315E+02 -0.84290010554E+02 -0.20807448520E+03  0.22681752129E+03  0.41800000000E+01 0. -1.
        -11    1    4    4    0    0  0.19710678860E+02 -0.25906824340E+02 -0.34405118635E+02  0.47364402211E+02  0.00000000000E+00 0.  1.
         11    1    4    4    0    0  0.43461174615E+02  0.73877839806E+02 -0.15512457405E+03  0.17722991392E+03  0.00000000000E+00 0. -1.
</event>
<event>
 8    1  0.7262913E-009  0.1186033E+03  0.7561462E-02  0.1245419E+00
         -4   -1    0    0    0  501 -0.00000000000E+00  0.00000000000E+00  0.24903728211E+03  0.24903728211E+03  0.00000000000E+00 0.  1.
          4   -1    0    0  501    0  0.00000000000E+00 -0.00000000000E+00 -0.82325773304E+02  0.82325773304E+02  0.00000000000E+00 0. -1.
         25    2    1    2    0    0 -0.57822382883E+02  0.68268070395E+02  0.76811185238E+02  0.17190483166E+03  0.12508939033E+03 0.  0.
         23    2    1    2    0    0  0.57822382883E+02 -0.68268070395E+02  0.89900323570E+02  0.15945822375E+03  0.96648329248E+02 0.  0.
          5    1    3    3  502    0  0.35836130956E+02  0.27134058814E+02  0.47237767740E+02  0.65340374430E+02  0.41800000000E+01 0. -1.
         -5    1    3    3    0  502 -0.93658513838E+02  0.41134011581E+02  0.29573417498E+02  0.10656445723E+03  0.41800000000E+01 0. -1.
        -11    1    4    4    0    0  0.27728914562E+02 -0.37582721541E+02  0.10417902743E+03  0.11416927528E+03  0.00000000000E+00 0.  1.
         11    1    4    4    0    0  0.30093468320E+02 -0.30685348855E+02 -0.14278703861E+02  0.45288948473E+02  0.00000000000E+00 0. -1.
</event>
<event>
 8    1  0.7262913E-009  0.1080306E+03  0.7561462E-02  0.1264261E+00
          3   -1    0    0  501    0  0.00000000000E+00  0.00000000000E+00  0.19116194657E+03  0.19116194657E+03  0.00000000000E+00 0. -1.
         -3   -1    0    0    0  501 -0.00000000000E+00 -0.00000000000E+00 -0.11246837285E+03  0.11246837285E+03  0.00000000000E+00 0.  1.
         25    2    1    2    0    0 -0.20118078083E+01  0.31304415504E+02 -0.54487823545E+02  0.13999611270E+03  0.12508387129E+03 0.  0.
         23    2    1    2    0    0  0.20118078083E+01 -0.31304415504E+02  0.13318139727E+03  0.16363420672E+03  0.89748845274E+02 0.  0.
          5    1    3    3  502    0  0.47998472442E+02 -0.24358835837E+02 -0.21496237946E+02  0.58109955136E+02  0.41800000000E+01 0.  1.
         -5    1    3    3    0  502 -0.50010280250E+02  0.55663251341E+02 -0.32991585599E+02  0.81886157566E+02  0.41800000000E+01 0.  1.
        -11    1    4    4    0    0 -0.27824221175E+02  0.15328137035E+02  0.19727368203E+02  0.37393958405E+02  0.00000000000E+00 0. -1.
         11    1    4    4    0    0  0.29836028984E+02 -0.46632552540E+02  0.11345402907E+03  0.12624024831E+03  0.00000000000E+00 0.  1.
</event>
<event>
 8    1  0.7262913E-009  0.1158705E+03  0.7561462E-02  0.1250069E+00
          1   -1    0    0  501    0  0.00000000000E+00  0.00000000000E+00  0.12173203746E+04  0.12173203746E+04  0.00000000000E+00 0. -1.
         -1   -1    0    0    0  501 -0.00000000000E+00 -0.00000000000E+00 -0.12216203640E+02  0.12216203640E+02  0.00000000000E+00 0.  1.
         25    2    1    2    0    0 -0.48146125149E+02 -0.28244918063E+02  0.65927466170E+03  0.67335450786E+03  0.12508952365E+03 0.  0.
         23    2    1    2    0    0  0.48146125149E+02  0.28244918063E+02  0.54582950931E+03  0.55618207043E+03  0.91064908028E+02 0.  0.
          5    1    3    3  502    0  0.24345812470E+01 -0.65719427674E+02  0.44930038303E+03  0.45410712056E+03  0.41800000000E+01 0. -1.
         -5    1    3    3    0  502 -0.50580706396E+02  0.37474509610E+02  0.20997427867E+03  0.21924738729E+03  0.41800000000E+01 0. -1.
        -11    1    4    4    0    0 -0.24980953460E+02  0.20004406183E+01  0.77484451376E+02  0.81436416937E+02  0.00000000000E+00 0.  1.
         11    1    4    4    0    0  0.73127078609E+02  0.26244477445E+02  0.46834505793E+03  0.47474565349E+03  0.00000000000E+00 0. -1.
</event>
<event>
 8    1  0.7262913E-009  0.9089339E+02  0.7561462E-02  0.1300703E+00
          2   -1    0    0  501    0  0.00000000000E+00  0.00000000000E+00  0.21849927418E+03  0.21849927418E+03  0.00000000000E+00 0. -1.
         -2   -1    0    0    0  501 -0.00000000000E+00 -0.00000000000E+00 -0.58165222722E+02  0.58165222722E+02  0.00000000000E+00 0.  1.
         25    2    1    2    0    0  0.35249109083E+01 -0.89710218085E+01  0.53829587482E+02  0.13650929299E+03  0.12507700970E+03 0.  0.
         23    2    1    2    0    0 -0.35249109083E+01  0.89710218085E+01  0.10650446398E+03  0.14015520391E+03  0.90594569961E+02 0.  0.
          5    1    3    3  502    0 -0.51782150002E+02 -0.35577584262E+02  0.18768555632E+02  0.65703018509E+02  0.41800000000E+01 0.  1.
         -5    1    3    3    0  502  0.55307060910E+02  0.26606562454E+02  0.35061031850E+02  0.70806274485E+02  0.41800000000E+01 0.  1.
        -11    1    4    4    0    0  0.25677835597E+02 -0.27778350433E+01  0.10554911202E+03  0.10866316145E+03  0.00000000000E+00 0. -1.
         11    1    4    4    0    0 -0.29202746505E+02  0.11748856852E+02  0.95535195770E+00  0.31492042457E+02  0.00000000000E+00 0.  1.
</event>
<event>
 8    1  0.7262913E-009  0.7254547E+02  0.7561462E-02  0.1351645E+00
          2   -1    0    0  501    0  0.00000000000E+00  0.00000000000E+00  0.53107475494E+03  0.53107475494E+03  0.00000000000E+00 0. -1.
         -2   -1    0    0    0  501 -0.00000000000E+00 -0.00000000000E+00 -0.26846819761E+02  0.26846819761E+02  0.00000000000E+00 0.  1.
         25    2    1    2    0    0  0.33154308071E+02 -0.18132628803E+02  0.37467815919E+03  0.39681205380E+03  0.12509229670E+03 0.  0.
         23    2    1    2    0    0 -0.33154308071E+02  0.18132628803E+02  0.12954977598E+03  0.16110952090E+03  0.88006436671E+02 0.  0.
          5    1    3    3  502    0  0.10222148553E+02  0.23535561367E+02  0.33125604037E+03  0.33227466297E+03  0.41800000000E+01 0.  1.
         -5    1    3    3    0  502  0.22932159518E+02 -0.41668190169E+02  0.43422118826E+02  0.64537390833E+02  0.41800000000E+01 0.  1.
        -11    1    4    4    0    0 -0.22296355029E+02 -0.21065508499E+02  0.62899450235E+01  0.31312082401E+02  0.00000000000E+00 0.  1.
         11    1    4    4    0    0 -0.10857953042E+02  0.39198137302E+02  0.12325983096E+03  0.12979743850E+03  0.00000000000E+00 0. -1.
</event>
<event>
 8    1  0.7262913E-009  0.1758508E+03  0.7561462E-02  0.1171880E+00
          2   -1    0    0  501    0  0.00000000000E+00  0.00000000000E+00  0.66660247233E+03  0.66660247233E+03  0.00000000000E+00 0. -1.
         -2   -1    0    0    0  501 -0.00000000000E+00 -0.00000000000E+00 -0.59034379452E+02  0.59034379452E+02  0.00000000000E+00 0.  1.
         25    2    1    2    0    0 -0.13705961227E+03  0.75473342673E+02  0.41661949520E+03  0.46227774693E+03  0.12508936310E+03 0.  0.
         23    2    1    2    0    0  0.13705961227E+03 -0.75473342673E+02  0.19094859768E+03  0.26335910485E+03  0.91733790836E+02 0.  0.
          5    1    3    3  502    0 -0.13153664131E+03  0.30379490043E+02  0.38150105954E+03  0.40470400573E+03  0.41800000000E+01 0.  1.
         -5    1    3    3    0  502 -0.55229709622E+01  0.45093852630E+02  0.35118435659E+02  0.57573741206E+02  0.41800000000E+01 0.  1.
        -11    1    4    4    0    0  0.93463949130E+02 -0.85062729747E+02  0.96885647042E+02  0.15924197431E+03  0.00000000000E+00 0.  1.
         11    1    4    4    0    0  0.43595663140E+02  0.95893870741E+01  0.94062950643E+02  0.10411713054E+03  0.00000000000E+00 0. -1.
</event>
<event>
 8    1  0.7262913E-009  0.1205447E+03  0.7561462E-02  0.1242201E+00
         -1   -1    0    0    0  501 -0.00000000000E+00  0.00000000000E+00  0.18591211207E+02  0.18591211207E+02  0.00000000000E+00 0.  1.
          1   -1    0    0  501    0  0.00000000000E+00 -0.00000000000E+00 -0.10149847279E+04  0.10149847279E+04  0.00000000000E+00 0. -1.
         25    2    1    2    0    0 -0.55809426739E+02  0.17582838613E+02 -0.77230862766E+03  0.78455800480E+03  0.12508716245E+03 0.  0.
         23    2    1    2    0    0  0.55809426739E+02 -0.17582838613E+02 -0.22408488908E+03  0.24901793435E+03  0.91498884092E+02 0.  0.
          5    1    3    3  502    0 -0.93664866639E+02  0.13120541378E+02 -0.44162275391E+03  0.45165626866E+03  0.41800000000E+01 0.  1.
         -5    1    3    3    0  502  0.37855439900E+02  0.44622972354E+01 -0.33068587375E+03  0.33290173614E+03  0.41800000000E+01 0.  1.
        -11    1    4    4    0    0 -0.45822208940E+01  0.30521115975E+02 -0.53281679701E+02  0.61574935326E+02  0.00000000000E+00 0.  1.
         11    1    4    4    0    0  0.60391647633E+02 -0.48103954588E+02 -0.17080320938E+03  0.18744299903E+03  0.00000000000E+00 0. -1.
</event>
<event>
 8    1  0.7262913E-009  0.8332151E+02  0.7561462E-02  0.1319881E+00
         -2   -1    0    0    0  501 -0.00000000000E+00  0.00000000000E+00  0.24912727252E+02  0.24912727252E+02  0.00000000000E+00 0.  1.
          2   -1    0    0  501    0  0.00000000000E+00 -0.00000000000E+00 -0.49563924507E+03  0.49563924507E+03  0.00000000000E+00 0. -1.
         25    2    1    2    0    0  0.10221779396E+02  0.20532499148E+02 -0.33534152759E+03  0.35864669110E+03  0.12508973026E+03 0.  0.
         23    2    1    2    0    0 -0.10221779396E+02 -0.20532499148E+02 -0.13538499022E+03  0.16190528122E+03  0.85779695805E+02 0.  0.
          5    1    3    3  502    0  0.49181584104E+02  0.80424111577E+01 -0.30083103549E+03  0.30495949387E+03  0.41800000000E+01 0.  1.
         -5    1    3    3    0  502 -0.38959804708E+02  0.12490087991E+02 -0.34510492105E+02  0.53687197229E+02  0.41800000000E+01 0.  1.
        -11    1    4    4    0    0 -0.23284233886E+02  0.21377161006E+02 -0.10191140860E+03  0.10670086112E+03  0.00000000000E+00 0. -1.
         11    1    4    4    0    0  0.13062454490E+02 -0.41909660155E+02 -0.33473581621E+02  0.55204420096E+02  0.00000000000E+00 0.  1.
</event>
<event>
 8    1  0.7262913E-009  0.1091022E+03  0.7561462E-02  0.1262241E+00
          1   -1    0    0  501    0  0.00000000000E+00  0.00000000000E+00  0.83643058280E+03  0.83643058280E+03  0.00000000000E+00 0. -1.
         -1   -1    0    0    0  501 -0.00000000000E+00 -0.00000000000E+00 -0.17213077012E+02  0.17213077012E+02  0.00000000000E+00 0.  1.
         25    2    1    2    0    0 -0.22005044952E+02 -0.42957549688E+02  0.38691391960E+03  0.40948736340E+03  0.12509175243E+03 0.  0.
         23    2    1    2    0    0  0.22005044952E+02  0.42957549688E+02  0.43230358619E+03  0.44415629641E+03  0.89771108552E+02 0.  0.
          5    1    3    3  502    0  0.39863316457E+02 -0.37603375858E+02  0.28358089410E+03  0.28885756659E+03  0.41800000000E+01 0. -1.
         -5    1    3    3    0  502 -0.61868361410E+02 -0.53541738298E+01  0.10333302550E+03  0.12062979681E+03  0.41800000000E+01 0. -1.
        -11    1    4    4    0    0  0.47050981701E+02 -0.45793307453E+01  0.17288428571E+03  0.17923097220E+03  0.00000000000E+00 0. -1.
         11    1    4    4    0    0 -0.25045936748E+02  0.47536880433E+02  0.25941930048E+03  0.26492532421E+03  0.00000000000E+00 0.  1.
</event>
<event>
 8    1  0.7262913E-009  0.1510405E+03  0.7561462E-02  0.1199200E+00
          1   -1    0    0  501    0  0.00000000000E+00  0.00000000000E+00  0.16994745287E+04  0.16994745287E+04  0.00000000000E+00 0. -1.
         -1   -1    0    0    0  501 -0.00000000000E+00 -0.00000000000E+00 -0.14681078117E+02  0.14681078117E+02  0.00000000000E+00 0.  1.
         25    2    1    2    0    0 -0.20227164431E+02  0.10649202221E+03  0.10836205034E+04  0.10961896224E+04  0.12509437965E+03 0.  0.
         23    2    1    2    0    0  0.20227164431E+02 -0.10649202221E+03  0.60117294720E+03  0.61796598446E+03  0.93398910809E+02 0.  0.
          5    1    3    3  502    0 -0.33255940070E+02  0.12865626630E+03  0.99428090557E+03  0.10031302926E+04  0.41800000000E+01 0.  1.
         -5    1    3    3    0  502  0.13028775640E+02 -0.22164244094E+02  0.89339597867E+02  0.93059329774E+02  0.41800000000E+01 0.  1.
        -11    1    4    4    0    0  0.57876651666E+02 -0.62589555688E+02  0.35692362818E+03  0.36696271697E+03  0.00000000000E+00 0. -1.
         11    1    4    4    0    0 -0.37649487235E+02 -0.43902466522E+02  0.24424931902E+03  0.25100326750E+03  0.00000000000E+00 0.  1.
</event>
<event>
 8    1  0.7262913E-009  0.7245498E+02  0.7561462E-02  0.1351938E+00
          1   -1    0    0  501    0  0.00000000000E+00  0.00000000000E+00  0.33486793227E+03  0.33486793227E+03  0.00000000000E+00 0.  1.
         -1   -1    0    0    0  501 -0.00000000000E+00 -0.00000000000E+00 -0.39437498706E+02  0.39437498706E+02  0.00000000000E+00 0. -1.
         25    2    1    2    0    0  0.90388479371E+01  0.17678899466E+02  0.22102429191E+03  0.25473388864E+03  0.12507346700E+03 0.  0.
         23    2    1    2    0    0 -0.90388479371E+01 -0.17678899466E+02  0.74406141656E+02  0.11957154234E+03  0.91470408133E+02 0.  0.
          5    1    3    3  502    0  0.44082509015E+02  0.36576872240E+02  0.41648601210E+02  0.70945144772E+02  0.41800000000E+01 0.  1.
         -5    1    3    3    0  502 -0.35043661078E+02 -0.18897972774E+02  0.17937569070E+03  0.18378874386E+03  0.41800000000E+01 0.  1.
        -11    1    4    4    0    0 -0.18900467842E+02 -0.27602169405E+02 -0.92861495974E+01  0.34718007069E+02  0.00000000000E+00 0. -1.
         11    1    4    4    0    0  0.98616199048E+01  0.99232699387E+01  0.83692291253E+02  0.84853535275E+02  0.00000000000E+00 0.  1.
</event>
<event>
 8    1  0.7262913E-009  0.1107826E+03  0.7561462E-02  0.1259127E+00
         -2   -1    0    0    0  501 -0.00000000000E+00  0.00000000000E+00  0.47930774733E+02  0.47930774733E+02  0.00000000000E+00 0.  1.
          2   -1    0    0  501    0  0.00000000000E+00 -0.00000000000E+00 -0.35144141725E+03  0.35144141725E+03  0.00000000000E+00 0. -1.
         25    2    1    2    0    0 -0.21605251013E+02 -0.40618657929E+02 -0.85387436236E+02  0.15828679302E+03  0.12508809830E+03 0.  0.
         23    2    1    2    0    0  0.21605251013E+02  0.40618657929E+02 -0.21812320628E+03  0.24108539896E+03  0.91802909704E+02 0.  0.
          5    1    3    3  502    0  0.46858322753E+02 -0.41660017353E+02 -0.27771711806E+02  0.68702254939E+02  0.41800000000E+01 0.  1.
         -5    1    3    3    0  502 -0.68463573766E+02  0.10413594242E+01 -0.57615724430E+02  0.89584538085E+02  0.41800000000E+01 0.  1.
        -11    1    4    4    0    0 -0.16312616187E+02 -0.15432173131E+02 -0.15047275356E+02  0.27030980560E+02  0.00000000000E+00 0.  1.
         11    1    4    4    0    0  0.37917867200E+02  0.56050831060E+02 -0.20307593093E+03  0.21405441840E+03  0.00000000000E+00 0. -1.
</event>
<event>
 8    1  0.7262913E-009  0.1197180E+03  0.7561462E-02  0.1243563E+00
          2   -1    0    0  501    0  0.00000000000E+00  0.00000000000E+00  0.64755481997E+03  0.64755481997E+03  0.00000000000E+00 0. -1.
         -2   -1    0    0    0  501 -0.00000000000E+00 -0.00000000000E+00 -0.26792712518E+02  0.26792712518E+02  0.00000000000E+00 0.  1.
         25    2    1    2    0    0  0.50239458819E+02 -0.49220358840E+02  0.27987744222E+03  0.31452351912E+03  0.12508802688E+03 0.  0.
         23    2    1    2    0    0 -0.50239458819E+02  0.49220358840E+02  0.34088466523E+03  0.35982401337E+03  0.91237704162E+02 0.  0.
          5    1    3    3  502    0  0.81893727567E+02 -0.42316787789E+02  0.26091576354E+03  0.27675223794E+03  0.41800000000E+01 0.  1.
         -5    1    3    3    0  502 -0.31654268748E+02 -0.69035710505E+01  0.18961678683E+02  0.37771281176E+02  0.41800000000E+01 0.  1.
        -11    1    4    4    0    0 -0.43031981551E+02 -0.18175846460E+02  0.11990980237E+03  0.12868750342E+03  0.00000000000E+00 0. -1.
         11    1    4    4    0    0 -0.72074772673E+01  0.67396205300E+02  0.22097486286E+03  0.23113650995E+03  0.00000000000E+00 0.  1.
</event>
<event>
 8    1  0.7262913E-009  0.1501245E+03  0.7561462E-02  0.1200320E+00
          1   -1    0    0  501    0  0.00000000000E+00  0.00000000000E+00  0.11110783212E+04  0.11110783212E+04  0.00000000000E+00 0. -1.
         -1   -1    0    0    0  501 -0.00000000000E+00 -0.00000000000E+00 -0.33743787832E+02  0.33743787832E+02  0.00000000000E+00 0.  1.
         25    2    1    2    0    0 -0.53813872861E+02 -0.12660058228E+03  0.80674599217E+03  0.82789522714E+03  0.12509105042E+03 0.  0.
         23    2    1    2    0    0  0.53813872861E+02  0.12660058228E+03  0.27058854122E+03  0.31692688192E+03  0.91108997879E+02 0.  0.
          5    1    3    3  502    0 -0.20839621126E+02  0.66856399697E+01  0.22340883349E+02  0.31552734577E+02  0.41800000000E+01 0.  1.
         -5    1    3    3    0  502 -0.32974251735E+02 -0.13328622225E+03  0.78440510882E+03  0.79634249257E+03  0.41800000000E+01 0.  1.
        -11    1    4    4    0    0  0.21009244760E+02  0.85335843582E+02  0.78843141746E+02  0.11806708079E+03  0.00000000000E+00 0.  1.
         11    1    4    4    0    0  0.32804628100E+02  0.41264738697E+02  0.19174539948E+03  0.19885980113E+03  0.00000000000E+00 0. -1.
</event>
<event>
 8    1  0.7262913E-009  0.2352132E+03  0.7561462E-02  0.1123023E+00
          2   -1    0    0  501    0  0.00000000000E+00  0.00000000000E+00  0.64331010264E+03  0.64331010264E+03  0.00000000000E+00 0. -1.
         -2   -1    0    0    0  501 -0.00000000000E+00 -0.00000000000E+00 -0.89796023118E+02  0.89796023118E+02  0.00000000000E+00 0.  1.
         25    2    1    2    0    0 -0.20730269250E+03 -0.45995294089E+02  0.32966867723E+03  0.41160266049E+03  0.12508133343E+03 0.  0.
         23    2    1    2    0    0  0.20730269250E+03  0.45995294089E+02  0.22384540229E+03  0.32150346528E+03  0.90375553433E+02 0.  0.
          5    1    3    3  502    0 -0.30702760412E+01  0.24600737542E+02  0.66285543157E+02  0.70893360156E+02  0.41800000000E+01 0.  1.
         -5    1    3    3    0  502 -0.20423241646E+03 -0.70596031631E+02  0.26338313408E+03  0.34070930033E+03  0.41800000000E+01 0.  1.
        -11    1    4    4    0    0  0.14542199767E+02 -0.20599206449E+02  0.37887237234E+02  0.45510939626E+02  0.00000000000E+00 0.  1.
         11    1    4    4    0    0  0.19276049274E+03  0.66594500538E+02  0.18595816506E+03  0.27599252565E+03  0.00000000000E+00 0. -1.
</event>
<event>
 8    1  0.7262913E-009  0.1045081E+03  0.7561462E-02  0.1271092E+00
         -2   -1    0    0    0  501 -0.00000000000E+00  0.00000000000E+00  0.10639278270E+03  0.10639278270E+03  0.00000000000E+00 0.  1.
          2   -1    0    0  501    0  0.00000000000E+00 -0.00000000000E+00 -0.19038026885E+03  0.19038026885E+03  0.00000000000E+00 0. -1.
         25    2    1    2    0    0 -0.32721569807E+02 -0.10236432089E+02  0.43606885345E+02  0.13683953665E+03  0.12509201681E+03 0.  0.
         23    2    1    2    0    0  0.32721569807E+02  0.10236432089E+02 -0.12759437149E+03  0.15993351490E+03  0.90127242707E+02 0.  0.
          5    1    3    3  502    0  0.42401804335E+02 -0.29282444590E+01  0.43897917991E+02  0.61245303742E+02  0.41800000000E+01 0. -1.
         -5    1    3    3    0  502 -0.75123374142E+02 -0.73081876298E+01 -0.29103264571E+00  0.75594232908E+02  0.41800000000E+01 0. -1.
        -11    1    4    4    0    0 -0.24994310004E+02 -0.13384378576E+02 -0.68003762479E+02  0.73677464897E+02  0.00000000000E+00 0. -1.
         11    1    4    4    0    0  0.57715879811E+02  0.23620810665E+02 -0.59590609013E+02  0.86256049998E+02  0.00000000000E+00 0.  1.
</event>
<event>
 8    1  0.7262913E-009  0.1220171E+03  0.7561462E-02  0.1239806E+00
         -1   -1    0    0    0  501 -0.00000000000E+00  0.00000000000E+00  0.47975007438E+02  0.47975007438E+02  0.00000000000E+00 0.  1.
          1   -1    0    0  501    0  0.00000000000E+00 -0.00000000000E+00 -0.34959600057E+03  0.34959600057E+03  0.00000000000E+00 0. -1.
         25    2    1    2    0    0  0.11594321039E+02  0.70778067803E+02 -0.16047232120E+03  0.21574017424E+03  0.12509393970E+03 0.  0.
         23    2    1    2    0    0 -0.11594321039E+02 -0.70778067803E+02 -0.14114867193E+03  0.18183083376E+03  0.89417791053E+02 0.  0.
          5    1    3    3  502    0  0.54434948692E+02  0.25628450648E+01 -0.10331578064E+03  0.11688179817E+03  0.41800000000E+01 0.  1.
         -5    1    3    3    0  502 -0.42840627653E+02  0.68215222739E+02 -0.57156540556E+02  0.98858376071E+02  0.41800000000E+01 0.  1.
        -11    1    4    4    0    0  0.18729617442E+02  0.10846140988E+02 -0.56024544085E+02  0.60059860837E+02  0.00000000000E+00 0. -1.
         11    1    4    4    0    0 -0.30323938481E+02 -0.81624208791E+02 -0.85124127847E+02  0.12177097293E+03  0.00000000000E+00 0.  1.
</event>
<event>
 8    1  0.7262913E-009  0.8499699E+02  0.7561462E-02  0.1315440E+00
          2   -1    0    0  501    0  0.00000000000E+00  0.00000000000E+00  0.18144724050E+04  0.18144724050E+04  0.00000000000E+00 0.  1.
         -2   -1    0    0    0  501 -0.00000000000E+00 -0.00000000000E+00 -0.99416274183E+01  0.99416274183E+01  0.00000000000E+00 0. -1.
         25    2    1    2    0    0 -0.27865498037E+02  0.34870640354E+02  0.14511192078E+04  0.14571838773E+04  0.12508177015E+03 0.  0.
         23    2    1    2    0    0  0.27865498037E+02 -0.34870640354E+02  0.35341156971E+03  0.36723015513E+03  0.89251340017E+02 0.  0.
          5    1    3    3  502    0  0.19032723882E+02 -0.46753713661E+01  0.11329735417E+04  0.11331507500E+04  0.41800000000E+01 0.  1.
         -5    1    3    3    0  502 -0.46898221919E+02  0.39546011720E+02  0.31814566618E+03  0.32403312727E+03  0.41800000000E+01 0.  1.
        -11    1    4    4    0    0  0.50059740698E+02 -0.41798805849E+02  0.31966402161E+03  0.32624868508E+03  0.00000000000E+00 0.  1.
         11    1    4    4    0    0 -0.22194242661E+02  0.69281654957E+01  0.33747548101E+02  0.40981470047E+02  0.00000000000E+00 0. -1.
</event>
<event>
 8    1  0.7262913E-009  0.1147177E+03  0.7561462E-02  0.1252075E+00
         -1   -1    0    0    0  501 -0.00000000000E+00  0.00000000000E+00  0.24468704317E+03  0.24468704317E+03  0.00000000000E+00 0.  1.
          1   -1    0    0  501    0  0.00000000000E+00 -0.00000000000E+00 -0.61324123996E+02  0.61324123996E+02  0.00000000000E+00 0. -1.
         25    2    1    2    0    0  0.45869193868E+02 -0.36093356804E+02  0.74931521711E+02  0.15706604072E+03  0.12509314469E+03 0.  0.
         23    2    1    2    0    0 -0.45869193868E+02  0.36093356804E+02  0.10843139746E+03  0.14894512645E+03  0.83788838073E+02 0.  0.
          5    1    3    3  502    0 -0.16498994040E+02  0.31239133246E+02 -0.41860822067E+01  0.35820328510E+02  0.41800000000E+01 0.  1.
         -5    1    3    3    0  502  0.62368187907E+02 -0.67332490050E+02  0.79117603918E+02  0.12124571221E+03  0.41800000000E+01 0.  1.
        -11    1    4    4    0    0 -0.70612396268E+02  0.27843161200E+02  0.77379148787E+02  0.10839227278E+03  0.00000000000E+00 0. -1.
         11    1    4    4    0    0  0.24743202400E+02  0.82501956041E+01  0.31052248677E+02  0.40552853665E+02  0.00000000000E+00 0.  1.
</event>
<event>
 8    1  0.7262913E-009  0.7422483E+02  0.7561462E-02  0.1346288E+00
         -1   -1    0    0    0  501 -0.00000000000E+00  0.00000000000E+00  0.29768959964E+03  0.29768959964E+03  0.00000000000E+00 0.  1.
          1   -1    0    0  501    0  0.00000000000E+00 -0.00000000000E+00 -0.18842811081E+03  0.18842811081E+03  0.00000000000E+00 0. -1.
         25    2    1    2    0    0 -0.33520577681E+02 -0.43829358139E+02  0.26443475806E+03  0.29768905439E+03  0.12509352530E+03 0.  0.
         23    2    1    2    0    0  0.33520577681E+02  0.43829358139E+02 -0.15517326922E+03  0.18842865605E+03  0.91553116697E+02 0.  0.
          5    1    3    3  502    0 -0.14520903569E+02  0.41676932247E+01 -0.98796859894E+01  0.18528542914E+02  0.41800000000E+01 0. -1.
         -5    1    3    3    0  502 -0.18999674112E+02 -0.47997051363E+02  0.27431444405E+03  0.27916051148E+03  0.41800000000E+01 0. -1.
        -11    1    4    4    0    0  0.53447910878E+01  0.51505792548E+02 -0.15010957537E+03  0.15879010698E+03  0.00000000000E+00 0. -1.
         11    1    4    4    0    0  0.28175786593E+02 -0.76764344095E+01 -0.50636938517E+01  0.29638549067E+02  0.00000000000E+00 0.  1.
</event>
<event>
 8    1  0.7262913E-009  0.8913327E+02  0.7561462E-02  0.1304964E+00
          3   -1    0    0  501    0  0.00000000000E+00  0.00000000000E+00  0.28057171164E+03  0.28057171164E+03  0.00000000000E+00 0. -1.
         -3   -1    0    0    0  501 -0.00000000000E+00 -0.00000000000E+00 -0.45251618695E+02  0.45251618695E+02  0.00000000000E+00 0.  1.
         25    2    1    2    0    0 -0.15223981835E+02 -0.25162871147E+02  0.14961649115E+03  0.19722427029E+03  0.12508948262E+03 0.  0.
         23    2    1    2    0    0  0.15223981835E+02  0.25162871147E+02  0.85703601802E+02  0.12859906005E+03  0.91256074731E+02 0.  0.
          5    1    3    3  502    0  0.39308666144E+02  0.30814008514E+02  0.54310062265E+02  0.73903515599E+02  0.41800000000E+01 0.  1.
         -5    1    3    3    0  502 -0.54532647979E+02 -0.55976879661E+02  0.95306428881E+02  0.12332075469E+03  0.41800000000E+01 0.  1.
        -11    1    4    4    0    0  0.16868005698E+02 -0.65751608740E+01 -0.14677977666E+02  0.23306766939E+02  0.00000000000E+00 0.  1.
         11    1    4    4    0    0 -0.16440238632E+01  0.31738032021E+02  0.10038157947E+03  0.10529229311E+03  0.00000000000E+00 0. -1.
</event>
<event>
 8    1  0.7262913E-009  0.1370164E+03  0.7561462E-02  0.1217401E+00
          1   -1    0    0  501    0  0.00000000000E+00  0.00000000000E+00  0.32213897857E+03  0.32213897857E+03  0.00000000000E+00 0. -1.
         -1   -1    0    0    0  501 -0.00000000000E+00 -0.00000000000E+00 -0.65982891055E+02  0.65982891055E+02  0.00000000000E+00 0.  1.
         25    2    1    2    0    0  0.62584082509E+02  0.50779104422E+02  0.75862015002E+02  0.16702588226E+03  0.12508922893E+03 0.  0.
         23    2    1    2    0    0 -0.62584082509E+02 -0.50779104422E+02  0.18029407251E+03  0.22109598737E+03  0.99409246140E+02 0.  0.
          5    1    3    3  502    0 -0.35138835607E+02  0.33018200847E+02  0.15962876370E+02  0.50962978494E+02  0.41800000000E+01 0.  1.
         -5    1    3    3    0  502  0.97722918116E+02  0.17760903575E+02  0.59899138632E+02  0.11606290376E+03  0.41800000000E+01 0.  1.
        -11    1    4    4    0    0 -0.79309920864E+02 -0.73093715871E+01  0.13073329767E+03  0.15308391679E+03  0.00000000000E+00 0. -1.
         11    1    4    4    0    0  0.16725838354E+02 -0.43469732835E+02  0.49560774847E+02  0.68012070582E+02  0.00000000000E+00 0.  1.
</event>
<event>
 8    1  0.7262913E-009  0.1066393E+03  0.7561462E-02  0.1266923E+00
          2   -1    0    0  501    0  0.00000000000E+00  0.00000000000E+00  0.53807840269E+02  0.53807840269E+02  0.00000000000E+00 0. -1.
         -2   -1    0    0    0  501 -0.00000000000E+00 -0.00000000000E+00 -0.34424792136E+03  0.34424792136E+03  0.00000000000E+00 0.  1.
         25    2    1    2    0    0  0.15370845540E+02  0.45423875709E+02 -0.26040450044E+03  0.29283641199E+03  0.12507225496E+03 0.  0.
         23    2    1    2    0    0 -0.15370845540E+02 -0.45423875709E+02 -0.30035580648E+02  0.10521934964E+03  0.88709548842E+02 0.  0.
          5    1    3    3  502    0  0.92203873077E+01  0.79266716229E+02 -0.96414231618E+02  0.12522541396E+03  0.41800000000E+01 0. -1.
         -5    1    3    3    0  502  0.61504582320E+01 -0.33842840521E+02 -0.16399026882E+03  0.16761099803E+03  0.41800000000E+01 0. -1.
        -11    1    4    4    0    0 -0.17291237658E+02  0.23827179100E+02 -0.19076036556E+02  0.35080144445E+02  0.00000000000E+00 0.  1.
         11    1    4    4    0    0  0.19203921179E+01 -0.69251054809E+02 -0.10959544091E+02  0.70139205190E+02  0.00000000000E+00 0. -1.
</event>
<event>
 8    1  0.7262913E-009  0.1472272E+03  0.7561462E-02  0.1203922E+00
          1   -1    0    0  501    0  0.00000000000E+00  0.00000000000E+00  0.71380150811E+03  0.71380150811E+03  0.00000000000E+00 0. -1.
         -1   -1    0    0    0  501 -0.00000000000E+00 -0.00000000000E+00 -0.32341493922E+02  0.32341493922E+02  0.00000000000E+00 0.  1.
         25    2    1    2    0    0  0.99555934896E+02  0.15465901226E+02  0.44774896970E+03  0.47568720424E+03  0.12509435691E+03 0.  0.
         23    2    1    2    0    0 -0.99555934896E+02 -0.15465901226E+02  0.23371104448E+03  0.27045579779E+03  0.91514523291E+02 0.  0.
          5    1    3    3  502    0  0.43144920241E+02  0.68402747621E+02  0.26763460855E+03  0.27961791094E+03  0.41800000000E+01 0. -1.
         -5    1    3    3    0  502  0.56411014655E+02 -0.52936846395E+02  0.18011436116E+03  0.19606929330E+03  0.41800000000E+01 0. -1.
        -11    1    4    4    0    0 -0.11627757652E+03 -0.52297469826E+01  0.19611342487E+03  0.22805328428E+03  0.00000000000E+00 0. -1.
         11    1    4    4    0    0  0.16721641621E+02 -0.10236154244E+02  0.37597619610E+02  0.42402513517E+02  0.00000000000E+00 0.  1.
</event>
<event>
 8    1  0.7262913E-009  0.9413234E+02  0.7561462E-02  0.1293142E+00
          2   -1    0    0  501    0  0.00000000000E+00  0.00000000000E+00  0.28342789053E+02  0.28342789053E+02  0.00000000000E+00 0. -1.
         -2   -1    0    0    0  501 -0.00000000000E+00 -0.00000000000E+00 -0.49635666481E+03  0.49635666481E+03  0.00000000000E+00 0.  1.
         25    2    1    2    0    0 -0.72326782954E+01  0.42009516281E+02 -0.24823410690E+03  0.28122014913E+03  0.12508992508E+03 0.  0.
         23    2    1    2    0    0  0.72326782954E+01 -0.42009516281E+02 -0.21977976886E+03  0.24347930473E+03  0.95717887247E+02 0.  0.
          5    1    3    3  502    0  0.29093212770E+02 -0.16384402940E+02 -0.18390817227E+03  0.18696136477E+03  0.41800000000E+01 0. -1.
         -5    1    3    3    0  502 -0.36325891066E+02  0.58393919221E+02 -0.64325934627E+02  0.94258784362E+02  0.41800000000E+01 0. -1.
        -11    1    4    4    0    0 -0.33305084965E+02 -0.25499775406E+02 -0.17833055119E+03  0.18319730544E+03  0.00000000000E+00 0.  1.
         11    1    4    4    0    0  0.40537763260E+02 -0.16509740875E+02 -0.41449217667E+02  0.60281999296E+02  0.00000000000E+00 0. -1.
</event>
<event>
 8    1  0.7262913E-009  0.1178117E+03  0.7561462E-02  0.1246751E+00
          1   -1    0    0  501    0  0.00000000000E+00  0.00000000000E+00  0.22663708176E+03  0.22663708176E+03  0.00000000000E+00 0. -1.
         -1   -1    0    0    0  501 -0.00000000000E+00 -0.00000000000E+00 -0.74804556613E+02  0.74804556613E+02  0.00000000000E+00 0.  1.
         25    2    1    2    0    0 -0.76665012760E+02  0.57743955324E+01  0.92929471007E+02  0.17376396927E+03  0.12508861903E+03 0.  0.
         23    2    1    2    0    0  0.76665012760E+02 -0.57743955324E+01  0.58903054143E+02  0.12767766910E+03  0.83193446704E+02 0.  0.
          5    1    3    3  502    0  0.33081564051E+02 -0.12264903810E+02  0.22515589036E+02  0.42062357223E+02  0.41800000000E+01 0.  1.
         -5    1    3    3    0  502 -0.10974657681E+03  0.18039299342E+02  0.70413881972E+02  0.13170161205E+03  0.41800000000E+01 0.  1.
        -11    1    4    4    0    0  0.57087755695E+02  0.16224319516E+02 -0.26872182844E+01  0.59409271466E+02  0.00000000000E+00 0.  1.
         11    1    4    4    0    0  0.19577257065E+02 -0.21998715049E+02  0.61590272427E+02  0.68268397635E+02  0.00000000000E+00 0. -1.
</event>
<event>
 8    1  0.7262913E-009  0.8647118E+02  0.7561462E-02  0.1311629E+00
          2   -1    0    0  501    0  0.00000000000E+00  0.00000000000E+00  0.41165376115E+03  0.41165376115E+03  0.00000000000E+00 0. -1.
         -2   -1    0    0    0  501 -0.00000000000E+00 -0.00000000000E+00 -0.30274235745E+02  0.30274235745E+02  0.00000000000E+00 0.  1.
         25    2    1    2    0    0  0.15972023767E+02  0.21274810046E+02  0.20412777687E+03  0.24088157373E+03  0.12509220673E+03 0.  0.
         23    2    1    2    0    0 -0.15972023767E+02 -0.21274810046E+02  0.17725174853E+03  0.20104642317E+03  0.91070076449E+02 0.  0.
          5    1    3    3  502    0  0.18278275207E+02 -0.26077183036E+02  0.87393155342E+00  0.32130219047E+02  0.41800000000E+01 0.  1.
         -5    1    3    3    0  502 -0.23062514398E+01  0.47351993082E+02  0.20325384532E+03  0.20875135468E+03  0.41800000000E+01 0.  1.
        -11    1    4    4    0    0 -0.48203696411E+02  0.89710676234E+01  0.11166907647E+03  0.12195925156E+03  0.00000000000E+00 0. -1.
         11    1    4    4    0    0  0.32231672644E+02 -0.30245877670E+02  0.65582672060E+02  0.79087171602E+02  0.00000000000E+00 0.  1.
</event>
<event>
 8    1  0.7262913E-009  0.1415871E+03  0.7561462E-02  0.1211209E+00
          2   -1    0    0  501    0  0.00000000000E+00  0.00000000000E+00  0.53868898102E+03  0.53868898102E+03  0.00000000000E+00 0. -1.
         -2   -1    0    0    0  501 -0.00000000000E+00 -0.00000000000E+00 -0.67283985079E+02  0.67283985079E+02  0.00000000000E+00 0.  1.
         25    2    1    2    0    0 -0.11721890263E+03  0.61454466597E+02  0.11819464090E+03  0.21710532325E+03  0.12509126926E+03 0.  0.
         23    2    1    2    0    0  0.11721890263E+03 -0.61454466597E+02  0.35321035504E+03  0.38886764286E+03  0.94570429594E+02 0.  0.
          5    1    3    3  502    0 -0.62946244822E+02  0.70512348725E+02  0.93531795343E+01  0.95074578239E+02  0.41800000000E+01 0.  1.
         -5    1    3    3    0  502 -0.54272657806E+02 -0.90578821283E+01  0.10884146137E+03  0.12203074501E+03  0.41800000000E+01 0.  1.
        -11    1    4    4    0    0  0.31846108989E+02 -0.86665842669E+01  0.15325544801E+02  0.36388963493E+02  0.00000000000E+00 0.  1.
         11    1    4    4    0    0  0.85372793639E+02 -0.52787882330E+02  0.33788481024E+03  0.35247867936E+03  0.00000000000E+00 0. -1.
</event>
<event>
 8    1  0.7262913E-009  0.1054747E+03  0.7561462E-02  0.1269187E+00
         -1   -1    0    0    0  501 -0.00000000000E+00  0.00000000000E+00  0.37355292271E+03  0.37355292271E+03  0.00000000000E+00 0.  1.
          1   -1    0    0  501    0  0.00000000000E+00 -0.00000000000E+00 -0.34705146411E+02  0.34705146411E+02  0.00000000000E+00 0. -1.
         25    2    1    2    0    0 -0.82813109402E+01  0.11354460823E+01  0.13219456431E+03  0.18218927495E+03  0.12509060606E+03 0.  0.
         23    2    1    2    0    0  0.82813109402E+01 -0.11354460823E+01  0.20665321198E+03  0.22606879417E+03  0.91278038562E+02 0.  0.
          5    1    3    3  502    0  0.55266918512E+02  0.15861243344E+02  0.79642088544E+02  0.98317577217E+02  0.41800000000E+01 0. -1.
         -5    1    3    3    0  502 -0.63548229452E+02 -0.14725797262E+02  0.52552475767E+02  0.83871697734E+02  0.41800000000E+01 0. -1.
        -11    1    4    4    0    0  0.45877369708E+02  0.13134710927E+02  0.79651325004E+02  0.92852502698E+02  0.00000000000E+00 0. -1.
         11    1    4    4    0    0 -0.37596058768E+02 -0.14270157009E+02  0.12700188698E+03  0.13321629147E+03  0.00000000000E+00 0.  1.
</event>
<event>
 8    1  0.7262913E-009  0.1074532E+03  0.7561462E-02  0.1265360E+00
          1   -1    0    0  501    0  0.00000000000E+00  0.00000000000E+00  0.58839810934E+03  0.58839810934E+03  0.00000000000E+00 0. -1.
         -1   -1    0    0    0  501 -0.00000000000E+00 -0.00000000000E+00 -0.34038817339E+02  0.34038817339E+02  0.00000000000E+00 0.  1.
         25    2    1    2    0    0  0.77765919921E+01  0.89756207588E+02  0.34204615517E+03  0.37518003632E+03  0.12509130745E+03 0.  0.
         23    2    1    2    0    0 -0.77765919921E+01 -0.89756207588E+02  0.21231313683E+03  0.24725689036E+03  0.89120421773E+02 0.  0.
          5    1    3    3  502    0 -0.53437057028E+01  0.62225637549E+02  0.46352507511E+02  0.77888461992E+02  0.41800000000E+01 0. -1.
         -5    1    3    3    0  502  0.13120297695E+02  0.27530570039E+02  0.29569364766E+03  0.29729157433E+03  0.41800000000E+01 0. -1.
        -11    1    4    4    0    0  0.27305526385E+02 -0.80847498484E+02  0.11333919266E+03  0.14187206340E+03  0.00000000000E+00 0.  1.
         11    1    4    4    0    0 -0.35082118377E+02 -0.89087091033E+01  0.98973944172E+02  0.10538482696E+03  0.00000000000E+00 0. -1.
</event>
<event>
 8    1  0.7262913E-009  0.1223046E+03  0.7561462E-02  0.1239343E+00
         -2   -1    0    0    0  501 -0.00000000000E+00  0.00000000000E+00  0.55890196540E+02  0.55890196540E+02  0.00000000000E+00 0.  1.
          2   -1    0    0  501    0  0.00000000000E+00 -0.00000000000E+00 -0.36304278011E+03  0.36304278011E+03  0.00000000000E+00 0. -1.
         25    2    1    2    0    0  0.49131933844E+02  0.82770741894E+02 -0.19971119330E+03  0.25455072801E+03  0.12508624932E+03 0.  0.
         23    2    1    2    0    0 -0.49131933844E+02 -0.82770741894E+02 -0.10744139027E+03  0.16438224863E+03  0.78822133218E+02 0.  0.
          5    1    3    3  502    0  0.20911534880E+02 -0.14979579451E+02  0.44185369484E+01  0.26432479269E+02  0.41800000000E+01 0. -1.
         -5    1    3    3    0  502  0.28220398964E+02  0.97750321345E+02 -0.20412973025E+03  0.22811824875E+03  0.41800000000E+01 0. -1.
        -11    1    4    4    0    0  0.14745068890E+02 -0.31613528747E+02 -0.83548547997E+01  0.35869706649E+02  0.00000000000E+00 0.  1.
         11    1    4    4    0    0 -0.63877002734E+02 -0.51157213147E+02 -0.99086535469E+02  0.12851254198E+03  0.00000000000E+00 0. -1.
</event>
<event>
 8    1  0.7262913E-009  0.1027110E+03  0.7561462E-02  0.1274696E+00
          1   -1    0    0  501    0  0.00000000000E+00  0.00000000000E+00  0.90406825880E+02  0.90406825880E+02  0.00000000000E+00 0. -1.
         -1   -1    0    0    0  501 -0.00000000000E+00 -0.00000000000E+00 -0.20858001875E+03  0.20858001875E+03  0.00000000000E+00 0.  1.
         25    2    1    2    0    0 -0.64230418004E+01  0.22441545908E+02  0.23630082693E+02  0.12942326930E+03  0.12508846222E+03 0.  0.
         23    2    1    2    0    0  0.64230418004E+01 -0.22441545908E+02 -0.14180327556E+03  0.16956357532E+03  0.89993103451E+02 0.  0.
          5    1    3    3  502    0 -0.53194295859E+02  0.49585615709E+02  0.16828796293E+02  0.74759930323E+02  0.41800000000E+01 0. -1.
         -5    1    3    3    0  502  0.46771254058E+02 -0.27144069801E+02  0.68012864003E+01  0.54663338978E+02  0.41800000000E+01 0. -1.
        -11    1    4    4    0    0  0.97537129110E+00  0.27794488656E+02 -0.10056968808E+03  0.10434436788E+03  0.00000000000E+00 0.  1.
         11    1    4    4    0    0  0.54476705093E+01 -0.50236034564E+02 -0.41233587482E+02  0.65219207442E+02  0.00000000000E+00 0. -1.
</event>
<event>
 8    1  0.7262913E-009  0.1089920E+03  0.7561462E-02  0.1262448E+00
         -2   -1    0    0    0  501 -0.00000000000E+00  0.00000000000E+00  0.50353523838E+03  0.50353523838E+03  0.00000000000E+00 0.  1.
          2   -1    0    0  501    0  0.00000000000E+00 -0.00000000000E+00 -0.34269633100E+02  0.34269633100E+02  0.00000000000E+00 0. -1.
         25    2    1    2    0    0 -0.58605671767E+02 -0.36037273469E+01  0.35885562940E+03  0.38453911620E+03  0.12508140359E+03 0.  0.
         23    2    1    2    0    0  0.58605671767E+02  0.36037273469E+01  0.11040997589E+03  0.15326575528E+03  0.88613866597E+02 0.  0.
          5    1    3    3  502    0 -0.43132987724E+02 -0.58682650693E+02  0.13498157195E+03  0.15343273865E+03  0.41800000000E+01 0. -1.
         -5    1    3    3    0  502 -0.15472684043E+02  0.55078923346E+02  0.22387405744E+03  0.23110637755E+03  0.41800000000E+01 0. -1.
        -11    1    4    4    0    0  0.45211647631E+02 -0.28115078903E+02  0.10591414266E+03  0.11854263519E+03  0.00000000000E+00 0.  1.
         11    1    4    4    0    0  0.13394024136E+02  0.31718806250E+02  0.44958332289E+01  0.34723120092E+02  0.00000000000E+00 0. -1.
</event>
<event>
 8    1  0.7262913E-009  0.7694300E+02  0.7561462E-02  0.1337958E+00
         -2   -1    0    0    0  501 -0.00000000000E+00  0.00000000000E+00  0.13701395863E+03  0.13701395863E+03  0.00000000000E+00 0.  1.
          2   -1    0    0  501    0  0.00000000000E+00 -0.00000000000E+00 -0.15660852134E+03  0.15660852134E+03  0.00000000000E+00 0. -1.
         25    2    1    2    0    0 -0.67464697046E+02 -0.20803044541E+02  0.57680264247E+02  0.15477355797E+03  0.12507433532E+03 0.  0.
         23    2    1    2    0    0  0.67464697046E+02  0.20803044541E+02 -0.77274826959E+02  0.13884892200E+03  0.91232517502E+02 0.  0.
          5    1    3    3  502    0 -0.52565417578E+02 -0.20400595354E+02  0.97134260297E+02  0.11239147805E+03  0.41800000000E+01 0. -1.
         -5    1    3    3    0  502 -0.14899279468E+02 -0.40244918762E+00 -0.39453996050E+02  0.42382079919E+02  0.41800000000E+01 0. -1.
        -11    1    4    4    0    0  0.34524853278E+02  0.32001254063E+02  0.70769653394E+01  0.47603877929E+02  0.00000000000E+00 0.  1.
         11    1    4    4    0    0  0.32939843768E+02 -0.11198209521E+02 -0.84351792299E+02  0.91245044073E+02  0.00000000000E+00 0. -1.
</event>
<event>
 8    1  0.7262913E-009  0.1026554E+03  0.7561462E-02  0.1274809E+00
         -1   -1    0    0    0  501 -0.00000000000E+00  0.00000000000E+00  0.18321852860E+03  0.18321852860E+03  0.00000000000E+00 0.  1.
          1   -1    0    0  501    0  0.00000000000E+00 -0.00000000000E+00 -0.95976993654E+02  0.95976993654E+02  0.00000000000E+00 0. -1.
         25    2    1    2    0    0 -0.55757484980E+02  0.27142099972E+02  0.25262447906E+01  0.13964499798E+03  0.12509497522E+03 0.  0.
         23    2    1    2    0    0  0.55757484980E+02 -0.27142099972E+02  0.84715290158E+02  0.13955052428E+03  0.91935182157E+02 0.  0.
          5    1    3    3  502    0 -0.23982731337E+02 -0.50246281853E+02 -0.33703054506E+00  0.55834095605E+02  0.41800000000E+01 0.  1.
         -5    1    3    3    0  502 -0.31774753643E+02  0.77388381825E+02  0.28632753357E+01  0.83810902371E+02  0.41800000000E+01 0.  1.
        -11    1    4    4    0    0  0.10569546034E+02 -0.15997596545E+02 -0.18302578393E+02  0.26507032546E+02  0.00000000000E+00 0. -1.
         11    1    4    4    0    0  0.45187938947E+02 -0.11144503427E+02  0.10301786855E+03  0.11304349173E+03  0.00000000000E+00 0.  1.
</event>
<event>
 8    1  0.7262913E-009  0.1106595E+03  0.7561462E-02  0.1259353E+00
          4   -1    0    0  501    0  0.00000000000E+00  0.00000000000E+00  0.43193672022E+02  0.43193672022E+02  0.00000000000E+00 0. -1.
         -4   -1    0    0    0  501 -0.00000000000E+00 -0.00000000000E+00 -0.49437140138E+03  0.49437140138E+03  0.00000000000E+00 0.  1.
         25    2    1    2    0    0 -0.75828422654E+02  0.56265637600E+02 -0.19964725883E+03  0.25381543671E+03  0.12508987289E+03 0.  0.
         23    2    1    2    0    0  0.75828422654E+02 -0.56265637600E+02 -0.25153047053E+03  0.28374963669E+03  0.91271611469E+02 0.  0.
          5    1    3    3  502    0 -0.20951435636E+02  0.67409036420E+02 -0.33138778476E+02  0.78093481707E+02  0.41800000000E+01 0.  1.
         -5    1    3    3    0  502 -0.54876987018E+02 -0.11143398820E+02 -0.16650848035E+03  0.17572195500E+03  0.41800000000E+01 0.  1.
        -11    1    4    4    0    0  0.33006879567E+02 -0.23043001795E+02 -0.21417510434E+03  0.21792523798E+03  0.00000000000E+00 0.  1.
         11    1    4    4    0    0  0.42821543087E+02 -0.33222635805E+02 -0.37355366192E+02  0.65824398710E+02  0.00000000000E+00 0. -1.
</event>
<event>
 8    1  0.7262913E-009  0.1794007E+03  0.7561462E-02  0.1168384E+00
         -2   -1    0    0    0  501 -0.00000000000E+00  0.00000000000E+00  0.87313948509E+02  0.87313948509E+02  0.00000000000E+00 0.  1.
          2   -1    0    0  501    0  0.00000000000E+00 -0.00000000000E+00 -0.40497041820E+03  0.40497041820E+03  0.00000000000E+00 0. -1.
         25    2    1    2    0    0  0.14313918741E+03 -0.47688834920E+01 -0.24021440814E+03  0.30636971373E+03  0.12509144811E+03 0.  0.
         23    2    1    2    0    0 -0.14313918741E+03  0.47688834920E+01 -0.77442061552E+02  0.18591465298E+03  0.89751969751E+02 0.  0.
          5    1    3    3  502    0  0.11764898645E+03  0.51064836224E+02 -0.15397041851E+03  0.20043269116E+03  0.41800000000E+01 0.  1.
         -5    1    3    3    0  502  0.25490200956E+02 -0.55833719716E+02 -0.86243989634E+02  0.10593702257E+03  0.41800000000E+01 0.  1.
        -11    1    4    4    0    0 -0.10588423231E+03 -0.37765741487E+02 -0.49239991741E+02  0.12272855686E+03  0.00000000000E+00 0. -1.
         11    1    4    4    0    0 -0.37254955094E+02  0.42534624979E+02 -0.28202069812E+02  0.63186096119E+02  0.00000000000E+00 0.  1.
</event>
<event>
 8    1  0.7262913E-009  0.7844328E+02  0.7561462E-02  0.1333528E+00
         -2   -1    0    0    0  501 -0.00000000000E+00  0.00000000000E+00  0.16562250203E+03  0.16562250203E+03  0.00000000000E+00 0.  1.
          2   -1    0    0  501    0  0.00000000000E+00 -0.00000000000E+00 -0.17951149182E+03  0.17951149182E+03  0.00000000000E+00 0. -1.
         25    2    1    2    0    0 -0.49246399867E+02  0.14330200358E+02  0.11382638875E+03  0.17673277225E+03  0.12508982160E+03 0.  0.
         23    2    1    2    0    0  0.49246399867E+02 -0.14330200358E+02 -0.12771537854E+03  0.16840122160E+03  0.97042212352E+02 0.  0.
          5    1    3    3  502    0  0.15425011461E+02 -0.22566792331E+02 -0.12256268135E+02  0.30246976763E+02  0.41800000000E+01 0. -1.
         -5    1    3    3    0  502 -0.64671411328E+02  0.36896992689E+02  0.12608265688E+03  0.14648579548E+03  0.41800000000E+01 0. -1.
        -11    1    4    4    0    0  0.22590324397E+02 -0.16412422017E+02  0.88119902179E+01  0.29280394882E+02  0.00000000000E+00 0.  1.
         11    1    4    4    0    0  0.26656075470E+02  0.20822216584E+01 -0.13652736876E+03  0.13912082672E+03  0.00000000000E+00 0. -1.
</event>
<event>
 8    1  0.7262913E-009  0.6884218E+02  0.7561462E-02  0.1364075E+00
         -1   -1    0    0    0  501 -0.00000000000E+00  0.00000000000E+00  0.61729758342E+02  0.61729758342E+02  0.00000000000E+00 0.  1.
          1   -1    0    0  501    0  0.00000000000E+00 -0.00000000000E+00 -0.22835555874E+03  0.22835555874E+03  0.00000000000E+00 0. -1.
         25    2    1    2    0    0  0.14573810184E+01  0.38591103518E+02 -0.13423964382E+03  0.18750939186E+03  0.12509233723E+03 0.  0.
         23    2    1    2    0    0 -0.14573810184E+01 -0.38591103518E+02 -0.32386156581E+02  0.10257592522E+03  0.89339577270E+02 0.  0.
          5    1    3    3  502    0  0.31061981255E+01  0.56311742133E+01 -0.15035222847E+03  0.15054774523E+03  0.41800000000E+01 0. -1.
         -5    1    3    3    0  502 -0.16488171071E+01  0.32959929304E+02  0.16112584648E+02  0.36961646630E+02  0.41800000000E+01 0. -1.
        -11    1    4    4    0    0  0.32278999680E+02  0.13254084510E+02 -0.17104900843E+02  0.38861062896E+02  0.00000000000E+00 0.  1.
         11    1    4    4    0    0 -0.33736380698E+02 -0.51845188028E+02 -0.15281255738E+02  0.63714862326E+02  0.00000000000E+00 0. -1.
</event>
<event>
 8    1  0.7262913E-009  0.1108262E+03  0.7561462E-02  0.1259047E+00
          2   -1    0    0  501    0  0.00000000000E+00  0.00000000000E+00  0.52930570623E+03  0.52930570623E+03  0.00000000000E+00 0. -1.
         -2   -1    0    0    0  501 -0.00000000000E+00 -0.00000000000E+00 -0.33203597920E+02  0.33203597920E+02  0.00000000000E+00 0.  1.
         25    2    1    2    0    0  0.73341517341E+02 -0.17552678709E+02  0.21504580366E+03  0.25995882868E+03  0.12508725051E+03 0.  0.
         23    2    1    2    0    0 -0.73341517341E+02  0.17552678709E+02  0.28105630465E+03  0.30255047547E+03  0.82807421943E+02 0.  0.
          5    1    3    3  502    0 -0.14718365452E+02 -0.49796648536E+02  0.72264199083E+02  0.89083799628E+02  0.41800000000E+01 0. -1.
         -5    1    3    3    0  502  0.88059882794E+02  0.32243969827E+02  0.14278160458E+03  0.17087502906E+03  0.41800000000E+01 0. -1.
        -11    1    4    4    0    0 -0.43760177110E+02  0.72090588656E+01  0.26231200690E+03  0.26603479583E+03  0.00000000000E+00 0. -1.
         11    1    4    4    0    0 -0.29581340231E+02  0.10343619843E+02  0.18744297751E+02  0.36515679639E+02  0.00000000000E+00 0.  1.
</event>
<event>
 8    1  0.7262913E-009  0.1530168E+03  0.7561462E-02  0.1196814E+00
         -2   -1    0    0    0  501 -0.00000000000E+00  0.00000000000E+00  0.27467922713E+02  0.27467922713E+02  0.00000000000E+00 0. -1.
          2   -1    0    0  501    0  0.00000000000E+00 -0.00000000000E+00 -0.93193401744E+03  0.93193401744E+03  0.00000000000E+00 0.  1.
         25    2    1    2    0    0  0.26686018653E+02  0.10963723928E+03 -0.57703350680E+03  0.60112167451E+03  0.12508849575E+03 0.  0.
         23    2    1    2    0    0 -0.26686018653E+02 -0.10963723928E+03 -0.32743258792E+03  0.35828026564E+03  0.91761545768E+02 0.  0.
          5    1    3    3  502    0 -0.26373847074E+02  0.11121538341E+03 -0.36477603633E+03  0.38228715699E+03  0.41800000000E+01 0. -1.
         -5    1    3    3    0  502  0.53059865727E+02 -0.15781441300E+01 -0.21225747047E+03  0.21883451752E+03  0.41800000000E+01 0. -1.
        -11    1    4    4    0    0 -0.52614150157E+02 -0.46735494991E+02 -0.11120692206E+03  0.13160332368E+03  0.00000000000E+00 0. -1.
         11    1    4    4    0    0  0.25928131504E+02 -0.62901744292E+02 -0.21622566586E+03  0.22667694196E+03  0.00000000000E+00 0.  1.
</event>
<event>
 8    1  0.7262913E-009  0.1014801E+03  0.7561462E-02  0.1277214E+00
         -2   -1    0    0    0  501 -0.00000000000E+00  0.00000000000E+00  0.37096954707E+02  0.37096954707E+02  0.00000000000E+00 0.  1.
          2   -1    0    0  501    0  0.00000000000E+00 -0.00000000000E+00 -0.44762018955E+03  0.44762018955E+03  0.00000000000E+00 0. -1.
         25    2    1    2    0    0 -0.13340088295E+02  0.62798509390E+02 -0.27702318011E+03  0.31066298094E+03  0.12509210476E+03 0.  0.
         23    2    1    2    0    0  0.13340088295E+02 -0.62798509390E+02 -0.13350005474E+03  0.17405416332E+03  0.91383676969E+02 0.  0.
          5    1    3    3  502    0  0.39161743812E+02  0.65094227952E+02 -0.98159276668E+02  0.12419185435E+03  0.41800000000E+01 0.  1.
         -5    1    3    3    0  502 -0.52501832106E+02 -0.22957185619E+01 -0.17886390344E+03  0.18647112659E+03  0.41800000000E+01 0.  1.
        -11    1    4    4    0    0  0.23291880372E+02 -0.59133956468E+02 -0.14505664157E+03  0.15836908082E+03  0.00000000000E+00 0. -1.
         11    1    4    4    0    0 -0.99517920775E+01 -0.36645529220E+01  0.11556586829E+02  0.15685082493E+02  0.00000000000E+00 0.  1.
</event>
<event>
 8    1  0.7262913E-009  0.1090153E+03  0.7561462E-02  0.1262404E+00
         -4   -1    0    0    0  501 -0.00000000000E+00  0.00000000000E+00  0.19290540199E+02  0.19290540199E+02  0.00000000000E+00 0.  1.
          4   -1    0    0  501    0  0.00000000000E+00 -0.00000000000E+00 -0.83811305267E+03  0.83811305267E+03  0.00000000000E+00 0. -1.
         25    2    1    2    0    0 -0.17770741665E+01  0.70071752099E+02 -0.47566413381E+03  0.49680716449E+03  0.12509109507E+03 0.  0.
         23    2    1    2    0    0  0.17770741665E+01 -0.70071752099E+02 -0.34315837867E+03  0.36059642838E+03  0.85784047911E+02 0.  0.
          5    1    3    3  502    0 -0.22679248228E+02 -0.94738730561E+01 -0.31759552915E+03  0.31857259001E+03  0.41800000000E+01 0.  1.
         -5    1    3    3    0  502  0.20902174061E+02  0.79545625155E+02 -0.15806860465E+03  0.17823457448E+03  0.41800000000E+01 0.  1.
        -11    1    4    4    0    0  0.43259054735E+02 -0.27243098163E+02 -0.15405353935E+03  0.16231458715E+03  0.00000000000E+00 0.  1.
         11    1    4    4    0    0 -0.41481980569E+02 -0.42828653937E+02 -0.18910483932E+03  0.19828184123E+03  0.00000000000E+00 0. -1.
</event>
<event>
 8    1  0.7262913E-009  0.1231160E+03  0.7561462E-02  0.1238043E+00
          1   -1    0    0  501    0  0.00000000000E+00  0.00000000000E+00  0.22915264586E+03  0.22915264586E+03  0.00000000000E+00 0. -1.
         -1   -1    0    0    0  501 -0.00000000000E+00 -0.00000000000E+00 -0.86378119030E+02  0.86378119030E+02  0.00000000000E+00 0.  1.
         25    2    1    2    0    0  0.14853827692E+02  0.58682366503E+02  0.41749866268E+01  0.13902911587E+03  0.12508960073E+03 0.  0.
         23    2    1    2    0    0 -0.14853827692E+02 -0.58682366503E+02  0.13859954020E+03  0.17650164902E+03  0.90987599308E+02 0.  0.
          5    1    3    3  502    0 -0.23018049377E+02  0.87628758518E+02 -0.23978751443E+01  0.90729554841E+02  0.41800000000E+01 0. -1.
         -5    1    3    3    0  502  0.37871877069E+02 -0.28946392015E+02  0.65728617711E+01  0.48299561026E+02  0.41800000000E+01 0. -1.
        -11    1    4    4    0    0 -0.44281178679E+02 -0.26092771835E+01  0.42629308407E+02  0.61521451933E+02  0.00000000000E+00 0. -1.
         11    1    4    4    0    0  0.29427350987E+02 -0.56073089319E+02  0.95970231793E+02  0.11498019709E+03  0.00000000000E+00 0.  1.
</event>
<event>
 8    1  0.7262913E-009  0.2093690E+03  0.7561462E-02  0.1142067E+00
          2   -1    0    0  501    0  0.00000000000E+00  0.00000000000E+00  0.20290171284E+04  0.20290171284E+04  0.00000000000E+00 0. -1.
         -2   -1    0    0    0  501 -0.00000000000E+00 -0.00000000000E+00 -0.26526428625E+02  0.26526428625E+02  0.00000000000E+00 0.  1.
         25    2    1    2    0    0  0.14840407554E+03 -0.13337438590E+03  0.12131112825E+04  0.12357586161E+04  0.12509147406E+03 0.  0.
         23    2    1    2    0    0 -0.14840407554E+03  0.13337438590E+03  0.78937941729E+03  0.81978494102E+03  0.95472449618E+02 0.  0.
          5    1    3    3  502    0  0.64206483186E+02 -0.25651192510E+02  0.16778693284E+03  0.18152240465E+03  0.41800000000E+01 0. -1.
         -5    1    3    3    0  502  0.84197592351E+02 -0.10772319339E+03  0.10453243497E+04  0.10542362114E+04  0.41800000000E+01 0. -1.
        -11    1    4    4    0    0 -0.69455254151E+02  0.11044972128E+03  0.36758695879E+03  0.39005556724E+03  0.00000000000E+00 0.  1.
         11    1    4    4    0    0 -0.78948821386E+02  0.22924664616E+02  0.42179245850E+03  0.42972937378E+03  0.00000000000E+00 0. -1.
</event>
<event>
 8    1  0.7262913E-009  0.1008875E+03  0.7561462E-02  0.1278441E+00
         -2   -1    0    0    0  501 -0.00000000000E+00  0.00000000000E+00  0.82402748409E+02  0.82402748409E+02  0.00000000000E+00 0.  1.
          2   -1    0    0  501    0  0.00000000000E+00 -0.00000000000E+00 -0.18476052492E+03  0.18476052492E+03  0.00000000000E+00 0. -1.
         25    2    1    2    0    0 -0.36748463651E+02  0.43101618038E+02 -0.54529957574E+02  0.14774830945E+03  0.12509135708E+03 0.  0.
         23    2    1    2    0    0  0.36748463651E+02 -0.43101618038E+02 -0.47827818942E+02  0.11941496388E+03  0.93617489153E+02 0.  0.
          5    1    3    3  502    0 -0.18183464238E+02  0.62630220332E+02  0.20036393956E+02  0.68352851830E+02  0.41800000000E+01 0. -1.
         -5    1    3    3    0  502 -0.18564999413E+02 -0.19528602294E+02 -0.74566351530E+02  0.79395457624E+02  0.41800000000E+01 0. -1.
        -11    1    4    4    0    0 -0.87188580698E+01 -0.60016051543E+02 -0.30655358784E+02  0.67953630889E+02  0.00000000000E+00 0.  1.
         11    1    4    4    0    0  0.45467321721E+02  0.16914433505E+02 -0.17172460158E+02  0.51461332990E+02  0.00000000000E+00 0. -1.
</event>
<event>
 8    1  0.7262913E-009  0.1485453E+03  0.7561462E-02  0.1202272E+00
          1   -1    0    0  501    0  0.00000000000E+00  0.00000000000E+00  0.10635891235E+03  0.10635891235E+03  0.00000000000E+00 0. -1.
         -1   -1    0    0    0  501 -0.00000000000E+00 -0.00000000000E+00 -0.25753876388E+03  0.25753876388E+03  0.00000000000E+00 0.  1.
         25    2    1    2    0    0  0.94928603453E+02 -0.57037203783E+02 -0.14247462073E+03  0.21957006678E+03  0.12508922537E+03 0.  0.
         23    2    1    2    0    0 -0.94928603453E+02  0.57037203783E+02 -0.87052307955E+01  0.14432760945E+03  0.92141171246E+02 0.  0.
          5    1    3    3  502    0  0.12559485549E+03 -0.41232975554E+02 -0.11520994339E+03  0.17539962786E+03  0.41800000000E+01 0. -1.
         -5    1    3    3    0  502 -0.30666252035E+02 -0.15804228230E+02 -0.27264677339E+02  0.44170438918E+02  0.41800000000E+01 0. -1.
        -11    1    4    4    0    0  0.10945347894E+02  0.38722405493E+01 -0.22236079398E+02  0.25084619080E+02  0.00000000000E+00 0.  1.
         11    1    4    4    0    0 -0.10587395135E+03  0.53164963234E+02  0.13530848603E+02  0.11924299037E+03  0.00000000000E+00 0. -1.
</event>
<event>
 8    1  0.7262913E-009  0.1181246E+03  0.7561462E-02  0.1246223E+00
         -1   -1    0    0    0  501 -0.00000000000E+00  0.00000000000E+00  0.13544378871E+03  0.13544378871E+03  0.00000000000E+00 0.  1.
          1   -1    0    0  501    0  0.00000000000E+00 -0.00000000000E+00 -0.17052851567E+03  0.17052851567E+03  0.00000000000E+00 0. -1.
         25    2    1    2    0    0 -0.56438660735E+02  0.63562710012E+02 -0.83274587533E+02  0.17264712970E+03  0.12508730525E+03 0.  0.
         23    2    1    2    0    0  0.56438660735E+02 -0.63562710012E+02  0.48189860572E+02  0.13332517468E+03  0.90707215872E+02 0.  0.
          5    1    3    3  502    0 -0.89648121495E+02  0.73664324851E+02 -0.60528289431E+02  0.13093649096E+03  0.41800000000E+01 0. -1.
         -5    1    3    3    0  502  0.33209460761E+02 -0.10101614839E+02 -0.22746298103E+02  0.41710638736E+02  0.41800000000E+01 0. -1.
        -11    1    4    4    0    0  0.28266441206E+02 -0.35957326902E+02  0.73421656592E+02  0.86502374032E+02  0.00000000000E+00 0.  1.
         11    1    4    4    0    0  0.28172219529E+02 -0.27605383110E+02 -0.25231796021E+02  0.46822800645E+02  0.00000000000E+00 0. -1.
</event>
<event>
 8    1  0.7262913E-009  0.1024888E+03  0.7561462E-02  0.1275148E+00
         -3   -1    0    0    0  501 -0.00000000000E+00  0.00000000000E+00  0.32603677979E+03  0.32603677979E+03  0.00000000000E+00 0.  1.
          3   -1    0    0  501    0  0.00000000000E+00 -0.00000000000E+00 -0.56295001028E+02  0.56295001028E+02  0.00000000000E+00 0. -1.
         25    2    1    2    0    0  0.26656853132E+02  0.39325934002E+02  0.23793695912E+03  0.27298083577E+03  0.12508966095E+03 0.  0.
         23    2    1    2    0    0 -0.26656853132E+02 -0.39325934002E+02  0.31804819642E+02  0.10935094505E+03  0.93214621854E+02 0.  0.
          5    1    3    3  502    0  0.70008724089E+02  0.50690476382E+02  0.13150493325E+03  0.15742225292E+03  0.41800000000E+01 0.  1.
         -5    1    3    3    0  502 -0.43351870956E+02 -0.11364542380E+02  0.10643202587E+03  0.11555858285E+03  0.41800000000E+01 0.  1.
        -11    1    4    4    0    0  0.16157064409E+02 -0.13687579544E+01 -0.24302117604E+02  0.29215015808E+02  0.00000000000E+00 0. -1.
         11    1    4    4    0    0 -0.42813917541E+02 -0.37957176048E+02  0.56106937246E+02  0.80135929245E+02  0.00000000000E+00 0.  1.
</event>
<event>
 8    1  0.7262913E-009  0.1244995E+03  0.7561462E-02  0.1235853E+00
         -1   -1    0    0    0  501 -0.00000000000E+00  0.00000000000E+00  0.84723854554E+03  0.84723854554E+03  0.00000000000E+00 0.  1.
          1   -1    0    0  501    0  0.00000000000E+00 -0.00000000000E+00 -0.24621461267E+02  0.24621461267E+02  0.00000000000E+00 0. -1.
         25    2    1    2    0    0 -0.32872966574E+02 -0.89206098481E+02  0.45377416140E+03  0.48020448775E+03  0.12508797128E+03 0.  0.
         23    2    1    2    0    0  0.32872966574E+02  0.89206098481E+02  0.36884292287E+03  0.39165551906E+03  0.91162404098E+02 0.  0.
          5    1    3    3  502    0 -0.63732420484E+01 -0.10901531974E+03  0.23827219174E+03  0.26213749810E+03  0.41800000000E+01 0. -1.
         -5    1    3    3    0  502 -0.26499724526E+02  0.19809221259E+02  0.21550196966E+03  0.21806698965E+03  0.41800000000E+01 0. -1.
        -11    1    4    4    0    0 -0.56924265623E+01  0.53533436317E+02  0.70404483336E+02  0.88628572131E+02  0.00000000000E+00 0. -1.
         11    1    4    4    0    0  0.38565393137E+02  0.35672662164E+02  0.29843843953E+03  0.30302694693E+03  0.00000000000E+00 0.  1.
</event>
<event>
 8    1  0.7262913E-009  0.9772449E+02  0.7561462E-02  0.1285155E+00
          1   -1    0    0  501    0  0.00000000000E+00  0.00000000000E+00  0.54988477106E+02  0.54988477106E+02  0.00000000000E+00 0. -1.
         -1   -1    0    0    0  501 -0.00000000000E+00 -0.00000000000E+00 -0.31209222922E+03  0.31209222922E+03  0.00000000000E+00 0.  1.
         25    2    1    2    0    0 -0.83542733426E+01  0.21944139566E+01 -0.24568199680E+03  0.27582902570E+03  0.12508956204E+03 0.  0.
         23    2    1    2    0    0  0.83542733426E+01 -0.21944139566E+01 -0.11421755317E+02  0.91251680627E+02  0.90121048524E+02 0.  0.
          5    1    3    3  502    0  0.39223439599E+02 -0.42294539204E+02 -0.14183198994E+03  0.15317014079E+03  0.41800000000E+01 0. -1.
         -5    1    3    3    0  502 -0.47577712941E+02  0.44488953160E+02 -0.10385000686E+03  0.12265888491E+03  0.41800000000E+01 0. -1.
        -11    1    4    4    0    0  0.51112888838E+01  0.34816969157E+02  0.21813408249E+02  0.41402552998E+02  0.00000000000E+00 0. -1.
         11    1    4    4    0    0  0.32429844588E+01 -0.37011383113E+02 -0.33235163566E+02  0.49849127629E+02  0.00000000000E+00 0.  1.
</event>
<event>
 8    1  0.7262913E-009  0.1122180E+03  0.7561462E-02  0.1256517E+00
         -1   -1    0    0    0  501 -0.00000000000E+00  0.00000000000E+00  0.85037199269E+02  0.85037199269E+02  0.00000000000E+00 0.  1.
          1   -1    0    0  501    0  0.00000000000E+00 -0.00000000000E+00 -0.15275810641E+03  0.15275810641E+03  0.00000000000E+00 0. -1.
         25    2    1    2    0    0 -0.32439096304E+02 -0.37423047853E+02 -0.37611405370E+02  0.13969499935E+03  0.12508915041E+03 0.  0.
         23    2    1    2    0    0  0.32439096304E+02  0.37423047853E+02 -0.30109501776E+02  0.98100306335E+02  0.79147384835E+02 0.  0.
          5    1    3    3  502    0 -0.89762491757E+01 -0.82417405946E+02 -0.16818764246E+02  0.84696783191E+02  0.41800000000E+01 0.  1.
         -5    1    3    3    0  502 -0.23462847129E+02  0.44994358093E+02 -0.20792641123E+02  0.54998216157E+02  0.41800000000E+01 0.  1.
        -11    1    4    4    0    0  0.22478534772E+02  0.60948905911E+02 -0.10302305646E+02  0.65773787779E+02  0.00000000000E+00 0.  1.
         11    1    4    4    0    0  0.99605615325E+01 -0.23525858057E+02 -0.19807196130E+02  0.32326518556E+02  0.00000000000E+00 0. -1.
</event>
<event>
 8    1  0.7262913E-009  0.9866633E+02  0.7561462E-02  0.1283126E+00
          1   -1    0    0  501    0  0.00000000000E+00  0.00000000000E+00  0.13418735974E+03  0.13418735974E+03  0.00000000000E+00 0. -1.
         -1   -1    0    0    0  501 -0.00000000000E+00 -0.00000000000E+00 -0.16683489029E+03  0.16683489029E+03  0.00000000000E+00 0.  1.
         25    2    1    2    0    0 -0.62044396821E+02 -0.19065411897E+02  0.62552103966E+02  0.15418081769E+03  0.12508381879E+03 0.  0.
         23    2    1    2    0    0  0.62044396821E+02  0.19065411897E+02 -0.95199634522E+02  0.14684143234E+03  0.91029878234E+02 0.  0.
          5    1    3    3  502    0 -0.59146382512E+02  0.79326433656E+01  0.94625647009E+02  0.11194957288E+03  0.41800000000E+01 0. -1.
         -5    1    3    3    0  502 -0.28980143088E+01 -0.26998055263E+02 -0.32073543043E+02  0.42231244811E+02  0.41800000000E+01 0. -1.
        -11    1    4    4    0    0  0.52542895110E+02 -0.29699357283E+02 -0.65002009577E+02  0.88702135818E+02  0.00000000000E+00 0.  1.
         11    1    4    4    0    0  0.95015017108E+01  0.48764769180E+02 -0.30197624945E+02  0.58139296524E+02  0.00000000000E+00 0. -1.
</event>
<event>
 8    1  0.7262913E-009  0.9389277E+02  0.7561462E-02  0.1293689E+00
         -3   -1    0    0    0  501 -0.00000000000E+00  0.00000000000E+00  0.63670478818E+02  0.63670478818E+02  0.00000000000E+00 0.  1.
          3   -1    0    0  501    0  0.00000000000E+00 -0.00000000000E+00 -0.22536812900E+03  0.22536812900E+03  0.00000000000E+00 0. -1.
         25    2    1    2    0    0 -0.34763690255E+02  0.57833443499E+01 -0.44279330188E+02  0.13728576315E+03  0.12507901682E+03 0.  0.
         23    2    1    2    0    0  0.34763690255E+02 -0.57833443499E+01 -0.11741831999E+03  0.15175284467E+03  0.89442175530E+02 0.  0.
          5    1    3    3  502    0  0.19123706136E+02 -0.39251482684E+02  0.13880512662E+02  0.46005826381E+02  0.41800000000E+01 0.  1.
         -5    1    3    3    0  502 -0.53887396391E+02  0.45034827034E+02 -0.58159842850E+02  0.91279936766E+02  0.41800000000E+01 0.  1.
        -11    1    4    4    0    0  0.22384090218E+02  0.29009576397E+02 -0.97345026492E+01  0.37912577853E+02  0.00000000000E+00 0.  1.
         11    1    4    4    0    0  0.12379600037E+02 -0.34792920747E+02 -0.10768381734E+03  0.11384026682E+03  0.00000000000E+00 0. -1.
</event>
<event>
 8    1  0.7262913E-009  0.1162664E+03  0.7561462E-02  0.1249387E+00
          1   -1    0    0  501    0  0.00000000000E+00  0.00000000000E+00  0.54671705912E+03  0.54671705912E+03  0.00000000000E+00 0. -1.
         -1   -1    0    0    0  501 -0.00000000000E+00 -0.00000000000E+00 -0.27602269510E+02  0.27602269510E+02  0.00000000000E+00 0.  1.
         25    2    1    2    0    0 -0.29088988217E+01  0.43515268458E+02  0.36644776327E+03  0.38965818113E+03  0.12508994617E+03 0.  0.
         23    2    1    2    0    0  0.29088988217E+01 -0.43515268458E+02  0.15266702633E+03  0.18466114750E+03  0.94289332292E+02 0.  0.
          5    1    3    3  502    0 -0.57686948414E+01 -0.42374151651E+02  0.83336823944E+02  0.93762173574E+02  0.41800000000E+01 0.  1.
         -5    1    3    3    0  502  0.28597960197E+01  0.85889420108E+02  0.28311093933E+03  0.29589600756E+03  0.41800000000E+01 0.  1.
        -11    1    4    4    0    0  0.44635659567E+02 -0.42729513059E+02  0.83466681433E+02  0.10385008570E+03  0.00000000000E+00 0. -1.
         11    1    4    4    0    0 -0.41726760745E+02 -0.78575539859E+00  0.69200344902E+02  0.80811061794E+02  0.00000000000E+00 0.  1.
</event>
<event>
 8    1  0.7262913E-009  0.1014314E+03  0.7561462E-02  0.1277314E+00
         -1   -1    0    0    0  501 -0.00000000000E+00  0.00000000000E+00  0.15834651629E+03  0.15834651629E+03  0.00000000000E+00 0.  1.
          1   -1    0    0  501    0  0.00000000000E+00 -0.00000000000E+00 -0.10006785198E+03  0.10006785198E+03  0.00000000000E+00 0. -1.
         25    2    1    2    0    0 -0.56629077063E+02 -0.23962054028E+02  0.48481121121E+02  0.14758002213E+03  0.12509361065E+03 0.  0.
         23    2    1    2    0    0  0.56629077063E+02  0.23962054028E+02  0.97975431939E+01  0.11083434613E+03  0.91690937544E+02 0.  0.
          5    1    3    3  502    0  0.59694704084E+01 -0.57456746729E+02  0.49897023502E+02  0.76446698268E+02  0.41800000000E+01 0. -1.
         -5    1    3    3    0  502 -0.62598547472E+02  0.33494692701E+02 -0.14159023815E+01  0.71133323866E+02  0.41800000000E+01 0. -1.
        -11    1    4    4    0    0  0.41802634748E+02 -0.41867772721E+01  0.46228872837E+02  0.62466775646E+02  0.00000000000E+00 0.  1.
         11    1    4    4    0    0  0.14826442315E+02  0.28148831300E+02 -0.36431329643E+02  0.48367570487E+02  0.00000000000E+00 0. -1.
</event>
<event>
 8    1  0.7262913E-009  0.1087646E+03  0.7561462E-02  0.1262875E+00
          1   -1    0    0  501    0  0.00000000000E+00  0.00000000000E+00  0.59187005769E+03  0.59187005769E+03  0.00000000000E+00 0. -1.
         -1   -1    0    0    0  501 -0.00000000000E+00 -0.00000000000E+00 -0.22701781345E+02  0.22701781345E+02  0.00000000000E+00 0.  1.
         25    2    1    2    0    0 -0.26042195442E+02  0.31122889952E+02  0.32771150816E+03  0.35311229420E+03  0.12508648813E+03 0.  0.
         23    2    1    2    0    0  0.26042195442E+02 -0.31122889952E+02  0.24145676818E+03  0.26145954483E+03  0.91721821068E+02 0.  0.
          5    1    3    3  502    0 -0.22644060300E+02 -0.41360612982E+02  0.20583390339E+03  0.21120729617E+03  0.41800000000E+01 0. -1.
         -5    1    3    3    0  502 -0.33981351419E+01  0.72483502934E+02  0.12187760477E+03  0.14190499803E+03  0.41800000000E+01 0. -1.
        -11    1    4    4    0    0 -0.29867491859E+02  0.59082677789E+01  0.49371147300E+02  0.58004179882E+02  0.00000000000E+00 0.  1.
         11    1    4    4    0    0  0.55909687301E+02 -0.37031157731E+02  0.19208562088E+03  0.20345536495E+03  0.00000000000E+00 0. -1.
</event>
<event>
 8    1  0.7262913E-009  0.1146367E+03  0.7561462E-02  0.1252217E+00
         -2   -1    0    0    0  501 -0.00000000000E+00  0.00000000000E+00  0.54366278375E+02  0.54366278375E+02  0.00000000000E+00 0.  1.
          2   -1    0    0  501    0  0.00000000000E+00 -0.00000000000E+00 -0.42678947621E+03  0.42678947621E+03  0.00000000000E+00 0. -1.
         25    2    1    2    0    0  0.28260151775E+02  0.92793267537E+02 -0.26272116727E+03  0.30672010203E+03  0.12508230321E+03 0.  0.
         23    2    1    2    0    0 -0.28260151775E+02 -0.92793267537E+02 -0.10970203056E+03  0.17443565256E+03  0.94784147911E+02 0.  0.
          5    1    3    3  502    0  0.18348223031E+02 -0.77203538643E+01  0.46605453875E+01  0.20867540236E+02  0.41800000000E+01 0. -1.
         -5    1    3    3    0  502  0.99119287447E+01  0.10051362140E+03 -0.26738171266E+03  0.28585256179E+03  0.41800000000E+01 0. -1.
        -11    1    4    4    0    0 -0.25810627641E+02 -0.14679112348E+02 -0.88659841661E+02  0.93499905678E+02  0.00000000000E+00 0. -1.
         11    1    4    4    0    0 -0.24495241344E+01 -0.78114155188E+02 -0.21042188904E+02  0.80935746881E+02  0.00000000000E+00 0.  1.
</event>
<event>
 8    1  0.7262913E-009  0.1430197E+03  0.7561462E-02  0.1209323E+00
          1   -1    0    0  501    0  0.00000000000E+00  0.00000000000E+00  0.11023616957E+04  0.11023616957E+04  0.00000000000E+00 0. -1.
         -1   -1    0    0    0  501 -0.00000000000E+00 -0.00000000000E+00 -0.20776437691E+02  0.20776437691E+02  0.00000000000E+00 0.  1.
         25    2    1    2    0    0  0.89245951169E+02  0.45916029428E+02  0.69954282144E+03  0.71769122686E+03  0.12508963392E+03 0.  0.
         23    2    1    2    0    0 -0.89245951169E+02 -0.45916029428E+02  0.38204243661E+03  0.40544690658E+03  0.91420178986E+02 0.  0.
          5    1    3    3  502    0  0.52772779070E+02  0.83855637314E+02  0.33579257771E+03  0.35012977846E+03  0.41800000000E+01 0. -1.
         -5    1    3    3    0  502  0.36473172100E+02 -0.37939607885E+02  0.36375024374E+03  0.36756144840E+03  0.41800000000E+01 0. -1.
        -11    1    4    4    0    0 -0.10588195566E+03 -0.49778655805E+02  0.35140852496E+03  0.37037393877E+03  0.00000000000E+00 0. -1.
         11    1    4    4    0    0  0.16636004487E+02  0.38626263767E+01  0.30633911648E+02  0.35072967805E+02  0.00000000000E+00 0.  1.
</event>
<event>
 8    1  0.7262913E-009  0.1350478E+03  0.7561462E-02  0.1220152E+00
          1   -1    0    0  501    0  0.00000000000E+00  0.00000000000E+00  0.14121661386E+04  0.14121661386E+04  0.00000000000E+00 0. -1.
         -1   -1    0    0    0  501 -0.00000000000E+00 -0.00000000000E+00 -0.17290398211E+02  0.17290398211E+02  0.00000000000E+00 0.  1.
         25    2    1    2    0    0 -0.78821463260E+02 -0.67504258169E+02  0.93182135155E+03  0.94589146187E+03  0.12509987408E+03 0.  0.
         23    2    1    2    0    0  0.78821463260E+02  0.67504258169E+02  0.46305438880E+03  0.48356507490E+03  0.92984766151E+02 0.  0.
          5    1    3    3  502    0 -0.27005826370E+02 -0.86241542113E+02  0.35187664056E+03  0.36332019049E+03  0.41800000000E+01 0.  1.
         -5    1    3    3    0  502 -0.51815636890E+02  0.18737283944E+02  0.57994471099E+03  0.58257127139E+03  0.41800000000E+01 0.  1.
        -11    1    4    4    0    0  0.24077827342E+02  0.65282763238E+02  0.36187555881E+03  0.36850441112E+03  0.00000000000E+00 0. -1.
         11    1    4    4    0    0  0.54743635918E+02  0.22214949311E+01  0.10117882999E+03  0.11506066378E+03  0.00000000000E+00 0.  1.
</event>
<event>
 8    1  0.7262913E-009  0.9827605E+02  0.7561462E-02  0.1283964E+00
         -4   -1    0    0    0  501 -0.00000000000E+00  0.00000000000E+00  0.93613958378E+02  0.93613958378E+02  0.00000000000E+00 0.  1.
          4   -1    0    0  501    0  0.00000000000E+00 -0.00000000000E+00 -0.17226608970E+03  0.17226608970E+03  0.00000000000E+00 0. -1.
         25    2    1    2    0    0  0.15332603736E+02 -0.14264778897E+02  0.21836567176E+02  0.12869331481E+03  0.12508621409E+03 0.  0.
         23    2    1    2    0    0 -0.15332603736E+02  0.14264778897E+02 -0.10048869849E+03  0.13718673326E+03  0.91014551608E+02 0.  0.
          5    1    3    3  502    0  0.94956586735E+01 -0.69512657209E+02  0.48540417863E+01  0.70450061516E+02  0.41800000000E+01 0. -1.
         -5    1    3    3    0  502  0.58369450622E+01  0.55247878312E+02  0.16982525390E+02  0.58243253294E+02  0.41800000000E+01 0. -1.
        -11    1    4    4    0    0 -0.24447812118E+02  0.37969909490E+02 -0.14354518424E+02  0.47386303329E+02  0.00000000000E+00 0.  1.
         11    1    4    4    0    0  0.91152083820E+01 -0.23705130593E+02 -0.86134180069E+02  0.89800429935E+02  0.00000000000E+00 0. -1.
</event>
<event>
 8    1  0.7262913E-009  0.1211027E+03  0.7561462E-02  0.1241289E+00
          1   -1    0    0  501    0  0.00000000000E+00  0.00000000000E+00  0.46390262076E+03  0.46390262076E+03  0.00000000000E+00 0. -1.
         -1   -1    0    0    0  501 -0.00000000000E+00 -0.00000000000E+00 -0.57559283107E+02  0.57559283107E+02  0.00000000000E+00 0.  1.
         25    2    1    2    0    0 -0.91669979461E+01 -0.99530360016E+02  0.32536125670E+03  0.36262853544E+03  0.12509668637E+03 0.  0.
         23    2    1    2    0    0  0.91669979461E+01  0.99530360016E+02  0.80982080955E+02  0.15883336842E+03  0.93164451765E+02 0.  0.
          5    1    3    3  502    0 -0.19072124921E+02 -0.29113974082E+02  0.27038602779E+03  0.27264894252E+03  0.41800000000E+01 0.  1.
         -5    1    3    3    0  502  0.99051269750E+01 -0.70416385934E+02  0.54975228910E+02  0.89979592920E+02  0.41800000000E+01 0.  1.
        -11    1    4    4    0    0 -0.27106641394E+02  0.95674264902E+02  0.51825367165E+02  0.11213475667E+03  0.00000000000E+00 0.  1.
         11    1    4    4    0    0  0.36273639340E+02  0.38560951140E+01  0.29156713790E+02  0.46698611751E+02  0.00000000000E+00 0. -1.
</event>
<event>
 8    1  0.7262913E-009  0.1877956E+03  0.7561462E-02  0.1160465E+00
         -1   -1    0    0    0  501 -0.00000000000E+00  0.00000000000E+00  0.11269549563E+03  0.11269549563E+03  0.00000000000E+00 0.  1.
          1   -1    0    0  501    0  0.00000000000E+00 -0.00000000000E+00 -0.33727840330E+03  0.33727840330E+03  0.00000000000E+00 0. -1.
         25    2    1    2    0    0 -0.12183680254E+03  0.93614321098E+02 -0.61120358064E+02  0.20734228719E+03  0.12508908154E+03 0.  0.
         23    2    1    2    0    0  0.12183680254E+03 -0.93614321098E+02 -0.16346254960E+03  0.24263161174E+03  0.92424273465E+02 0.  0.
          5    1    3    3  502    0 -0.17925447585E+02 -0.30238128042E+02 -0.31366724133E+01  0.35538390122E+02  0.41800000000E+01 0. -1.
         -5    1    3    3    0  502 -0.10391135496E+03  0.12385244914E+03 -0.57983685650E+02  0.17180389707E+03  0.41800000000E+01 0. -1.
        -11    1    4    4    0    0  0.89240679461E+02 -0.11027505524E+03 -0.13896033216E+03  0.19858111842E+03  0.00000000000E+00 0. -1.
         11    1    4    4    0    0  0.32596123080E+02  0.16660734145E+02 -0.24502217438E+02  0.44050493317E+02  0.00000000000E+00 0.  1.
</event>
<event>
 8    1  0.7262913E-009  0.1061379E+03  0.7561462E-02  0.1267894E+00
         -1   -1    0    0    0  501 -0.00000000000E+00  0.00000000000E+00  0.85339291659E+03  0.85339291659E+03  0.00000000000E+00 0.  1.
          1   -1    0    0  501    0  0.00000000000E+00 -0.00000000000E+00 -0.46461508985E+02  0.46461508985E+02  0.00000000000E+00 0. -1.
         25    2    1    2    0    0 -0.63058234632E+02  0.20205265918E+02  0.76850523628E+03  0.78142942032E+03  0.12508815700E+03 0.  0.
         23    2    1    2    0    0  0.63058234632E+02 -0.20205265918E+02  0.38426171315E+02  0.11842500525E+03  0.90351079132E+02 0.  0.
          5    1    3    3  502    0 -0.81884653412E+02 -0.12881583823E+01  0.72232001638E+03  0.72695971985E+03  0.41800000000E+01 0.  1.
         -5    1    3    3    0  502  0.18826418780E+02  0.21493424300E+02  0.46185219905E+02  0.54469700475E+02  0.41800000000E+01 0.  1.
        -11    1    4    4    0    0  0.27434351131E+02  0.29473790174E+02 -0.87512499342E+01  0.41205974137E+02  0.00000000000E+00 0. -1.
         11    1    4    4    0    0  0.35623883502E+02 -0.49679056093E+02  0.47177421249E+02  0.77219031111E+02  0.00000000000E+00 0.  1.
</event>
<event>
 8    1  0.7262913E-009  0.1249552E+03  0.7561462E-02  0.1235139E+00
          2   -1    0    0  501    0  0.00000000000E+00  0.00000000000E+00  0.15106902222E+03  0.15106902222E+03  0.00000000000E+00 0. -1.
         -2   -1    0    0    0  501 -0.00000000000E+00 -0.00000000000E+00 -0.15358459916E+03  0.15358459916E+03  0.00000000000E+00 0.  1.
         25    2    1    2    0    0  0.10084143152E+03  0.27182073724E+02  0.22625879829E+02  0.16452510088E+03  0.12509483977E+03 0.  0.
         23    2    1    2    0    0 -0.10084143152E+03 -0.27182073724E+02 -0.25141456770E+02  0.14012852051E+03  0.89978052699E+02 0.  0.
          5    1    3    3  502    0 -0.58553429254E+01  0.20086530364E+02 -0.36488848746E+02  0.42268927425E+02  0.41800000000E+01 0.  1.
         -5    1    3    3    0  502  0.10669677445E+03  0.70955433600E+01  0.59114728575E+02  0.12225617345E+03  0.41800000000E+01 0.  1.
        -11    1    4    4    0    0 -0.11954415686E+02  0.18187095975E+02  0.20944379888E+02  0.30205058571E+02  0.00000000000E+00 0. -1.
         11    1    4    4    0    0 -0.88887015836E+02 -0.45369169698E+02 -0.46085836658E+02  0.10992346193E+03  0.00000000000E+00 0.  1.
</event>
<event>
 8    1  0.7262913E-009  0.1299112E+03  0.7561462E-02  0.1227588E+00
         -1   -1    0    0    0  501 -0.00000000000E+00  0.00000000000E+00  0.10572269346E+03  0.10572269346E+03  0.00000000000E+00 0.  1.
          1   -1    0    0  501    0  0.00000000000E+00 -0.00000000000E+00 -0.35235184851E+03  0.35235184851E+03  0.00000000000E+00 0. -1.
         25    2    1    2    0    0 -0.12195346042E+03  0.20612462645E+01 -0.25413101617E+03  0.30839769716E+03  0.12509864502E+03 0.  0.
         23    2    1    2    0    0  0.12195346042E+03 -0.20612462645E+01  0.75018611255E+01  0.14967684482E+03  0.86429073288E+02 0.  0.
          5    1    3    3  502    0 -0.65203091368E+02 -0.43800039232E+01 -0.24087304852E+03  0.24961555533E+03  0.41800000000E+01 0. -1.
         -5    1    3    3    0  502 -0.56750369053E+02  0.64412501877E+01 -0.13257967649E+02  0.58782141827E+02  0.41800000000E+01 0. -1.
        -11    1    4    4    0    0  0.10315719217E+03  0.23053421133E+02 -0.20448733036E+02  0.10766158649E+03  0.00000000000E+00 0. -1.
         11    1    4    4    0    0  0.18796268253E+02 -0.25114667397E+02  0.27950594161E+02  0.42015258332E+02  0.00000000000E+00 0.  1.
</event>
<event>
 8    1  0.7262913E-009  0.1156038E+03  0.7561462E-02  0.1250531E+00
         -3   -1    0    0    0  501 -0.00000000000E+00  0.00000000000E+00  0.67370837022E+02  0.67370837022E+02  0.00000000000E+00 0.  1.
          3   -1    0    0  501    0  0.00000000000E+00 -0.00000000000E+00 -0.49253522009E+03  0.49253522009E+03  0.00000000000E+00 0. -1.
         25    2    1    2    0    0 -0.34886974202E+02 -0.74902421516E+02 -0.38977217588E+02  0.15490053168E+03  0.12508987771E+03 0.  0.
         23    2    1    2    0    0  0.34886974202E+02  0.74902421516E+02 -0.38618716548E+03  0.40500552543E+03  0.89785717849E+02 0.  0.
          5    1    3    3  502    0 -0.61246815316E+02 -0.79772156439E+02 -0.62928612963E+02  0.11871079167E+03  0.41800000000E+01 0.  1.
         -5    1    3    3    0  502  0.26359841114E+02  0.48697349234E+01  0.23951395375E+02  0.36189740013E+02  0.41800000000E+01 0.  1.
        -11    1    4    4    0    0  0.45853803954E+01 -0.11220178476E+02 -0.51265139407E+01  0.13160519123E+02  0.00000000000E+00 0.  1.
         11    1    4    4    0    0  0.30301593807E+02  0.86122599992E+02 -0.38106065154E+03  0.39184500631E+03  0.00000000000E+00 0. -1.
</event>
<event>
 8    1  0.7262913E-009  0.1024221E+03  0.7561462E-02  0.1275284E+00
         -4   -1    0    0    0  501 -0.00000000000E+00  0.00000000000E+00  0.21821166572E+03  0.21821166572E+03  0.00000000000E+00 0. -1.
          4   -1    0    0  501    0  0.00000000000E+00 -0.00000000000E+00 -0.63307474683E+02  0.63307474683E+02  0.00000000000E+00 0.  1.
         25    2    1    2    0    0  0.63785113382E+01  0.53621814601E+01  0.14239824258E+03  0.18972022645E+03  0.12508823461E+03 0.  0.
         23    2    1    2    0    0 -0.63785113382E+01 -0.53621814601E+01  0.12505948457E+02  0.91798913957E+02  0.90560496133E+02 0.  0.
          5    1    3    3  502    0  0.39456732694E+02 -0.46963744516E+02  0.54694559440E+02  0.82288482099E+02  0.41800000000E+01 0.  1.
         -5    1    3    3    0  502 -0.33078221356E+02  0.52325925976E+02  0.87703683142E+02  0.10743174435E+03  0.41800000000E+01 0.  1.
        -11    1    4    4    0    0 -0.39542066889E+02 -0.20865303929E+02 -0.13718521954E+02  0.46766802398E+02  0.00000000000E+00 0.  1.
         11    1    4    4    0    0  0.33163555551E+02  0.15503122469E+02  0.26224470411E+02  0.45032111559E+02  0.00000000000E+00 0. -1.
</event>
<event>
 8    1  0.7262913E-009  0.1172365E+03  0.7561462E-02  0.1247727E+00
         -1   -1    0    0    0  501 -0.00000000000E+00  0.00000000000E+00  0.49816823208E+03  0.49816823208E+03  0.00000000000E+00 0.  1.
          1   -1    0    0  501    0  0.00000000000E+00 -0.00000000000E+00 -0.57169057565E+02  0.57169057565E+02  0.00000000000E+00 0. -1.
         25    2    1    2    0    0  0.67521133025E+02 -0.46767174846E+02  0.71128370301E+02  0.16568623970E+03  0.12508562234E+03 0.  0.
         23    2    1    2    0    0 -0.67521133025E+02  0.46767174846E+02  0.36987080421E+03  0.38965104994E+03  0.90979431002E+02 0.  0.
          5    1    3    3  502    0  0.66669631058E+02  0.11223412390E+02 -0.72171614155E+01  0.68120221006E+02  0.41800000000E+01 0.  1.
         -5    1    3    3    0  502  0.85150196757E+00 -0.57990587236E+02  0.78345531716E+02  0.97566018692E+02  0.41800000000E+01 0.  1.
        -11    1    4    4    0    0 -0.44604032961E+02 -0.11427325697E+02  0.73338991880E+02  0.86595099509E+02  0.00000000000E+00 0. -1.
         11    1    4    4    0    0 -0.22917100064E+02  0.58194500543E+02  0.29653181233E+03  0.30305595044E+03  0.00000000000E+00 0.  1.
</event>
<event>
 8    1  0.7262913E-009  0.1151140E+03  0.7561462E-02  0.1251382E+00
          1   -1    0    0  501    0  0.00000000000E+00  0.00000000000E+00  0.12247641000E+04  0.12247641000E+04  0.00000000000E+00 0.  1.
         -1   -1    0    0    0  501 -0.00000000000E+00 -0.00000000000E+00 -0.11288252160E+02  0.11288252160E+02  0.00000000000E+00 0. -1.
         25    2    1    2    0    0 -0.31296924800E+02  0.25201999345E+02  0.80053630704E+03  0.81124611872E+03  0.12508896021E+03 0.  0.
         23    2    1    2    0    0  0.31296924800E+02 -0.25201999345E+02  0.41293954078E+03  0.42480623342E+03  0.91250388191E+02 0.  0.
          5    1    3    3  502    0 -0.91881016451E-01 -0.49821992170E+02  0.31242467009E+03  0.31639988341E+03  0.41800000000E+01 0. -1.
         -5    1    3    3    0  502 -0.31205043783E+02  0.75023991515E+02  0.48811163696E+03  0.49484623530E+03  0.41800000000E+01 0. -1.
        -11    1    4    4    0    0  0.62809314540E+02 -0.24291535693E+02  0.25438172581E+03  0.26314473418E+03  0.00000000000E+00 0. -1.
         11    1    4    4    0    0 -0.31512389740E+02 -0.91046365178E+00  0.15855781496E+03  0.16166149924E+03  0.00000000000E+00 0.  1.
</event>
<event>
 8    1  0.7262913E-009  0.1373096E+03  0.7561462E-02  0.1216996E+00
         -1   -1    0    0    0  501 -0.00000000000E+00  0.00000000000E+00  0.73353556776E+02  0.73353556776E+02  0.00000000000E+00 0.  1.
          1   -1    0    0  501    0  0.00000000000E+00 -0.00000000000E+00 -0.26828541668E+03  0.26828541668E+03  0.00000000000E+00 0. -1.
         25    2    1    2    0    0  0.86855809494E+02  0.17306465211E+02 -0.11132198312E+03  0.18942876156E+03  0.12508887401E+03 0.  0.
         23    2    1    2    0    0 -0.86855809494E+02 -0.17306465211E+02 -0.83609876779E+02  0.15221021189E+03  0.91290151318E+02 0.  0.
          5    1    3    3  502    0 -0.29850422405E+02  0.43888312360E+01 -0.45499982366E+02  0.54754272460E+02  0.41800000000E+01 0.  1.
         -5    1    3    3    0  502  0.11670623190E+03  0.12917633975E+02 -0.65822000756E+02  0.13467448910E+03  0.41800000000E+01 0.  1.
        -11    1    4    4    0    0 -0.46621581704E+02 -0.54607037982E+02 -0.54186874266E+02  0.89953976124E+02  0.00000000000E+00 0.  1.
         11    1    4    4    0    0 -0.40234227790E+02  0.37300572771E+02 -0.29423002512E+02  0.62256235766E+02  0.00000000000E+00 0. -1.
</event>
<event>
 8    1  0.7262913E-009  0.9284902E+02  0.7561462E-02  0.1296095E+00
         -2   -1    0    0    0  501 -0.00000000000E+00  0.00000000000E+00  0.31326273637E+02  0.31326273637E+02  0.00000000000E+00 0.  1.
          2   -1    0    0  501    0  0.00000000000E+00 -0.00000000000E+00 -0.49093140369E+03  0.49093140369E+03  0.00000000000E+00 0. -1.
         25    2    1    2    0    0 -0.49687506821E+02  0.28212596780E+02 -0.21950530223E+03  0.25902496089E+03  0.12508618512E+03 0.  0.
         23    2    1    2    0    0  0.49687506821E+02 -0.28212596780E+02 -0.24009982783E+03  0.26323271644E+03  0.91535439746E+02 0.  0.
          5    1    3    3  502    0  0.17371484312E+02 -0.19241433947E+02 -0.14714675960E+03  0.14947120963E+03  0.41800000000E+01 0.  1.
         -5    1    3    3    0  502 -0.67058991132E+02  0.47454030728E+02 -0.72358542628E+02  0.10955375126E+03  0.41800000000E+01 0.  1.
        -11    1    4    4    0    0  0.12431673972E+02  0.15421005145E+02 -0.39307211557E+01  0.20194169610E+02  0.00000000000E+00 0.  1.
         11    1    4    4    0    0  0.37255832849E+02 -0.43633601926E+02 -0.23616910667E+03  0.24303854683E+03  0.00000000000E+00 0. -1.
</event>
<event>
 8    1  0.7262913E-009  0.9803710E+02  0.7561462E-02  0.1284479E+00
          1   -1    0    0  501    0  0.00000000000E+00  0.00000000000E+00  0.11487194523E+03  0.11487194523E+03  0.00000000000E+00 0. -1.
         -1   -1    0    0    0  501 -0.00000000000E+00 -0.00000000000E+00 -0.14847730265E+03  0.14847730265E+03  0.00000000000E+00 0.  1.
         25    2    1    2    0    0 -0.73197370692E+01  0.68091559293E+02 -0.58389362269E+01  0.14272697227E+03  0.12508739521E+03 0.  0.
         23    2    1    2    0    0  0.73197370692E+01 -0.68091559293E+02 -0.27766421192E+02  0.12062227560E+03  0.95334779741E+02 0.  0.
          5    1    3    3  502    0  0.25501459863E+02  0.73456875661E+02 -0.45980101461E+02  0.90431627031E+02  0.41800000000E+01 0.  1.
         -5    1    3    3    0  502 -0.32821196932E+02 -0.53653163689E+01  0.40141165234E+02  0.52295345243E+02  0.41800000000E+01 0.  1.
        -11    1    4    4    0    0 -0.10234136949E+02 -0.66249826231E+02 -0.55984587984E+02  0.87338714935E+02  0.00000000000E+00 0.  1.
         11    1    4    4    0    0  0.17553874019E+02 -0.18417330614E+01  0.28218166791E+02  0.33283560669E+02  0.00000000000E+00 0. -1.
</event>
<event>
 8    1  0.7262913E-009  0.1396038E+03  0.7561462E-02  0.1213863E+00
          2   -1    0    0  501    0  0.00000000000E+00  0.00000000000E+00  0.16139144133E+03  0.16139144133E+03  0.00000000000E+00 0. -1.
         -2   -1    0    0    0  501 -0.00000000000E+00 -0.00000000000E+00 -0.16436118094E+03  0.16436118094E+03  0.00000000000E+00 0.  1.
         25    2    1    2    0    0 -0.58480905658E+02 -0.10602012833E+03 -0.10731887866E+01  0.17409547595E+03  0.12509116305E+03 0.  0.
         23    2    1    2    0    0  0.58480905658E+02  0.10602012833E+03 -0.18965508166E+01  0.15165714632E+03  0.91301747999E+02 0.  0.
          5    1    3    3  502    0 -0.18119365802E+02 -0.72752347069E+02 -0.59323078934E+02  0.95696998465E+02  0.41800000000E+01 0. -1.
         -5    1    3    3    0  502 -0.40361539856E+02 -0.33267781259E+02  0.58249890147E+02  0.78398477483E+02  0.41800000000E+01 0. -1.
        -11    1    4    4    0    0 -0.24964572957E+02  0.23380703492E+02 -0.59515951210E+00  0.34208791466E+02  0.00000000000E+00 0.  1.
         11    1    4    4    0    0  0.83445478616E+02  0.82639424836E+02 -0.13013913045E+01  0.11744835485E+03  0.00000000000E+00 0. -1.
</event>
<event>
 8    1  0.7262913E-009  0.1314036E+03  0.7561462E-02  0.1225388E+00
         -1   -1    0    0    0  501 -0.00000000000E+00  0.00000000000E+00  0.32851051739E+02  0.32851051739E+02  0.00000000000E+00 0.  1.
          1   -1    0    0  501    0  0.00000000000E+00 -0.00000000000E+00 -0.70865858403E+03  0.70865858403E+03  0.00000000000E+00 0. -1.
         25    2    1    2    0    0 -0.40797443114E+02 -0.76101735567E+02 -0.51863135080E+03  0.54044400853E+03  0.12508134475E+03 0.  0.
         23    2    1    2    0    0  0.40797443114E+02  0.76101735567E+02 -0.15717618150E+03  0.20106562724E+03  0.90923753261E+02 0.  0.
          5    1    3    3  502    0 -0.80954670601E+02 -0.76196188559E+02 -0.39650175110E+03  0.41181382792E+03  0.41800000000E+01 0.  1.
         -5    1    3    3    0  502  0.40157227488E+02  0.94452991127E-01 -0.12212959970E+03  0.12863018061E+03  0.41800000000E+01 0.  1.
        -11    1    4    4    0    0 -0.56094107477E+01  0.62598640765E+02 -0.40481952852E+02  0.74758570219E+02  0.00000000000E+00 0.  1.
         11    1    4    4    0    0  0.46406853861E+02  0.13503094802E+02 -0.11669422864E+03  0.12630705702E+03  0.00000000000E+00 0. -1.
</event>
<event>
 8    1  0.7262913E-009  0.1159389E+03  0.7561462E-02  0.1249951E+00
          2   -1    0    0  501    0  0.00000000000E+00  0.00000000000E+00  0.33778198897E+03  0.33778198897E+03  0.00000000000E+00 0.  1.
         -2   -1    0    0    0  501 -0.00000000000E+00 -0.00000000000E+00 -0.60755550230E+02  0.60755550230E+02  0.00000000000E+00 0. -1.
         25    2    1    2    0    0 -0.23079908244E+02 -0.76219892333E+02  0.88789419556E+02  0.17283825738E+03  0.12508936021E+03 0.  0.
         23    2    1    2    0    0  0.23079908244E+02  0.76219892333E+02  0.18823701918E+03  0.22569928182E+03  0.95733151370E+02 0.  0.
          5    1    3    3  502    0 -0.65900776353E+02 -0.78433499757E+02  0.76849722959E+02  0.12813305010E+03  0.41800000000E+01 0. -1.
         -5    1    3    3    0  502  0.42820868109E+02  0.22136074235E+01  0.11939696597E+02  0.44705207284E+02  0.41800000000E+01 0. -1.
        -11    1    4    4    0    0 -0.53545846927E+01  0.39319940087E+02  0.17176317492E+03  0.17628759890E+03  0.00000000000E+00 0.  1.
         11    1    4    4    0    0  0.28434492936E+02  0.36899952247E+02  0.16473844258E+02  0.49411682920E+02  0.00000000000E+00 0. -1.
</event>
<event>
 8    1  0.7262913E-009  0.1115776E+03  0.7561462E-02  0.1257676E+00
          1   -1    0    0  501    0  0.00000000000E+00  0.00000000000E+00  0.34559752206E+03  0.34559752206E+03  0.00000000000E+00 0. -1.
         -1   -1    0    0    0  501 -0.00000000000E+00 -0.00000000000E+00 -0.40449238837E+02  0.40449238837E+02  0.00000000000E+00 0.  1.
         25    2    1    2    0    0 -0.33976215313E+02  0.15467152789E+02  0.22093644367E+03  0.25662410884E+03  0.12509758220E+03 0.  0.
         23    2    1    2    0    0  0.33976215313E+02 -0.15467152789E+02  0.84211839548E+02  0.12942265205E+03  0.90911896484E+02 0.  0.
          5    1    3    3  502    0  0.32221656629E+02 -0.34569659774E+02  0.78125710766E+02  0.91402382986E+02  0.41800000000E+01 0. -1.
         -5    1    3    3    0  502 -0.66197871942E+02  0.50036812564E+02  0.14281073291E+03  0.16522172585E+03  0.41800000000E+01 0. -1.
        -11    1    4    4    0    0 -0.18153545607E+02  0.21930982440E+02  0.75439572924E+01  0.29452173103E+02  0.00000000000E+00 0.  1.
         11    1    4    4    0    0  0.52129760919E+02 -0.37398135229E+02  0.76667882256E+02  0.99970478951E+02  0.00000000000E+00 0. -1.
</event>
<event>
 8    1  0.7262913E-009  0.7964976E+02  0.7561462E-02  0.1330048E+00
         -3   -1    0    0    0  501 -0.00000000000E+00  0.00000000000E+00  0.77720745398E+02  0.77720745398E+02  0.00000000000E+00 0.  1.
          3   -1    0    0  501    0  0.00000000000E+00 -0.00000000000E+00 -0.23520638272E+03  0.23520638272E+03  0.00000000000E+00 0. -1.
         25    2    1    2    0    0  0.47934559288E+02  0.22649027869E+02 -0.16627026381E+02  0.13687109256E+03  0.12508612048E+03 0.  0.
         23    2    1    2    0    0 -0.47934559288E+02 -0.22649027869E+02 -0.14085861094E+03  0.17605603555E+03  0.91344835329E+02 0.  0.
          5    1    3    3  502    0  0.49357186012E+01  0.70605293670E+01  0.52781492523E+02  0.53642993448E+02  0.41800000000E+01 0.  1.
         -5    1    3    3    0  502  0.42998840686E+02  0.15588498502E+02 -0.69408518905E+02  0.83228099116E+02  0.41800000000E+01 0.  1.
        -11    1    4    4    0    0 -0.16471191985E+01  0.32077574463E+02 -0.29422776517E+02  0.43558966506E+02  0.00000000000E+00 0.  1.
         11    1    4    4    0    0 -0.46287440089E+02 -0.54726602331E+02 -0.11143583442E+03  0.13249706905E+03  0.00000000000E+00 0. -1.
</event>
<event>
 8    1  0.7262913E-009  0.1286518E+03  0.7561462E-02  0.1229470E+00
         -1   -1    0    0    0  501 -0.00000000000E+00  0.00000000000E+00  0.24246031667E+02  0.24246031667E+02  0.00000000000E+00 0.  1.
          1   -1    0    0  501    0  0.00000000000E+00 -0.00000000000E+00 -0.10951889967E+04  0.10951889967E+04  0.00000000000E+00 0. -1.
         25    2    1    2    0    0  0.12274884901E+02  0.12149986751E+03 -0.58417909980E+03  0.60977386959E+03  0.12508421476E+03 0.  0.
         23    2    1    2    0    0 -0.12274884901E+02 -0.12149986751E+03 -0.48676386519E+03  0.50966115874E+03  0.88896263521E+02 0.  0.
          5    1    3    3  502    0 -0.28507361281E+01  0.74360877989E+02 -0.10924535945E+03  0.13224858348E+03  0.41800000000E+01 0.  1.
         -5    1    3    3    0  502  0.15125621029E+02  0.47138989525E+02 -0.47493374035E+03  0.47752528610E+03  0.41800000000E+01 0.  1.
        -11    1    4    4    0    0 -0.31128108696E+02 -0.98760289123E+02 -0.45351413551E+03  0.46518558121E+03  0.00000000000E+00 0. -1.
         11    1    4    4    0    0  0.18853223795E+02 -0.22739578391E+02 -0.33249729684E+02  0.44475577533E+02  0.00000000000E+00 0.  1.
</event>
<event>
 8    1  0.7262913E-009  0.1512455E+03  0.7561462E-02  0.1198951E+00
         -2   -1    0    0    0  501 -0.00000000000E+00  0.00000000000E+00  0.47757344681E+03  0.47757344681E+03  0.00000000000E+00 0.  1.
          2   -1    0    0  501    0  0.00000000000E+00 -0.00000000000E+00 -0.78306056776E+02  0.78306056776E+02  0.00000000000E+00 0. -1.
         25    2    1    2    0    0 -0.10466879287E+03  0.20135113962E+02  0.38015348537E+03  0.41415779831E+03  0.12509608486E+03 0.  0.
         23    2    1    2    0    0  0.10466879287E+03 -0.20135113962E+02  0.19113904663E+02  0.14172170527E+03  0.91426043214E+02 0.  0.
          5    1    3    3  502    0 -0.24821469755E+01  0.54949959436E+02  0.15248178507E+03  0.16215371187E+03  0.41800000000E+01 0.  1.
         -5    1    3    3    0  502 -0.10218664590E+03 -0.34814845474E+02  0.22767170030E+03  0.25200408644E+03  0.41800000000E+01 0.  1.
        -11    1    4    4    0    0 -0.16470843490E+02  0.11083565510E+00  0.82514336539E+01  0.18422462571E+02  0.00000000000E+00 0.  1.
         11    1    4    4    0    0  0.12113963636E+03 -0.20245949617E+02  0.10862471009E+02  0.12329924270E+03  0.00000000000E+00 0. -1.
</event>
<event>
 8    1  0.7262913E-009  0.1071028E+03  0.7561462E-02  0.1266031E+00
         -2   -1    0    0    0  501 -0.00000000000E+00  0.00000000000E+00  0.15707040709E+03  0.15707040709E+03  0.00000000000E+00 0.  1.
          2   -1    0    0  501    0  0.00000000000E+00 -0.00000000000E+00 -0.10028378914E+03  0.10028378914E+03  0.00000000000E+00 0. -1.
         25    2    1    2    0    0 -0.31572413059E+02 -0.28271918146E+02 -0.16466909573E+02  0.13309655048E+03  0.12508962394E+03 0.  0.
         23    2    1    2    0    0  0.31572413059E+02  0.28271918146E+02  0.73253527519E+02  0.12425764574E+03  0.90982221394E+02 0.  0.
          5    1    3    3  502    0  0.29843598317E+02  0.21757876473E+02 -0.35632321292E+02  0.51489613222E+02  0.41800000000E+01 0.  1.
         -5    1    3    3    0  502 -0.61416011377E+02 -0.50029794619E+02  0.19165411719E+02  0.81606937263E+02  0.41800000000E+01 0.  1.
        -11    1    4    4    0    0  0.43040038450E+02 -0.20455495946E+02  0.49967530209E+02  0.69047999966E+02  0.00000000000E+00 0. -1.
         11    1    4    4    0    0 -0.11467625391E+02  0.48727414092E+02  0.23285997310E+02  0.55209645778E+02  0.00000000000E+00 0.  1.
</event>
<event>
 8    1  0.7262913E-009  0.1014598E+03  0.7561462E-02  0.1277256E+00
          2   -1    0    0  501    0  0.00000000000E+00  0.00000000000E+00  0.12713713446E+03  0.12713713446E+03  0.00000000000E+00 0. -1.
         -2   -1    0    0    0  501 -0.00000000000E+00 -0.00000000000E+00 -0.98081278690E+02  0.98081278690E+02  0.00000000000E+00 0.  1.
         25    2    1    2    0    0 -0.17241523244E-02  0.97898435012E+01 -0.63567975345E+01  0.12563187553E+03  0.12508844166E+03 0.  0.
         23    2    1    2    0    0  0.17241523244E-02 -0.97898435012E+01  0.35412653301E+02  0.99586537615E+02  0.92561230661E+02 0.  0.
          5    1    3    3  502    0  0.50043763384E+02  0.26853949773E+02  0.26949301501E+02  0.63001985076E+02  0.41800000000E+01 0. -1.
         -5    1    3    3    0  502 -0.50045487537E+02 -0.17064106272E+02 -0.33306099036E+02  0.62629890457E+02  0.41800000000E+01 0. -1.
        -11    1    4    4    0    0 -0.31607132253E+02 -0.38789457113E+02  0.21831009478E+02  0.54591444084E+02  0.00000000000E+00 0. -1.
         11    1    4    4    0    0  0.31608856405E+02  0.28999613612E+02  0.13581643823E+02  0.44995093531E+02  0.00000000000E+00 0.  1.
</event>
<event>
 8    1  0.7262913E-009  0.1212129E+03  0.7561462E-02  0.1241109E+00
          1   -1    0    0  501    0  0.00000000000E+00  0.00000000000E+00  0.44934155566E+03  0.44934155566E+03  0.00000000000E+00 0. -1.
         -1   -1    0    0    0  501 -0.00000000000E+00 -0.00000000000E+00 -0.51169082559E+02  0.51169082559E+02  0.00000000000E+00 0.  1.
         25    2    1    2    0    0 -0.63786455989E+02 -0.65073089672E+02  0.30460702248E+03  0.34166764355E+03  0.12509245198E+03 0.  0.
         23    2    1    2    0    0  0.63786455989E+02  0.65073089672E+02  0.93565450625E+02  0.15884299467E+03  0.90406772077E+02 0.  0.
          5    1    3    3  502    0  0.33797087174E+02 -0.22536944908E+02  0.43505179530E+02  0.59668501181E+02  0.41800000000E+01 0. -1.
         -5    1    3    3    0  502 -0.97583543163E+02 -0.42536144764E+02  0.26110184295E+03  0.28199914237E+03  0.41800000000E+01 0. -1.
        -11    1    4    4    0    0  0.34301754764E+02  0.16100504516E+02  0.94349336281E+02  0.10167415543E+03  0.00000000000E+00 0.  1.
         11    1    4    4    0    0  0.29484701225E+02  0.48972585156E+02 -0.78388565639E+00  0.57168839238E+02  0.00000000000E+00 0. -1.
</event>
<event>
 8    1  0.7262913E-009  0.1041751E+03  0.7561462E-02  0.1271753E+00
          2   -1    0    0  501    0  0.00000000000E+00  0.00000000000E+00  0.30964905499E+03  0.30964905499E+03  0.00000000000E+00 0.  1.
         -2   -1    0    0    0  501 -0.00000000000E+00 -0.00000000000E+00 -0.63960922332E+02  0.63960922332E+02  0.00000000000E+00 0. -1.
         25    2    1    2    0    0  0.14946398469E+02  0.28526259872E+02  0.20996961386E+02  0.13086174042E+03  0.12508709122E+03 0.  0.
         23    2    1    2    0    0 -0.14946398469E+02 -0.28526259872E+02  0.22469117127E+03  0.24274823690E+03  0.86043255062E+02 0.  0.
          5    1    3    3  502    0  0.44210001470E+02  0.60024488697E+02 -0.13129393688E+02  0.75811060222E+02  0.41800000000E+01 0.  1.
         -5    1    3    3    0  502 -0.29263603001E+02 -0.31498228824E+02  0.34126355074E+02  0.55050680199E+02  0.41800000000E+01 0.  1.
        -11    1    4    4    0    0  0.22374969521E+02  0.19489887122E+02  0.94589326883E+02  0.99134432571E+02  0.00000000000E+00 0. -1.
         11    1    4    4    0    0 -0.37321367990E+02 -0.48016146994E+02  0.13010184439E+03  0.14361380433E+03  0.00000000000E+00 0.  1.
</event>
<event>
 8    1  0.7262913E-009  0.2012589E+03  0.7561462E-02  0.1148681E+00
          2   -1    0    0  501    0  0.00000000000E+00  0.00000000000E+00  0.13593202276E+04  0.13593202276E+04  0.00000000000E+00 0. -1.
         -2   -1    0    0    0  501 -0.00000000000E+00 -0.00000000000E+00 -0.33539796184E+02  0.33539796184E+02  0.00000000000E+00 0.  1.
         25    2    1    2    0    0  0.17908726131E+03 -0.11895856694E+02  0.56749561654E+03  0.60820441745E+03  0.12509028760E+03 0.  0.
         23    2    1    2    0    0 -0.17908726131E+03  0.11895856694E+02  0.75828481483E+03  0.78465560629E+03  0.92058685070E+02 0.  0.
          5    1    3    3  502    0  0.14569497020E+03 -0.60939774737E+02  0.38105435305E+03  0.41250523981E+03  0.41800000000E+01 0.  1.
         -5    1    3    3    0  502  0.33392291112E+02  0.49043918043E+02  0.18644126348E+03  0.19569917765E+03  0.41800000000E+01 0.  1.
        -11    1    4    4    0    0 -0.16000648422E+03 -0.42477969071E+01  0.72800226890E+03  0.74539078496E+03  0.00000000000E+00 0. -1.
         11    1    4    4    0    0 -0.19080777087E+02  0.16143653601E+02  0.30282545933E+02  0.39264821329E+02  0.00000000000E+00 0.  1.
</event>
<event>
 8    1  0.7262913E-009  0.2145388E+03  0.7561462E-02  0.1138021E+00
         -2   -1    0    0    0  501 -0.00000000000E+00  0.00000000000E+00  0.37428016600E+02  0.37428016600E+02  0.00000000000E+00 0.  1.
          2   -1    0    0  501    0  0.00000000000E+00 -0.00000000000E+00 -0.12600673982E+04  0.12600673982E+04  0.00000000000E+00 0. -1.
         25    2    1    2    0    0  0.68035432364E+02  0.17371167211E+03 -0.56621952127E+03  0.60914436590E+03  0.12509095555E+03 0.  0.
         23    2    1    2    0    0 -0.68035432364E+02 -0.17371167211E+03 -0.65641986036E+03  0.68835104893E+03  0.90197385766E+02 0.  0.
          5    1    3    3  502    0  0.13721243865E+02 -0.17800675680E+02 -0.92475878193E+02  0.95259629620E+02  0.41800000000E+01 0.  1.
         -5    1    3    3    0  502  0.54314188499E+02  0.19151234779E+03 -0.47374364308E+03  0.51388473628E+03  0.41800000000E+01 0.  1.
        -11    1    4    4    0    0 -0.83511020668E+02 -0.93280532328E+02 -0.38566384811E+03  0.40547743714E+03  0.00000000000E+00 0. -1.
         11    1    4    4    0    0  0.15475588304E+02 -0.80431139782E+02 -0.27075601225E+03  0.28287361179E+03  0.00000000000E+00 0.  1.
</event>
<event>
 8    1  0.7262913E-009  0.2097201E+03  0.7561462E-02  0.1141788E+00
          1   -1    0    0  501    0  0.00000000000E+00  0.00000000000E+00  0.38749109563E+03  0.38749109563E+03  0.00000000000E+00 0. -1.
         -1   -1    0    0    0  501 -0.00000000000E+00 -0.00000000000E+00 -0.13128483971E+03  0.13128483971E+03  0.00000000000E+00 0.  1.
         25    2    1    2    0    0 -0.15113553392E+03 -0.10039122907E+03  0.22102159298E+03  0.31212049504E+03  0.12509320673E+03 0.  0.
         23    2    1    2    0    0  0.15113553392E+03  0.10039122907E+03  0.35184662936E+02  0.20665544030E+03  0.92456270825E+02 0.  0.
          5    1    3    3  502    0 -0.76887719274E+02 -0.11657551861E+03  0.17200323860E+03  0.22159458342E+03  0.41800000000E+01 0. -1.
         -5    1    3    3    0  502 -0.74247814644E+02  0.16184289538E+02  0.49018354387E+02  0.90525911617E+02  0.41800000000E+01 0. -1.
        -11    1    4    4    0    0  0.67440829265E+02 -0.66255147416E+01  0.12881070129E+02  0.68978872600E+02  0.00000000000E+00 0.  1.
         11    1    4    4    0    0  0.83694704653E+02  0.10701674381E+03  0.22303592808E+02  0.13767656770E+03  0.00000000000E+00 0. -1.
</event>
<event>
 8    1  0.7262913E-009  0.1806843E+03  0.7561462E-02  0.1167142E+00
          4   -1    0    0  501    0  0.00000000000E+00  0.00000000000E+00  0.27363185595E+02  0.27363185595E+02  0.00000000000E+00 0. -1.
         -4   -1    0    0    0  501 -0.00000000000E+00 -0.00000000000E+00 -0.13447502859E+04  0.13447502859E+04  0.00000000000E+00 0.  1.
         25    2    1    2    0    0 -0.14729143028E+03 -0.50556149218E+02 -0.57603620446E+03  0.60968561926E+03  0.12509258901E+03 0.  0.
         23    2    1    2    0    0  0.14729143028E+03  0.50556149218E+02 -0.74135089589E+03  0.76242785228E+03  0.86280875263E+02 0.  0.
          5    1    3    3  502    0 -0.59870346904E+02 -0.72877931271E+02 -0.17753581180E+03  0.20107731890E+03  0.41800000000E+01 0.  1.
         -5    1    3    3    0  502 -0.87421083376E+02  0.22321782053E+02 -0.39850039265E+03  0.40860830035E+03  0.41800000000E+01 0.  1.
        -11    1    4    4    0    0  0.99298012982E+02  0.73402408159E+02 -0.47221137306E+03  0.48808973535E+03  0.00000000000E+00 0.  1.
         11    1    4    4    0    0  0.47993417299E+02 -0.22846258942E+02 -0.26913952283E+03  0.27433811693E+03  0.00000000000E+00 0. -1.
</event>
<event>
 8    1  0.7262913E-009  0.1204913E+03  0.7561462E-02  0.1242289E+00
         -2   -1    0    0    0  501 -0.00000000000E+00  0.00000000000E+00  0.22307501692E+02  0.22307501692E+02  0.00000000000E+00 0.  1.
          2   -1    0    0  501    0  0.00000000000E+00 -0.00000000000E+00 -0.71859910449E+03  0.71859910449E+03  0.00000000000E+00 0. -1.
         25    2    1    2    0    0  0.31022050756E+02 -0.62349833869E+02 -0.37135041603E+03  0.39798807934E+03  0.12507401969E+03 0.  0.
         23    2    1    2    0    0 -0.31022050756E+02  0.62349833869E+02 -0.32494118678E+03  0.34291852684E+03  0.84595932361E+02 0.  0.
          5    1    3    3  502    0  0.70538314564E+02 -0.19349503718E+01 -0.17431655728E+03  0.18810404673E+03  0.41800000000E+01 0. -1.
         -5    1    3    3    0  502 -0.39516263809E+02 -0.60414883497E+02 -0.19703385875E+03  0.20988403261E+03  0.41800000000E+01 0. -1.
        -11    1    4    4    0    0 -0.44722408639E+02  0.12719571405E+02 -0.79182742907E+02  0.91824768475E+02  0.00000000000E+00 0.  1.
         11    1    4    4    0    0  0.13700357883E+02  0.49630262464E+02 -0.24575844387E+03  0.25109375837E+03  0.00000000000E+00 0. -1.
</event>
<event>
 8    1  0.7262913E-009  0.1251652E+03  0.7561462E-02  0.1234811E+00
          1   -1    0    0  501    0  0.00000000000E+00  0.00000000000E+00  0.32788948563E+03  0.32788948563E+03  0.00000000000E+00 0. -1.
         -1   -1    0    0    0  501 -0.00000000000E+00 -0.00000000000E+00 -0.64793888865E+02  0.64793888865E+02  0.00000000000E+00 0.  1.
         25    2    1    2    0    0  0.65808552046E+02  0.62759414431E+02  0.18452324812E+03  0.24075897685E+03  0.12508615516E+03 0.  0.
         23    2    1    2    0    0 -0.65808552046E+02 -0.62759414431E+02  0.78572348645E+02  0.15192439765E+03  0.92940298081E+02 0.  0.
          5    1    3    3  502    0  0.82295660796E+02  0.98492938093E+01  0.15952244562E+03  0.17981787294E+03  0.41800000000E+01 0.  1.
         -5    1    3    3    0  502 -0.16487108750E+02  0.52910120622E+02  0.25000802505E+02  0.60941103904E+02  0.41800000000E+01 0.  1.
        -11    1    4    4    0    0 -0.66969173560E+02 -0.21278886574E+02  0.88991243653E+01  0.70829765181E+02  0.00000000000E+00 0.  1.
         11    1    4    4    0    0  0.11606215142E+01 -0.41480527857E+02  0.69673224279E+02  0.81094632468E+02  0.00000000000E+00 0. -1.
</event>
<event>
 8    1  0.7262913E-009  0.1065645E+03  0.7561462E-02  0.1267067E+00
          2   -1    0    0  501    0  0.00000000000E+00  0.00000000000E+00  0.50502313387E+03  0.50502313387E+03  0.00000000000E+00 0. -1.
         -2   -1    0    0    0  501 -0.00000000000E+00 -0.00000000000E+00 -0.27299847711E+02  0.27299847711E+02  0.00000000000E+00 0.  1.
         25    2    1    2    0    0  0.14688863214E+02  0.25837633104E+02  0.35339650361E+03  0.37605815176E+03  0.12508916323E+03 0.  0.
         23    2    1    2    0    0 -0.14688863214E+02 -0.25837633104E+02  0.12432678255E+03  0.15626482982E+03  0.89878819488E+02 0.  0.
          5    1    3    3  502    0 -0.44236565521E+02 -0.17134101203E+02  0.80291209717E+02  0.93352032174E+02  0.41800000000E+01 0. -1.
         -5    1    3    3    0  502  0.58925428735E+02  0.42971734307E+02  0.27310529389E+03  0.28270611959E+03  0.41800000000E+01 0. -1.
        -11    1    4    4    0    0 -0.93876122007E+01 -0.58559969782E+02  0.62813725443E+02  0.86388433414E+02  0.00000000000E+00 0.  1.
         11    1    4    4    0    0 -0.53012510136E+01  0.32722336678E+02  0.61513057111E+02  0.69876396410E+02  0.00000000000E+00 0. -1.
</event>
<event>
 8    1  0.7262913E-009  0.9506710E+02  0.7561462E-02  0.1291025E+00
         -1   -1    0    0    0  501 -0.00000000000E+00  0.00000000000E+00  0.55782189410E+02  0.55782189410E+02  0.00000000000E+00 0.  1.
          1   -1    0    0  501    0  0.00000000000E+00 -0.00000000000E+00 -0.25066411496E+03  0.25066411496E+03  0.00000000000E+00 0. -1.
         25    2    1    2    0    0  0.41848944336E+02 -0.22136916849E+02 -0.10780242185E+03  0.17178695467E+03  0.12509203974E+03 0.  0.
         23    2    1    2    0    0 -0.41848944336E+02  0.22136916849E+02 -0.87079503703E+02  0.13465934971E+03  0.91153295435E+02 0.  0.
          5    1    3    3  502    0  0.65281014913E+02 -0.10199146042E+02 -0.59050821533E+01  0.66467856015E+02  0.41800000000E+01 0.  1.
         -5    1    3    3    0  502 -0.23432070577E+02 -0.11937770806E+02 -0.10189733970E+03  0.10531909865E+03  0.41800000000E+01 0.  1.
        -11    1    4    4    0    0 -0.62143201024E+02 -0.61945499174E+01 -0.33846772368E+02  0.71033470153E+02  0.00000000000E+00 0.  1.
         11    1    4    4    0    0  0.20294256688E+02  0.28331466766E+02 -0.53232731334E+02  0.63625879554E+02  0.00000000000E+00 0. -1.
</event>
<event>
 8    1  0.7262913E-009  0.1142884E+03  0.7561462E-02  0.1252828E+00
         -1   -1    0    0    0  501 -0.00000000000E+00  0.00000000000E+00  0.22317766022E+02  0.22317766022E+02  0.00000000000E+00 0.  1.
          1   -1    0    0  501    0  0.00000000000E+00 -0.00000000000E+00 -0.89662733855E+03  0.89662733855E+03  0.00000000000E+00 0. -1.
         25    2    1    2    0    0 -0.80763690643E+02 -0.36934195568E+02 -0.51774698733E+03  0.53999806338E+03  0.12509619112E+03 0.  0.
         23    2    1    2    0    0  0.80763690643E+02  0.36934195568E+02 -0.35656258520E+03  0.37894704120E+03  0.92612495593E+02 0.  0.
          5    1    3    3  502    0 -0.66742312622E+02 -0.72416612389E+01 -0.97510502245E+02  0.11845990208E+03  0.41800000000E+01 0. -1.
         -5    1    3    3    0  502 -0.14021378021E+02 -0.29692534329E+02 -0.42023648509E+03  0.42153816130E+03  0.41800000000E+01 0. -1.
        -11    1    4    4    0    0  0.28295319883E+02  0.63413421950E+02 -0.20057654557E+03  0.21225653781E+03  0.00000000000E+00 0.  1.
         11    1    4    4    0    0  0.52468370761E+02 -0.26479226382E+02 -0.15598603963E+03  0.16669050338E+03  0.00000000000E+00 0. -1.
</event>
<event>
 8    1  0.7262913E-009  0.2671279E+03  0.7561462E-02  0.1102935E+00
          2   -1    0    0  501    0  0.00000000000E+00  0.00000000000E+00  0.20272022517E+04  0.20272022517E+04  0.00000000000E+00 0. -1.
         -2   -1    0    0    0  501 -0.00000000000E+00 -0.00000000000E+00 -0.41749176136E+02  0.41749176136E+02  0.00000000000E+00 0.  1.
         25    2    1    2    0    0 -0.24540121760E+03 -0.72921613359E+02  0.13171231884E+04  0.13475904741E+04  0.12508906060E+03 0.  0.
         23    2    1    2    0    0  0.24540121760E+03  0.72921613359E+02  0.66832988715E+03  0.72136095376E+03  0.90318703753E+02 0.  0.
          5    1    3    3  502    0 -0.19373948200E+02 -0.24810074292E+02  0.47736866859E+02  0.57333851368E+02  0.41800000000E+01 0.  1.
         -5    1    3    3    0  502 -0.22602726940E+03 -0.48111539067E+02  0.12693863216E+04  0.12902566227E+04  0.41800000000E+01 0.  1.
        -11    1    4    4    0    0  0.23195174018E+03  0.39427646034E+02  0.57263487965E+03  0.61908549849E+03  0.00000000000E+00 0.  1.
         11    1    4    4    0    0  0.13449477428E+02  0.33493967325E+02  0.95695007501E+02  0.10227545527E+03  0.00000000000E+00 0. -1.
</event>
<event>
 8    1  0.7262913E-009  0.1520464E+03  0.7561462E-02  0.1197981E+00
          1   -1    0    0  501    0  0.00000000000E+00  0.00000000000E+00  0.31671205151E+03  0.31671205151E+03  0.00000000000E+00 0. -1.
         -1   -1    0    0    0  501 -0.00000000000E+00 -0.00000000000E+00 -0.10473925114E+03  0.10473925114E+03  0.00000000000E+00 0.  1.
         25    2    1    2    0    0  0.30470243715E+01  0.14116940594E+03  0.71590510780E+02  0.20176922765E+03  0.12509010537E+03 0.  0.
         23    2    1    2    0    0 -0.30470243715E+01 -0.14116940594E+03  0.14038228960E+03  0.21968207499E+03  0.92816708136E+02 0.  0.
          5    1    3    3  502    0  0.41364919294E+02  0.72888228671E+02 -0.14684224268E+02  0.85187142629E+02  0.41800000000E+01 0. -1.
         -5    1    3    3    0  502 -0.38317894923E+02  0.68281177274E+02  0.86274735048E+02  0.11658208502E+03  0.41800000000E+01 0. -1.
        -11    1    4    4    0    0  0.44358168329E+01 -0.27455291678E+02 -0.11249648115E+02  0.30000401577E+02  0.00000000000E+00 0.  1.
         11    1    4    4    0    0 -0.74828412044E+01 -0.11371411427E+03  0.15163193771E+03  0.18968167342E+03  0.00000000000E+00 0. -1.
</event>
<event>
 8    1  0.7262913E-009  0.1800254E+03  0.7561462E-02  0.1167779E+00
         -2   -1    0    0    0  501 -0.00000000000E+00  0.00000000000E+00  0.27949216714E+02  0.27949216714E+02  0.00000000000E+00 0.  1.
          2   -1    0    0  501    0  0.00000000000E+00 -0.00000000000E+00 -0.12287383135E+04  0.12287383135E+04  0.00000000000E+00 0. -1.
         25    2    1    2    0    0  0.13991677331E+03  0.54105925460E+02 -0.60455028208E+03  0.63532091915E+03  0.12508985619E+03 0.  0.
         23    2    1    2    0    0 -0.13991677331E+03 -0.54105925460E+02 -0.59623881469E+03  0.62136661105E+03  0.89953246519E+02 0.  0.
          5    1    3    3  502    0  0.42688015768E+02 -0.35315153722E+02 -0.26906880029E+03  0.27474518824E+03  0.41800000000E+01 0.  1.
         -5    1    3    3    0  502  0.97228757543E+02  0.89421079182E+02 -0.33548148179E+03  0.36057573091E+03  0.41800000000E+01 0.  1.
        -11    1    4    4    0    0 -0.12277220263E+03 -0.78797158101E+01 -0.37361794964E+03  0.39335159330E+03  0.00000000000E+00 0.  1.
         11    1    4    4    0    0 -0.17144570681E+02 -0.46226209650E+02 -0.22262086505E+03  0.22801501775E+03  0.00000000000E+00 0. -1.
</event>
<event>
 8    1  0.7262913E-009  0.8130194E+02  0.7561462E-02  0.1325397E+00
          2   -1    0    0  501    0  0.00000000000E+00  0.00000000000E+00  0.23658704516E+03  0.23658704516E+03  0.00000000000E+00 0. -1.
         -2   -1    0    0    0  501 -0.00000000000E+00 -0.00000000000E+00 -0.69685810072E+02  0.69685810072E+02  0.00000000000E+00 0.  1.
         25    2    1    2    0    0  0.62388086529E+02  0.10469168745E+02  0.60042469877E+02  0.15249056495E+03  0.12508556021E+03 0.  0.
         23    2    1    2    0    0 -0.62388086529E+02 -0.10469168745E+02  0.10685876521E+03  0.15378229029E+03  0.90710089121E+02 0.  0.
          5    1    3    3  502    0  0.52617843265E+02  0.94537043081E+01  0.98732529228E+02  0.11235477152E+03  0.41800000000E+01 0.  1.
         -5    1    3    3    0  502  0.97702432639E+01  0.10154644372E+01 -0.38690059352E+02  0.40135793428E+02  0.41800000000E+01 0.  1.
        -11    1    4    4    0    0  0.10232833422E+02 -0.22478341727E+02  0.83461868358E+00  0.24712007506E+02  0.00000000000E+00 0.  1.
         11    1    4    4    0    0 -0.72620919951E+02  0.12009172981E+02  0.10602414653E+03  0.12907028278E+03  0.00000000000E+00 0. -1.
</event>
<event>
 8    1  0.7262913E-009  0.1129017E+03  0.7561462E-02  0.1255289E+00
         -3   -1    0    0    0  501 -0.00000000000E+00  0.00000000000E+00  0.96523836615E+02  0.96523836615E+02  0.00000000000E+00 0.  1.
          3   -1    0    0  501    0  0.00000000000E+00 -0.00000000000E+00 -0.24207891626E+03  0.24207891626E+03  0.00000000000E+00 0. -1.
         25    2    1    2    0    0 -0.61099927147E+02 -0.35930605202E+02  0.15632562162E+02  0.14462418481E+03  0.12509024081E+03 0.  0.
         23    2    1    2    0    0  0.61099927147E+02  0.35930605202E+02 -0.16118764181E+03  0.19397856806E+03  0.81375791904E+02 0.  0.
          5    1    3    3  502    0 -0.49556280483E+02 -0.70088877794E+02  0.45839772628E+02  0.97401400813E+02  0.41800000000E+01 0.  1.
         -5    1    3    3    0  502 -0.11543646664E+02  0.34158272592E+02 -0.30207210466E+02  0.47222784002E+02  0.41800000000E+01 0.  1.
        -11    1    4    4    0    0  0.34085709044E+02  0.58935946579E+02 -0.77965834767E+02  0.10350822552E+03  0.00000000000E+00 0.  1.
         11    1    4    4    0    0  0.27014218104E+02 -0.23005341378E+02 -0.83221807044E+02  0.90470342540E+02  0.00000000000E+00 0. -1.
</event>
<event>
 8    1  0.7262913E-009  0.2578969E+03  0.7561462E-02  0.1108413E+00
          1   -1    0    0  501    0  0.00000000000E+00  0.00000000000E+00  0.11179928356E+04  0.11179928356E+04  0.00000000000E+00 0. -1.
         -1   -1    0    0    0  501 -0.00000000000E+00 -0.00000000000E+00 -0.65960424347E+02  0.65960424347E+02  0.00000000000E+00 0.  1.
         25    2    1    2    0    0  0.12073861471E+03 -0.20764428909E+03  0.39800221702E+03  0.48140060756E+03  0.12508723488E+03 0.  0.
         23    2    1    2    0    0 -0.12073861471E+03  0.20764428909E+03  0.65403019424E+03  0.70255265240E+03  0.90170785426E+02 0.  0.
          5    1    3    3  502    0  0.15231336564E+02  0.11461322956E+02  0.72408939831E+02  0.74992549662E+02  0.41800000000E+01 0. -1.
         -5    1    3    3    0  502  0.10550727815E+03 -0.21910561204E+03  0.32559327719E+03  0.40640805790E+03  0.41800000000E+01 0. -1.
        -11    1    4    4    0    0 -0.12015481687E+03  0.13625480050E+03  0.51790099616E+03  0.54883876731E+03  0.00000000000E+00 0.  1.
         11    1    4    4    0    0 -0.58379784252E+00  0.71389488584E+02  0.13612919808E+03  0.15371388509E+03  0.00000000000E+00 0. -1.
</event>
<event>
 8    1  0.7262913E-009  0.1302313E+03  0.7561462E-02  0.1227113E+00
         -1   -1    0    0    0  501 -0.00000000000E+00  0.00000000000E+00  0.10345484189E+03  0.10345484189E+03  0.00000000000E+00 0.  1.
          1   -1    0    0  501    0  0.00000000000E+00 -0.00000000000E+00 -0.34297980299E+03  0.34297980299E+03  0.00000000000E+00 0. -1.
         25    2    1    2    0    0  0.71495782730E+02  0.81438858429E+02 -0.25582586088E+03  0.30469390569E+03  0.12509024926E+03 0.  0.
         23    2    1    2    0    0 -0.71495782730E+02 -0.81438858429E+02  0.16300899777E+02  0.14174073919E+03  0.89893176620E+02 0.  0.
          5    1    3    3  502    0  0.75143209894E+02  0.38668167838E+02 -0.24643285897E+03  0.26055393986E+03  0.41800000000E+01 0. -1.
         -5    1    3    3    0  502 -0.36474271640E+01  0.42770690590E+02 -0.93930019082E+01  0.44139965829E+02  0.41800000000E+01 0. -1.
        -11    1    4    4    0    0  0.16012630606E+02 -0.20830579686E+02 -0.15674684975E+02  0.30594331796E+02  0.00000000000E+00 0. -1.
         11    1    4    4    0    0 -0.87508413336E+02 -0.60608278743E+02  0.31975584753E+02  0.11114640740E+03  0.00000000000E+00 0.  1.
</event>
<event>
 8    1  0.7262913E-009  0.9462997E+02  0.7561462E-02  0.1292012E+00
         -3   -1    0    0    0  501 -0.00000000000E+00  0.00000000000E+00  0.16853961652E+02  0.16853961652E+02  0.00000000000E+00 0.  1.
          3   -1    0    0  501    0  0.00000000000E+00 -0.00000000000E+00 -0.10358877694E+04  0.10358877694E+04  0.00000000000E+00 0. -1.
         25    2    1    2    0    0  0.18635628041E+02  0.28559692550E+02 -0.82994661186E+03  0.84001302388E+03  0.12509020382E+03 0.  0.
         23    2    1    2    0    0 -0.18635628041E+02 -0.28559692550E+02 -0.18908719585E+03  0.21272870712E+03  0.91304942526E+02 0.  0.
          5    1    3    3  502    0 -0.53310998964E+02  0.17588220623E+02 -0.32679942638E+03  0.33161234235E+03  0.41800000000E+01 0.  1.
         -5    1    3    3    0  502  0.71946627006E+02  0.10971471927E+02 -0.50314718547E+03  0.50840068153E+03  0.41800000000E+01 0.  1.
        -11    1    4    4    0    0 -0.35486375732E+02 -0.15379574234E+02 -0.18731082642E+03  0.19126201886E+03  0.00000000000E+00 0. -1.
         11    1    4    4    0    0  0.16850747690E+02 -0.13180118316E+02 -0.17763694311E+01  0.21466688261E+02  0.00000000000E+00 0.  1.
</event>
<event>
 8    1  0.7262913E-009  0.1042829E+03  0.7561462E-02  0.1271539E+00
          1   -1    0    0  501    0  0.00000000000E+00  0.00000000000E+00  0.14032071912E+04  0.14032071912E+04  0.00000000000E+00 0. -1.
         -1   -1    0    0    0  501 -0.00000000000E+00 -0.00000000000E+00 -0.95711921721E+01  0.95711921721E+01  0.00000000000E+00 0.  1.
         25    2    1    2    0    0 -0.43663019260E+01  0.33050275853E+01  0.10399555951E+04  0.10474655286E+04  0.12508559475E+03 0.  0.
         23    2    1    2    0    0  0.43663019260E+01 -0.33050275853E+01  0.35368040400E+03  0.36531285485E+03  0.91288914688E+02 0.  0.
          5    1    3    3  502    0 -0.55616748832E+02  0.33959545622E+02  0.55606235700E+03  0.55988328316E+03  0.41800000000E+01 0. -1.
         -5    1    3    3    0  502  0.51250446906E+02 -0.30654518037E+02  0.48389323807E+03  0.48758224540E+03  0.41800000000E+01 0. -1.
        -11    1    4    4    0    0 -0.33485377991E+02 -0.23106522414E+02  0.98334252685E+02  0.10641807726E+03  0.00000000000E+00 0.  1.
         11    1    4    4    0    0  0.37851679917E+02  0.19801494829E+02  0.25534615132E+03  0.25889477759E+03  0.00000000000E+00 0. -1.
</event>
<event>
 8    1  0.7262913E-009  0.1357509E+03  0.7561462E-02  0.1219163E+00
         -3   -1    0    0    0  501 -0.00000000000E+00  0.00000000000E+00  0.26696391451E+03  0.26696391451E+03  0.00000000000E+00 0.  1.
          3   -1    0    0  501    0  0.00000000000E+00 -0.00000000000E+00 -0.92779050551E+02  0.92779050551E+02  0.00000000000E+00 0. -1.
         25    2    1    2    0    0  0.69145235628E+02  0.84662574609E+02  0.12860788140E+03  0.21008411546E+03  0.12508610338E+03 0.  0.
         23    2    1    2    0    0 -0.69145235628E+02 -0.84662574609E+02  0.45576982557E+02  0.14965884960E+03  0.91496965941E+02 0.  0.
          5    1    3    3  502    0  0.74141547278E+02  0.94963804689E+02  0.49953590819E+02  0.13049109881E+03  0.41800000000E+01 0.  1.
         -5    1    3    3    0  502 -0.49963116498E+01 -0.10301230079E+02  0.78654290583E+02  0.79593016643E+02  0.41800000000E+01 0.  1.
        -11    1    4    4    0    0  0.14647047441E+02  0.55275701240E+01  0.17326655893E+02  0.23351724447E+02  0.00000000000E+00 0.  1.
         11    1    4    4    0    0 -0.83792283069E+02 -0.90190144733E+02  0.28250326664E+02  0.12630712516E+03  0.00000000000E+00 0. -1.
</event>
<event>
 8    1  0.7262913E-009  0.9213622E+02  0.7561462E-02  0.1297759E+00
         -2   -1    0    0    0  501 -0.00000000000E+00  0.00000000000E+00  0.87677246582E+02  0.87677246582E+02  0.00000000000E+00 0.  1.
          2   -1    0    0  501    0  0.00000000000E+00 -0.00000000000E+00 -0.21060906697E+03  0.21060906697E+03  0.00000000000E+00 0. -1.
         25    2    1    2    0    0  0.64476428285E+02 -0.23578132383E+02 -0.18488577026E+02  0.14388273509E+03  0.12508907165E+03 0.  0.
         23    2    1    2    0    0 -0.64476428285E+02  0.23578132383E+02 -0.10444324337E+03  0.15440357846E+03  0.90658346702E+02 0.  0.
          5    1    3    3  502    0  0.51060849077E+02  0.12410104140E+02 -0.64825554114E+02  0.83552653216E+02  0.41800000000E+01 0.  1.
         -5    1    3    3    0  502  0.13415579207E+02 -0.35988236523E+02  0.46336977088E+02  0.60330081876E+02  0.41800000000E+01 0.  1.
        -11    1    4    4    0    0 -0.76749152457E+02  0.24637107090E+02 -0.11343122076E+03  0.13915481052E+03  0.00000000000E+00 0. -1.
         11    1    4    4    0    0  0.12272724173E+02 -0.10589747073E+01  0.89879773947E+01  0.15248767940E+02  0.00000000000E+00 0.  1.
</event>
<event>
 8    1  0.7262913E-009  0.1128688E+03  0.7561462E-02  0.1255348E+00
          1   -1    0    0  501    0  0.00000000000E+00  0.00000000000E+00  0.32234647003E+02  0.32234647003E+02  0.00000000000E+00 0. -1.
         -1   -1    0    0    0  501 -0.00000000000E+00 -0.00000000000E+00 -0.47079435324E+03  0.47079435324E+03  0.00000000000E+00 0.  1.
         25    2    1    2    0    0 -0.42882335741E+02  0.11268457524E+02 -0.17583485700E+03  0.22029993449E+03  0.12509313069E+03 0.  0.
         23    2    1    2    0    0  0.42882335741E+02 -0.11268457524E+02 -0.26272484924E+03  0.28272906576E+03  0.94580681760E+02 0.  0.
          5    1    3    3  502    0 -0.18779137864E+02 -0.51201002783E+02 -0.36795134418E+02  0.65920808716E+02  0.41800000000E+01 0.  1.
         -5    1    3    3    0  502 -0.24103197878E+02  0.62469460307E+02 -0.13903972258E+03  0.15437912578E+03  0.41800000000E+01 0.  1.
        -11    1    4    4    0    0  0.21070363398E+02  0.41671501647E+02 -0.13195247524E+03  0.13997117555E+03  0.00000000000E+00 0. -1.
         11    1    4    4    0    0  0.21811972344E+02 -0.52939959170E+02 -0.13077237400E+03  0.14275789021E+03  0.00000000000E+00 0.  1.
</event>
<event>
 8    1  0.7262913E-009  0.1033665E+03  0.7561462E-02  0.1273372E+00
         -1   -1    0    0    0  501 -0.00000000000E+00  0.00000000000E+00  0.19808039108E+03  0.19808039108E+03  0.00000000000E+00 0.  1.
          1   -1    0    0  501    0  0.00000000000E+00 -0.00000000000E+00 -0.78354890422E+02  0.78354890422E+02  0.00000000000E+00 0. -1.
         25    2    1    2    0    0 -0.52206035276E+01 -0.50885761635E+02  0.29237819435E+02  0.13827286488E+03  0.12509164496E+03 0.  0.
         23    2    1    2    0    0  0.52206035276E+01  0.50885761635E+02  0.90487681225E+02  0.13816241662E+03  0.91017676720E+02 0.  0.
          5    1    3    3  502    0  0.13178822305E+02  0.36296124617E+02  0.29987424364E+02  0.49069420615E+02  0.41800000000E+01 0.  1.
         -5    1    3    3    0  502 -0.18399425832E+02 -0.87181886252E+02 -0.74960492849E+00  0.89203444266E+02  0.41800000000E+01 0.  1.
        -11    1    4    4    0    0 -0.29643969367E+01  0.63546882417E+02  0.20901394043E+02  0.66961647135E+02  0.00000000000E+00 0. -1.
         11    1    4    4    0    0  0.81850004643E+01 -0.12661120781E+02  0.69586287182E+02  0.71200769489E+02  0.00000000000E+00 0.  1.
</event>
<event>
 8    1  0.7262913E-009  0.1021393E+03  0.7561462E-02  0.1275861E+00
         -2   -1    0    0    0  501 -0.00000000000E+00  0.00000000000E+00  0.35368547377E+03  0.35368547377E+03  0.00000000000E+00 0.  1.
          2   -1    0    0  501    0  0.00000000000E+00 -0.00000000000E+00 -0.74423777889E+02  0.74423777889E+02  0.00000000000E+00 0. -1.
         25    2    1    2    0    0 -0.70133161851E+02 -0.24136637465E+02  0.27434666153E+03  0.31051187644E+03  0.12510114731E+03 0.  0.
         23    2    1    2    0    0  0.70133161851E+02  0.24136637465E+02  0.49150343522E+01  0.11759737522E+03  0.91124900201E+02 0.  0.
          5    1    3    3  502    0 -0.24094592510E+02 -0.36110655495E+02  0.13973523037E+02  0.45795857614E+02  0.41800000000E+01 0.  1.
         -5    1    3    3    0  502 -0.46038569341E+02  0.11974018031E+02  0.26037313850E+03  0.26471601883E+03  0.41800000000E+01 0.  1.
        -11    1    4    4    0    0  0.24952742268E+02 -0.32175095356E+02  0.17489594276E+02  0.44314354511E+02  0.00000000000E+00 0.  1.
         11    1    4    4    0    0  0.45180419583E+02  0.56311732820E+02 -0.12574559924E+02  0.73283020709E+02  0.00000000000E+00 0. -1.
</event>
<event>
 8    1  0.7262913E-009  0.2198742E+03  0.7561462E-02  0.1133977E+00
          2   -1    0    0  501    0  0.00000000000E+00  0.00000000000E+00  0.17910620077E+04  0.17910620077E+04  0.00000000000E+00 0.  1.
         -2   -1    0    0    0  501 -0.00000000000E+00 -0.00000000000E+00 -0.37085834008E+02  0.37085834008E+02  0.00000000000E+00 0. -1.
         25    2    1    2    0    0 -0.16295046507E+03  0.13577049540E+03  0.12452843262E+04  0.12693958319E+04  0.12508494539E+03 0.  0.
         23    2    1    2    0    0  0.16295046507E+03 -0.13577049540E+03  0.50869184754E+03  0.55875200982E+03  0.91923507539E+02 0.  0.
          5    1    3    3  502    0 -0.16040270402E+03  0.14469714865E+03  0.12383971020E+04  0.12571042705E+04  0.41800000000E+01 0. -1.
         -5    1    3    3    0  502 -0.25477610576E+01 -0.89266532576E+01  0.68872241660E+01  0.12291561394E+02  0.41800000000E+01 0. -1.
        -11    1    4    4    0    0  0.93590517351E+02 -0.93417714234E+02  0.41060208178E+03  0.43137005440E+03  0.00000000000E+00 0.  1.
         11    1    4    4    0    0  0.69359947723E+02 -0.42352781161E+02  0.98089765760E+02  0.12738195542E+03  0.00000000000E+00 0. -1.
</event>
<event>
 8    1  0.7262913E-009  0.1462538E+03  0.7561462E-02  0.1205153E+00
         -3   -1    0    0    0  501 -0.00000000000E+00  0.00000000000E+00  0.30054855839E+03  0.30054855839E+03  0.00000000000E+00 0.  1.
          3   -1    0    0  501    0  0.00000000000E+00 -0.00000000000E+00 -0.73059666072E+02  0.73059666072E+02  0.00000000000E+00 0. -1.
         25    2    1    2    0    0  0.25950584924E+02  0.96017412806E+02  0.14523177177E+03  0.21594619480E+03  0.12509082739E+03 0.  0.
         23    2    1    2    0    0 -0.25950584924E+02 -0.96017412806E+02  0.82257120546E+02  0.15766202966E+03  0.90544493468E+02 0.  0.
          5    1    3    3  502    0  0.74451877603E+02  0.77286993212E+02  0.10342952237E+03  0.14910231352E+03  0.41800000000E+01 0. -1.
         -5    1    3    3    0  502 -0.48501292679E+02  0.18730419595E+02  0.41802249402E+02  0.66843881282E+02  0.41800000000E+01 0. -1.
        -11    1    4    4    0    0 -0.57161370259E+02 -0.78670301099E+02  0.49113046816E+02  0.10894278265E+03  0.00000000000E+00 0.  1.
         11    1    4    4    0    0  0.31210785335E+02 -0.17347111707E+02  0.33144073731E+02  0.48719247010E+02  0.00000000000E+00 0. -1.
</event>
<event>
 8    1  0.7262913E-009  0.2597696E+03  0.7561462E-02  0.1107282E+00
          2   -1    0    0  501    0  0.00000000000E+00  0.00000000000E+00  0.63648997673E+03  0.63648997673E+03  0.00000000000E+00 0.  1.
         -2   -1    0    0    0  501 -0.00000000000E+00 -0.00000000000E+00 -0.10952629831E+03  0.10952629831E+03  0.00000000000E+00 0. -1.
         25    2    1    2    0    0 -0.15200241571E+03 -0.18309756256E+03  0.32024193179E+03  0.41813256288E+03  0.12510193233E+03 0.  0.
         23    2    1    2    0    0  0.15200241571E+03  0.18309756256E+03  0.20672174664E+03  0.32788371215E+03  0.90246309437E+02 0.  0.
          5    1    3    3  502    0 -0.15011368619E+02  0.17241337012E+02  0.48404478970E+02  0.53694235017E+02  0.41800000000E+01 0.  1.
         -5    1    3    3    0  502 -0.13699104709E+03 -0.20033889957E+03  0.27183745282E+03  0.36443832786E+03  0.41800000000E+01 0.  1.
        -11    1    4    4    0    0  0.53867483820E+02  0.10295639404E+02  0.33524852298E+02  0.64277692285E+02  0.00000000000E+00 0. -1.
         11    1    4    4    0    0  0.98134931887E+02  0.17280192315E+03  0.17319689434E+03  0.26360601987E+03  0.00000000000E+00 0.  1.
</event>
<event>
 8    1  0.7262913E-009  0.1388005E+03  0.7561462E-02  0.1214952E+00
         -2   -1    0    0    0  501 -0.00000000000E+00  0.00000000000E+00  0.16342950732E+03  0.16342950732E+03  0.00000000000E+00 0.  1.
          2   -1    0    0  501    0  0.00000000000E+00 -0.00000000000E+00 -0.16818556005E+03  0.16818556005E+03  0.00000000000E+00 0. -1.
         25    2    1    2    0    0 -0.79013478659E+02  0.76203352394E+02  0.58276127323E+02  0.17633495349E+03  0.12509127899E+03 0.  0.
         23    2    1    2    0    0  0.79013478659E+02 -0.76203352394E+02 -0.63032180059E+02  0.15528011388E+03  0.89937630162E+02 0.  0.
          5    1    3    3  502    0 -0.10228524354E+03  0.19200122744E+02  0.43525150890E+02  0.11288413051E+03  0.41800000000E+01 0.  1.
         -5    1    3    3    0  502  0.23271764884E+02  0.57003229649E+02  0.14750976434E+02  0.63450822981E+02  0.41800000000E+01 0.  1.
        -11    1    4    4    0    0  0.21452128815E+02 -0.90419781929E+01 -0.62640052360E+02  0.66826097896E+02  0.00000000000E+00 0. -1.
         11    1    4    4    0    0  0.57561349843E+02 -0.67161374201E+02 -0.39212769871E+00  0.88454015988E+02  0.00000000000E+00 0.  1.
</event>
<event>
 8    1  0.7262913E-009  0.1183556E+03  0.7561462E-02  0.1245835E+00
         -1   -1    0    0    0  501 -0.00000000000E+00  0.00000000000E+00  0.12341538802E+03  0.12341538802E+03  0.00000000000E+00 0.  1.
          1   -1    0    0  501    0  0.00000000000E+00 -0.00000000000E+00 -0.13146392022E+03  0.13146392022E+03  0.00000000000E+00 0. -1.
         25    2    1    2    0    0  0.60211103538E+02  0.25034447569E+02  0.95706619418E+01  0.14139365569E+03  0.12509383576E+03 0.  0.
         23    2    1    2    0    0 -0.60211103538E+02 -0.25034447569E+02 -0.17619194151E+02  0.11348565255E+03  0.91194609365E+02 0.  0.
          5    1    3    3  502    0  0.26197707470E+01 -0.44191849706E+02 -0.16696321210E+02  0.47497603321E+02  0.41800000000E+01 0.  1.
         -5    1    3    3    0  502  0.57591332791E+02  0.69226297276E+02  0.26266983152E+02  0.93896052372E+02  0.41800000000E+01 0.  1.
        -11    1    4    4    0    0  0.19304998749E+02 -0.72156310276E+01 -0.24135302857E+02  0.31737377835E+02  0.00000000000E+00 0. -1.
         11    1    4    4    0    0 -0.79516102287E+02 -0.17818816542E+02  0.65161087061E+01  0.81748274713E+02  0.00000000000E+00 0.  1.
</event>
<event>
 8    1  0.7262913E-009  0.9838578E+02  0.7561462E-02  0.1283728E+00
         -3   -1    0    0    0  501 -0.00000000000E+00  0.00000000000E+00  0.50086898710E+02  0.50086898710E+02  0.00000000000E+00 0.  1.
          3   -1    0    0  501    0  0.00000000000E+00 -0.00000000000E+00 -0.32275040088E+03  0.32275040088E+03  0.00000000000E+00 0. -1.
         25    2    1    2    0    0 -0.50895444875E+02 -0.17486949647E+02 -0.97509034238E+02  0.16747818043E+03  0.12507913273E+03 0.  0.
         23    2    1    2    0    0  0.50895444875E+02  0.17486949647E+02 -0.17515446793E+03  0.20535911916E+03  0.92720766118E+02 0.  0.
          5    1    3    3  502    0 -0.67279001274E+02 -0.26150137699E+02 -0.11871902028E+03  0.13900349596E+03  0.41800000000E+01 0. -1.
         -5    1    3    3    0  502  0.16383556399E+02  0.86631880516E+01  0.21209986040E+02  0.28474684464E+02  0.41800000000E+01 0. -1.
        -11    1    4    4    0    0 -0.12368501910E+02  0.37202681397E+02 -0.83642466348E+02  0.92374680077E+02  0.00000000000E+00 0. -1.
         11    1    4    4    0    0  0.63263946785E+02 -0.19715731750E+02 -0.91512001579E+02  0.11298443908E+03  0.00000000000E+00 0.  1.
</event>
<event>
 8    1  0.7262913E-009  0.9196181E+02  0.7561462E-02  0.1298169E+00
          1   -1    0    0  501    0  0.00000000000E+00  0.00000000000E+00  0.10424877889E+03  0.10424877889E+03  0.00000000000E+00 0. -1.
         -1   -1    0    0    0  501 -0.00000000000E+00 -0.00000000000E+00 -0.17709870119E+03  0.17709870119E+03  0.00000000000E+00 0.  1.
         25    2    1    2    0    0  0.35268295639E+02  0.51783603903E+02  0.14564646806E+02  0.14066101671E+03  0.12509195967E+03 0.  0.
         23    2    1    2    0    0 -0.35268295639E+02 -0.51783603903E+02 -0.87414569104E+02  0.14068646337E+03  0.90697187245E+02 0.  0.
          5    1    3    3  502    0 -0.12985679668E+02  0.68433098936E+02  0.43114506120E+02  0.82024691066E+02  0.41800000000E+01 0.  1.
         -5    1    3    3    0  502  0.48253975307E+02 -0.16649495033E+02 -0.28549859314E+02  0.58636325641E+02  0.41800000000E+01 0.  1.
        -11    1    4    4    0    0 -0.18118527298E+02 -0.21417653866E+02 -0.99808000636E+02  0.10367561873E+03  0.00000000000E+00 0.  1.
         11    1    4    4    0    0 -0.17149768341E+02 -0.30365950037E+02  0.12393431532E+02  0.37010844640E+02  0.00000000000E+00 0. -1.
</event>
<event>
 8    1  0.7262913E-009  0.1473693E+03  0.7561462E-02  0.1203743E+00
          2   -1    0    0  501    0  0.00000000000E+00  0.00000000000E+00  0.77515471577E+03  0.77515471577E+03  0.00000000000E+00 0.  1.
         -2   -1    0    0    0  501 -0.00000000000E+00 -0.00000000000E+00 -0.40276212009E+02  0.40276212009E+02  0.00000000000E+00 0. -1.
         25    2    1    2    0    0  0.12377539451E+03  0.25115107325E+00  0.52274862435E+03  0.55157706039E+03  0.12510282940E+03 0.  0.
         23    2    1    2    0    0 -0.12377539451E+03 -0.25115107325E+00  0.21212987941E+03  0.26385386739E+03  0.96433221632E+02 0.  0.
          5    1    3    3  502    0  0.77622229197E+01 -0.26361248496E+02  0.27802368082E+03  0.27940974755E+03  0.41800000000E+01 0.  1.
         -5    1    3    3    0  502  0.11601317159E+03  0.26612399569E+02  0.24472494352E+03  0.27216731284E+03  0.41800000000E+01 0.  1.
        -11    1    4    4    0    0 -0.13551312652E+03  0.33818457155E+01  0.21191904146E+03  0.25156495080E+03  0.00000000000E+00 0.  1.
         11    1    4    4    0    0  0.11737732006E+02 -0.36329967887E+01  0.21083795388E+00  0.12288916590E+02  0.00000000000E+00 0. -1.
</event>
<event>
 8    1  0.7262913E-009  0.1654194E+03  0.7561462E-02  0.1182711E+00
         -2   -1    0    0    0  501 -0.00000000000E+00  0.00000000000E+00  0.52958844953E+02  0.52958844953E+02  0.00000000000E+00 0.  1.
          2   -1    0    0  501    0  0.00000000000E+00 -0.00000000000E+00 -0.78978878031E+03  0.78978878031E+03  0.00000000000E+00 0. -1.
         25    2    1    2    0    0 -0.93614781435E+02 -0.10362824628E+03 -0.59473988678E+03  0.62359102651E+03  0.12509074584E+03 0.  0.
         23    2    1    2    0    0  0.93614781435E+02  0.10362824628E+03 -0.14209004858E+03  0.21915659875E+03  0.91309868791E+02 0.  0.
          5    1    3    3  502    0 -0.50796891267E+02  0.40550144569E+01 -0.73029481856E+02  0.89149004059E+02  0.41800000000E+01 0.  1.
         -5    1    3    3    0  502 -0.42817890168E+02 -0.10768326074E+03 -0.52171040492E+03  0.53444202245E+03  0.41800000000E+01 0.  1.
        -11    1    4    4    0    0  0.43924113735E+02 -0.50860970679E+01 -0.58344095877E+02  0.73206759760E+02  0.00000000000E+00 0. -1.
         11    1    4    4    0    0  0.49690667700E+02  0.10871434335E+03 -0.83745952700E+02  0.14594983899E+03  0.00000000000E+00 0.  1.
</event>
<event>
 8    1  0.7262913E-009  0.1265186E+03  0.7561462E-02  0.1232715E+00
         -2   -1    0    0    0  501 -0.00000000000E+00  0.00000000000E+00  0.16913001072E+02  0.16913001072E+02  0.00000000000E+00 0.  1.
          2   -1    0    0  501    0  0.00000000000E+00 -0.00000000000E+00 -0.15775839832E+04  0.15775839832E+04  0.00000000000E+00 0. -1.
         25    2    1    2    0    0 -0.31147950567E+02 -0.83068157664E+02 -0.12481652208E+04  0.12575509517E+04  0.12508982316E+03 0.  0.
         23    2    1    2    0    0  0.31147950567E+02  0.83068157664E+02 -0.31250576131E+03  0.33694603264E+03  0.89455376669E+02 0.  0.
          5    1    3    3  502    0 -0.14531132211E+02 -0.11331252265E+03 -0.81272288673E+03  0.82072336668E+03  0.41800000000E+01 0. -1.
         -5    1    3    3    0  502 -0.16616818356E+02  0.30244364990E+02 -0.43544233411E+03  0.43682758498E+03  0.41800000000E+01 0. -1.
        -11    1    4    4    0    0 -0.43710394413E+01  0.63023501452E+02 -0.85511345623E+02  0.10631678114E+03  0.00000000000E+00 0.  1.
         11    1    4    4    0    0  0.35518990008E+02  0.20044656213E+02 -0.22699441569E+03  0.23062925150E+03  0.00000000000E+00 0. -1.
</event>
<event>
 8    1  0.7262913E-009  0.2039958E+03  0.7561462E-02  0.1146411E+00
         -2   -1    0    0    0  501 -0.00000000000E+00  0.00000000000E+00  0.16120198916E+03  0.16120198916E+03  0.00000000000E+00 0.  1.
          2   -1    0    0  501    0  0.00000000000E+00 -0.00000000000E+00 -0.31334076759E+03  0.31334076759E+03  0.00000000000E+00 0. -1.
         25    2    1    2    0    0  0.10128947523E+03  0.17050070584E+03 -0.71485439946E+02  0.24513713108E+03  0.12510793909E+03 0.  0.
         23    2    1    2    0    0 -0.10128947523E+03 -0.17050070584E+03 -0.80653338481E+02  0.22940562567E+03  0.82413176110E+02 0.  0.
          5    1    3    3  502    0  0.20540786064E+02  0.78003643817E+02  0.29616681207E+02  0.86029718973E+02  0.41800000000E+01 0.  1.
         -5    1    3    3    0  502  0.80748689164E+02  0.92497062024E+02 -0.10110212115E+03  0.15910741210E+03  0.41800000000E+01 0.  1.
        -11    1    4    4    0    0 -0.16900246137E+02 -0.75178488032E+02  0.29289088434E+01  0.77110322845E+02  0.00000000000E+00 0. -1.
         11    1    4    4    0    0 -0.84389229091E+02 -0.95322217808E+02 -0.83582247324E+02  0.15229530282E+03  0.00000000000E+00 0.  1.
</event>
<event>
 8    1  0.7262913E-009  0.1667090E+03  0.7561462E-02  0.1181324E+00
          2   -1    0    0  501    0  0.00000000000E+00  0.00000000000E+00  0.78459221300E+02  0.78459221300E+02  0.00000000000E+00 0. -1.
         -2   -1    0    0    0  501 -0.00000000000E+00 -0.00000000000E+00 -0.38675066216E+03  0.38675066216E+03  0.00000000000E+00 0.  1.
         25    2    1    2    0    0 -0.12112376187E+03 -0.59807176687E+02 -0.13686599349E+03  0.22940568998E+03  0.12508719497E+03 0.  0.
         23    2    1    2    0    0  0.12112376187E+03  0.59807176687E+02 -0.17142544737E+03  0.23580419349E+03  0.89269645388E+02 0.  0.
          5    1    3    3  502    0 -0.80306201458E+01 -0.69483726171E+02 -0.60092707852E+02  0.92309723212E+02  0.41800000000E+01 0.  1.
         -5    1    3    3    0  502 -0.11309314172E+03  0.96765494847E+01 -0.76773285641E+02  0.13709596676E+03  0.41800000000E+01 0.  1.
        -11    1    4    4    0    0  0.11225464856E+03  0.72973377758E+02 -0.11281291454E+03  0.17507990653E+03  0.00000000000E+00 0. -1.
         11    1    4    4    0    0  0.88691133118E+01 -0.13166201071E+02 -0.58612532828E+02  0.60724286955E+02  0.00000000000E+00 0.  1.
</event>
<event>
 8    1  0.7262913E-009  0.1503000E+03  0.7561462E-02  0.1200105E+00
          4   -1    0    0  501    0  0.00000000000E+00  0.00000000000E+00  0.70327845408E+02  0.70327845408E+02  0.00000000000E+00 0. -1.
         -4   -1    0    0    0  501 -0.00000000000E+00 -0.00000000000E+00 -0.39589467895E+03  0.39589467895E+03  0.00000000000E+00 0.  1.
         25    2    1    2    0    0 -0.59784161538E+02  0.10939822429E+03 -0.14716158649E+03  0.22988207578E+03  0.12508844382E+03 0.  0.
         23    2    1    2    0    0  0.59784161538E+02 -0.10939822429E+03 -0.17840524705E+03  0.23634044857E+03  0.92120888011E+02 0.  0.
          5    1    3    3  502    0 -0.27829792760E+02 -0.40321560147E+01  0.12780522123E+02  0.31170014324E+02  0.41800000000E+01 0. -1.
         -5    1    3    3    0  502 -0.31954368778E+02  0.11343038031E+03 -0.15994210861E+03  0.19871206146E+03  0.41800000000E+01 0. -1.
        -11    1    4    4    0    0  0.52637514712E+02 -0.87624559131E+01 -0.73109668207E+02  0.90512497336E+02  0.00000000000E+00 0.  1.
         11    1    4    4    0    0  0.71466468256E+01 -0.10063576838E+03 -0.10529557884E+03  0.14582795124E+03  0.00000000000E+00 0. -1.
</event>
<event>
 8    1  0.7262913E-009  0.1293732E+03  0.7561462E-02  0.1228389E+00
          2   -1    0    0  501    0  0.00000000000E+00  0.00000000000E+00  0.46647627709E+03  0.46647627709E+03  0.00000000000E+00 0. -1.
         -2   -1    0    0    0  501 -0.00000000000E+00 -0.00000000000E+00 -0.36580959092E+02  0.36580959092E+02  0.00000000000E+00 0.  1.
         25    2    1    2    0    0 -0.49349576428E+02  0.55231571347E+02  0.22610884354E+03  0.26881085774E+03  0.12509260946E+03 0.  0.
         23    2    1    2    0    0  0.49349576428E+02 -0.55231571347E+02  0.20378647445E+03  0.23424637844E+03  0.88637077329E+02 0.  0.
          5    1    3    3  502    0  0.36699926563E+02 -0.87667792661E+01  0.63338495507E+02  0.73844285097E+02  0.41800000000E+01 0.  1.
         -5    1    3    3    0  502 -0.86049502990E+02  0.63998350614E+02  0.16277034804E+03  0.19496657264E+03  0.41800000000E+01 0.  1.
        -11    1    4    4    0    0  0.44301812893E+02  0.12113640090E+02  0.61606018556E+02  0.76841996488E+02  0.00000000000E+00 0.  1.
         11    1    4    4    0    0  0.50477635346E+01 -0.67345211438E+02  0.14218045590E+03  0.15740438196E+03  0.00000000000E+00 0. -1.
</event>
<event>
 8    1  0.7262913E-009  0.1106832E+03  0.7561462E-02  0.1259310E+00
          2   -1    0    0  501    0  0.00000000000E+00  0.00000000000E+00  0.43457359961E+03  0.43457359961E+03  0.00000000000E+00 0. -1.
         -2   -1    0    0    0  501 -0.00000000000E+00 -0.00000000000E+00 -0.36991388037E+02  0.36991388037E+02  0.00000000000E+00 0.  1.
         25    2    1    2    0    0 -0.60119620540E+02 -0.18031725937E+02  0.22710429992E+03  0.26676521077E+03  0.12509117764E+03 0.  0.
         23    2    1    2    0    0  0.60119620540E+02  0.18031725937E+02  0.17047791166E+03  0.20479977688E+03  0.94555371777E+02 0.  0.
          5    1    3    3  502    0  0.14176639022E+02  0.21571083273E+02  0.18032261824E+01  0.26210928106E+02  0.41800000000E+01 0. -1.
         -5    1    3    3    0  502 -0.74296259562E+02 -0.39602809210E+02  0.22530107374E+03  0.24055428267E+03  0.41800000000E+01 0. -1.
        -11    1    4    4    0    0  0.83821538258E+02  0.22530230092E+02  0.11318074268E+03  0.14263078930E+03  0.00000000000E+00 0.  1.
         11    1    4    4    0    0 -0.23701917718E+02 -0.44985041544E+01  0.57297168975E+02  0.62168987572E+02  0.00000000000E+00 0. -1.
</event>
<event>
 8    1  0.7262913E-009  0.1434611E+03  0.7561462E-02  0.1208746E+00
          2   -1    0    0  501    0  0.00000000000E+00  0.00000000000E+00  0.40249557467E+02  0.40249557467E+02  0.00000000000E+00 0. -1.
         -2   -1    0    0    0  501 -0.00000000000E+00 -0.00000000000E+00 -0.57760145440E+03  0.57760145440E+03  0.00000000000E+00 0.  1.
         25    2    1    2    0    0 -0.79030744930E+02  0.60484233584E+02 -0.39156995298E+03  0.42294267330E+03  0.12509706497E+03 0.  0.
         23    2    1    2    0    0  0.79030744930E+02 -0.60484233584E+02 -0.14578194395E+03  0.19490833857E+03  0.82660051442E+02 0.  0.
          5    1    3    3  502    0 -0.67066752677E+02  0.98634819327E+02 -0.30388005813E+03  0.32647716463E+03  0.41800000000E+01 0. -1.
         -5    1    3    3    0  502 -0.11963992253E+02 -0.38150585742E+02 -0.87689894856E+02  0.96465508670E+02  0.41800000000E+01 0. -1.
        -11    1    4    4    0    0  0.34148845091E+02 -0.73157866117E+02 -0.10826688956E+03  0.13505530856E+03  0.00000000000E+00 0.  1.
         11    1    4    4    0    0  0.44881899839E+02  0.12673632532E+02 -0.37515054386E+02  0.59853030002E+02  0.00000000000E+00 0. -1.
</event>
<event>
 8    1  0.7262913E-009  0.9965230E+02  0.7561462E-02  0.1281029E+00
          1   -1    0    0  501    0  0.00000000000E+00  0.00000000000E+00  0.21851951108E+03  0.21851951108E+03  0.00000000000E+00 0. -1.
         -1   -1    0    0    0  501 -0.00000000000E+00 -0.00000000000E+00 -0.62820088873E+02  0.62820088873E+02  0.00000000000E+00 0.  1.
         25    2    1    2    0    0 -0.18420475871E+02  0.27691160211E+02  0.52152717041E+02  0.13954711220E+03  0.12508947336E+03 0.  0.
         23    2    1    2    0    0  0.18420475871E+02 -0.27691160211E+02  0.10354670517E+03  0.14179248775E+03  0.90978432312E+02 0.  0.
          5    1    3    3  502    0 -0.66808821792E+02  0.19982197928E+02  0.56959284203E+02  0.90136226680E+02  0.41800000000E+01 0.  1.
         -5    1    3    3    0  502  0.48388345921E+02  0.77089622829E+01 -0.48065671622E+01  0.49410885525E+02  0.41800000000E+01 0.  1.
        -11    1    4    4    0    0  0.64151055238E+01 -0.52403992561E+02  0.10129239341E+03  0.11422557059E+03  0.00000000000E+00 0. -1.
         11    1    4    4    0    0  0.12005370347E+02  0.24712832350E+02  0.22543117585E+01  0.27566917155E+02  0.00000000000E+00 0.  1.
</event>
<event>
 8    1  0.7262913E-009  0.1018150E+03  0.7561462E-02  0.1276525E+00
          3   -1    0    0  501    0  0.00000000000E+00  0.00000000000E+00  0.10943560850E+03  0.10943560850E+03  0.00000000000E+00 0. -1.
         -3   -1    0    0    0  501 -0.00000000000E+00 -0.00000000000E+00 -0.13036561397E+03  0.13036561397E+03  0.00000000000E+00 0.  1.
         25    2    1    2    0    0 -0.66239798294E+01  0.35754785534E+02  0.19772595633E+02  0.13176129200E+03  0.12509116969E+03 0.  0.
         23    2    1    2    0    0  0.66239798294E+01 -0.35754785534E+02 -0.40702601100E+02  0.10803993046E+03  0.93239707426E+02 0.  0.
          5    1    3    3  502    0 -0.57875046492E+02  0.23724850675E+02 -0.19831958104E+02  0.65750806141E+02  0.41800000000E+01 0. -1.
         -5    1    3    3    0  502  0.51251066662E+02  0.12029934858E+02  0.39604553737E+02  0.66010485860E+02  0.41800000000E+01 0. -1.
        -11    1    4    4    0    0  0.40385898427E+02 -0.20689711880E+01  0.64767287223E+01  0.40954236026E+02  0.00000000000E+00 0. -1.
         11    1    4    4    0    0 -0.33761918598E+02 -0.33685814346E+02 -0.47179329822E+02  0.67085694436E+02  0.00000000000E+00 0.  1.
</event>
<event>
 8    1  0.7262913E-009  0.9733247E+02  0.7561462E-02  0.1286008E+00
         -3   -1    0    0    0  501 -0.00000000000E+00  0.00000000000E+00  0.42319696832E+02  0.42319696832E+02  0.00000000000E+00 0.  1.
          3   -1    0    0  501    0  0.00000000000E+00 -0.00000000000E+00 -0.35460863678E+03  0.35460863678E+03  0.00000000000E+00 0. -1.
         25    2    1    2    0    0 -0.27597421750E+02 -0.90900069288E+01 -0.25509330175E+03  0.28559494162E+03  0.12509049590E+03 0.  0.
         23    2    1    2    0    0  0.27597421750E+02  0.90900069288E+01 -0.57195638191E+02  0.11133339199E+03  0.90991962450E+02 0.  0.
          5    1    3    3  502    0 -0.30991281667E+02 -0.59205961453E+02 -0.85082515887E+02  0.10826962788E+03  0.41800000000E+01 0.  1.
         -5    1    3    3    0  502  0.33938599166E+01  0.50115954524E+02 -0.17001078587E+03  0.17732531374E+03  0.41800000000E+01 0.  1.
        -11    1    4    4    0    0  0.39755283421E+02  0.32220200138E+02 -0.31109250078E+01  0.51266965107E+02  0.00000000000E+00 0.  1.
         11    1    4    4    0    0 -0.12157861671E+02 -0.23130193209E+02 -0.54084713183E+02  0.60066426882E+02  0.00000000000E+00 0. -1.
</event>
<event>
 8    1  0.7262913E-009  0.1717866E+03  0.7561462E-02  0.1175997E+00
         -2   -1    0    0    0  501 -0.00000000000E+00  0.00000000000E+00  0.17040985184E+02  0.17040985184E+02  0.00000000000E+00 0.  1.
          2   -1    0    0  501    0  0.00000000000E+00 -0.00000000000E+00 -0.23726659490E+04  0.23726659490E+04  0.00000000000E+00 0. -1.
         25    2    1    2    0    0  0.11620054613E+03 -0.88021455460E+02 -0.17486041419E+04  0.17591235858E+04  0.12509596915E+03 0.  0.
         23    2    1    2    0    0 -0.11620054613E+03  0.88021455460E+02 -0.60702082190E+03  0.63058334837E+03  0.88942326712E+02 0.  0.
          5    1    3    3  502    0  0.49585176763E+02 -0.10720531370E+03 -0.90889862518E+03  0.91655106366E+03  0.41800000000E+01 0. -1.
         -5    1    3    3    0  502  0.66615369366E+02  0.19183858239E+02 -0.83970551674E+03  0.84257252216E+03  0.41800000000E+01 0. -1.
        -11    1    4    4    0    0 -0.96171156257E+01 -0.79741329786E+01 -0.84910206978E+01  0.15105401094E+02  0.00000000000E+00 0.  1.
         11    1    4    4    0    0 -0.10658343050E+03  0.95995588439E+02 -0.59852980120E+03  0.61547794728E+03  0.00000000000E+00 0. -1.
</event>
<event>
 8    1  0.7262913E-009  0.1368129E+03  0.7561462E-02  0.1217683E+00
          2   -1    0    0  501    0  0.00000000000E+00  0.00000000000E+00  0.27570868604E+03  0.27570868604E+03  0.00000000000E+00 0. -1.
         -2   -1    0    0    0  501 -0.00000000000E+00 -0.00000000000E+00 -0.10033104660E+03  0.10033104660E+03  0.00000000000E+00 0.  1.
         25    2    1    2    0    0  0.18096097095E+02 -0.12336075004E+03  0.11514583063E+03  0.21083496041E+03  0.12508986706E+03 0.  0.
         23    2    1    2    0    0 -0.18096097095E+02  0.12336075004E+03  0.60231808809E+02  0.16520477222E+03  0.90107727712E+02 0.  0.
          5    1    3    3  502    0  0.41185971159E+01 -0.44082721913E+02  0.12208016898E+03  0.12992801573E+03  0.41800000000E+01 0.  1.
         -5    1    3    3    0  502  0.13977499979E+02 -0.79278028124E+02 -0.69343383580E+01  0.80906944680E+02  0.41800000000E+01 0.  1.
        -11    1    4    4    0    0  0.13428990096E+02 -0.64950855078E+01 -0.59818148827E+01  0.16071901569E+02  0.00000000000E+00 0.  1.
         11    1    4    4    0    0 -0.31525087191E+02  0.12985583555E+03  0.66213623692E+02  0.14913287066E+03  0.00000000000E+00 0. -1.
</event>
<event>
 8    1  0.7262913E-009  0.1099983E+03  0.7561462E-02  0.1260573E+00
          1   -1    0    0  501    0  0.00000000000E+00  0.00000000000E+00  0.10919225735E+03  0.10919225735E+03  0.00000000000E+00 0. -1.
         -1   -1    0    0    0  501 -0.00000000000E+00 -0.00000000000E+00 -0.11508645786E+03  0.11508645786E+03  0.00000000000E+00 0.  1.
         25    2    1    2    0    0 -0.38892348631E+01 -0.24588032741E+02  0.10336804881E+02  0.12796015991E+03  0.12508899027E+03 0.  0.
         23    2    1    2    0    0  0.38892348631E+01  0.24588032741E+02 -0.16231005387E+02  0.96318555303E+02  0.91619436027E+02 0.  0.
          5    1    3    3  502    0  0.47322949238E+02  0.27022396709E+02  0.24896745285E+01  0.54711446039E+02  0.41800000000E+01 0.  1.
         -5    1    3    3    0  502 -0.51212184101E+02 -0.51610429450E+02  0.78471303525E+01  0.73248713867E+02  0.41800000000E+01 0.  1.
        -11    1    4    4    0    0 -0.42606825566E+02  0.13770797329E+02  0.29440498157E+01  0.44873643413E+02  0.00000000000E+00 0. -1.
         11    1    4    4    0    0  0.46496060429E+02  0.10817235411E+02 -0.19175055203E+02  0.51444911890E+02  0.00000000000E+00 0.  1.
</event>
<event>
 8    1  0.7262913E-009  0.2040605E+03  0.7561462E-02  0.1146358E+00
         -1   -1    0    0    0  501 -0.00000000000E+00  0.00000000000E+00  0.97433109705E+02  0.97433109705E+02  0.00000000000E+00 0.  1.
          1   -1    0    0  501    0  0.00000000000E+00 -0.00000000000E+00 -0.80865268923E+03  0.80865268923E+03  0.00000000000E+00 0. -1.
         25    2    1    2    0    0 -0.15811735108E+03  0.10207455127E+03 -0.65467148255E+03  0.69257722821E+03  0.12509259069E+03 0.  0.
         23    2    1    2    0    0  0.15811735108E+03 -0.10207455127E+03 -0.56548096971E+02  0.21350857072E+03  0.83474018524E+02 0.  0.
          5    1    3    3  502    0 -0.13599264855E+03  0.12531764984E+03 -0.60991030564E+03  0.63734336676E+03  0.41800000000E+01 0.  1.
         -5    1    3    3    0  502 -0.22124702531E+02 -0.23243098569E+02 -0.44761176908E+02  0.55233861456E+02  0.41800000000E+01 0.  1.
        -11    1    4    4    0    0  0.80552228808E+02 -0.33455771543E+02 -0.66197278648E+02  0.10949899505E+03  0.00000000000E+00 0. -1.
         11    1    4    4    0    0  0.77565122276E+02 -0.68618779725E+02  0.96491816770E+01  0.10400957567E+03  0.00000000000E+00 0.  1.
</event>
<event>
 8    1  0.7262913E-009  0.1117766E+03  0.7561462E-02  0.1257315E+00
          1   -1    0    0  501    0  0.00000000000E+00  0.00000000000E+00  0.16380688825E+03  0.16380688825E+03  0.00000000000E+00 0. -1.
         -1   -1    0    0    0  501 -0.00000000000E+00 -0.00000000000E+00 -0.79231464216E+02  0.79231464216E+02  0.00000000000E+00 0.  1.
         25    2    1    2    0    0  0.24685785885E+02 -0.32700641870E+01  0.33987807971E+02  0.13198069389E+03  0.12507458224E+03 0.  0.
         23    2    1    2    0    0 -0.24685785885E+02  0.32700641870E+01  0.50587616063E+02  0.11105765858E+03  0.95679753791E+02 0.  0.
          5    1    3    3  502    0  0.22261345463E+02 -0.62344623208E+02  0.65131470538E+01  0.66650679136E+02  0.41800000000E+01 0.  1.
         -5    1    3    3    0  502  0.24244404214E+01  0.59074559021E+02  0.27474660917E+02  0.65330014751E+02  0.41800000000E+01 0.  1.
        -11    1    4    4    0    0 -0.46673519174E+02  0.35704931665E+02  0.22858790786E+02  0.63053817121E+02  0.00000000000E+00 0.  1.
         11    1    4    4    0    0  0.21987733290E+02 -0.32434867478E+02  0.27728825277E+02  0.48003841458E+02  0.00000000000E+00 0. -1.
</event>
<event>
 8    1  0.7262913E-009  0.1394601E+03  0.7561462E-02  0.1214057E+00
          2   -1    0    0  501    0  0.00000000000E+00  0.00000000000E+00  0.25506003569E+03  0.25506003569E+03  0.00000000000E+00 0. -1.
         -2   -1    0    0    0  501 -0.00000000000E+00 -0.00000000000E+00 -0.10347199357E+03  0.10347199357E+03  0.00000000000E+00 0.  1.
         25    2    1    2    0    0  0.10193372950E+03 -0.31940623561E+02  0.20051306712E+02  0.16571002094E+03  0.12508823885E+03 0.  0.
         23    2    1    2    0    0 -0.10193372950E+03  0.31940623561E+02  0.13153673541E+03  0.19282200831E+03  0.92020244975E+02 0.  0.
          5    1    3    3  502    0  0.33382923761E+02  0.48297065497E+02  0.60588007732E+01  0.59171003044E+02  0.41800000000E+01 0.  1.
         -5    1    3    3    0  502  0.68550805735E+02 -0.80237689058E+02  0.13992505938E+02  0.10653901790E+03  0.41800000000E+01 0.  1.
        -11    1    4    4    0    0 -0.38192907608E+01  0.14243072057E+02 -0.11338151135E+02  0.18601229924E+02  0.00000000000E+00 0.  1.
         11    1    4    4    0    0 -0.98114438735E+02  0.17697551504E+02  0.14287488654E+03  0.17422077839E+03  0.00000000000E+00 0. -1.
</event>
<event>
 8    1  0.7262913E-009  0.1178613E+03  0.7561462E-02  0.1246668E+00
          2   -1    0    0  501    0  0.00000000000E+00  0.00000000000E+00  0.13533994759E+04  0.13533994759E+04  0.00000000000E+00 0.  1.
         -2   -1    0    0    0  501 -0.00000000000E+00 -0.00000000000E+00 -0.17753223781E+02  0.17753223781E+02  0.00000000000E+00 0. -1.
         25    2    1    2    0    0  0.77132819049E+02 -0.19713458385E+02  0.10638581494E+04  0.10741420589E+04  0.12509559741E+03 0.  0.
         23    2    1    2    0    0 -0.77132819049E+02  0.19713458385E+02  0.27178810278E+03  0.29701064082E+03  0.89489975579E+02 0.  0.
          5    1    3    3  502    0  0.11588887385E+02 -0.65481866558E+02  0.56261773372E+03  0.56654952463E+03  0.41800000000E+01 0.  1.
         -5    1    3    3    0  502  0.65543931664E+02  0.45768408173E+02  0.50124041566E+03  0.50759253428E+03  0.41800000000E+01 0.  1.
        -11    1    4    4    0    0 -0.38463963989E+02  0.30281462263E+02  0.44314826450E+02  0.66032168871E+02  0.00000000000E+00 0. -1.
         11    1    4    4    0    0 -0.38668855060E+02 -0.10568003878E+02  0.22747327633E+03  0.23097847195E+03  0.00000000000E+00 0.  1.
</event>
<event>
 8    1  0.7262913E-009  0.9590721E+02  0.7561462E-02  0.1289146E+00
         -2   -1    0    0    0  501 -0.00000000000E+00  0.00000000000E+00  0.78524842398E+02  0.78524842398E+02  0.00000000000E+00 0.  1.
          2   -1    0    0  501    0  0.00000000000E+00 -0.00000000000E+00 -0.31197294547E+03  0.31197294547E+03  0.00000000000E+00 0. -1.
         25    2    1    2    0    0 -0.61107002532E+02  0.55280555865E+02 -0.21111774772E+03  0.25885944049E+03  0.12508997126E+03 0.  0.
         23    2    1    2    0    0  0.61107002532E+02 -0.55280555865E+02 -0.22330355345E+02  0.13163834738E+03  0.10019982093E+03 0.  0.
          5    1    3    3  502    0 -0.34794277610E+02  0.65377313928E+02 -0.21738010089E+03  0.22968764789E+03  0.41800000000E+01 0.  1.
         -5    1    3    3    0  502 -0.26312724922E+02 -0.10096758063E+02  0.62623531645E+01  0.29171792597E+02  0.41800000000E+01 0.  1.
        -11    1    4    4    0    0  0.56436653581E+02 -0.30941400500E+02  0.32032664252E+02  0.71892681904E+02  0.00000000000E+00 0.  1.
         11    1    4    4    0    0  0.46703489514E+01 -0.24339155365E+02 -0.54363019596E+02  0.59745665473E+02  0.00000000000E+00 0. -1.
</event>
<event>
 8    1  0.7262913E-009  0.6931594E+02  0.7561462E-02  0.1362435E+00
         -1   -1    0    0    0  501 -0.00000000000E+00  0.00000000000E+00  0.19970054675E+02  0.19970054675E+02  0.00000000000E+00 0.  1.
          1   -1    0    0  501    0  0.00000000000E+00 -0.00000000000E+00 -0.69805984500E+03  0.69805984500E+03  0.00000000000E+00 0. -1.
         25    2    1    2    0    0  0.16703474362E+02 -0.26168766146E+02 -0.48701466201E+03  0.50377867086E+03  0.12508340349E+03 0.  0.
         23    2    1    2    0    0 -0.16703474362E+02  0.26168766146E+02 -0.19107512831E+03  0.21425122881E+03  0.91815434479E+02 0.  0.
          5    1    3    3  502    0  0.31453307993E+02 -0.16781329686E+02 -0.48426461417E+03  0.48559305241E+03  0.41800000000E+01 0.  1.
         -5    1    3    3    0  502 -0.14749833631E+02 -0.93874364602E+01 -0.27500478371E+01  0.18185618454E+02  0.41800000000E+01 0.  1.
        -11    1    4    4    0    0 -0.38998987772E+02  0.42078061436E+02 -0.71978113847E+02  0.92045277850E+02  0.00000000000E+00 0.  1.
         11    1    4    4    0    0  0.22295513411E+02 -0.15909295290E+02 -0.11909701447E+03  0.12220595096E+03  0.00000000000E+00 0. -1.
</event>
<event>
 8    1  0.7262913E-009  0.1143507E+03  0.7561462E-02  0.1252719E+00
         -1   -1    0    0    0  501 -0.00000000000E+00  0.00000000000E+00  0.39275061510E+03  0.39275061510E+03  0.00000000000E+00 0.  1.
          1   -1    0    0  501    0  0.00000000000E+00 -0.00000000000E+00 -0.45262242349E+02  0.45262242349E+02  0.00000000000E+00 0. -1.
         25    2    1    2    0    0 -0.40735347287E+02 -0.43806578469E+00  0.29714278610E+03  0.32496823646E+03  0.12510379273E+03 0.  0.
         23    2    1    2    0    0  0.40735347287E+02  0.43806578469E+00  0.50345586646E+02  0.11304462099E+03  0.92654453852E+02 0.  0.
          5    1    3    3  502    0 -0.84652232316E+02  0.54111256905E+00  0.22458445824E+03  0.24004571340E+03  0.41800000000E+01 0.  1.
         -5    1    3    3    0  502  0.43916885029E+02 -0.97917835374E+00  0.72558327858E+02  0.84922523057E+02  0.41800000000E+01 0.  1.
        -11    1    4    4    0    0  0.41308261706E+02  0.41615666270E+02  0.38671062033E+02  0.70240210727E+02  0.00000000000E+00 0.  1.
         11    1    4    4    0    0 -0.57291441850E+00 -0.41177600485E+02  0.11674524614E+02  0.42804410258E+02  0.00000000000E+00 0. -1.
</event>
<event>
 8    1  0.7262913E-009  0.1035972E+03  0.7561462E-02  0.1272908E+00
         -1   -1    0    0    0  501 -0.00000000000E+00  0.00000000000E+00  0.36804260545E+03  0.36804260545E+03  0.00000000000E+00 0.  1.
          1   -1    0    0  501    0  0.00000000000E+00 -0.00000000000E+00 -0.73088017242E+02  0.73088017242E+02  0.00000000000E+00 0. -1.
         25    2    1    2    0    0  0.63530502810E+02  0.63367171469E+02  0.45088749930E+02  0.16041024749E+03  0.12508768493E+03 0.  0.
         23    2    1    2    0    0 -0.63530502810E+02 -0.63367171469E+02  0.24986583828E+03  0.28072037520E+03  0.91211121633E+02 0.  0.
          5    1    3    3  502    0  0.18733107576E+02  0.40906872971E+01  0.76983623587E+02  0.79445665348E+02  0.41800000000E+01 0. -1.
         -5    1    3    3    0  502  0.44797395234E+02  0.59276484171E+02 -0.31894873657E+02  0.80964582140E+02  0.41800000000E+01 0. -1.
        -11    1    4    4    0    0 -0.50677511534E+02 -0.78412839519E+02  0.13485903671E+03  0.16402360610E+03  0.00000000000E+00 0. -1.
         11    1    4    4    0    0 -0.12852991276E+02  0.15045668051E+02  0.11500680157E+03  0.11669676910E+03  0.00000000000E+00 0.  1.
</event>
<event>
 8    1  0.7262913E-009  0.8903847E+02  0.7561462E-02  0.1305197E+00
         -2   -1    0    0    0  501 -0.00000000000E+00  0.00000000000E+00  0.12177132285E+03  0.12177132285E+03  0.00000000000E+00 0.  1.
          2   -1    0    0  501    0  0.00000000000E+00 -0.00000000000E+00 -0.14744058127E+03  0.14744058127E+03  0.00000000000E+00 0. -1.
         25    2    1    2    0    0  0.42028411832E+02 -0.21507804239E+02 -0.78321533906E+02  0.15495000551E+03  0.12508504503E+03 0.  0.
         23    2    1    2    0    0 -0.42028411832E+02  0.21507804239E+02  0.52652275482E+02  0.11426189861E+03  0.89747124273E+02 0.  0.
          5    1    3    3  502    0  0.45482178599E+02 -0.57507194274E+02 -0.90512435625E+02  0.11655762251E+03  0.41800000000E+01 0. -1.
         -5    1    3    3    0  502 -0.34537667670E+01  0.35999390035E+02  0.12190901718E+02  0.38392383001E+02  0.41800000000E+01 0. -1.
        -11    1    4    4    0    0  0.10209079361E+00 -0.13473016682E+02 -0.19488120250E+02  0.23692180818E+02  0.00000000000E+00 0. -1.
         11    1    4    4    0    0 -0.42130502625E+02  0.34980820921E+02  0.72140395732E+02  0.90569717788E+02  0.00000000000E+00 0.  1.
</event>
<event>
 8    1  0.7262913E-009  0.9888113E+02  0.7561462E-02  0.1282667E+00
          3   -1    0    0  501    0  0.00000000000E+00  0.00000000000E+00  0.23043017506E+03  0.23043017506E+03  0.00000000000E+00 0. -1.
         -3   -1    0    0    0  501 -0.00000000000E+00 -0.00000000000E+00 -0.70725189373E+02  0.70725189373E+02  0.00000000000E+00 0.  1.
         25    2    1    2    0    0  0.61319298724E+01  0.65539485038E+02  0.70383396431E+02  0.15790690793E+03  0.12509094458E+03 0.  0.
         23    2    1    2    0    0 -0.61319298724E+01 -0.65539485038E+02  0.89321589258E+02  0.14324845650E+03  0.90602148541E+02 0.  0.
          5    1    3    3  502    0  0.42714923653E+02  0.19699882770E+02 -0.19013038850E+02  0.50907937791E+02  0.41800000000E+01 0.  1.
         -5    1    3    3    0  502 -0.36582993781E+02  0.45839602268E+02  0.89396435281E+02  0.10699897014E+03  0.41800000000E+01 0.  1.
        -11    1    4    4    0    0 -0.33422931018E+02 -0.50562833761E+02  0.14662694194E+02  0.62359338329E+02  0.00000000000E+00 0.  1.
         11    1    4    4    0    0  0.27291001146E+02 -0.14976651276E+02  0.74658895063E+02  0.80889118175E+02  0.00000000000E+00 0. -1.
</event>
<event>
 8    1  0.7262913E-009  0.3411318E+03  0.7561462E-02  0.1066315E+00
          2   -1    0    0  501    0  0.00000000000E+00  0.00000000000E+00  0.36898732946E+03  0.36898732946E+03  0.00000000000E+00 0.  1.
         -2   -1    0    0    0  501 -0.00000000000E+00 -0.00000000000E+00 -0.34119572094E+03  0.34119572094E+03  0.00000000000E+00 0. -1.
         25    2    1    2    0    0  0.22899661326E+03 -0.23766875096E+03  0.84816504414E+02  0.36299633343E+03  0.12508642849E+03 0.  0.
         23    2    1    2    0    0 -0.22899661326E+03  0.23766875096E+03 -0.57024895894E+02  0.34718671697E+03  0.91437922237E+02 0.  0.
          5    1    3    3  502    0  0.17517341961E+03 -0.23649983808E+03  0.92324787386E+02  0.30847891195E+03  0.41800000000E+01 0. -1.
         -5    1    3    3    0  502  0.53823193646E+02 -0.11689128801E+01 -0.75082829720E+01  0.54517421480E+02  0.41800000000E+01 0. -1.
        -11    1    4    4    0    0 -0.14409723102E+03  0.18310583577E+03 -0.36807321817E+01  0.23303499066E+03  0.00000000000E+00 0.  1.
         11    1    4    4    0    0 -0.84899382238E+02  0.54562915186E+02 -0.53344163712E+02  0.11415172631E+03  0.00000000000E+00 0. -1.
</event>
<event>
 8    1  0.7262913E-009  0.8993453E+02  0.7561462E-02  0.1303010E+00
          2   -1    0    0  501    0  0.00000000000E+00  0.00000000000E+00  0.92689084406E+03  0.92689084406E+03  0.00000000000E+00 0. -1.
         -2   -1    0    0    0  501 -0.00000000000E+00 -0.00000000000E+00 -0.16474715525E+02  0.16474715525E+02  0.00000000000E+00 0.  1.
         25    2    1    2    0    0 -0.11215065509E+02  0.27499253059E+02  0.71139834904E+03  0.72292214097E+03  0.12508726666E+03 0.  0.
         23    2    1    2    0    0  0.11215065509E+02 -0.27499253059E+02  0.19901777949E+03  0.22044341861E+03  0.90029093300E+02 0.  0.
          5    1    3    3  502    0 -0.48840015393E+02  0.17497902549E+02  0.63448019433E+03  0.63661143023E+03  0.41800000000E+01 0.  1.
         -5    1    3    3    0  502  0.37624949884E+02  0.10001350511E+02  0.76918154705E+02  0.86310710744E+02  0.41800000000E+01 0.  1.
        -11    1    4    4    0    0 -0.54749701666E+01 -0.55661109671E+02  0.16010088999E+03  0.16958900143E+03  0.00000000000E+00 0. -1.
         11    1    4    4    0    0  0.16690035676E+02  0.28161856611E+02  0.38916889499E+02  0.50854417182E+02  0.00000000000E+00 0.  1.
</event>
<event>
 8    1  0.7262913E-009  0.1407123E+03  0.7561462E-02  0.1212374E+00
         -1   -1    0    0    0  501 -0.00000000000E+00  0.00000000000E+00  0.11328543438E+03  0.11328543438E+03  0.00000000000E+00 0.  1.
          1   -1    0    0  501    0  0.00000000000E+00 -0.00000000000E+00 -0.20938851807E+03  0.20938851807E+03  0.00000000000E+00 0. -1.
         25    2    1    2    0    0 -0.75060617937E+02 -0.69121657604E+02 -0.11361176906E+02  0.16182858792E+03  0.12509003003E+03 0.  0.
         23    2    1    2    0    0  0.75060617937E+02  0.69121657604E+02 -0.84741906786E+02  0.16084536452E+03  0.90984287696E+02 0.  0.
          5    1    3    3  502    0 -0.67581379866E+01 -0.76327563744E+02 -0.40886875358E+02  0.86952736545E+02  0.41800000000E+01 0.  1.
         -5    1    3    3    0  502 -0.68302479951E+02  0.72059061402E+01  0.29525698452E+02  0.74875851380E+02  0.41800000000E+01 0.  1.
        -11    1    4    4    0    0  0.50403438531E+02 -0.11388900923E+02 -0.23727488741E+02  0.56861299685E+02  0.00000000000E+00 0.  1.
         11    1    4    4    0    0  0.24657179406E+02  0.80510558527E+02 -0.61014418045E+02  0.10398406484E+03  0.00000000000E+00 0. -1.
</event>
<event>
 8    1  0.7262913E-009  0.1009590E+03  0.7561462E-02  0.1278292E+00
         -2   -1    0    0    0  501 -0.00000000000E+00  0.00000000000E+00  0.44365616434E+02  0.44365616434E+02  0.00000000000E+00 0.  1.
          2   -1    0    0  501    0  0.00000000000E+00 -0.00000000000E+00 -0.35633743928E+03  0.35633743928E+03  0.00000000000E+00 0. -1.
         25    2    1    2    0    0  0.35314914559E+02 -0.51388711443E+02 -0.19923545856E+03  0.24337228689E+03  0.12508940494E+03 0.  0.
         23    2    1    2    0    0 -0.35314914559E+02  0.51388711443E+02 -0.11273636429E+03  0.15733076882E+03  0.90308029157E+02 0.  0.
          5    1    3    3  502    0  0.75021923699E+02 -0.19790036472E+02 -0.16392901695E+03  0.18141149240E+03  0.41800000000E+01 0.  1.
         -5    1    3    3    0  502 -0.39707009140E+02 -0.31598674971E+02 -0.35306441611E+02  0.61960794491E+02  0.41800000000E+01 0.  1.
        -11    1    4    4    0    0 -0.32293567483E+02  0.13031646263E+02  0.33975072184E+01  0.34989160613E+02  0.00000000000E+00 0.  1.
         11    1    4    4    0    0 -0.30213470762E+01  0.38357065180E+02 -0.11613387151E+03  0.12234160821E+03  0.00000000000E+00 0. -1.
</event>
<event>
 8    1  0.7262913E-009  0.1163316E+03  0.7561462E-02  0.1249275E+00
         -1   -1    0    0    0  501 -0.00000000000E+00  0.00000000000E+00  0.21480770284E+03  0.21480770284E+03  0.00000000000E+00 0.  1.
          1   -1    0    0  501    0  0.00000000000E+00 -0.00000000000E+00 -0.79504046381E+02  0.79504046381E+02  0.00000000000E+00 0. -1.
         25    2    1    2    0    0 -0.59648343051E+02 -0.51697460520E+01  0.12121116747E+03  0.18418449165E+03  0.12508848365E+03 0.  0.
         23    2    1    2    0    0  0.59648343051E+02  0.51697460520E+01  0.14092488991E+02  0.11012725757E+03  0.91349677128E+02 0.  0.
          5    1    3    3  502    0 -0.38320860013E+02 -0.56596865486E+02  0.10621351803E+03  0.12637435383E+03  0.41800000000E+01 0.  1.
         -5    1    3    3    0  502 -0.21327483038E+02  0.51427119434E+02  0.14997649447E+02  0.57810137822E+02  0.41800000000E+01 0.  1.
        -11    1    4    4    0    0  0.25723013304E+02 -0.42600156258E+02 -0.42052845215E+00  0.49765686681E+02  0.00000000000E+00 0.  1.
         11    1    4    4    0    0  0.33925329747E+02  0.47769902310E+02  0.14513017443E+02  0.60361570891E+02  0.00000000000E+00 0. -1.
</event>
<event>
 8    1  0.7262913E-009  0.1611429E+03  0.7561462E-02  0.1187412E+00
          2   -1    0    0  501    0  0.00000000000E+00  0.00000000000E+00  0.46693999169E+03  0.46693999169E+03  0.00000000000E+00 0. -1.
         -2   -1    0    0    0  501 -0.00000000000E+00 -0.00000000000E+00 -0.72951755939E+02  0.72951755939E+02  0.00000000000E+00 0.  1.
         25    2    1    2    0    0  0.56606088819E+02  0.13720907003E+03  0.19305845655E+03  0.27377185053E+03  0.12509548476E+03 0.  0.
         23    2    1    2    0    0 -0.56606088819E+02 -0.13720907003E+03  0.20092977920E+03  0.26611989709E+03  0.91741186337E+02 0.  0.
          5    1    3    3  502    0 -0.20657941834E+02  0.56787894407E+02  0.13501261497E+03  0.14797801902E+03  0.41800000000E+01 0. -1.
         -5    1    3    3    0  502  0.77264030653E+02  0.80421175624E+02  0.58045841580E+02  0.12579383151E+03  0.41800000000E+01 0. -1.
        -11    1    4    4    0    0 -0.16788863684E+02 -0.70074294844E+02  0.29698869331E+02  0.77937767361E+02  0.00000000000E+00 0.  1.
         11    1    4    4    0    0 -0.39817225135E+02 -0.67134775187E+02  0.17123090986E+03  0.18818212973E+03  0.00000000000E+00 0. -1.
</event>
<event>
 8    1  0.7262913E-009  0.1311097E+03  0.7561462E-02  0.1225818E+00
          4   -1    0    0  501    0  0.00000000000E+00  0.00000000000E+00  0.31457064810E+02  0.31457064810E+02  0.00000000000E+00 0. -1.
         -4   -1    0    0    0  501 -0.00000000000E+00 -0.00000000000E+00 -0.90996431071E+03  0.90996431071E+03  0.00000000000E+00 0.  1.
         25    2    1    2    0    0 -0.10161035676E+03 -0.46409918320E+02 -0.28611854713E+03  0.33164615390E+03  0.12508718265E+03 0.  0.
         23    2    1    2    0    0  0.10161035676E+03  0.46409918320E+02 -0.59238869876E+03  0.60977522162E+03  0.91776387787E+02 0.  0.
          5    1    3    3  502    0 -0.12897711767E+02  0.10046743643E+02  0.84294083443E+01  0.18863068459E+02  0.41800000000E+01 0. -1.
         -5    1    3    3    0  502 -0.88712644995E+02 -0.56456661963E+02 -0.29454795548E+03  0.31278308544E+03  0.41800000000E+01 0. -1.
        -11    1    4    4    0    0  0.36113441127E+02 -0.24452075772E+02 -0.12121821506E+03  0.12882523162E+03  0.00000000000E+00 0. -1.
         11    1    4    4    0    0  0.65496915635E+02  0.70861994092E+02 -0.47117048371E+03  0.48094999000E+03  0.00000000000E+00 0.  1.
</event>
<event>
 8    1  0.7262913E-009  0.1008196E+03  0.7561462E-02  0.1278582E+00
          2   -1    0    0  501    0  0.00000000000E+00  0.00000000000E+00  0.51746576265E+03  0.51746576265E+03  0.00000000000E+00 0. -1.
         -2   -1    0    0    0  501 -0.00000000000E+00 -0.00000000000E+00 -0.39319419383E+02  0.39319419383E+02  0.00000000000E+00 0.  1.
         25    2    1    2    0    0 -0.16821720939E+02 -0.82052804808E+02  0.33311152319E+03  0.36554950501E+03  0.12509005019E+03 0.  0.
         23    2    1    2    0    0  0.16821720939E+02  0.82052804808E+02  0.14503482008E+03  0.19123567703E+03  0.92305753127E+02 0.  0.
          5    1    3    3  502    0 -0.91710435466E+01 -0.61014003790E+02  0.33684266457E+03  0.34247229051E+03  0.41800000000E+01 0. -1.
         -5    1    3    3    0  502 -0.76506773921E+01 -0.21038801018E+02 -0.37311413760E+01  0.23077214494E+02  0.41800000000E+01 0. -1.
        -11    1    4    4    0    0 -0.29251514683E+02  0.58213016151E+02  0.47038075266E+02  0.80355378696E+02  0.00000000000E+00 0. -1.
         11    1    4    4    0    0  0.46073235622E+02  0.23839788657E+02  0.97996744815E+02  0.11088029833E+03  0.00000000000E+00 0.  1.
</event>
<event>
 8    1  0.7262913E-009  0.1700845E+03  0.7561462E-02  0.1177760E+00
         -1   -1    0    0    0  501 -0.00000000000E+00  0.00000000000E+00  0.15214078462E+03  0.15214078462E+03  0.00000000000E+00 0.  1.
          1   -1    0    0  501    0  0.00000000000E+00 -0.00000000000E+00 -0.23582261035E+03  0.23582261035E+03  0.00000000000E+00 0. -1.
         25    2    1    2    0    0 -0.14442776452E+03 -0.37733272156E+02 -0.13896099063E+01  0.19476994356E+03  0.12510084295E+03 0.  0.
         23    2    1    2    0    0  0.14442776452E+03  0.37733272156E+02 -0.82292215828E+02  0.19319345141E+03  0.90931413109E+02 0.  0.
          5    1    3    3  502    0 -0.13711211388E+03 -0.65137637840E+02  0.27209785650E+02  0.15427406934E+03  0.41800000000E+01 0. -1.
         -5    1    3    3    0  502 -0.73156506442E+01  0.27404365684E+02 -0.28599395556E+02  0.40495874223E+02  0.41800000000E+01 0. -1.
        -11    1    4    4    0    0  0.13504618306E+02  0.24599613966E+02  0.12804412444E+02  0.30845886289E+02  0.00000000000E+00 0.  1.
         11    1    4    4    0    0  0.13092314622E+03  0.13133658189E+02 -0.95096628273E+02  0.16234756512E+03  0.00000000000E+00 0. -1.
</event>
<event>
 8    1  0.7262913E-009  0.1106433E+03  0.7561462E-02  0.1259383E+00
          2   -1    0    0  501    0  0.00000000000E+00  0.00000000000E+00  0.62294758863E+03  0.62294758863E+03  0.00000000000E+00 0. -1.
         -2   -1    0    0    0  501 -0.00000000000E+00 -0.00000000000E+00 -0.32766983029E+02  0.32766983029E+02  0.00000000000E+00 0.  1.
         25    2    1    2    0    0 -0.56405933699E+01 -0.91325778009E+02  0.33565549665E+03  0.36970735224E+03  0.12508676928E+03 0.  0.
         23    2    1    2    0    0  0.56405933699E+01  0.91325778009E+02  0.25452510895E+03  0.28600721941E+03  0.92977870742E+02 0.  0.
          5    1    3    3  502    0 -0.29670097753E+02 -0.85688195932E+00  0.21431134337E+03  0.21639748900E+03  0.41800000000E+01 0.  1.
         -5    1    3    3    0  502  0.24029504383E+02 -0.90468896050E+02  0.12134415328E+03  0.15330986324E+03  0.41800000000E+01 0.  1.
        -11    1    4    4    0    0  0.19352627711E+02  0.39253985733E+02  0.21448621664E+03  0.21890577134E+03  0.00000000000E+00 0. -1.
         11    1    4    4    0    0 -0.13712034341E+02  0.52071792276E+02  0.40038892307E+02  0.67101448075E+02  0.00000000000E+00 0.  1.
</event>
<event>
 8    1  0.7262913E-009  0.1237771E+03  0.7561462E-02  0.1236993E+00
         -1   -1    0    0    0  501 -0.00000000000E+00  0.00000000000E+00  0.72564542501E+02  0.72564542501E+02  0.00000000000E+00 0.  1.
          1   -1    0    0  501    0  0.00000000000E+00 -0.00000000000E+00 -0.36248896760E+03  0.36248896760E+03  0.00000000000E+00 0. -1.
         25    2    1    2    0    0 -0.45418703432E+02  0.66290322980E+02 -0.35065859542E+02  0.15275486133E+03  0.12508863902E+03 0.  0.
         23    2    1    2    0    0  0.45418703432E+02 -0.66290322980E+02 -0.25485856556E+03  0.28229864877E+03  0.91007544294E+02 0.  0.
          5    1    3    3  502    0  0.20008247489E+02 -0.13299238135E+02  0.23754274929E+02  0.34043173764E+02  0.41800000000E+01 0. -1.
         -5    1    3    3    0  502 -0.65426950921E+02  0.79589561115E+02 -0.58820134471E+02  0.11871168756E+03  0.41800000000E+01 0. -1.
        -11    1    4    4    0    0  0.72406283012E+02 -0.41772576057E+02 -0.19571434507E+03  0.21281852080E+03  0.00000000000E+00 0. -1.
         11    1    4    4    0    0 -0.26987579580E+02 -0.24517746923E+02 -0.59144220490E+02  0.69480127973E+02  0.00000000000E+00 0.  1.
</event>
<event>
 8    1  0.7262913E-009  0.1485979E+03  0.7561462E-02  0.1202207E+00
         -1   -1    0    0    0  501 -0.00000000000E+00  0.00000000000E+00  0.60917903648E+03  0.60917903648E+03  0.00000000000E+00 0.  1.
          1   -1    0    0  501    0  0.00000000000E+00 -0.00000000000E+00 -0.39746800511E+02  0.39746800511E+02  0.00000000000E+00 0. -1.
         25    2    1    2    0    0  0.89953262708E+02  0.50432286470E+02  0.39077256087E+03  0.42306636982E+03  0.12508778499E+03 0.  0.
         23    2    1    2    0    0 -0.89953262708E+02 -0.50432286470E+02  0.17865967510E+03  0.22585946717E+03  0.91968551220E+02 0.  0.
          5    1    3    3  502    0  0.53196149834E+02  0.91342459182E+02  0.28011127638E+03  0.29942123298E+03  0.41800000000E+01 0. -1.
         -5    1    3    3    0  502  0.36757112875E+02 -0.40910172712E+02  0.11066128449E+03  0.12364513684E+03  0.41800000000E+01 0. -1.
        -11    1    4    4    0    0  0.13907322517E+02 -0.26109995381E+02  0.55777314731E+02  0.63136790519E+02  0.00000000000E+00 0. -1.
         11    1    4    4    0    0 -0.10386058523E+03 -0.24322291088E+02  0.12288236037E+03  0.16272267665E+03  0.00000000000E+00 0.  1.
</event>
<event>
 8    1  0.7262913E-009  0.6142021E+02  0.7561462E-02  0.1391967E+00
         -1   -1    0    0    0  501 -0.00000000000E+00  0.00000000000E+00  0.84487224901E+02  0.84487224901E+02  0.00000000000E+00 0.  1.
          1   -1    0    0  501    0  0.00000000000E+00 -0.00000000000E+00 -0.18942217482E+03  0.18942217482E+03  0.00000000000E+00 0. -1.
         25    2    1    2    0    0 -0.28264031757E+02  0.22414696561E+02 -0.11569491411E+03  0.17416459816E+03  0.12508684978E+03 0.  0.
         23    2    1    2    0    0  0.28264031757E+02 -0.22414696561E+02  0.10759964189E+02  0.99744801564E+02  0.92368687858E+02 0.  0.
          5    1    3    3  502    0  0.19379928267E+01  0.45096097690E+02  0.68657234010E+01  0.45847839654E+02  0.41800000000E+01 0. -1.
         -5    1    3    3    0  502 -0.30202024584E+02 -0.22681401129E+02 -0.12256063751E+03  0.12831675851E+03  0.41800000000E+01 0. -1.
        -11    1    4    4    0    0  0.40621825606E+01 -0.12864329756E+02  0.50485784215E+02  0.52257121190E+02  0.00000000000E+00 0.  1.
         11    1    4    4    0    0  0.24201849196E+02 -0.95503668048E+01 -0.39725820026E+02  0.47487680374E+02  0.00000000000E+00 0. -1.
</event>
<event>
 8    1  0.7262913E-009  0.2209630E+03  0.7561462E-02  0.1133167E+00
         -1   -1    0    0    0  501 -0.00000000000E+00  0.00000000000E+00  0.84208902541E+03  0.84208902541E+03  0.00000000000E+00 0.  1.
          1   -1    0    0  501    0  0.00000000000E+00 -0.00000000000E+00 -0.75740270060E+02  0.75740270060E+02  0.00000000000E+00 0. -1.
         25    2    1    2    0    0 -0.18373901143E+03  0.10020202847E+03  0.23109879147E+03  0.33593794098E+03  0.12508868030E+03 0.  0.
         23    2    1    2    0    0  0.18373901143E+03 -0.10020202847E+03  0.53524996388E+03  0.58189135449E+03  0.91129324420E+02 0.  0.
          5    1    3    3  502    0 -0.15069139498E+03  0.11811826813E+03  0.22833016692E+03  0.29801335425E+03  0.41800000000E+01 0. -1.
         -5    1    3    3    0  502 -0.33047616448E+02 -0.17916239659E+02  0.27686245532E+01  0.37924586726E+02  0.41800000000E+01 0. -1.
        -11    1    4    4    0    0  0.15368501610E+03 -0.98387535604E+02  0.35510642932E+03  0.39924900436E+03  0.00000000000E+00 0. -1.
         11    1    4    4    0    0  0.30053995330E+02 -0.18144928688E+01  0.18014353456E+03  0.18264235013E+03  0.00000000000E+00 0.  1.
</event>
<event>
 8    1  0.7262913E-009  0.1357695E+03  0.7561462E-02  0.1219137E+00
          1   -1    0    0  501    0  0.00000000000E+00  0.00000000000E+00  0.54350453280E+03  0.54350453280E+03  0.00000000000E+00 0. -1.
         -1   -1    0    0    0  501 -0.00000000000E+00 -0.00000000000E+00 -0.47339362172E+02  0.47339362172E+02  0.00000000000E+00 0.  1.
         25    2    1    2    0    0 -0.22050924746E+02  0.10861760925E+03  0.34181453886E+03  0.38048019819E+03  0.12507587264E+03 0.  0.
         23    2    1    2    0    0  0.22050924746E+02 -0.10861760925E+03  0.15435063177E+03  0.21036369678E+03  0.90248208158E+02 0.  0.
          5    1    3    3  502    0  0.18119976161E+02  0.70245568980E+01  0.20210052303E+03  0.20307577833E+03  0.41800000000E+01 0. -1.
         -5    1    3    3    0  502 -0.40170900907E+02  0.10159305235E+03  0.13971401583E+03  0.17740441986E+03  0.41800000000E+01 0. -1.
        -11    1    4    4    0    0  0.37641896521E+02 -0.11818960386E+03  0.14048653580E+03  0.18740907549E+03  0.00000000000E+00 0.  1.
         11    1    4    4    0    0 -0.15590971775E+02  0.95719946119E+01  0.13864095973E+02  0.22954621298E+02  0.00000000000E+00 0. -1.
</event>
<event>
 8    1  0.7262913E-009  0.8845272E+02  0.7561462E-02  0.1306643E+00
          2   -1    0    0  501    0  0.00000000000E+00  0.00000000000E+00  0.46915195996E+03  0.46915195996E+03  0.00000000000E+00 0. -1.
         -2   -1    0    0    0  501 -0.00000000000E+00 -0.00000000000E+00 -0.59175775142E+02  0.59175775142E+02  0.00000000000E+00 0.  1.
         25    2    1    2    0    0  0.63486909860E+02  0.32475393668E+02  0.38722524124E+03  0.41313000584E+03  0.12509106824E+03 0.  0.
         23    2    1    2    0    0 -0.63486909860E+02 -0.32475393668E+02  0.22750943579E+02  0.11519772926E+03  0.87565246966E+02 0.  0.
          5    1    3    3  502    0 -0.43697648935E+01  0.76113230030E+01 -0.72125616343E+01  0.12104566428E+02  0.41800000000E+01 0. -1.
         -5    1    3    3    0  502  0.67856674753E+02  0.24864070665E+02  0.39443780287E+03  0.40102543941E+03  0.41800000000E+01 0. -1.
        -11    1    4    4    0    0  0.84173097057E+01  0.85601315661E+01 -0.19000943176E+02  0.22475826941E+02  0.00000000000E+00 0.  1.
         11    1    4    4    0    0 -0.71904219565E+02 -0.41035525234E+02  0.41751886755E+02  0.92721902322E+02  0.00000000000E+00 0. -1.
</event>
<event>
 8    1  0.7262913E-009  0.1253520E+03  0.7561462E-02  0.1234520E+00
         -1   -1    0    0    0  501 -0.00000000000E+00  0.00000000000E+00  0.26111630483E+02  0.26111630483E+02  0.00000000000E+00 0.  1.
          1   -1    0    0  501    0  0.00000000000E+00 -0.00000000000E+00 -0.75395699480E+03  0.75395699480E+03  0.00000000000E+00 0. -1.
         25    2    1    2    0    0 -0.51933399532E+02 -0.52568063853E+02 -0.53524332939E+03  0.55461062050E+03  0.12508812648E+03 0.  0.
         23    2    1    2    0    0  0.51933399532E+02  0.52568063853E+02 -0.19260203493E+03  0.22545800479E+03  0.90968614039E+02 0.  0.
          5    1    3    3  502    0  0.18205740304E+02 -0.60634778941E+02 -0.14900854014E+03  0.16195382932E+03  0.41800000000E+01 0.  1.
         -5    1    3    3    0  502 -0.70139139836E+02  0.80667150886E+01 -0.38623478925E+03  0.39265679117E+03  0.41800000000E+01 0.  1.
        -11    1    4    4    0    0  0.25425850178E+02 -0.24331369656E+02 -0.47553364525E+02  0.59159207942E+02  0.00000000000E+00 0.  1.
         11    1    4    4    0    0  0.26507549354E+02  0.76899433509E+02 -0.14504867040E+03  0.16629879684E+03  0.00000000000E+00 0. -1.
</event>
<event>
 8    1  0.7262913E-009  0.1022600E+03  0.7561462E-02  0.1275614E+00
          2   -1    0    0  501    0  0.00000000000E+00  0.00000000000E+00  0.41715430439E+03  0.41715430439E+03  0.00000000000E+00 0. -1.
         -2   -1    0    0    0  501 -0.00000000000E+00 -0.00000000000E+00 -0.54847319830E+02  0.54847319830E+02  0.00000000000E+00 0.  1.
         25    2    1    2    0    0  0.69311462746E+02  0.64979958547E+02  0.12202931555E+03  0.19890982303E+03  0.12508992752E+03 0.  0.
         23    2    1    2    0    0 -0.69311462746E+02 -0.64979958547E+02  0.24027766901E+03  0.27309180119E+03  0.88426804574E+02 0.  0.
          5    1    3    3  502    0  0.71153413648E+02  0.57691278534E+02  0.14657793148E+03  0.17289781458E+03  0.41800000000E+01 0.  1.
         -5    1    3    3    0  502 -0.18419509012E+01  0.72886800122E+01 -0.24548615930E+02  0.26012008448E+02  0.41800000000E+01 0.  1.
        -11    1    4    4    0    0 -0.25374186849E+02 -0.52871055161E+02  0.48884573769E+02  0.76347229057E+02  0.00000000000E+00 0.  1.
         11    1    4    4    0    0 -0.43937275898E+02 -0.12108903385E+02  0.19139309525E+03  0.19674457213E+03  0.00000000000E+00 0. -1.
</event>
<event>
 8    1  0.7262913E-009  0.1086820E+03  0.7561462E-02  0.1263030E+00
          2   -1    0    0  501    0  0.00000000000E+00  0.00000000000E+00  0.57758461380E+03  0.57758461380E+03  0.00000000000E+00 0. -1.
         -2   -1    0    0    0  501 -0.00000000000E+00 -0.00000000000E+00 -0.23367087361E+02  0.23367087361E+02  0.00000000000E+00 0.  1.
         25    2    1    2    0    0  0.30706423125E+02  0.18230349221E+02  0.25934289471E+03  0.29014123899E+03  0.12509185215E+03 0.  0.
         23    2    1    2    0    0 -0.30706423125E+02 -0.18230349221E+02  0.29487463173E+03  0.31081046217E+03  0.91525214570E+02 0.  0.
          5    1    3    3  502    0 -0.95768049634E+01 -0.47429669485E+02  0.65742127762E+02  0.81736090581E+02  0.41800000000E+01 0. -1.
         -5    1    3    3    0  502  0.40283228089E+02  0.65660018707E+02  0.19360076695E+03  0.20840514841E+03  0.41800000000E+01 0. -1.
        -11    1    4    4    0    0 -0.45547084246E+02 -0.43089279577E+02  0.14211644157E+03  0.15533288725E+03  0.00000000000E+00 0.  1.
         11    1    4    4    0    0  0.14840661120E+02  0.24858930355E+02  0.15275819016E+03  0.15547757492E+03  0.00000000000E+00 0. -1.
</event>
<event>
 8    1  0.7262913E-009  0.1079355E+03  0.7561462E-02  0.1264441E+00
         -2   -1    0    0    0  501 -0.00000000000E+00  0.00000000000E+00  0.22368092095E+02  0.22368092095E+02  0.00000000000E+00 0. -1.
          2   -1    0    0  501    0  0.00000000000E+00 -0.00000000000E+00 -0.81158643517E+03  0.81158643517E+03  0.00000000000E+00 0.  1.
         25    2    1    2    0    0  0.55016122650E+02  0.26157822452E+02 -0.27561827200E+03  0.30874522081E+03  0.12508866489E+03 0.  0.
         23    2    1    2    0    0 -0.55016122650E+02 -0.26157822452E+02 -0.51360007107E+03  0.52520930646E+03  0.91371643063E+02 0.  0.
          5    1    3    3  502    0 -0.13884768467E+02 -0.19220818255E+02 -0.18325508283E+03  0.18482998791E+03  0.41800000000E+01 0.  1.
         -5    1    3    3    0  502  0.68900891117E+02  0.45378640707E+02 -0.92363189173E+02  0.12391523289E+03  0.41800000000E+01 0.  1.
        -11    1    4    4    0    0 -0.43296077981E+02 -0.59647821182E+02 -0.37201432124E+03  0.37924539305E+03  0.00000000000E+00 0.  1.
         11    1    4    4    0    0 -0.11720044669E+02  0.33489998730E+02 -0.14158574983E+03  0.14596391341E+03  0.00000000000E+00 0. -1.
</event>
<event>
 8    1  0.7262913E-009  0.1382765E+03  0.7561462E-02  0.1215667E+00
         -2   -1    0    0    0  501 -0.00000000000E+00  0.00000000000E+00  0.32079053615E+02  0.32079053615E+02  0.00000000000E+00 0.  1.
          2   -1    0    0  501    0  0.00000000000E+00 -0.00000000000E+00 -0.61267538234E+03  0.61267538234E+03  0.00000000000E+00 0. -1.
         25    2    1    2    0    0  0.75292176315E+02  0.45015093945E+02 -0.29757530989E+03  0.33450441633E+03  0.12508744538E+03 0.  0.
         23    2    1    2    0    0 -0.75292176315E+02 -0.45015093945E+02 -0.28302101884E+03  0.31025001963E+03  0.91972316907E+02 0.  0.
          5    1    3    3  502    0  0.10879326753E+03  0.31224194375E+02 -0.25082699446E+03  0.27521369683E+03  0.41800000000E+01 0.  1.
         -5    1    3    3    0  502 -0.33501091212E+02  0.13790899570E+02 -0.46748315427E+02  0.59290719498E+02  0.41800000000E+01 0.  1.
        -11    1    4    4    0    0  0.18775284445E+02 -0.23936090797E+02 -0.59451796478E+02  0.66782960799E+02  0.00000000000E+00 0.  1.
         11    1    4    4    0    0 -0.94067460760E+02 -0.21079003148E+02 -0.22356922236E+03  0.24346705883E+03  0.00000000000E+00 0. -1.
</event>
<event>
 8    1  0.7262913E-009  0.6110588E+02  0.7561462E-02  0.1393249E+00
         -1   -1    0    0    0  501 -0.00000000000E+00  0.00000000000E+00  0.14332444887E+03  0.14332444887E+03  0.00000000000E+00 0.  1.
          1   -1    0    0  501    0  0.00000000000E+00 -0.00000000000E+00 -0.82833600392E+02  0.82833600392E+02  0.00000000000E+00 0. -1.
         25    2    1    2    0    0  0.64661650876E+01 -0.13327284131E+02  0.30617475985E+02  0.12962959534E+03  0.12508786656E+03 0.  0.
         23    2    1    2    0    0 -0.64661650876E+01  0.13327284131E+02  0.29873372491E+02  0.96528453916E+02  0.90586402060E+02 0.  0.
          5    1    3    3  502    0 -0.41909254276E+01 -0.19623856448E+02  0.77912300689E+02  0.80563382479E+02  0.41800000000E+01 0. -1.
         -5    1    3    3    0  502  0.10657090515E+02  0.62965723172E+01 -0.47294824703E+02  0.49066212865E+02  0.41800000000E+01 0. -1.
        -11    1    4    4    0    0 -0.18421831863E+02  0.48297879601E+02  0.48989368631E+01  0.51923488380E+02  0.00000000000E+00 0. -1.
         11    1    4    4    0    0  0.11955666775E+02 -0.34970595470E+02  0.24974435628E+02  0.44604965536E+02  0.00000000000E+00 0.  1.
</event>
<event>
 8    1  0.7262913E-009  0.1411193E+03  0.7561462E-02  0.1211831E+00
         -1   -1    0    0    0  501 -0.00000000000E+00  0.00000000000E+00  0.29527888637E+03  0.29527888637E+03  0.00000000000E+00 0.  1.
          1   -1    0    0  501    0  0.00000000000E+00 -0.00000000000E+00 -0.78879220684E+02  0.78879220684E+02  0.00000000000E+00 0. -1.
         25    2    1    2    0    0 -0.96337277437E+02 -0.48663531165E+02  0.11876918903E+03  0.20347528401E+03  0.12508821147E+03 0.  0.
         23    2    1    2    0    0  0.96337277437E+02  0.48663531165E+02  0.97630476654E+02  0.17068282305E+03  0.89173459181E+02 0.  0.
          5    1    3    3  502    0  0.18340392795E+01 -0.59102433412E+02  0.17093492299E+02  0.61693769655E+02  0.41800000000E+01 0.  1.
         -5    1    3    3    0  502 -0.98171316717E+02  0.10438902247E+02  0.10167569673E+03  0.14178151435E+03  0.41800000000E+01 0.  1.
        -11    1    4    4    0    0  0.83368311569E+02  0.10727990946E+02  0.99862932925E+02  0.13052957725E+03  0.00000000000E+00 0.  1.
         11    1    4    4    0    0  0.12968965868E+02  0.37935540219E+02 -0.22324562713E+01  0.40153245801E+02  0.00000000000E+00 0. -1.
</event>
<event>
 8    1  0.7262913E-009  0.1357869E+03  0.7561462E-02  0.1219113E+00
          2   -1    0    0  501    0  0.00000000000E+00  0.00000000000E+00  0.48675472973E+03  0.48675472973E+03  0.00000000000E+00 0. -1.
         -2   -1    0    0    0  501 -0.00000000000E+00 -0.00000000000E+00 -0.45860050780E+02  0.45860050780E+02  0.00000000000E+00 0.  1.
         25    2    1    2    0    0  0.13674084696E+02  0.10013049477E+03  0.23208257832E+03  0.28235289971E+03  0.12509092789E+03 0.  0.
         23    2    1    2    0    0 -0.13674084696E+02 -0.10013049477E+03  0.20881210063E+03  0.25026188080E+03  0.93890462956E+02 0.  0.
          5    1    3    3  502    0 -0.30710115327E+01  0.11236190501E+03  0.10616550896E+03  0.15467131765E+03  0.41800000000E+01 0.  1.
         -5    1    3    3    0  502  0.16745096229E+02 -0.12231410236E+02  0.12591706935E+03  0.12768158206E+03  0.41800000000E+01 0.  1.
        -11    1    4    4    0    0  0.35140551810E+02 -0.11893128109E+02  0.57138549429E+02  0.68125756572E+02  0.00000000000E+00 0.  1.
         11    1    4    4    0    0 -0.48814636506E+02 -0.88237366664E+02  0.15167355120E+03  0.18213612423E+03  0.00000000000E+00 0. -1.
</event>
<event>
 8    1  0.7262913E-009  0.9163492E+02  0.7561462E-02  0.1298940E+00
          1   -1    0    0  501    0  0.00000000000E+00  0.00000000000E+00  0.44224419023E+03  0.44224419023E+03  0.00000000000E+00 0.  1.
         -1   -1    0    0    0  501 -0.00000000000E+00 -0.00000000000E+00 -0.40684738526E+02  0.40684738526E+02  0.00000000000E+00 0. -1.
         25    2    1    2    0    0  0.85809677823E+01  0.42094606462E+02  0.33987698651E+03  0.36470855157E+03  0.12510144976E+03 0.  0.
         23    2    1    2    0    0 -0.85809677823E+01 -0.42094606462E+02  0.61682465195E+02  0.11822037718E+03  0.91245504915E+02 0.  0.
          5    1    3    3  502    0  0.12722410730E+01 -0.34555742045E+02  0.31922542550E+02  0.47246576897E+02  0.41800000000E+01 0. -1.
         -5    1    3    3    0  502  0.73087267093E+01  0.76650348507E+02  0.30795444396E+03  0.31746197468E+03  0.41800000000E+01 0. -1.
        -11    1    4    4    0    0  0.22389038990E+02 -0.48848797911E+01 -0.15104752052E+02  0.27446031626E+02  0.00000000000E+00 0. -1.
         11    1    4    4    0    0 -0.30970006773E+02 -0.37209726671E+02  0.76787217247E+02  0.90774345555E+02  0.00000000000E+00 0.  1.
</event>
<event>
 8    1  0.7262913E-009  0.1287039E+03  0.7561462E-02  0.1229392E+00
         -1   -1    0    0    0  501 -0.00000000000E+00  0.00000000000E+00  0.41573760378E+03  0.41573760378E+03  0.00000000000E+00 0.  1.
          1   -1    0    0  501    0  0.00000000000E+00 -0.00000000000E+00 -0.54069697170E+02  0.54069697170E+02  0.00000000000E+00 0. -1.
         25    2    1    2    0    0 -0.25155116360E+02  0.74786717154E+02  0.91099868774E+02  0.17369930973E+03  0.12508569529E+03 0.  0.
         23    2    1    2    0    0  0.25155116360E+02 -0.74786717154E+02  0.27056803784E+03  0.29610799123E+03  0.90813250280E+02 0.  0.
          5    1    3    3  502    0 -0.67231406533E+02  0.79634998446E+02  0.73725571489E+02  0.12772911686E+03  0.41800000000E+01 0. -1.
         -5    1    3    3    0  502  0.42076290173E+02 -0.48482812916E+01  0.17374297285E+02  0.45970192868E+02  0.41800000000E+01 0. -1.
        -11    1    4    4    0    0  0.15081201916E+02  0.14363075460E+02  0.11198816321E+03  0.11390824943E+03  0.00000000000E+00 0.  1.
         11    1    4    4    0    0  0.10073914444E+02 -0.89149792614E+02  0.15857987463E+03  0.18219974180E+03  0.00000000000E+00 0. -1.
</event>
<event>
 8    1  0.7262913E-009  0.9776516E+02  0.7561462E-02  0.1285067E+00
         -1   -1    0    0    0  501 -0.00000000000E+00  0.00000000000E+00  0.21153726039E+03  0.21153726039E+03  0.00000000000E+00 0.  1.
          1   -1    0    0  501    0  0.00000000000E+00 -0.00000000000E+00 -0.83477765232E+02  0.83477765232E+02  0.00000000000E+00 0. -1.
         25    2    1    2    0    0  0.54044773541E+02 -0.20695106686E+02  0.15667820224E+02  0.13871326697E+03  0.12508702913E+03 0.  0.
         23    2    1    2    0    0 -0.54044773541E+02  0.20695106686E+02  0.11239167494E+03  0.15630175865E+03  0.91919672401E+02 0.  0.
          5    1    3    3  502    0  0.13350712734E+02  0.23506458667E+02 -0.45361093698E+02  0.52970712200E+02  0.41800000000E+01 0. -1.
         -5    1    3    3    0  502  0.40694060808E+02 -0.44201565353E+02  0.61028913922E+02  0.85742554774E+02  0.41800000000E+01 0. -1.
        -11    1    4    4    0    0 -0.40138912425E+02 -0.33323820380E+02  0.63008222270E+02  0.81802477768E+02  0.00000000000E+00 0.  1.
         11    1    4    4    0    0 -0.13905861117E+02  0.54018927066E+02  0.49383452668E+02  0.74499280884E+02  0.00000000000E+00 0. -1.
</event>
<event>
 8    1  0.7262913E-009  0.8480750E+02  0.7561462E-02  0.1315937E+00
         -2   -1    0    0    0  501 -0.00000000000E+00  0.00000000000E+00  0.51465056563E+02  0.51465056563E+02  0.00000000000E+00 0.  1.
          2   -1    0    0  501    0  0.00000000000E+00 -0.00000000000E+00 -0.32921537244E+03  0.32921537244E+03  0.00000000000E+00 0. -1.
         25    2    1    2    0    0  0.29550080624E+02 -0.26180828144E+02 -0.65495928439E+02  0.14660862599E+03  0.12508289070E+03 0.  0.
         23    2    1    2    0    0 -0.29550080624E+02  0.26180828144E+02 -0.21225438744E+03  0.23407180302E+03  0.90438050359E+02 0.  0.
          5    1    3    3  502    0  0.59857569275E+02 -0.12139534546E+02 -0.87208613771E+02  0.10655098129E+03  0.41800000000E+01 0. -1.
         -5    1    3    3    0  502 -0.30307488650E+02 -0.14041293599E+02  0.21712685333E+02  0.40057644696E+02  0.41800000000E+01 0. -1.
        -11    1    4    4    0    0 -0.46573859783E+02  0.39613783446E+01 -0.19643493297E+03  0.20191953800E+03  0.00000000000E+00 0. -1.
         11    1    4    4    0    0  0.17023779159E+02  0.22219449800E+02 -0.15819454470E+02  0.32152265021E+02  0.00000000000E+00 0.  1.
</event>
<event>
 8    1  0.7262913E-009  0.6652202E+02  0.7561462E-02  0.1372336E+00
         -1   -1    0    0    0  501 -0.00000000000E+00  0.00000000000E+00  0.21878559474E+03  0.21878559474E+03  0.00000000000E+00 0.  1.
          1   -1    0    0  501    0  0.00000000000E+00 -0.00000000000E+00 -0.62567349624E+02  0.62567349624E+02  0.00000000000E+00 0. -1.
         25    2    1    2    0    0 -0.69546383584E+01  0.44299737297E+02  0.89853326857E+02  0.16040927581E+03  0.12508669673E+03 0.  0.
         23    2    1    2    0    0  0.69546383584E+01 -0.44299737297E+02  0.66364918255E+02  0.12094366855E+03  0.90621381963E+02 0.  0.
          5    1    3    3  502    0  0.11734925660E+02  0.98617648653E+00  0.10871646286E+03  0.10943227459E+03  0.41800000000E+01 0.  1.
         -5    1    3    3    0  502 -0.18689564018E+02  0.43313560810E+02 -0.18863136005E+02  0.50977001218E+02  0.41800000000E+01 0.  1.
        -11    1    4    4    0    0 -0.58237614465E+01 -0.55736750505E+02  0.80933655979E+02  0.98441648830E+02  0.00000000000E+00 0.  1.
         11    1    4    4    0    0  0.12778399805E+02  0.11437013209E+02 -0.14568737724E+02  0.22502019723E+02  0.00000000000E+00 0. -1.
</event>
<event>
 8    1  0.7262913E-009  0.1032194E+03  0.7561462E-02  0.1273668E+00
          2   -1    0    0  501    0  0.00000000000E+00  0.00000000000E+00  0.35606872104E+03  0.35606872104E+03  0.00000000000E+00 0. -1.
         -2   -1    0    0    0  501 -0.00000000000E+00 -0.00000000000E+00 -0.46573025969E+02  0.46573025969E+02  0.00000000000E+00 0.  1.
         25    2    1    2    0    0 -0.25808168705E+02 -0.33058667838E+02  0.25776843398E+03  0.28957153438E+03  0.12509264917E+03 0.  0.
         23    2    1    2    0    0  0.25808168705E+02  0.33058667838E+02  0.51727261093E+02  0.11307021263E+03  0.91379572949E+02 0.  0.
          5    1    3    3  502    0 -0.68318960123E+02 -0.62115245662E+01  0.20652183508E+03  0.21765753861E+03  0.41800000000E+01 0.  1.
         -5    1    3    3    0  502  0.42510791418E+02 -0.26847143271E+02  0.51246598898E+02  0.71913995769E+02  0.41800000000E+01 0.  1.
        -11    1    4    4    0    0 -0.27124843038E+02  0.16709000690E+02  0.47913944345E+02  0.57538629429E+02  0.00000000000E+00 0. -1.
         11    1    4    4    0    0  0.52933011742E+02  0.16349667148E+02  0.38133167486E+01  0.55531583199E+02  0.00000000000E+00 0.  1.
</event>
<event>
 8    1  0.7262913E-009  0.1081607E+03  0.7561462E-02  0.1264014E+00
          2   -1    0    0  501    0  0.00000000000E+00  0.00000000000E+00  0.16040188850E+04  0.16040188850E+04  0.00000000000E+00 0.  1.
         -2   -1    0    0    0  501 -0.00000000000E+00 -0.00000000000E+00 -0.95924699847E+01  0.95924699847E+01  0.00000000000E+00 0. -1.
         25    2    1    2    0    0 -0.98630270451E+01  0.28272585129E+01  0.12475081542E+04  0.12538055655E+04  0.12508608513E+03 0.  0.
         23    2    1    2    0    0  0.98630270451E+01 -0.28272585129E+01  0.34691826085E+03  0.35980578948E+03  0.94882315202E+02 0.  0.
          5    1    3    3  502    0 -0.14481856566E+02  0.62424016257E+02  0.73708582225E+03  0.73987800598E+03  0.41800000000E+01 0. -1.
         -5    1    3    3    0  502  0.46188295207E+01 -0.59596757744E+02  0.51042233195E+03  0.51392755956E+03  0.41800000000E+01 0. -1.
        -11    1    4    4    0    0  0.36209674075E+01 -0.47216940663E+02  0.22445638080E+03  0.22939751039E+03  0.00000000000E+00 0.  1.
         11    1    4    4    0    0  0.62420596376E+01  0.44389682151E+02  0.12246188005E+03  0.13040827909E+03  0.00000000000E+00 0. -1.
</event>
<event>
 8    1  0.7262913E-009  0.1365391E+03  0.7561462E-02  0.1218063E+00
         -3   -1    0    0    0  501 -0.00000000000E+00  0.00000000000E+00  0.47914068455E+02  0.47914068455E+02  0.00000000000E+00 0.  1.
          3   -1    0    0  501    0  0.00000000000E+00 -0.00000000000E+00 -0.47333258610E+03  0.47333258610E+03  0.00000000000E+00 0. -1.
         25    2    1    2    0    0  0.60041381693E+02 -0.73961254146E+02 -0.15704847412E+03  0.22222705892E+03  0.12508160481E+03 0.  0.
         23    2    1    2    0    0 -0.60041381693E+02  0.73961254146E+02 -0.26837004352E+03  0.29901959564E+03  0.91186642023E+02 0.  0.
          5    1    3    3  502    0  0.97635951581E+02 -0.63309635618E+02 -0.12998545609E+03  0.17451240700E+03  0.41800000000E+01 0.  1.
         -5    1    3    3    0  502 -0.37594569888E+02 -0.10651618527E+02 -0.27063018032E+02  0.47714651914E+02  0.41800000000E+01 0.  1.
        -11    1    4    4    0    0 -0.40556511240E+02 -0.30802701387E+00 -0.35783663888E+02  0.54086930823E+02  0.00000000000E+00 0.  1.
         11    1    4    4    0    0 -0.19484870453E+02  0.74269281160E+02 -0.23258637964E+03  0.24493266481E+03  0.00000000000E+00 0. -1.
</event>
<event>
 8    1  0.7262913E-009  0.1119933E+03  0.7561462E-02  0.1256922E+00
          1   -1    0    0  501    0  0.00000000000E+00  0.00000000000E+00  0.71967199522E+03  0.71967199522E+03  0.00000000000E+00 0. -1.
         -1   -1    0    0    0  501 -0.00000000000E+00 -0.00000000000E+00 -0.23295939683E+02  0.23295939683E+02  0.00000000000E+00 0.  1.
         25    2    1    2    0    0 -0.43477101422E+02  0.30626224790E+02  0.52082677499E+03  0.53827142412E+03  0.12508945794E+03 0.  0.
         23    2    1    2    0    0  0.43477101422E+02 -0.30626224790E+02  0.17554928055E+03  0.20469651078E+03  0.90856412172E+02 0.  0.
          5    1    3    3  502    0  0.40095174048E+02 -0.10953348922E+02  0.13648881981E+03  0.14273846422E+03  0.41800000000E+01 0.  1.
         -5    1    3    3    0  502 -0.83572275470E+02  0.41579573713E+02  0.38433795518E+03  0.39553295990E+03  0.41800000000E+01 0.  1.
        -11    1    4    4    0    0 -0.13450873833E+02 -0.28835611583E+02  0.12352376310E+03  0.12755602123E+03  0.00000000000E+00 0. -1.
         11    1    4    4    0    0  0.56927975255E+02 -0.17906132075E+01  0.52025517447E+02  0.77140489549E+02  0.00000000000E+00 0.  1.
</event>
<event>
 8    1  0.7262913E-009  0.1509079E+03  0.7561462E-02  0.1199362E+00
          1   -1    0    0  501    0  0.00000000000E+00  0.00000000000E+00  0.10608015433E+04  0.10608015433E+04  0.00000000000E+00 0. -1.
         -1   -1    0    0    0  501 -0.00000000000E+00 -0.00000000000E+00 -0.23710823325E+02  0.23710823325E+02  0.00000000000E+00 0.  1.
         25    2    1    2    0    0 -0.42156717966E+02 -0.10057455266E+03  0.67590629122E+03  0.69597901041E+03  0.12508012994E+03 0.  0.
         23    2    1    2    0    0  0.42156717966E+02  0.10057455266E+03  0.36118442874E+03  0.38853335620E+03  0.92798425658E+02 0.  0.
          5    1    3    3  502    0 -0.73958003379E+02 -0.10974717703E+03  0.55231599101E+03  0.56796536466E+03  0.41800000000E+01 0.  1.
         -5    1    3    3    0  502  0.31801285413E+02  0.91726243658E+01  0.12359030021E+03  0.12801364574E+03  0.41800000000E+01 0.  1.
        -11    1    4    4    0    0  0.59396909363E+02  0.10273817747E+03  0.34480194677E+03  0.36465258596E+03  0.00000000000E+00 0.  1.
         11    1    4    4    0    0 -0.17240191397E+02 -0.21636248105E+01  0.16382481965E+02  0.23880770236E+02  0.00000000000E+00 0. -1.
</event>
<event>
 8    1  0.7262913E-009  0.1185498E+03  0.7561462E-02  0.1245509E+00
         -1   -1    0    0    0  501 -0.00000000000E+00  0.00000000000E+00  0.20310339736E+02  0.20310339736E+02  0.00000000000E+00 0.  1.
          1   -1    0    0  501    0  0.00000000000E+00 -0.00000000000E+00 -0.86049174287E+03  0.86049174287E+03  0.00000000000E+00 0. -1.
         25    2    1    2    0    0 -0.58707342526E+02  0.23625659763E+02 -0.61004440442E+03  0.62594553496E+03  0.12509561745E+03 0.  0.
         23    2    1    2    0    0  0.58707342526E+02 -0.23625659763E+02 -0.23013699871E+03  0.25485654765E+03  0.89353779081E+02 0.  0.
          5    1    3    3  502    0 -0.25969186469E+02 -0.51337117385E+02 -0.22401819379E+03  0.23132557536E+03  0.41800000000E+01 0. -1.
         -5    1    3    3    0  502 -0.32738156057E+02  0.74962777148E+02 -0.38602621063E+03  0.39461995960E+03  0.41800000000E+01 0. -1.
        -11    1    4    4    0    0  0.73451122744E+02 -0.48139907552E+01 -0.10994259316E+03  0.13230878932E+03  0.00000000000E+00 0.  1.
         11    1    4    4    0    0 -0.14743780217E+02 -0.18811669008E+02 -0.12019440555E+03  0.12254775833E+03  0.00000000000E+00 0. -1.
</event>
<event>
 8    1  0.7262913E-009  0.9461623E+02  0.7561462E-02  0.1292043E+00
         -2   -1    0    0    0  501 -0.00000000000E+00  0.00000000000E+00  0.57238204247E+02  0.57238204247E+02  0.00000000000E+00 0.  1.
          2   -1    0    0  501    0  0.00000000000E+00 -0.00000000000E+00 -0.24202611803E+03  0.24202611803E+03  0.00000000000E+00 0. -1.
         25    2    1    2    0    0 -0.34667604370E+02 -0.20317095606E+01 -0.68634938927E+02  0.14684496493E+03  0.12508684282E+03 0.  0.
         23    2    1    2    0    0  0.34667604370E+02  0.20317095606E+01 -0.11615297486E+03  0.15241935735E+03  0.92380605597E+02 0.  0.
          5    1    3    3  502    0 -0.69976688367E+02  0.25083345647E+02 -0.69882714737E+02  0.10211257201E+03  0.41800000000E+01 0. -1.
         -5    1    3    3    0  502  0.35309083998E+02 -0.27115055207E+02  0.12477758091E+01  0.44732392917E+02  0.41800000000E+01 0. -1.
        -11    1    4    4    0    0  0.32652138586E+02 -0.26135859010E+02 -0.11691375715E+03  0.12416952884E+03  0.00000000000E+00 0. -1.
         11    1    4    4    0    0  0.20154657844E+01  0.28167568571E+02  0.76078229054E+00  0.28249828516E+02  0.00000000000E+00 0.  1.
</event>
<event>
 8    1  0.7262913E-009  0.6978368E+02  0.7561462E-02  0.1360830E+00
         -3   -1    0    0    0  501 -0.00000000000E+00  0.00000000000E+00  0.26469358184E+03  0.26469358184E+03  0.00000000000E+00 0.  1.
          3   -1    0    0  501    0  0.00000000000E+00 -0.00000000000E+00 -0.52272974328E+02  0.52272974328E+02  0.00000000000E+00 0. -1.
         25    2    1    2    0    0  0.35911545234E+02 -0.14711195100E+02  0.87094279947E+02  0.15728392160E+03  0.12508700992E+03 0.  0.
         23    2    1    2    0    0 -0.35911545234E+02  0.14711195100E+02  0.12532632756E+03  0.15968263457E+03  0.91026353657E+02 0.  0.
          5    1    3    3  502    0  0.53849373478E+01  0.16438199351E+02  0.10749182950E+03  0.10895493452E+03  0.41800000000E+01 0. -1.
         -5    1    3    3    0  502  0.30526607886E+02 -0.31149394452E+02 -0.20397549552E+02  0.48328987072E+02  0.41800000000E+01 0. -1.
        -11    1    4    4    0    0 -0.14273280085E+02  0.41288597718E+02  0.11631109276E+03  0.12424469858E+03  0.00000000000E+00 0.  1.
         11    1    4    4    0    0 -0.21638265148E+02 -0.26577402617E+02  0.90152347993E+01  0.35437935987E+02  0.00000000000E+00 0. -1.
</event>
<event>
 8    1  0.7262913E-009  0.2316279E+03  0.7561462E-02  0.1125499E+00
          1   -1    0    0  501    0  0.00000000000E+00  0.00000000000E+00  0.27115470126E+03  0.27115470126E+03  0.00000000000E+00 0.  1.
         -1   -1    0    0    0  501 -0.00000000000E+00 -0.00000000000E+00 -0.49007442029E+03  0.49007442029E+03  0.00000000000E+00 0. -1.
         25    2    1    2    0    0  0.20214332089E+03  0.82457966832E+02 -0.39322060070E+03  0.46683058067E+03  0.12508841576E+03 0.  0.
         23    2    1    2    0    0 -0.20214332089E+03 -0.82457966832E+02  0.17430088168E+03  0.29439854088E+03  0.92889531398E+02 0.  0.
          5    1    3    3  502    0  0.19606007854E+03  0.53523766528E+02 -0.25856476281E+03  0.32890356785E+03  0.41800000000E+01 0.  1.
         -5    1    3    3    0  502  0.60832423458E+01  0.28934200305E+02 -0.13465583790E+03  0.13792701281E+03  0.41800000000E+01 0.  1.
        -11    1    4    4    0    0 -0.18594078413E+03 -0.95763093127E+02  0.17601902847E+03  0.27336284238E+03  0.00000000000E+00 0.  1.
         11    1    4    4    0    0 -0.16202536757E+02  0.13305126295E+02 -0.17181467906E+01  0.21035698502E+02  0.00000000000E+00 0. -1.
</event>
<event>
 8    1  0.7262913E-009  0.1561072E+03  0.7561462E-02  0.1193163E+00
          1   -1    0    0  501    0  0.00000000000E+00  0.00000000000E+00  0.31131390772E+03  0.31131390772E+03  0.00000000000E+00 0. -1.
         -1   -1    0    0    0  501 -0.00000000000E+00 -0.00000000000E+00 -0.12194150262E+03  0.12194150262E+03  0.00000000000E+00 0.  1.
         25    2    1    2    0    0 -0.15235843031E+03 -0.10177638394E+02  0.15823236620E+03  0.25298483864E+03  0.12508865358E+03 0.  0.
         23    2    1    2    0    0  0.15235843031E+03  0.10177638394E+02  0.31140038889E+02  0.18027057170E+03  0.90615127825E+02 0.  0.
          5    1    3    3  502    0 -0.10912703328E+03  0.13413339837E+02  0.16969792640E+03  0.20224610182E+03  0.41800000000E+01 0.  1.
         -5    1    3    3    0  502 -0.43231397028E+02 -0.23590978231E+02 -0.11465560195E+02  0.50738736814E+02  0.41800000000E+01 0.  1.
        -11    1    4    4    0    0  0.12268044052E+03  0.99262573927E+01  0.61691534365E+02  0.13767667371E+03  0.00000000000E+00 0. -1.
         11    1    4    4    0    0  0.29677989787E+02  0.25138100113E+00 -0.30551495475E+02  0.42593897990E+02  0.00000000000E+00 0.  1.
</event>
<event>
 8    1  0.7262913E-009  0.1417404E+03  0.7561462E-02  0.1211006E+00
         -1   -1    0    0    0  501 -0.00000000000E+00  0.00000000000E+00  0.66525140527E+02  0.66525140527E+02  0.00000000000E+00 0.  1.
          1   -1    0    0  501    0  0.00000000000E+00 -0.00000000000E+00 -0.39171318851E+03  0.39171318851E+03  0.00000000000E+00 0. -1.
         25    2    1    2    0    0 -0.72231781246E+02 -0.93284418229E+02 -0.15919743515E+03  0.23433092478E+03  0.12509095108E+03 0.  0.
         23    2    1    2    0    0  0.72231781246E+02  0.93284418229E+02 -0.16599061283E+03  0.22390740426E+03  0.93071097704E+02 0.  0.
          5    1    3    3  502    0 -0.69793989579E+02 -0.34593592509E+02 -0.16187920667E+02  0.79670815231E+02  0.41800000000E+01 0.  1.
         -5    1    3    3    0  502 -0.24377916673E+01 -0.58690825720E+02 -0.14300951448E+03  0.15466010955E+03  0.41800000000E+01 0.  1.
        -11    1    4    4    0    0 -0.18781763649E+02  0.31175194976E+02 -0.64720855364E+02  0.74252518790E+02  0.00000000000E+00 0.  1.
         11    1    4    4    0    0  0.91013544895E+02  0.62109223253E+02 -0.10126975747E+03  0.14965488547E+03  0.00000000000E+00 0. -1.
</event>
<event>
 8    1  0.7262913E-009  0.1088499E+03  0.7561462E-02  0.1262715E+00
         -4   -1    0    0    0  501 -0.00000000000E+00  0.00000000000E+00  0.10869617899E+03  0.10869617899E+03  0.00000000000E+00 0.  1.
          4   -1    0    0  501    0  0.00000000000E+00 -0.00000000000E+00 -0.24410579608E+03  0.24410579608E+03  0.00000000000E+00 0. -1.
         25    2    1    2    0    0 -0.63052031196E+02  0.48602890342E+02  0.25985673644E+02  0.15053398685E+03  0.12508967333E+03 0.  0.
         23    2    1    2    0    0  0.63052031196E+02 -0.48602890342E+02 -0.16139529073E+03  0.20226798823E+03  0.92336881057E+02 0.  0.
          5    1    3    3  502    0 -0.46324752831E+02 -0.30694480532E+02  0.39444947557E+02  0.68275252821E+02  0.41800000000E+01 0. -1.
         -5    1    3    3    0  502 -0.16727278366E+02  0.79297370874E+02 -0.13459273913E+02  0.82258734025E+02  0.41800000000E+01 0. -1.
        -11    1    4    4    0    0  0.37188786481E+02 -0.37051861085E+02 -0.17088414502E+02  0.55207428485E+02  0.00000000000E+00 0.  1.
         11    1    4    4    0    0  0.25863244715E+02 -0.11551029257E+02 -0.14430687623E+03  0.14706055974E+03  0.00000000000E+00 0. -1.
</event>
<event>
 8    1  0.7262913E-009  0.1274911E+03  0.7561462E-02  0.1231227E+00
          2   -1    0    0  501    0  0.00000000000E+00  0.00000000000E+00  0.34208896298E+03  0.34208896298E+03  0.00000000000E+00 0.  1.
         -2   -1    0    0    0  501 -0.00000000000E+00 -0.00000000000E+00 -0.15132912357E+03  0.15132912357E+03  0.00000000000E+00 0. -1.
         25    2    1    2    0    0 -0.11947393720E+03  0.42675923442E+01 -0.75075277191E+02  0.18861558865E+03  0.12508920426E+03 0.  0.
         23    2    1    2    0    0  0.11947393720E+03 -0.42675923442E+01  0.26583511660E+03  0.30480249790E+03  0.89129229173E+02 0.  0.
          5    1    3    3  502    0 -0.34357727491E+02 -0.10439422215E+02 -0.93456699469E+02  0.10020509992E+03  0.41800000000E+01 0. -1.
         -5    1    3    3    0  502 -0.85116209706E+02  0.14707014559E+02  0.18381422278E+02  0.88410488727E+02  0.41800000000E+01 0. -1.
        -11    1    4    4    0    0  0.74466733953E+02 -0.30258631337E+02  0.86468984665E+02  0.11805830994E+03  0.00000000000E+00 0. -1.
         11    1    4    4    0    0  0.45007203243E+02  0.25991038993E+02  0.17936613194E+03  0.18674418796E+03  0.00000000000E+00 0.  1.
</event>
<event>
 8    1  0.7262913E-009  0.2588099E+03  0.7561462E-02  0.1107860E+00
         -1   -1    0    0    0  501 -0.00000000000E+00  0.00000000000E+00  0.56256582107E+02  0.56256582107E+02  0.00000000000E+00 0.  1.
          1   -1    0    0  501    0  0.00000000000E+00 -0.00000000000E+00 -0.14591285660E+04  0.14591285660E+04  0.00000000000E+00 0. -1.
         25    2    1    2    0    0  0.22480499169E+03 -0.11920225873E+03 -0.52250643946E+03  0.59447931177E+03  0.12508481150E+03 0.  0.
         23    2    1    2    0    0 -0.22480499169E+03  0.11920225873E+03 -0.88036554443E+03  0.92090583634E+03  0.90981343156E+02 0.  0.
          5    1    3    3  502    0  0.17016768829E+03 -0.82163673561E+02 -0.24630925637E+03  0.31047324130E+03  0.41800000000E+01 0. -1.
         -5    1    3    3    0  502  0.54637303397E+02 -0.37038585169E+02 -0.27619718310E+03  0.28400607047E+03  0.41800000000E+01 0. -1.
        -11    1    4    4    0    0 -0.74009877773E+02  0.66661267419E+01 -0.35942629863E+03  0.36702746955E+03  0.00000000000E+00 0. -1.
         11    1    4    4    0    0 -0.15079511392E+03  0.11253613199E+03 -0.52093924580E+03  0.55387836679E+03  0.00000000000E+00 0.  1.
</event>
<event>
 8    1  0.7262913E-009  0.1267215E+03  0.7561462E-02  0.1232403E+00
         -2   -1    0    0    0  501 -0.00000000000E+00  0.00000000000E+00  0.59471900468E+02  0.59471900468E+02  0.00000000000E+00 0.  1.
          2   -1    0    0  501    0  0.00000000000E+00 -0.00000000000E+00 -0.27794154907E+03  0.27794154907E+03  0.00000000000E+00 0. -1.
         25    2    1    2    0    0 -0.67273686111E+02 -0.48338992617E+01 -0.94523119159E+02  0.17068261150E+03  0.12509523727E+03 0.  0.
         23    2    1    2    0    0  0.67273686111E+02  0.48338992617E+01 -0.12394652944E+03  0.16673083804E+03  0.88810555487E+02 0.  0.
          5    1    3    3  502    0 -0.29232912557E+02  0.59912721402E+02 -0.47868064143E+02  0.82176160334E+02  0.41800000000E+01 0.  1.
         -5    1    3    3    0  502 -0.38040773554E+02 -0.64746620664E+02 -0.46655055016E+02  0.88506451169E+02  0.41800000000E+01 0.  1.
        -11    1    4    4    0    0  0.58575736638E+02  0.42762276302E+02 -0.83682352646E+02  0.11073601646E+03  0.00000000000E+00 0. -1.
         11    1    4    4    0    0  0.86979494728E+01 -0.37928377041E+02 -0.40264176797E+02  0.55994821574E+02  0.00000000000E+00 0.  1.
</event>
<event>
 8    1  0.7262913E-009  0.1180720E+03  0.7561462E-02  0.1246312E+00
         -2   -1    0    0    0  501 -0.00000000000E+00  0.00000000000E+00  0.20869826275E+02  0.20869826275E+02  0.00000000000E+00 0.  1.
          2   -1    0    0  501    0  0.00000000000E+00 -0.00000000000E+00 -0.76049182974E+03  0.76049182974E+03  0.00000000000E+00 0. -1.
         25    2    1    2    0    0  0.12506550594E+02  0.50793658743E+02 -0.29991161690E+03  0.32913483909E+03  0.12508538993E+03 0.  0.
         23    2    1    2    0    0 -0.12506550594E+02 -0.50793658743E+02 -0.43971038656E+03  0.45222681692E+03  0.91801199981E+02 0.  0.
          5    1    3    3  502    0  0.39755260493E+02  0.81595549661E+02 -0.16934467667E+03  0.19218066078E+03  0.41800000000E+01 0.  1.
         -5    1    3    3    0  502 -0.27248709900E+02 -0.30801890918E+02 -0.13056694023E+03  0.13695417831E+03  0.41800000000E+01 0.  1.
        -11    1    4    4    0    0  0.39091742011E+02 -0.22041349205E+02 -0.15061820108E+03  0.15716178882E+03  0.00000000000E+00 0.  1.
         11    1    4    4    0    0 -0.51598292605E+02 -0.28752309538E+02 -0.28909218549E+03  0.29506502811E+03  0.00000000000E+00 0. -1.
</event>
<event>
 8    1  0.7262913E-009  0.1410022E+03  0.7561462E-02  0.1211987E+00
          1   -1    0    0  501    0  0.00000000000E+00  0.00000000000E+00  0.13997542604E+03  0.13997542604E+03  0.00000000000E+00 0. -1.
         -1   -1    0    0    0  501 -0.00000000000E+00 -0.00000000000E+00 -0.29125977091E+03  0.29125977091E+03  0.00000000000E+00 0.  1.
         25    2    1    2    0    0  0.93640031903E+02 -0.89481690782E+02  0.39422232306E+02  0.18432939244E+03  0.12509110263E+03 0.  0.
         23    2    1    2    0    0 -0.93640031903E+02  0.89481690782E+02 -0.19070657718E+03  0.24690580451E+03  0.88419732869E+02 0.  0.
          5    1    3    3  502    0  0.72543779138E+02 -0.47483590010E+02  0.83000909632E+02  0.12009960288E+03  0.41800000000E+01 0. -1.
         -5    1    3    3    0  502  0.21096252765E+02 -0.41998100772E+02 -0.43578677326E+02  0.64229789558E+02  0.41800000000E+01 0. -1.
        -11    1    4    4    0    0 -0.46996824441E+02 -0.12546798124E+00 -0.26059799600E+02  0.53738537429E+02  0.00000000000E+00 0.  1.
         11    1    4    4    0    0 -0.46643207462E+02  0.89607158763E+02 -0.16464677758E+03  0.19316726708E+03  0.00000000000E+00 0. -1.
</event>
<event>
 8    1  0.7262913E-009  0.1114679E+03  0.7561462E-02  0.1257875E+00
         -2   -1    0    0    0  501 -0.00000000000E+00  0.00000000000E+00  0.50190617473E+02  0.50190617473E+02  0.00000000000E+00 0.  1.
          2   -1    0    0  501    0  0.00000000000E+00 -0.00000000000E+00 -0.47880781860E+03  0.47880781860E+03  0.00000000000E+00 0. -1.
         25    2    1    2    0    0 -0.50503643886E+02 -0.16785418407E+02 -0.64641450875E+02  0.15052750102E+03  0.12509053951E+03 0.  0.
         23    2    1    2    0    0  0.50503643886E+02  0.16785418407E+02 -0.36397575025E+03  0.37847093505E+03  0.89047928634E+02 0.  0.
          5    1    3    3  502    0  0.38004117426E+01  0.44054877210E+02  0.29662315786E+01  0.44514562395E+02  0.41800000000E+01 0. -1.
         -5    1    3    3    0  502 -0.54304055629E+02 -0.60840295618E+02 -0.67607682454E+02  0.10601293862E+03  0.41800000000E+01 0. -1.
        -11    1    4    4    0    0 -0.21055001861E+02  0.13932391735E+02 -0.45430102132E+02  0.51974213053E+02  0.00000000000E+00 0.  1.
         11    1    4    4    0    0  0.71558645747E+02  0.28530266726E+01 -0.31854564812E+03  0.32649672200E+03  0.00000000000E+00 0. -1.
</event>
<event>
 8    1  0.7262913E-009  0.8926871E+02  0.7561462E-02  0.1304632E+00
          3   -1    0    0  501    0  0.00000000000E+00  0.00000000000E+00  0.12333363889E+03  0.12333363889E+03  0.00000000000E+00 0. -1.
         -3   -1    0    0    0  501 -0.00000000000E+00 -0.00000000000E+00 -0.10805487573E+03  0.10805487573E+03  0.00000000000E+00 0.  1.
         25    2    1    2    0    0  0.26287224064E+02 -0.98525391641E+01 -0.19871070788E+02  0.12973204490E+03  0.12508978112E+03 0.  0.
         23    2    1    2    0    0 -0.26287224064E+02  0.98525391641E+01  0.35149833952E+02  0.10165646973E+03  0.91161594619E+02 0.  0.
          5    1    3    3  502    0 -0.15751445331E+02  0.31287475767E+02 -0.51802443266E+02  0.62673596500E+02  0.41800000000E+01 0. -1.
         -5    1    3    3    0  502  0.42038669395E+02 -0.41140014931E+02  0.31931372478E+02  0.67058448396E+02  0.41800000000E+01 0. -1.
        -11    1    4    4    0    0  0.11413782143E+02  0.36422613861E+02  0.39987977969E+02  0.55280372695E+02  0.00000000000E+00 0. -1.
         11    1    4    4    0    0 -0.37701006206E+02 -0.26570074697E+02 -0.48381440173E+01  0.46376097031E+02  0.00000000000E+00 0.  1.
</event>
<event>
 8    1  0.7262913E-009  0.1272621E+03  0.7561462E-02  0.1231576E+00
          2   -1    0    0  501    0  0.00000000000E+00  0.00000000000E+00  0.12673831277E+04  0.12673831277E+04  0.00000000000E+00 0. -1.
         -2   -1    0    0    0  501 -0.00000000000E+00 -0.00000000000E+00 -0.18606546844E+02  0.18606546844E+02  0.00000000000E+00 0.  1.
         25    2    1    2    0    0 -0.84752333507E+02 -0.26569761301E+02  0.93973680619E+03  0.95217717603E+03  0.12508876605E+03 0.  0.
         23    2    1    2    0    0  0.84752333507E+02  0.26569761301E+02  0.30903977470E+03  0.33381249855E+03  0.89645365696E+02 0.  0.
          5    1    3    3  502    0 -0.68192570466E+02 -0.74382711258E+02  0.55633474248E+03  0.56542800823E+03  0.41800000000E+01 0. -1.
         -5    1    3    3    0  502 -0.16559763041E+02  0.47812949957E+02  0.38340206371E+03  0.38674916780E+03  0.41800000000E+01 0. -1.
        -11    1    4    4    0    0  0.66068914049E+01 -0.13429959808E+02  0.27851248464E+01  0.15224051855E+02  0.00000000000E+00 0.  1.
         11    1    4    4    0    0  0.78145442103E+02  0.39999721110E+02  0.30625464985E+03  0.31858844669E+03  0.00000000000E+00 0. -1.
</event>
<event>
 8    1  0.7262913E-009  0.1408427E+03  0.7561462E-02  0.1212199E+00
         -1   -1    0    0    0  501 -0.00000000000E+00  0.00000000000E+00  0.69561844361E+02  0.69561844361E+02  0.00000000000E+00 0.  1.
          1   -1    0    0  501    0  0.00000000000E+00 -0.00000000000E+00 -0.36223449394E+03  0.36223449394E+03  0.00000000000E+00 0. -1.
         25    2    1    2    0    0 -0.81718294121E+02  0.77725839004E+02 -0.18417734667E+03  0.24957544955E+03  0.12508966523E+03 0.  0.
         23    2    1    2    0    0  0.81718294121E+02 -0.77725839004E+02 -0.10849530291E+03  0.18222088875E+03  0.93349000540E+02 0.  0.
          5    1    3    3  502    0 -0.46713971286E+02 -0.24854301814E+02 -0.29711229892E+02  0.60828948813E+02  0.41800000000E+01 0. -1.
         -5    1    3    3    0  502 -0.35004322835E+02  0.10258014082E+03 -0.15446611678E+03  0.18874650074E+03  0.41800000000E+01 0. -1.
        -11    1    4    4    0    0  0.12377648918E+02 -0.38565256038E+02 -0.92523423201E+02  0.10100034162E+03  0.00000000000E+00 0. -1.
         11    1    4    4    0    0  0.69340645203E+02 -0.39160582966E+02 -0.15971879705E+02  0.81220547134E+02  0.00000000000E+00 0.  1.
</event>
<event>
 8    1  0.7262913E-009  0.9936607E+02  0.7561462E-02  0.1281635E+00
         -2   -1    0    0    0  501 -0.00000000000E+00  0.00000000000E+00  0.70543833865E+02  0.70543833865E+02  0.00000000000E+00 0.  1.
          2   -1    0    0  501    0  0.00000000000E+00 -0.00000000000E+00 -0.26946066582E+03  0.26946066582E+03  0.00000000000E+00 0. -1.
         25    2    1    2    0    0 -0.54261307831E+02 -0.65115969382E+02 -0.11375394745E+03  0.18913989899E+03  0.12509820875E+03 0.  0.
         23    2    1    2    0    0  0.54261307831E+02  0.65115969382E+02 -0.85162884510E+02  0.15086460070E+03  0.91230651926E+02 0.  0.
          5    1    3    3  502    0 -0.32333936387E+02 -0.74987125461E+02 -0.97932367930E+01  0.82352488208E+02  0.41800000000E+01 0.  1.
         -5    1    3    3    0  502 -0.21927371444E+02  0.98711560792E+01 -0.10396071066E+03  0.10678741078E+03  0.41800000000E+01 0.  1.
        -11    1    4    4    0    0  0.16263708324E+02  0.48372862701E+02 -0.95316055435E+02  0.10811841877E+03  0.00000000000E+00 0. -1.
         11    1    4    4    0    0  0.37997599508E+02  0.16743106680E+02  0.10153170925E+02  0.42746181929E+02  0.00000000000E+00 0.  1.
</event>
<event>
 8    1  0.7262913E-009  0.8899068E+02  0.7561462E-02  0.1305314E+00
         -2   -1    0    0    0  501 -0.00000000000E+00  0.00000000000E+00  0.40438187179E+02  0.40438187179E+02  0.00000000000E+00 0.  1.
          2   -1    0    0  501    0  0.00000000000E+00 -0.00000000000E+00 -0.52724710895E+03  0.52724710895E+03  0.00000000000E+00 0. -1.
         25    2    1    2    0    0 -0.73885840962E+02 -0.31994196299E+02 -0.37147350036E+03  0.40015364516E+03  0.12509049593E+03 0.  0.
         23    2    1    2    0    0  0.73885840962E+02  0.31994196299E+02 -0.11533542141E+03  0.16753165097E+03  0.91004662260E+02 0.  0.
          5    1    3    3  502    0 -0.44846509369E+02 -0.24327317985E+02 -0.36572437102E+03  0.36928960960E+03  0.41800000000E+01 0. -1.
         -5    1    3    3    0  502 -0.29039331593E+02 -0.76668783140E+01 -0.57491293362E+01  0.30864035552E+02  0.41800000000E+01 0. -1.
        -11    1    4    4    0    0  0.29984419086E+02 -0.13818009295E+02 -0.95509674180E+02  0.10105493868E+03  0.00000000000E+00 0. -1.
         11    1    4    4    0    0  0.43901421877E+02  0.45812205594E+02 -0.19825747230E+02  0.66476712294E+02  0.00000000000E+00 0.  1.
</event>
<event>
 8    1  0.7262913E-009  0.1041401E+03  0.7561462E-02  0.1271823E+00
          1   -1    0    0  501    0  0.00000000000E+00  0.00000000000E+00  0.71301099884E+02  0.71301099884E+02  0.00000000000E+00 0. -1.
         -1   -1    0    0    0  501 -0.00000000000E+00 -0.00000000000E+00 -0.19378083641E+03  0.19378083641E+03  0.00000000000E+00 0.  1.
         25    2    1    2    0    0 -0.22018647668E+02  0.36983415365E+02 -0.52146078029E+02  0.14219385631E+03  0.12508911008E+03 0.  0.
         23    2    1    2    0    0  0.22018647668E+02 -0.36983415365E+02 -0.70333658501E+02  0.12288807999E+03  0.91115656323E+02 0.  0.
          5    1    3    3  502    0  0.22814578727E+02 -0.32072685671E+02  0.76995747288E+01  0.40322673766E+02  0.41800000000E+01 0.  1.
         -5    1    3    3    0  502 -0.44833226395E+02  0.69056101036E+02 -0.59845652758E+02  0.10187118255E+03  0.41800000000E+01 0.  1.
        -11    1    4    4    0    0  0.42999092006E+02  0.84039488032E+00 -0.33293461430E+01  0.43135979445E+02  0.00000000000E+00 0. -1.
         11    1    4    4    0    0 -0.20980444338E+02 -0.37823810246E+02 -0.67004312358E+02  0.79752100541E+02  0.00000000000E+00 0.  1.
</event>
<event>
 8    1  0.7262913E-009  0.1086449E+03  0.7561462E-02  0.1263100E+00
         -1   -1    0    0    0  501 -0.00000000000E+00  0.00000000000E+00  0.12587045115E+03  0.12587045115E+03  0.00000000000E+00 0.  1.
          1   -1    0    0  501    0  0.00000000000E+00 -0.00000000000E+00 -0.52018494976E+03  0.52018494976E+03  0.00000000000E+00 0. -1.
         25    2    1    2    0    0  0.85191034576E+01  0.26532752851E+02 -0.49245185239E+03  0.50885416588E+03  0.12508866100E+03 0.  0.
         23    2    1    2    0    0 -0.85191034576E+01 -0.26532752851E+02  0.98137353781E+02  0.13720123504E+03  0.91742447050E+02 0.  0.
          5    1    3    3  502    0  0.73072035337E+01  0.73630438353E+02 -0.21536715698E+03  0.22776154500E+03  0.41800000000E+01 0.  1.
         -5    1    3    3    0  502  0.12118999239E+01 -0.47097685502E+02 -0.27708469541E+03  0.28109262088E+03  0.41800000000E+01 0.  1.
        -11    1    4    4    0    0  0.23952509646E+02  0.25222071641E+02  0.35508271184E+02  0.49706266593E+02  0.00000000000E+00 0. -1.
         11    1    4    4    0    0 -0.32471613104E+02 -0.51754824492E+02  0.62629082597E+02  0.87494968442E+02  0.00000000000E+00 0.  1.
</event>
<event>
 8    1  0.7262913E-009  0.1018074E+03  0.7561462E-02  0.1276540E+00
         -1   -1    0    0    0  501 -0.00000000000E+00  0.00000000000E+00  0.97661841548E+02  0.97661841548E+02  0.00000000000E+00 0.  1.
          1   -1    0    0  501    0  0.00000000000E+00 -0.00000000000E+00 -0.12398574782E+03  0.12398574782E+03  0.00000000000E+00 0. -1.
         25    2    1    2    0    0  0.48265207326E+01 -0.11038291337E+02  0.37597443116E+01  0.12572495051E+03  0.12508992096E+03 0.  0.
         23    2    1    2    0    0 -0.48265207326E+01  0.11038291337E+02 -0.30083650589E+02  0.95922638861E+02  0.90282819159E+02 0.  0.
          5    1    3    3  502    0 -0.20101618281E+02  0.46824741362E+02 -0.24322788332E+02  0.56618918158E+02  0.41800000000E+01 0. -1.
         -5    1    3    3    0  502  0.24928139013E+02 -0.57863032700E+02  0.28082532644E+02  0.69106032353E+02  0.41800000000E+01 0. -1.
        -11    1    4    4    0    0 -0.30676116992E+02  0.40074847881E+02 -0.76673270486E+01  0.51047090911E+02  0.00000000000E+00 0.  1.
         11    1    4    4    0    0  0.25849596260E+02 -0.29036556544E+02 -0.22416323540E+02  0.44875547950E+02  0.00000000000E+00 0. -1.
</event>
<event>
 8    1  0.7262913E-009  0.9406767E+02  0.7561462E-02  0.1293290E+00
         -2   -1    0    0    0  501 -0.00000000000E+00  0.00000000000E+00  0.11629472460E+03  0.11629472460E+03  0.00000000000E+00 0.  1.
          2   -1    0    0  501    0  0.00000000000E+00 -0.00000000000E+00 -0.11726875483E+03  0.11726875483E+03  0.00000000000E+00 0. -1.
         25    2    1    2    0    0  0.16954562016E+02  0.32506955408E+02  0.16969768184E+02  0.13145018913E+03  0.12508804846E+03 0.  0.
         23    2    1    2    0    0 -0.16954562016E+02 -0.32506955408E+02 -0.17943798416E+02  0.10211329030E+03  0.93600132642E+02 0.  0.
          5    1    3    3  502    0 -0.63069107223E+01 -0.27548071637E+02  0.51024907569E+02  0.58478089625E+02  0.41800000000E+01 0. -1.
         -5    1    3    3    0  502  0.23261472738E+02  0.60055027046E+02 -0.34055139385E+02  0.72972099504E+02  0.41800000000E+01 0. -1.
        -11    1    4    4    0    0 -0.43679889427E+02 -0.47381281902E+02  0.38487125837E+01  0.64557967778E+02  0.00000000000E+00 0.  1.
         11    1    4    4    0    0  0.26725327411E+02  0.14874326494E+02 -0.21792511000E+02  0.37555322519E+02  0.00000000000E+00 0. -1.
</event>
<event>
 8    1  0.7262913E-009  0.1042301E+03  0.7561462E-02  0.1271644E+00
         -2   -1    0    0    0  501 -0.00000000000E+00  0.00000000000E+00  0.80581003800E+02  0.80581003800E+02  0.00000000000E+00 0.  1.
          2   -1    0    0  501    0  0.00000000000E+00 -0.00000000000E+00 -0.14800622000E+03  0.14800622000E+03  0.00000000000E+00 0. -1.
         25    2    1    2    0    0  0.41829256402E+01  0.11982315653E+02 -0.54777071345E+02  0.13714733146E+03  0.12509112768E+03 0.  0.
         23    2    1    2    0    0 -0.41829256402E+01 -0.11982315653E+02 -0.12648144850E+02  0.91439892339E+02  0.89667193485E+02 0.  0.
          5    1    3    3  502    0  0.41712497832E+02 -0.42309959771E+02 -0.24252978823E+02  0.64309754726E+02  0.41800000000E+01 0. -1.
         -5    1    3    3    0  502 -0.37529572191E+02  0.54292275425E+02 -0.30524092522E+02  0.72837576730E+02  0.41800000000E+01 0. -1.
        -11    1    4    4    0    0 -0.22407829445E+02 -0.42025988359E+02  0.11258635819E+02  0.48939262341E+02  0.00000000000E+00 0.  1.
         11    1    4    4    0    0  0.18224903805E+02  0.30043672705E+02 -0.23906780669E+02  0.42500629998E+02  0.00000000000E+00 0. -1.
</event>
<event>
 8    1  0.7262913E-009  0.8005798E+02  0.7561462E-02  0.1328887E+00
          1   -1    0    0  501    0  0.00000000000E+00  0.00000000000E+00  0.83460480370E+03  0.83460480370E+03  0.00000000000E+00 0. -1.
         -1   -1    0    0    0  501 -0.00000000000E+00 -0.00000000000E+00 -0.14787877241E+02  0.14787877241E+02  0.00000000000E+00 0.  1.
         25    2    1    2    0    0  0.11998399858E+02 -0.50553714304E+01  0.39753048186E+03  0.41695036848E+03  0.12509039688E+03 0.  0.
         23    2    1    2    0    0 -0.11998399858E+02  0.50553714304E+01  0.42228644460E+03  0.43244231246E+03  0.92255048275E+02 0.  0.
          5    1    3    3  502    0 -0.26648778918E+02  0.44612190748E+01  0.36318525501E+03  0.36421293463E+03  0.41800000000E+01 0.  1.
         -5    1    3    3    0  502  0.38647178776E+02 -0.95165905053E+01  0.34345226846E+02  0.52737433852E+02  0.41800000000E+01 0.  1.
        -11    1    4    4    0    0 -0.51099120008E+02  0.13283177525E+02  0.21992514706E+03  0.22617390031E+03  0.00000000000E+00 0.  1.
         11    1    4    4    0    0  0.39100720150E+02 -0.82278060943E+01  0.20236129754E+03  0.20626841215E+03  0.00000000000E+00 0. -1.
</event>
<event>
 8    1  0.7262913E-009  0.1635920E+03  0.7561462E-02  0.1184700E+00
          2   -1    0    0  501    0  0.00000000000E+00  0.00000000000E+00  0.81232354051E+03  0.81232354051E+03  0.00000000000E+00 0. -1.
         -2   -1    0    0    0  501 -0.00000000000E+00 -0.00000000000E+00 -0.46324161931E+02  0.46324161931E+02  0.00000000000E+00 0.  1.
         25    2    1    2    0    0 -0.14769859858E+03 -0.52897763550E+02  0.32488302057E+03  0.38184923771E+03  0.12508722505E+03 0.  0.
         23    2    1    2    0    0  0.14769859858E+03  0.52897763550E+02  0.44111635801E+03  0.47679846474E+03  0.90222421055E+02 0.  0.
          5    1    3    3  502    0 -0.10025824367E+03 -0.28295465914E+02  0.80672899672E+02  0.13182540710E+03  0.41800000000E+01 0. -1.
         -5    1    3    3    0  502 -0.47440354912E+02 -0.24602297635E+02  0.24421012090E+03  0.25002383061E+03  0.41800000000E+01 0. -1.
        -11    1    4    4    0    0  0.80731510808E+02  0.61929252108E+02  0.17686593935E+03  0.20404501858E+03  0.00000000000E+00 0.  1.
         11    1    4    4    0    0  0.66967087772E+02 -0.90314885583E+01  0.26425041866E+03  0.27275344616E+03  0.00000000000E+00 0. -1.
</event>
<event>
 8    1  0.7262913E-009  0.4760367E+02  0.7561462E-02  0.1458713E+00
          3   -1    0    0  501    0  0.00000000000E+00  0.00000000000E+00  0.63777067123E+02  0.63777067123E+02  0.00000000000E+00 0. -1.
         -3   -1    0    0    0  501 -0.00000000000E+00 -0.00000000000E+00 -0.18545027834E+03  0.18545027834E+03  0.00000000000E+00 0.  1.
         25    2    1    2    0    0 -0.13698221316E+02 -0.84590767322E+01 -0.66288549014E+02  0.14248047309E+03  0.12508923309E+03 0.  0.
         23    2    1    2    0    0  0.13698221316E+02  0.84590767322E+01 -0.55384662201E+02  0.10674687237E+03  0.89823363925E+02 0.  0.
          5    1    3    3  502    0 -0.20559348210E+01  0.89534912089E+01 -0.10111958134E+03  0.10162201534E+03  0.41800000000E+01 0.  1.
         -5    1    3    3    0  502 -0.11642286495E+02 -0.17412567941E+02  0.34831032322E+02  0.40858457750E+02  0.41800000000E+01 0.  1.
        -11    1    4    4    0    0 -0.24744558443E+02  0.36806528647E+01 -0.62535523802E+02  0.67353783229E+02  0.00000000000E+00 0.  1.
         11    1    4    4    0    0  0.38442779759E+02  0.47784238675E+01  0.71508616011E+01  0.39393089139E+02  0.00000000000E+00 0. -1.
</event>
<event>
 8    1  0.7262913E-009  0.1051961E+03  0.7561462E-02  0.1269734E+00
          3   -1    0    0  501    0  0.00000000000E+00  0.00000000000E+00  0.13596065881E+03  0.13596065881E+03  0.00000000000E+00 0. -1.
         -3   -1    0    0    0  501 -0.00000000000E+00 -0.00000000000E+00 -0.10936816314E+03  0.10936816314E+03  0.00000000000E+00 0.  1.
         25    2    1    2    0    0  0.26512691419E+01  0.48648494107E+02 -0.17055423323E+02  0.13531828334E+03  0.12508575113E+03 0.  0.
         23    2    1    2    0    0 -0.26512691419E+01 -0.48648494107E+02  0.43647919003E+02  0.11001053861E+03  0.88450396066E+02 0.  0.
          5    1    3    3  502    0 -0.50942404398E+01  0.87322358311E+02  0.87390545974E+01  0.88005619263E+02  0.41800000000E+01 0. -1.
         -5    1    3    3    0  502  0.77455095818E+01 -0.38673864204E+02 -0.25794477920E+02  0.47312664080E+02  0.41800000000E+01 0. -1.
        -11    1    4    4    0    0 -0.23894254834E+02 -0.55835166451E+02 -0.23051308288E+00  0.60733469875E+02  0.00000000000E+00 0.  1.
         11    1    4    4    0    0  0.21242985692E+02  0.71866723443E+01  0.43878432086E+02  0.49277068732E+02  0.00000000000E+00 0. -1.
</event>
<event>
 8    1  0.7262913E-009  0.1864302E+03  0.7561462E-02  0.1161721E+00
          2   -1    0    0  501    0  0.00000000000E+00  0.00000000000E+00  0.45368809974E+03  0.45368809974E+03  0.00000000000E+00 0. -1.
         -2   -1    0    0    0  501 -0.00000000000E+00 -0.00000000000E+00 -0.10214059307E+03  0.10214059307E+03  0.00000000000E+00 0.  1.
         25    2    1    2    0    0  0.14651540125E+03 -0.84366359316E+02  0.82948423487E+02  0.22607881537E+03  0.12508694741E+03 0.  0.
         23    2    1    2    0    0 -0.14651540125E+03  0.84366359316E+02  0.26859908318E+03  0.32974987743E+03  0.89471050022E+02 0.  0.
          5    1    3    3  502    0  0.15092708859E+03 -0.60091680217E+02  0.26923048341E+02  0.16471890916E+03  0.41800000000E+01 0. -1.
         -5    1    3    3    0  502 -0.44116873387E+01 -0.24274679098E+02  0.56025375146E+02  0.61359906215E+02  0.41800000000E+01 0. -1.
        -11    1    4    4    0    0 -0.12304333183E+03  0.30785308023E+02  0.14267484833E+03  0.19090183091E+03  0.00000000000E+00 0.  1.
         11    1    4    4    0    0 -0.23472069424E+02  0.53581051293E+02  0.12592423485E+03  0.13884804653E+03  0.00000000000E+00 0. -1.
</event>
<event>
 8    1  0.7262913E-009  0.9501850E+02  0.7561462E-02  0.1291134E+00
          2   -1    0    0  501    0  0.00000000000E+00  0.00000000000E+00  0.14420366846E+03  0.14420366846E+03  0.00000000000E+00 0. -1.
         -2   -1    0    0    0  501 -0.00000000000E+00 -0.00000000000E+00 -0.10292574933E+03  0.10292574933E+03  0.00000000000E+00 0.  1.
         25    2    1    2    0    0  0.20108596410E+02  0.85976659354E+00  0.81818610371E+02  0.15081980617E+03  0.12508890472E+03 0.  0.
         23    2    1    2    0    0 -0.20108596410E+02 -0.85976659354E+00 -0.40540691246E+02  0.96309611620E+02  0.85011168651E+02 0.  0.
          5    1    3    3  502    0 -0.42467944230E+02 -0.33743299039E+02  0.27721493764E+02  0.61058088192E+02  0.41800000000E+01 0. -1.
         -5    1    3    3    0  502  0.62576540640E+02  0.34603065633E+02  0.54097116607E+02  0.89761717981E+02  0.41800000000E+01 0. -1.
        -11    1    4    4    0    0 -0.39846081706E+02  0.10535306960E+02 -0.55439288901E+02  0.69081239667E+02  0.00000000000E+00 0.  1.
         11    1    4    4    0    0  0.19737485296E+02 -0.11395073554E+02  0.14898597655E+02  0.27228371953E+02  0.00000000000E+00 0. -1.
</event>
<event>
 8    1  0.7262913E-009  0.3093325E+03  0.7561462E-02  0.1080666E+00
         -1   -1    0    0    0  501 -0.00000000000E+00  0.00000000000E+00  0.16090032684E+03  0.16090032684E+03  0.00000000000E+00 0.  1.
          1   -1    0    0  501    0  0.00000000000E+00 -0.00000000000E+00 -0.62355399425E+03  0.62355399425E+03  0.00000000000E+00 0. -1.
         25    2    1    2    0    0 -0.23377697490E+03  0.17514237593E+03 -0.30517135950E+03  0.44057127509E+03  0.12508782488E+03 0.  0.
         23    2    1    2    0    0  0.23377697490E+03 -0.17514237593E+03 -0.15748230791E+03  0.34388304601E+03  0.90157341285E+02 0.  0.
          5    1    3    3  502    0 -0.73989873922E+02  0.12987569150E+03 -0.16994169315E+03  0.22636220567E+03  0.41800000000E+01 0. -1.
         -5    1    3    3    0  502 -0.15978710098E+03  0.45266684422E+02 -0.13522966635E+03  0.21420906942E+03  0.41800000000E+01 0. -1.
        -11    1    4    4    0    0  0.11396196736E+03 -0.13494340738E+03 -0.69085221488E+02  0.18965711436E+03  0.00000000000E+00 0.  1.
         11    1    4    4    0    0  0.11981500755E+03 -0.40198968548E+02 -0.88397086417E+02  0.15422593165E+03  0.00000000000E+00 0. -1.
</event>
<event>
 8    1  0.7262913E-009  0.1230083E+03  0.7561462E-02  0.1238215E+00
          1   -1    0    0  501    0  0.00000000000E+00  0.00000000000E+00  0.11854325755E+03  0.11854325755E+03  0.00000000000E+00 0. -1.
         -1   -1    0    0    0  501 -0.00000000000E+00 -0.00000000000E+00 -0.13954999855E+03  0.13954999855E+03  0.00000000000E+00 0.  1.
         25    2    1    2    0    0 -0.13552044243E+02  0.62090364102E+02  0.16712644141E+02  0.14129605660E+03  0.12508553841E+03 0.  0.
         23    2    1    2    0    0  0.13552044243E+02 -0.62090364102E+02 -0.37719385140E+02  0.11679719949E+03  0.90443145542E+02 0.  0.
          5    1    3    3  502    0  0.29557879283E+02 -0.24673128420E+02  0.21327815165E+02  0.44212889449E+02  0.41800000000E+01 0.  1.
         -5    1    3    3    0  502 -0.43109923526E+02  0.86763492523E+02 -0.46151710239E+01  0.97083167154E+02  0.41800000000E+01 0.  1.
        -11    1    4    4    0    0 -0.34046484428E+02 -0.26279162541E+01 -0.15143125281E+02  0.37354829528E+02  0.00000000000E+00 0.  1.
         11    1    4    4    0    0  0.47598528671E+02 -0.59462447848E+02 -0.22576259859E+02  0.79442369961E+02  0.00000000000E+00 0. -1.
</event>
<event>
 8    1  0.7262913E-009  0.2059241E+03  0.7561462E-02  0.1144835E+00
          1   -1    0    0  501    0  0.00000000000E+00  0.00000000000E+00  0.43535288690E+03  0.43535288690E+03  0.00000000000E+00 0. -1.
         -1   -1    0    0    0  501 -0.00000000000E+00 -0.00000000000E+00 -0.11967808623E+03  0.11967808623E+03  0.00000000000E+00 0.  1.
         25    2    1    2    0    0 -0.17804051364E+03  0.52469479875E+02  0.25529369084E+03  0.33952439338E+03  0.12510185570E+03 0.  0.
         23    2    1    2    0    0  0.17804051364E+03 -0.52469479875E+02  0.60381109832E+02  0.21550657975E+03  0.91355003559E+02 0.  0.
          5    1    3    3  502    0  0.50404599824E+01  0.18832600368E+02  0.84641204273E+02  0.86957914731E+02  0.41800000000E+01 0. -1.
         -5    1    3    3    0  502 -0.18308097362E+03  0.33636879506E+02  0.17065248657E+03  0.25256647865E+03  0.41800000000E+01 0. -1.
        -11    1    4    4    0    0  0.10104120616E+03  0.16459166858E+02  0.18666901326E+02  0.10406095676E+03  0.00000000000E+00 0.  1.
         11    1    4    4    0    0  0.76999307475E+02 -0.68928646732E+02  0.41714208506E+02  0.11144562299E+03  0.00000000000E+00 0. -1.
</event>
<event>
 8    1  0.7262913E-009  0.1024366E+03  0.7561462E-02  0.1275254E+00
         -2   -1    0    0    0  501 -0.00000000000E+00  0.00000000000E+00  0.63104866789E+02  0.63104866789E+02  0.00000000000E+00 0. -1.
          2   -1    0    0  501    0  0.00000000000E+00 -0.00000000000E+00 -0.29128444974E+03  0.29128444974E+03  0.00000000000E+00 0.  1.
         25    2    1    2    0    0  0.64000799659E+02  0.49285691724E+02 -0.14182907750E+03  0.20564091168E+03  0.12509002985E+03 0.  0.
         23    2    1    2    0    0 -0.64000799659E+02 -0.49285691724E+02 -0.86350505455E+02  0.14874840485E+03  0.90246863582E+02 0.  0.
          5    1    3    3  502    0  0.25143621848E+02  0.68231988945E+02 -0.18877578248E+02  0.75243879456E+02  0.41800000000E+01 0. -1.
         -5    1    3    3    0  502  0.38857177811E+02 -0.18946297221E+02 -0.12295149925E+03  0.13039703222E+03  0.41800000000E+01 0. -1.
        -11    1    4    4    0    0 -0.56328011673E+02 -0.22355177864E+02 -0.28403503620E+01  0.60668496491E+02  0.00000000000E+00 0. -1.
         11    1    4    4    0    0 -0.76727879863E+01 -0.26930513860E+02 -0.83510155093E+02  0.88079908356E+02  0.00000000000E+00 0.  1.
</event>
<event>
 8    1  0.7262913E-009  0.1087309E+03  0.7561462E-02  0.1262938E+00
         -1   -1    0    0    0  501 -0.00000000000E+00  0.00000000000E+00  0.24613443024E+03  0.24613443024E+03  0.00000000000E+00 0.  1.
          1   -1    0    0  501    0  0.00000000000E+00 -0.00000000000E+00 -0.64768902540E+02  0.64768902540E+02  0.00000000000E+00 0. -1.
         25    2    1    2    0    0  0.95771680675E+01 -0.63170158874E+02  0.95886383915E+02  0.17006988210E+03  0.12508946821E+03 0.  0.
         23    2    1    2    0    0 -0.95771680675E+01  0.63170158874E+02  0.85479143786E+02  0.14083345068E+03  0.91897691422E+02 0.  0.
          5    1    3    3  502    0  0.18834805059E+02 -0.82510918882E+02  0.11375526870E+03  0.14184687227E+03  0.41800000000E+01 0.  1.
         -5    1    3    3    0  502 -0.92576369910E+01  0.19340760008E+02 -0.17868884783E+02  0.28223009828E+02  0.41800000000E+01 0.  1.
        -11    1    4    4    0    0 -0.13337478483E+02 -0.21945564842E+02  0.12089303849E+02  0.28383928834E+02  0.00000000000E+00 0.  1.
         11    1    4    4    0    0  0.37603104158E+01  0.85115723716E+02  0.73389839937E+02  0.11244952185E+03  0.00000000000E+00 0. -1.
</event>
<event>
 8    1  0.7262913E-009  0.4019869E+03  0.7561462E-02  0.1043094E+00
          2   -1    0    0  501    0  0.00000000000E+00  0.00000000000E+00  0.43886430826E+03  0.43886430826E+03  0.00000000000E+00 0. -1.
         -2   -1    0    0    0  501 -0.00000000000E+00 -0.00000000000E+00 -0.38092156750E+03  0.38092156750E+03  0.00000000000E+00 0.  1.
         25    2    1    2    0    0 -0.26719560888E+03 -0.28533926267E+03  0.80673305052E+02  0.41829094968E+03  0.12508856149E+03 0.  0.
         23    2    1    2    0    0  0.26719560888E+03  0.28533926267E+03 -0.22730564292E+02  0.40149492608E+03  0.88710252473E+02 0.  0.
          5    1    3    3  502    0 -0.20140548202E+03 -0.27174589868E+03  0.42555825510E+02  0.34093763700E+03  0.41800000000E+01 0. -1.
         -5    1    3    3    0  502 -0.65790126860E+02 -0.13593363986E+02  0.38117479542E+02  0.77353312685E+02  0.41800000000E+01 0. -1.
        -11    1    4    4    0    0  0.23914259235E+03  0.21094098725E+03 -0.35916133613E+02  0.32089756658E+03  0.00000000000E+00 0.  1.
         11    1    4    4    0    0  0.28053016521E+02  0.74398275417E+02  0.13185569321E+02  0.80597359506E+02  0.00000000000E+00 0. -1.
</event>
<event>
 8    1  0.7262913E-009  0.1040241E+03  0.7561462E-02  0.1272054E+00
         -3   -1    0    0    0  501 -0.00000000000E+00  0.00000000000E+00  0.48464720335E+03  0.48464720335E+03  0.00000000000E+00 0.  1.
          3   -1    0    0  501    0  0.00000000000E+00 -0.00000000000E+00 -0.27949909501E+02  0.27949909501E+02  0.00000000000E+00 0. -1.
         25    2    1    2    0    0 -0.42168905303E+02  0.46253497372E+01  0.25708519055E+03  0.28903371056E+03  0.12509228675E+03 0.  0.
         23    2    1    2    0    0  0.42168905303E+02 -0.46253497372E+01  0.19961210330E+03  0.22356340229E+03  0.91301657297E+02 0.  0.
          5    1    3    3  502    0 -0.23338432034E+02  0.54189087828E+02  0.57528989045E+02  0.82511796914E+02  0.41800000000E+01 0. -1.
         -5    1    3    3    0  502 -0.18830473269E+02 -0.49563738091E+02  0.19955620151E+03  0.20652191365E+03  0.41800000000E+01 0. -1.
        -11    1    4    4    0    0  0.87895094190E+01 -0.43555423849E+02  0.58774305636E+02  0.73680047675E+02  0.00000000000E+00 0.  1.
         11    1    4    4    0    0  0.33379395885E+02  0.38930074111E+02  0.14083779766E+03  0.14988335461E+03  0.00000000000E+00 0. -1.
</event>
<event>
 8    1  0.7262913E-009  0.1885798E+03  0.7561462E-02  0.1159749E+00
         -1   -1    0    0    0  501 -0.00000000000E+00  0.00000000000E+00  0.20201629834E+02  0.20201629834E+02  0.00000000000E+00 0.  1.
          1   -1    0    0  501    0  0.00000000000E+00 -0.00000000000E+00 -0.18663267842E+04  0.18663267842E+04  0.00000000000E+00 0. -1.
         25    2    1    2    0    0  0.12850063942E+03 -0.94797996569E+02 -0.10488058846E+04  0.10682422381E+04  0.12509444916E+03 0.  0.
         23    2    1    2    0    0 -0.12850063942E+03  0.94797996569E+02 -0.79731926978E+03  0.81828617594E+03  0.91515972889E+02 0.  0.
          5    1    3    3  502    0  0.10194569769E+03 -0.11913078364E+03 -0.68972008278E+03  0.70733042765E+03  0.41800000000E+01 0.  1.
         -5    1    3    3    0  502  0.26554941733E+02  0.24332787073E+02 -0.35908580177E+03  0.36091181041E+03  0.41800000000E+01 0.  1.
        -11    1    4    4    0    0 -0.61398004309E+02  0.99350707222E+02 -0.50460501747E+03  0.51794449666E+03  0.00000000000E+00 0.  1.
         11    1    4    4    0    0 -0.67102635111E+02 -0.45527106532E+01 -0.29271425230E+03  0.30034167928E+03  0.00000000000E+00 0. -1.
</event>
<event>
 8    1  0.7262913E-009  0.9006381E+02  0.7561462E-02  0.1302697E+00
          2   -1    0    0  501    0  0.00000000000E+00  0.00000000000E+00  0.36478989892E+03  0.36478989892E+03  0.00000000000E+00 0. -1.
         -2   -1    0    0    0  501 -0.00000000000E+00 -0.00000000000E+00 -0.63414468913E+02  0.63414468913E+02  0.00000000000E+00 0.  1.
         25    2    1    2    0    0 -0.12068496545E+02  0.65688874754E+02  0.48772000279E+02  0.14996486324E+03  0.12510026108E+03 0.  0.
         23    2    1    2    0    0  0.12068496545E+02 -0.65688874754E+02  0.25260342973E+03  0.27823950458E+03  0.95645451158E+02 0.  0.
          5    1    3    3  502    0 -0.11238103337E+02  0.16704045462E+02  0.85915976279E+02  0.88342218001E+02  0.41800000000E+01 0. -1.
         -5    1    3    3    0  502 -0.83039320783E+00  0.48984829293E+02 -0.37143976000E+02  0.61622645244E+02  0.41800000000E+01 0. -1.
        -11    1    4    4    0    0 -0.37821098373E+02 -0.20180930044E+02  0.57090121669E+02  0.71393188833E+02  0.00000000000E+00 0.  1.
         11    1    4    4    0    0  0.49889594918E+02 -0.45507944710E+02  0.19551330806E+03  0.20684631575E+03  0.00000000000E+00 0. -1.
</event>
<event>
 8    1  0.7262913E-009  0.1696251E+03  0.7561462E-02  0.1178239E+00
          1   -1    0    0  501    0  0.00000000000E+00  0.00000000000E+00  0.33716561374E+02  0.33716561374E+02  0.00000000000E+00 0. -1.
         -1   -1    0    0    0  501 -0.00000000000E+00 -0.00000000000E+00 -0.10410436701E+04  0.10410436701E+04  0.00000000000E+00 0.  1.
         25    2    1    2    0    0  0.61934392678E+02 -0.11532348850E+03 -0.72110365908E+03  0.74348709479E+03  0.12508875644E+03 0.  0.
         23    2    1    2    0    0 -0.61934392678E+02  0.11532348850E+03 -0.28622344968E+03  0.33127313672E+03  0.10335691542E+03 0.  0.
          5    1    3    3  502    0  0.70107009010E+02 -0.13599605201E+03 -0.55020219022E+03  0.57109529975E+03  0.41800000000E+01 0. -1.
         -5    1    3    3    0  502 -0.81726163323E+01  0.20672563504E+02 -0.17090146886E+03  0.17239179504E+03  0.41800000000E+01 0. -1.
        -11    1    4    4    0    0  0.56442517288E+00  0.98965377557E+02 -0.20370519493E+03  0.22647355469E+03  0.00000000000E+00 0.  1.
         11    1    4    4    0    0 -0.62498817851E+02  0.16358110945E+02 -0.82518254750E+02  0.10479958203E+03  0.00000000000E+00 0. -1.
</event>
<event>
 8    1  0.7262913E-009  0.7931857E+02  0.7561462E-02  0.1330996E+00
          1   -1    0    0  501    0  0.00000000000E+00  0.00000000000E+00  0.12122678065E+03  0.12122678065E+03  0.00000000000E+00 0. -1.
         -1   -1    0    0    0  501 -0.00000000000E+00 -0.00000000000E+00 -0.12446426449E+03  0.12446426449E+03  0.00000000000E+00 0.  1.
         25    2    1    2    0    0  0.43376421154E+02  0.85602397009E+01 -0.35175899579E+02  0.13725080600E+03  0.12508256561E+03 0.  0.
         23    2    1    2    0    0 -0.43376421154E+02 -0.85602397009E+01  0.31938415744E+02  0.10844023914E+03  0.93725297803E+02 0.  0.
          5    1    3    3  502    0  0.32753264941E+02  0.28761701763E+02  0.39549586791E+02  0.59005542688E+02  0.41800000000E+01 0. -1.
         -5    1    3    3    0  502  0.10623156214E+02 -0.20201462062E+02 -0.74725486370E+02  0.78245263311E+02  0.41800000000E+01 0. -1.
        -11    1    4    4    0    0 -0.48048513155E+02  0.27446796346E+02  0.43444288010E+02  0.70351918288E+02  0.00000000000E+00 0. -1.
         11    1    4    4    0    0  0.46720920013E+01 -0.36007036047E+02 -0.11505872266E+02  0.38088320850E+02  0.00000000000E+00 0.  1.
</event>
<event>
 8    1  0.7262913E-009  0.1258429E+03  0.7561462E-02  0.1233758E+00
         -2   -1    0    0    0  501 -0.00000000000E+00  0.00000000000E+00  0.10190980734E+03  0.10190980734E+03  0.00000000000E+00 0.  1.
          2   -1    0    0  501    0  0.00000000000E+00 -0.00000000000E+00 -0.23199376992E+03  0.23199376992E+03  0.00000000000E+00 0. -1.
         25    2    1    2    0    0 -0.50586511634E+02 -0.86878503950E+02 -0.27468359814E+02  0.16281501169E+03  0.12508935860E+03 0.  0.
         23    2    1    2    0    0  0.50586511634E+02  0.86878503950E+02 -0.10261560277E+03  0.17108856556E+03  0.92921825890E+02 0.  0.
          5    1    3    3  502    0 -0.48091541163E+02  0.12431546170E+02 -0.38209175121E+02  0.62807269762E+02  0.41800000000E+01 0. -1.
         -5    1    3    3    0  502 -0.24949704712E+01 -0.99310050120E+02  0.10740815306E+02  0.10000774193E+03  0.41800000000E+01 0. -1.
        -11    1    4    4    0    0  0.39601375149E+02  0.80480801343E+02 -0.11983448343E+03  0.14968544257E+03  0.00000000000E+00 0. -1.
         11    1    4    4    0    0  0.10985136485E+02  0.63977026070E+01  0.17218880666E+02  0.21403122988E+02  0.00000000000E+00 0.  1.
</event>
<event>
 8    1  0.7262913E-009  0.1058945E+03  0.7561462E-02  0.1268367E+00
          4   -1    0    0  501    0  0.00000000000E+00  0.00000000000E+00  0.37827382405E+03  0.37827382405E+03  0.00000000000E+00 0. -1.
         -4   -1    0    0    0  501 -0.00000000000E+00 -0.00000000000E+00 -0.41954764537E+02  0.41954764537E+02  0.00000000000E+00 0.  1.
         25    2    1    2    0    0 -0.21326302692E+02  0.53430408886E+02  0.23408504012E+03  0.27157510212E+03  0.12509040851E+03 0.  0.
         23    2    1    2    0    0  0.21326302692E+02 -0.53430408886E+02  0.10223401939E+03  0.14865348647E+03  0.91304132099E+02 0.  0.
          5    1    3    3  502    0 -0.60068790122E+01 -0.31840637692E+02  0.13935759813E+03  0.14313602398E+03  0.41800000000E+01 0.  1.
         -5    1    3    3    0  502 -0.15319423679E+02  0.85271046578E+02  0.94727441994E+02  0.12843907814E+03  0.41800000000E+01 0.  1.
        -11    1    4    4    0    0 -0.26852709472E+02 -0.15042985572E+02  0.17992097507E+01  0.30831746247E+02  0.00000000000E+00 0. -1.
         11    1    4    4    0    0  0.48179012163E+02 -0.38387423314E+02  0.10043480964E+03  0.11782174022E+03  0.00000000000E+00 0.  1.
</event>
<event>
 8    1  0.7262913E-009  0.1045260E+03  0.7561462E-02  0.1271056E+00
          2   -1    0    0  501    0  0.00000000000E+00  0.00000000000E+00  0.49094624367E+02  0.49094624367E+02  0.00000000000E+00 0. -1.
         -2   -1    0    0    0  501 -0.00000000000E+00 -0.00000000000E+00 -0.26456664320E+03  0.26456664320E+03  0.00000000000E+00 0.  1.
         25    2    1    2    0    0 -0.29562352760E+02  0.85787284756E+01 -0.99543808792E+02  0.16280666996E+03  0.12509802010E+03 0.  0.
         23    2    1    2    0    0  0.29562352760E+02 -0.85787284756E+01 -0.11592821004E+03  0.15085459760E+03  0.91488974478E+02 0.  0.
          5    1    3    3  502    0 -0.19650141915E+02 -0.52930960387E+02 -0.16625582196E+02  0.59005906722E+02  0.41800000000E+01 0.  1.
         -5    1    3    3    0  502 -0.99122108449E+01  0.61509688863E+02 -0.82918226596E+02  0.10380076324E+03  0.41800000000E+01 0.  1.
        -11    1    4    4    0    0 -0.27646669258E+02 -0.16565451702E+02 -0.17359925783E+02  0.36607643114E+02  0.00000000000E+00 0. -1.
         11    1    4    4    0    0  0.57209022018E+02  0.79867232268E+01 -0.98568284254E+02  0.11424695448E+03  0.00000000000E+00 0.  1.
</event>
<event>
 8    1  0.7262913E-009  0.2046349E+03  0.7561462E-02  0.1145886E+00
         -1   -1    0    0    0  501 -0.00000000000E+00  0.00000000000E+00  0.28025577527E+02  0.28025577527E+02  0.00000000000E+00 0.  1.
          1   -1    0    0  501    0  0.00000000000E+00 -0.00000000000E+00 -0.18544732630E+04  0.18544732630E+04  0.00000000000E+00 0. -1.
         25    2    1    2    0    0 -0.18289006882E+03 -0.71315161410E+02 -0.77217881941E+03  0.80649965075E+03  0.12508768122E+03 0.  0.
         23    2    1    2    0    0  0.18289006882E+03  0.71315161410E+02 -0.10542688661E+04  0.10759991898E+04  0.88072611733E+02 0.  0.
          5    1    3    3  502    0 -0.17325036959E+03 -0.69003101183E+02 -0.77348780459E+03  0.79566197269E+03  0.41800000000E+01 0.  1.
         -5    1    3    3    0  502 -0.96396992264E+01 -0.23120602270E+01  0.13089851716E+01  0.10837678065E+02  0.41800000000E+01 0.  1.
        -11    1    4    4    0    0  0.25220103469E+02  0.45761511114E+02 -0.18791583551E+03  0.19504494548E+03  0.00000000000E+00 0. -1.
         11    1    4    4    0    0  0.15766996535E+03  0.25553650296E+02 -0.86635303059E+03  0.88095424434E+03  0.00000000000E+00 0.  1.
</event>
<event>
 8    1  0.7262913E-009  0.1694732E+03  0.7561462E-02  0.1178398E+00
          1   -1    0    0  501    0  0.00000000000E+00  0.00000000000E+00  0.60226241626E+03  0.60226241626E+03  0.00000000000E+00 0. -1.
         -1   -1    0    0    0  501 -0.00000000000E+00 -0.00000000000E+00 -0.65064264721E+02  0.65064264721E+02  0.00000000000E+00 0.  1.
         25    2    1    2    0    0  0.35090816389E+02 -0.14411228917E+03  0.15923436122E+03  0.25100395101E+03  0.12509070447E+03 0.  0.
         23    2    1    2    0    0 -0.35090816389E+02  0.14411228917E+03  0.37796379031E+03  0.41632272997E+03  0.92023211285E+02 0.  0.
          5    1    3    3  502    0  0.60288760585E+02 -0.20907620220E+02  0.30004215285E+02  0.70637019833E+02  0.41800000000E+01 0.  1.
         -5    1    3    3    0  502 -0.25197944196E+02 -0.12320466895E+03  0.12923014594E+03  0.18036693118E+03  0.41800000000E+01 0.  1.
        -11    1    4    4    0    0 -0.16247058726E+02  0.36900992354E+02  0.26158668157E+02  0.48061690292E+02  0.00000000000E+00 0.  1.
         11    1    4    4    0    0 -0.18843757663E+02  0.10721129682E+03  0.35180512216E+03  0.36826103968E+03  0.00000000000E+00 0. -1.
</event>
<event>
 8    1  0.7262913E-009  0.1121748E+03  0.7561462E-02  0.1256595E+00
         -1   -1    0    0    0  501 -0.00000000000E+00  0.00000000000E+00  0.16154643532E+03  0.16154643532E+03  0.00000000000E+00 0.  1.
          1   -1    0    0  501    0  0.00000000000E+00 -0.00000000000E+00 -0.12795244863E+03  0.12795244863E+03  0.00000000000E+00 0. -1.
         25    2    1    2    0    0  0.52159930840E+01 -0.40820608349E+02  0.10340206674E+03  0.16743397166E+03  0.12509443957E+03 0.  0.
         23    2    1    2    0    0 -0.52159930840E+01  0.40820608349E+02 -0.69808080047E+02  0.12206491229E+03  0.91286067512E+02 0.  0.
          5    1    3    3  502    0  0.31739304500E+02  0.36885112878E+02  0.46607529887E+02  0.67510215852E+02  0.41800000000E+01 0. -1.
         -5    1    3    3    0  502 -0.26523311416E+02 -0.77705721227E+02  0.56794536849E+02  0.99923755813E+02  0.41800000000E+01 0. -1.
        -11    1    4    4    0    0 -0.40772589017E+02  0.40882307816E+02 -0.20492146306E+02  0.61267407059E+02  0.00000000000E+00 0. -1.
         11    1    4    4    0    0  0.35556595933E+02 -0.61699467089E-01 -0.49315933741E+02  0.60797505227E+02  0.00000000000E+00 0.  1.
</event>
<event>
 8    1  0.7262913E-009  0.1260681E+03  0.7561462E-02  0.1233409E+00
          1   -1    0    0  501    0  0.00000000000E+00  0.00000000000E+00  0.15256621191E+04  0.15256621191E+04  0.00000000000E+00 0. -1.
         -1   -1    0    0    0  501 -0.00000000000E+00 -0.00000000000E+00 -0.14644335473E+02  0.14644335473E+02  0.00000000000E+00 0.  1.
         25    2    1    2    0    0 -0.50678953727E+02 -0.59007914072E+02  0.11596620168E+04  0.11689798209E+04  0.12509012018E+03 0.  0.
         23    2    1    2    0    0  0.50678953727E+02  0.59007914072E+02  0.35135576682E+03  0.37132663368E+03  0.91554921905E+02 0.  0.
          5    1    3    3  502    0  0.29204682071E+02  0.19334601591E+02  0.26355925436E+03  0.26590918231E+03  0.41800000000E+01 0.  1.
         -5    1    3    3    0  502 -0.79883635799E+02 -0.78342515663E+02  0.89610276244E+03  0.90307063859E+03  0.41800000000E+01 0.  1.
        -11    1    4    4    0    0  0.63134094075E+02  0.23665621115E+02  0.12627652953E+03  0.14314935336E+03  0.00000000000E+00 0.  1.
         11    1    4    4    0    0 -0.12455140348E+02  0.35342292957E+02  0.22507923729E+03  0.22817728032E+03  0.00000000000E+00 0. -1.
</event>
<event>
 8    1  0.7262913E-009  0.1417977E+03  0.7561462E-02  0.1210930E+00
          3   -1    0    0  501    0  0.00000000000E+00  0.00000000000E+00  0.11128392868E+03  0.11128392868E+03  0.00000000000E+00 0. -1.
         -3   -1    0    0    0  501 -0.00000000000E+00 -0.00000000000E+00 -0.20351871795E+03  0.20351871795E+03  0.00000000000E+00 0.  1.
         25    2    1    2    0    0  0.22509554098E+02 -0.10163275227E+03 -0.41707925383E+02  0.16799814635E+03  0.12509168548E+03 0.  0.
         23    2    1    2    0    0 -0.22509554098E+02  0.10163275227E+03 -0.50526863883E+02  0.14680450028E+03  0.90347667210E+02 0.  0.
          5    1    3    3  502    0 -0.31345937367E+02 -0.88354638176E+02 -0.57645632430E+02  0.11013446879E+03  0.41800000000E+01 0. -1.
         -5    1    3    3    0  502  0.53855491465E+02 -0.13278114091E+02  0.15937707047E+02  0.57863677559E+02  0.41800000000E+01 0. -1.
        -11    1    4    4    0    0  0.30570371970E+02  0.19256160984E+02 -0.29342975932E+02  0.46544146944E+02  0.00000000000E+00 0.  1.
         11    1    4    4    0    0 -0.53079926068E+02  0.82376591284E+02 -0.21183887951E+02  0.10026035334E+03  0.00000000000E+00 0. -1.
</event>
<event>
 8    1  0.7262913E-009  0.1255473E+03  0.7561462E-02  0.1234216E+00
         -1   -1    0    0    0  501 -0.00000000000E+00  0.00000000000E+00  0.34992487653E+02  0.34992487653E+02  0.00000000000E+00 0.  1.
          1   -1    0    0  501    0  0.00000000000E+00 -0.00000000000E+00 -0.60574415108E+03  0.60574415108E+03  0.00000000000E+00 0. -1.
         25    2    1    2    0    0  0.76875658629E+02 -0.45659800739E+02 -0.22675400645E+03  0.27396427920E+03  0.12507742620E+03 0.  0.
         23    2    1    2    0    0 -0.76875658629E+02  0.45659800739E+02 -0.34399765698E+03  0.36677235953E+03  0.90514592279E+02 0.  0.
          5    1    3    3  502    0  0.20759916289E+02  0.26115811849E+02 -0.47506306856E+01  0.33956599428E+02  0.41800000000E+01 0. -1.
         -5    1    3    3    0  502  0.56115742340E+02 -0.71775612588E+02 -0.22200337576E+03  0.24000767978E+03  0.41800000000E+01 0. -1.
        -11    1    4    4    0    0 -0.36595369603E+01 -0.24554140399E+02 -0.87180133675E+02  0.90645869895E+02  0.00000000000E+00 0.  1.
         11    1    4    4    0    0 -0.73216121669E+02  0.70213941138E+02 -0.25681752330E+03  0.27612648963E+03  0.00000000000E+00 0. -1.
</event>
<event>
 8    1  0.7262913E-009  0.1397887E+03  0.7561462E-02  0.1213614E+00
         -2   -1    0    0    0  501 -0.00000000000E+00  0.00000000000E+00  0.14775304584E+03  0.14775304584E+03  0.00000000000E+00 0.  1.
          2   -1    0    0  501    0  0.00000000000E+00 -0.00000000000E+00 -0.22039310240E+03  0.22039310240E+03  0.00000000000E+00 0. -1.
         25    2    1    2    0    0 -0.11025223495E+02  0.10602783347E+03 -0.13652781424E+03  0.21365988462E+03  0.12508894920E+03 0.  0.
         23    2    1    2    0    0  0.11025223495E+02 -0.10602783347E+03  0.63887757682E+02  0.15448626362E+03  0.91765478492E+02 0.  0.
          5    1    3    3  502    0  0.14171989042E+02 -0.24929632255E+02 -0.12742902262E+02  0.31657318204E+02  0.41800000000E+01 0. -1.
         -5    1    3    3    0  502 -0.25197212538E+02  0.13095746573E+03 -0.12378491198E+03  0.18200256642E+03  0.41800000000E+01 0. -1.
        -11    1    4    4    0    0  0.30193679922E+02 -0.56432274897E+02  0.76597863876E+02  0.99817296635E+02  0.00000000000E+00 0.  1.
         11    1    4    4    0    0 -0.19168456426E+02 -0.49595558575E+02 -0.12710106194E+02  0.54668966988E+02  0.00000000000E+00 0. -1.
</event>
<event>
 8    1  0.7262913E-009  0.1356134E+03  0.7561462E-02  0.1219356E+00
          2   -1    0    0  501    0  0.00000000000E+00  0.00000000000E+00  0.35526322553E+02  0.35526322553E+02  0.00000000000E+00 0. -1.
         -2   -1    0    0    0  501 -0.00000000000E+00 -0.00000000000E+00 -0.63146542525E+03  0.63146542525E+03  0.00000000000E+00 0.  1.
         25    2    1    2    0    0 -0.30002256288E+02  0.98371788511E+02 -0.33552604405E+03  0.37256424511E+03  0.12509694779E+03 0.  0.
         23    2    1    2    0    0  0.30002256288E+02 -0.98371788511E+02 -0.26041305865E+03  0.29442750269E+03  0.91079355881E+02 0.  0.
          5    1    3    3  502    0 -0.23530344816E+02  0.11633219689E+03 -0.17894816536E+03  0.21477144933E+03  0.41800000000E+01 0.  1.
         -5    1    3    3    0  502 -0.64719114725E+01 -0.17960408381E+02 -0.15657787869E+03  0.15779279579E+03  0.41800000000E+01 0.  1.
        -11    1    4    4    0    0  0.59663612684E+02 -0.63222263191E+02 -0.20324723319E+03  0.22105709453E+03  0.00000000000E+00 0.  1.
         11    1    4    4    0    0 -0.29661356395E+02 -0.35149525320E+02 -0.57165825459E+02  0.73370408162E+02  0.00000000000E+00 0. -1.
</event>
<event>
 8    1  0.7262913E-009  0.1004220E+03  0.7561462E-02  0.1279411E+00
         -2   -1    0    0    0  501 -0.00000000000E+00  0.00000000000E+00  0.15024048759E+02  0.15024048759E+02  0.00000000000E+00 0.  1.
          2   -1    0    0  501    0  0.00000000000E+00 -0.00000000000E+00 -0.89930853006E+03  0.89930853006E+03  0.00000000000E+00 0. -1.
         25    2    1    2    0    0 -0.32287216880E+02 -0.82836565574E+00 -0.61351456897E+03  0.62697011500E+03  0.12509295825E+03 0.  0.
         23    2    1    2    0    0  0.32287216880E+02  0.82836565574E+00 -0.27076991233E+03  0.28736246382E+03  0.90651473363E+02 0.  0.
          5    1    3    3  502    0  0.43091816342E+02 -0.20673470568E+02 -0.30407944116E+03  0.30784099135E+03  0.41800000000E+01 0.  1.
         -5    1    3    3    0  502 -0.75379033222E+02  0.19845104912E+02 -0.30943512780E+03  0.31912912364E+03  0.41800000000E+01 0.  1.
        -11    1    4    4    0    0  0.45375709315E+02 -0.20493595495E+02 -0.24981271478E+03  0.25472599969E+03  0.00000000000E+00 0. -1.
         11    1    4    4    0    0 -0.13088492436E+02  0.21321961150E+02 -0.20957197556E+02  0.32636464130E+02  0.00000000000E+00 0.  1.
</event>
<event>
 8    1  0.7262913E-009  0.8902106E+02  0.7561462E-02  0.1305240E+00
         -1   -1    0    0    0  501 -0.00000000000E+00  0.00000000000E+00  0.29415850422E+03  0.29415850422E+03  0.00000000000E+00 0. -1.
          1   -1    0    0  501    0  0.00000000000E+00 -0.00000000000E+00 -0.41858110716E+02  0.41858110716E+02  0.00000000000E+00 0.  1.
         25    2    1    2    0    0 -0.31813561467E+00  0.97400069874E+00  0.17777922986E+03  0.21738087391E+03  0.12509172588E+03 0.  0.
         23    2    1    2    0    0  0.31813561467E+00 -0.97400069874E+00  0.74521163644E+02  0.11863574103E+03  0.92303766614E+02 0.  0.
          5    1    3    3  502    0  0.18399050945E+02 -0.38093685594E+02  0.16729932577E+03  0.17261573150E+03  0.41800000000E+01 0. -1.
         -5    1    3    3    0  502 -0.18717186560E+02  0.39067686292E+02  0.10479904088E+02  0.44765142406E+02  0.41800000000E+01 0. -1.
        -11    1    4    4    0    0 -0.12700727454E+02  0.43684445061E+02  0.32080151470E+02  0.55666644739E+02  0.00000000000E+00 0.  1.
         11    1    4    4    0    0  0.13018863068E+02 -0.44658445760E+02  0.42441012174E+02  0.62969096290E+02  0.00000000000E+00 0. -1.
</event>
<event>
 8    1  0.7262913E-009  0.1391142E+03  0.7561462E-02  0.1214526E+00
          3   -1    0    0  501    0  0.00000000000E+00  0.00000000000E+00  0.63114031599E+02  0.63114031599E+02  0.00000000000E+00 0. -1.
         -3   -1    0    0    0  501 -0.00000000000E+00 -0.00000000000E+00 -0.50774525323E+03  0.50774525323E+03  0.00000000000E+00 0.  1.
         25    2    1    2    0    0  0.12877017492E+03 -0.74764413936E+01 -0.33917708100E+03  0.38383128499E+03  0.12509079878E+03 0.  0.
         23    2    1    2    0    0 -0.12877017492E+03  0.74764413936E+01 -0.10545414063E+03  0.18702799983E+03  0.84977890199E+02 0.  0.
          5    1    3    3  502    0  0.61199520278E+02 -0.39951828301E+02 -0.59756160938E+02  0.94497624504E+02  0.41800000000E+01 0. -1.
         -5    1    3    3    0  502  0.67570654638E+02  0.32475386907E+02 -0.27942092006E+03  0.28933366049E+03  0.41800000000E+01 0. -1.
        -11    1    4    4    0    0 -0.32549401756E+02  0.87608978827E+01 -0.81009292206E+02  0.87742363258E+02  0.00000000000E+00 0.  1.
         11    1    4    4    0    0 -0.96220773160E+02 -0.12844564891E+01 -0.24444848421E+02  0.99285636576E+02  0.00000000000E+00 0. -1.
</event>
<event>
 8    1  0.7262913E-009  0.1099008E+03  0.7561462E-02  0.1260754E+00
         -1   -1    0    0    0  501 -0.00000000000E+00  0.00000000000E+00  0.14961313552E+02  0.14961313552E+02  0.00000000000E+00 0.  1.
          1   -1    0    0  501    0  0.00000000000E+00 -0.00000000000E+00 -0.93005978835E+03  0.93005978835E+03  0.00000000000E+00 0. -1.
         25    2    1    2    0    0  0.43623380629E+02  0.16073891064E+02 -0.53533649843E+03  0.55171952347E+03  0.12509155331E+03 0.  0.
         23    2    1    2    0    0 -0.43623380629E+02 -0.16073891064E+02 -0.37976197637E+03  0.39330157844E+03  0.91135084324E+02 0.  0.
          5    1    3    3  502    0  0.20704221460E+02  0.62403861378E+02 -0.16334117529E+03  0.17612699579E+03  0.41800000000E+01 0. -1.
         -5    1    3    3    0  502  0.22919159169E+02 -0.46329970314E+02 -0.37199532314E+03  0.37559252767E+03  0.41800000000E+01 0. -1.
        -11    1    4    4    0    0 -0.70023888924E+02  0.20255650229E+01 -0.24766767350E+03  0.25738439042E+03  0.00000000000E+00 0. -1.
         11    1    4    4    0    0  0.26400508296E+02 -0.18099456087E+02 -0.13209430287E+03  0.13591718802E+03  0.00000000000E+00 0.  1.
</event>
<event>
 8    1  0.7262913E-009  0.1885281E+03  0.7561462E-02  0.1159796E+00
         -1   -1    0    0    0  501 -0.00000000000E+00  0.00000000000E+00  0.16718717724E+03  0.16718717724E+03  0.00000000000E+00 0.  1.
          1   -1    0    0  501    0  0.00000000000E+00 -0.00000000000E+00 -0.23716033976E+03  0.23716033976E+03  0.00000000000E+00 0. -1.
         25    2    1    2    0    0 -0.12192355348E+03  0.10016329340E+03 -0.86492740939E+02  0.21914971495E+03  0.12509022781E+03 0.  0.
         23    2    1    2    0    0  0.12192355348E+03 -0.10016329340E+03  0.16519578414E+02  0.18519780204E+03  0.95536857676E+02 0.  0.
          5    1    3    3  502    0 -0.54484846867E+02 -0.20117684572E+02 -0.49214057826E+02  0.76241823551E+02  0.41800000000E+01 0.  1.
         -5    1    3    3    0  502 -0.67438706608E+02  0.12028097797E+03 -0.37278683113E+02  0.14290789140E+03  0.41800000000E+01 0.  1.
        -11    1    4    4    0    0 -0.33610904145E+01 -0.43043270729E+02  0.19730122189E+02  0.47468914095E+02  0.00000000000E+00 0.  1.
         11    1    4    4    0    0  0.12528464389E+03 -0.57120022671E+02 -0.32105437750E+01  0.13772888795E+03  0.00000000000E+00 0. -1.
</event>
<event>
 8    1  0.7262913E-009  0.1173210E+03  0.7561462E-02  0.1247583E+00
         -1   -1    0    0    0  501 -0.00000000000E+00  0.00000000000E+00  0.20944129052E+02  0.20944129052E+02  0.00000000000E+00 0.  1.
          1   -1    0    0  501    0  0.00000000000E+00 -0.00000000000E+00 -0.11409492410E+04  0.11409492410E+04  0.00000000000E+00 0. -1.
         25    2    1    2    0    0 -0.31491384193E+02  0.98761328904E+02 -0.74426310138E+03  0.76178787140E+03  0.12509072536E+03 0.  0.
         23    2    1    2    0    0  0.31491384193E+02 -0.98761328904E+02 -0.37574201058E+03  0.40010549867E+03  0.90315248891E+02 0.  0.
          5    1    3    3  502    0 -0.24690870261E+02  0.10681118188E+03 -0.33783456847E+03  0.35520126084E+03  0.41800000000E+01 0.  1.
         -5    1    3    3    0  502 -0.68005139313E+01 -0.80498529770E+01 -0.40642853291E+03  0.40658661056E+03  0.41800000000E+01 0.  1.
        -11    1    4    4    0    0  0.43570956145E+02 -0.70711586317E+02 -0.35131060721E+03  0.36099542850E+03  0.00000000000E+00 0. -1.
         11    1    4    4    0    0 -0.12079571952E+02 -0.28049742588E+02 -0.24431403370E+02  0.39110070166E+02  0.00000000000E+00 0.  1.
</event>
<event>
 8    1  0.7262913E-009  0.1014212E+03  0.7561462E-02  0.1277335E+00
         -2   -1    0    0    0  501 -0.00000000000E+00  0.00000000000E+00  0.20495028449E+02  0.20495028449E+02  0.00000000000E+00 0. -1.
          2   -1    0    0  501    0  0.00000000000E+00 -0.00000000000E+00 -0.11801330464E+04  0.11801330464E+04  0.00000000000E+00 0.  1.
         25    2    1    2    0    0  0.76210532481E+02  0.51593539702E+02 -0.86333306667E+03  0.87718809282E+03  0.12508008465E+03 0.  0.
         23    2    1    2    0    0 -0.76210532481E+02 -0.51593539702E+02 -0.29630495125E+03  0.32343998200E+03  0.91361147218E+02 0.  0.
          5    1    3    3  502    0  0.23106943003E+02  0.14193254435E+01 -0.20557250123E+02  0.31241290503E+02  0.41800000000E+01 0.  1.
         -5    1    3    3    0  502  0.53103589478E+02  0.50174214258E+02 -0.84277581655E+03  0.84594680232E+03  0.41800000000E+01 0.  1.
        -11    1    4    4    0    0 -0.35278957678E+02  0.56908520512E+01 -0.20526477443E+03  0.20835214967E+03  0.00000000000E+00 0.  1.
         11    1    4    4    0    0 -0.40931574804E+02 -0.57284391753E+02 -0.91040176826E+02  0.11508783233E+03  0.00000000000E+00 0. -1.
</event>
<event>
 8    1  0.7262913E-009  0.1616836E+03  0.7561462E-02  0.1186809E+00
         -1   -1    0    0    0  501 -0.00000000000E+00  0.00000000000E+00  0.41472375422E+03  0.41472375422E+03  0.00000000000E+00 0.  1.
          1   -1    0    0  501    0  0.00000000000E+00 -0.00000000000E+00 -0.77624716722E+02  0.77624716722E+02  0.00000000000E+00 0. -1.
         25    2    1    2    0    0  0.13861473065E+03 -0.12851185390E+02  0.13508367627E+03  0.23081124526E+03  0.12508810823E+03 0.  0.
         23    2    1    2    0    0 -0.13861473065E+03  0.12851185390E+02  0.20201536123E+03  0.26153722569E+03  0.90621839134E+02 0.  0.
          5    1    3    3  502    0  0.10258502185E+03  0.47867604003E+02  0.62124785671E+02  0.12919735142E+03  0.41800000000E+01 0.  1.
         -5    1    3    3    0  502  0.36029708807E+02 -0.60718789393E+02  0.72958890601E+02  0.10161389383E+03  0.41800000000E+01 0.  1.
        -11    1    4    4    0    0 -0.31493897574E+02  0.56495349920E+01 -0.85627385418E+00  0.32008062030E+02  0.00000000000E+00 0. -1.
         11    1    4    4    0    0 -0.10712083308E+03  0.72016503978E+01  0.20287163508E+03  0.22952916366E+03  0.00000000000E+00 0.  1.
</event>
<event>
 8    1  0.7262913E-009  0.1202247E+03  0.7561462E-02  0.1242727E+00
          1   -1    0    0  501    0  0.00000000000E+00  0.00000000000E+00  0.10947066530E+03  0.10947066530E+03  0.00000000000E+00 0. -1.
         -1   -1    0    0    0  501 -0.00000000000E+00 -0.00000000000E+00 -0.17499251141E+03  0.17499251141E+03  0.00000000000E+00 0.  1.
         25    2    1    2    0    0 -0.43634929584E+02 -0.43308530418E+02 -0.96177497445E+02  0.16934105382E+03  0.12508655247E+03 0.  0.
         23    2    1    2    0    0  0.43634929584E+02  0.43308530418E+02  0.30655651334E+02  0.11512212288E+03  0.92378018659E+02 0.  0.
          5    1    3    3  502    0 -0.24165979847E+01 -0.77313167801E+02 -0.84216151381E+02  0.11442464077E+03  0.41800000000E+01 0. -1.
         -5    1    3    3    0  502 -0.41218331600E+02  0.34004637383E+02 -0.11961346064E+02  0.54916413057E+02  0.41800000000E+01 0. -1.
        -11    1    4    4    0    0  0.49793986565E+02  0.67807343785E+02  0.31542369945E+02  0.89845412075E+02  0.00000000000E+00 0.  1.
         11    1    4    4    0    0 -0.61590569810E+01 -0.24498813367E+02 -0.88671861120E+00  0.25276710806E+02  0.00000000000E+00 0. -1.
</event>
<event>
 8    1  0.7262913E-009  0.1383609E+03  0.7561462E-02  0.1215552E+00
         -1   -1    0    0    0  501 -0.00000000000E+00  0.00000000000E+00  0.12097731987E+04  0.12097731987E+04  0.00000000000E+00 0.  1.
          1   -1    0    0  501    0  0.00000000000E+00 -0.00000000000E+00 -0.51198275404E+02  0.51198275404E+02  0.00000000000E+00 0. -1.
         25    2    1    2    0    0  0.94356421813E+02 -0.44736271273E+02  0.10922692330E+04  0.11043568643E+04  0.12509011990E+03 0.  0.
         23    2    1    2    0    0 -0.94356421813E+02  0.44736271273E+02  0.66305690316E+02  0.15661460981E+03  0.96058436028E+02 0.  0.
          5    1    3    3  502    0  0.10307855791E+03 -0.15839168827E+02  0.47481017560E+03  0.48614631915E+03  0.41800000000E+01 0. -1.
         -5    1    3    3    0  502 -0.87221360996E+01 -0.28897102446E+02  0.61745905735E+03  0.61821054512E+03  0.41800000000E+01 0. -1.
        -11    1    4    4    0    0  0.64396910925E+01  0.40481993549E+02  0.18344024343E+02  0.44908402913E+02  0.00000000000E+00 0. -1.
         11    1    4    4    0    0 -0.10079611291E+03  0.42542777233E+01  0.47961665973E+02  0.11170620689E+03  0.00000000000E+00 0.  1.
</event>
<event>
 8    1  0.7262913E-009  0.1234995E+03  0.7561462E-02  0.1237433E+00
         -1   -1    0    0    0  501 -0.00000000000E+00  0.00000000000E+00  0.16057730120E+03  0.16057730120E+03  0.00000000000E+00 0.  1.
          1   -1    0    0  501    0  0.00000000000E+00 -0.00000000000E+00 -0.12840582854E+03  0.12840582854E+03  0.00000000000E+00 0. -1.
         25    2    1    2    0    0 -0.74453061190E+02 -0.53120058352E+02 -0.18045199126E+01  0.15496166614E+03  0.12507942580E+03 0.  0.
         23    2    1    2    0    0  0.74453061190E+02  0.53120058352E+02  0.33975992568E+02  0.13402146360E+03  0.91882455973E+02 0.  0.
          5    1    3    3  502    0 -0.76591840969E+02 -0.89696429053E+02  0.34305866704E+00  0.11802266552E+03  0.41800000000E+01 0. -1.
         -5    1    3    3    0  502  0.21387797794E+01  0.36576370700E+02 -0.21475785796E+01  0.36939000613E+02  0.41800000000E+01 0. -1.
        -11    1    4    4    0    0  0.64770502855E+02  0.41285772133E+02 -0.18798372234E+02  0.79076619929E+02  0.00000000000E+00 0. -1.
         11    1    4    4    0    0  0.96825583349E+01  0.11834286219E+02  0.52774364802E+02  0.54944843675E+02  0.00000000000E+00 0.  1.
</event>
<event>
 8    1  0.7262913E-009  0.1016640E+03  0.7561462E-02  0.1276835E+00
         -1   -1    0    0    0  501 -0.00000000000E+00  0.00000000000E+00  0.43133311312E+02  0.43133311312E+02  0.00000000000E+00 0.  1.
          1   -1    0    0  501    0  0.00000000000E+00 -0.00000000000E+00 -0.29741286240E+03  0.29741286240E+03  0.00000000000E+00 0. -1.
         25    2    1    2    0    0  0.38185722028E+02  0.60007270855E+01 -0.15320877785E+03  0.20153275523E+03  0.12509342001E+03 0.  0.
         23    2    1    2    0    0 -0.38185722028E+02 -0.60007270855E+01 -0.10107077324E+03  0.13901341848E+03  0.87265521383E+02 0.  0.
          5    1    3    3  502    0  0.59147604355E+02 -0.29670620590E+02 -0.14458469202E+03  0.15906285045E+03  0.41800000000E+01 0.  1.
         -5    1    3    3    0  502 -0.20961882327E+02  0.35671347675E+02 -0.86240858288E+01  0.42469904780E+02  0.41800000000E+01 0.  1.
        -11    1    4    4    0    0 -0.56025803778E+02  0.23667385661E+02 -0.63739216633E+02  0.88100644549E+02  0.00000000000E+00 0. -1.
         11    1    4    4    0    0  0.17840081750E+02 -0.29668112747E+02 -0.37331556608E+02  0.50912773933E+02  0.00000000000E+00 0.  1.
</event>
<event>
 8    1  0.7262913E-009  0.1304570E+03  0.7561462E-02  0.1226779E+00
          2   -1    0    0  501    0  0.00000000000E+00  0.00000000000E+00  0.23787831583E+03  0.23787831583E+03  0.00000000000E+00 0. -1.
         -2   -1    0    0    0  501 -0.00000000000E+00 -0.00000000000E+00 -0.79534221446E+02  0.79534221446E+02  0.00000000000E+00 0.  1.
         25    2    1    2    0    0 -0.67988454281E+02  0.45364443025E+02  0.63283552727E+02  0.16227355304E+03  0.12509010898E+03 0.  0.
         23    2    1    2    0    0  0.67988454281E+02 -0.45364443025E+02  0.95060541659E+02  0.15513898424E+03  0.91385093114E+02 0.  0.
          5    1    3    3  502    0  0.37009532755E+02  0.10215205289E+02  0.16103080534E+02  0.41843010605E+02  0.41800000000E+01 0. -1.
         -5    1    3    3    0  502 -0.10499798704E+03  0.35149237735E+02  0.47180472194E+02  0.12043054244E+03  0.41800000000E+01 0. -1.
        -11    1    4    4    0    0 -0.15621811281E+02 -0.17266057244E+02 -0.27319539681E+01  0.23444003347E+02  0.00000000000E+00 0.  1.
         11    1    4    4    0    0  0.83610265562E+02 -0.28098385780E+02  0.97792495627E+02  0.13169498089E+03  0.00000000000E+00 0. -1.
</event>
<event>
 8    1  0.7262913E-009  0.1738858E+03  0.7561462E-02  0.1173855E+00
          1   -1    0    0  501    0  0.00000000000E+00  0.00000000000E+00  0.36980869929E+02  0.36980869929E+02  0.00000000000E+00 0. -1.
         -1   -1    0    0    0  501 -0.00000000000E+00 -0.00000000000E+00 -0.89018819735E+03  0.89018819735E+03  0.00000000000E+00 0.  1.
         25    2    1    2    0    0  0.89734512587E+02 -0.10716947875E+03 -0.35401702892E+03  0.40064096659E+03  0.12509015718E+03 0.  0.
         23    2    1    2    0    0 -0.89734512587E+02  0.10716947875E+03 -0.49919029850E+03  0.52652810069E+03  0.92213376313E+02 0.  0.
          5    1    3    3  502    0  0.97946380461E+02 -0.12997335783E+03 -0.30134982987E+03  0.34251388227E+03  0.41800000000E+01 0. -1.
         -5    1    3    3    0  502 -0.82118678739E+01  0.22803879081E+02 -0.52667199054E+02  0.58127084318E+02  0.41800000000E+01 0. -1.
        -11    1    4    4    0    0  0.14425329520E+02  0.19348488510E+02 -0.14581563943E+03  0.14779937362E+03  0.00000000000E+00 0.  1.
         11    1    4    4    0    0 -0.10415984211E+03  0.87820990235E+02 -0.35337465907E+03  0.37872872707E+03  0.00000000000E+00 0. -1.
</event>
<event>
 8    1  0.7262913E-009  0.1481481E+03  0.7561462E-02  0.1202767E+00
          3   -1    0    0  501    0  0.00000000000E+00  0.00000000000E+00  0.30292119360E+03  0.30292119360E+03  0.00000000000E+00 0. -1.
         -3   -1    0    0    0  501 -0.00000000000E+00 -0.00000000000E+00 -0.10617400022E+03  0.10617400022E+03  0.00000000000E+00 0.  1.
         25    2    1    2    0    0 -0.26374091311E+02 -0.13006435844E+03  0.42622581691E+02  0.18728810075E+03  0.12509123943E+03 0.  0.
         23    2    1    2    0    0  0.26374091311E+02  0.13006435844E+03  0.15412461169E+03  0.22180709307E+03  0.88496669882E+02 0.  0.
          5    1    3    3  502    0 -0.44338438577E+01 -0.12086004061E+03 -0.17706624206E+02  0.12230210680E+03  0.41800000000E+01 0.  1.
         -5    1    3    3    0  502 -0.21940247453E+02 -0.92043178334E+01  0.60329205897E+02  0.64985993947E+02  0.41800000000E+01 0.  1.
        -11    1    4    4    0    0 -0.24777657481E+02  0.31487090954E+02  0.76346775207E+02  0.86221802878E+02  0.00000000000E+00 0. -1.
         11    1    4    4    0    0  0.51151748792E+02  0.98577267486E+02  0.77777836482E+02  0.13558529020E+03  0.00000000000E+00 0.  1.
</event>
<event>
 8    1  0.7262913E-009  0.1677999E+03  0.7561462E-02  0.1180162E+00
          2   -1    0    0  501    0  0.00000000000E+00  0.00000000000E+00  0.41755448172E+03  0.41755448172E+03  0.00000000000E+00 0. -1.
         -2   -1    0    0    0  501 -0.00000000000E+00 -0.00000000000E+00 -0.78646376362E+02  0.78646376362E+02  0.00000000000E+00 0.  1.
         25    2    1    2    0    0 -0.13693736075E+03  0.25947896812E+02  0.23034812826E+03  0.29687341440E+03  0.12509368435E+03 0.  0.
         23    2    1    2    0    0  0.13693736075E+03 -0.25947896812E+02  0.10855997710E+03  0.19932744368E+03  0.92309409375E+02 0.  0.
          5    1    3    3  502    0  0.72440209724E+01 -0.27920116449E+02  0.16916504272E+02  0.33699395531E+02  0.41800000000E+01 0.  1.
         -5    1    3    3    0  502 -0.14418138172E+03  0.53868013261E+02  0.21343162399E+03  0.26317401887E+03  0.41800000000E+01 0.  1.
        -11    1    4    4    0    0  0.67975028409E+02  0.18485980751E+02  0.91600543275E+02  0.11555516215E+03  0.00000000000E+00 0. -1.
         11    1    4    4    0    0  0.68962332343E+02 -0.44433877563E+02  0.16959433821E+02  0.83772281531E+02  0.00000000000E+00 0.  1.
</event>
<event>
 8    1  0.7262913E-009  0.2141383E+03  0.7561462E-02  0.1138330E+00
         -1   -1    0    0    0  501 -0.00000000000E+00  0.00000000000E+00  0.11418129312E+03  0.11418129312E+03  0.00000000000E+00 0.  1.
          1   -1    0    0  501    0  0.00000000000E+00 -0.00000000000E+00 -0.47933285486E+03  0.47933285486E+03  0.00000000000E+00 0. -1.
         25    2    1    2    0    0 -0.38561101871E+02  0.18751064785E+03 -0.28692458025E+03  0.36690497602E+03  0.12508535103E+03 0.  0.
         23    2    1    2    0    0  0.38561101871E+02 -0.18751064785E+03 -0.78226981491E+02  0.22660917196E+03  0.92655569436E+02 0.  0.
          5    1    3    3  502    0  0.39292028396E+02  0.50700015704E+02 -0.12770878269E+03  0.14297328654E+03  0.41800000000E+01 0.  1.
         -5    1    3    3    0  502 -0.77853130267E+02  0.13681063214E+03 -0.15921579756E+03  0.22393168948E+03  0.41800000000E+01 0.  1.
        -11    1    4    4    0    0  0.44248897013E+02 -0.42319885791E+02 -0.48941955808E+02  0.78385283431E+02  0.00000000000E+00 0. -1.
         11    1    4    4    0    0 -0.56877951419E+01 -0.14519076206E+03 -0.29285025683E+02  0.14822388852E+03  0.00000000000E+00 0.  1.
</event>
<event>
 8    1  0.7262913E-009  0.1172334E+03  0.7561462E-02  0.1247732E+00
         -2   -1    0    0    0  501 -0.00000000000E+00  0.00000000000E+00  0.30764484157E+02  0.30764484157E+02  0.00000000000E+00 0. -1.
          2   -1    0    0  501    0  0.00000000000E+00 -0.00000000000E+00 -0.46337762327E+03  0.46337762327E+03  0.00000000000E+00 0.  1.
         25    2    1    2    0    0  0.27288686678E+02 -0.35072307344E+02 -0.19773761801E+03  0.23816592675E+03  0.12509238157E+03 0.  0.
         23    2    1    2    0    0 -0.27288686678E+02  0.35072307344E+02 -0.23487552110E+03  0.25597618068E+03  0.91556296871E+02 0.  0.
          5    1    3    3  502    0  0.62918780331E+02 -0.61578148523E+02 -0.12991127789E+03  0.15698743203E+03  0.41800000000E+01 0.  1.
         -5    1    3    3    0  502 -0.35630093653E+02  0.26505841179E+02 -0.67826340117E+02  0.81178494714E+02  0.41800000000E+01 0.  1.
        -11    1    4    4    0    0  0.15733127316E+02  0.52874818105E+02 -0.13116412863E+03  0.14229302978E+03  0.00000000000E+00 0.  1.
         11    1    4    4    0    0 -0.43021813994E+02 -0.17802510761E+02 -0.10371139248E+03  0.11368315090E+03  0.00000000000E+00 0. -1.
</event>
<event>
 8    1  0.7262913E-009  0.1127788E+03  0.7561462E-02  0.1255509E+00
          1   -1    0    0  501    0  0.00000000000E+00  0.00000000000E+00  0.34598829604E+03  0.34598829604E+03  0.00000000000E+00 0. -1.
         -1   -1    0    0    0  501 -0.00000000000E+00 -0.00000000000E+00 -0.68416941816E+02  0.68416941816E+02  0.00000000000E+00 0.  1.
         25    2    1    2    0    0  0.46551855246E+01  0.17018370757E+02  0.76114078944E+01  0.12656180518E+03  0.12509460942E+03 0.  0.
         23    2    1    2    0    0 -0.46551855246E+01 -0.17018370757E+02  0.26995994633E+03  0.28784343268E+03  0.98306527842E+02 0.  0.
          5    1    3    3  502    0 -0.52890777520E+02  0.37015475394E+02  0.99482993399E+01  0.65452431774E+02  0.41800000000E+01 0. -1.
         -5    1    3    3    0  502  0.57545963045E+02 -0.19997104637E+02 -0.23368914454E+01  0.61109373408E+02  0.41800000000E+01 0. -1.
        -11    1    4    4    0    0 -0.45666027780E+02 -0.32408653373E+02  0.15703109977E+03  0.16671674542E+03  0.00000000000E+00 0.  1.
         11    1    4    4    0    0  0.41010842255E+02  0.15390282615E+02  0.11292884656E+03  0.12112668726E+03  0.00000000000E+00 0. -1.
</event>
<event>
 8    1  0.7262913E-009  0.1013554E+03  0.7561462E-02  0.1277471E+00
          2   -1    0    0  501    0  0.00000000000E+00  0.00000000000E+00  0.76792902426E+02  0.76792902426E+02  0.00000000000E+00 0. -1.
         -2   -1    0    0    0  501 -0.00000000000E+00 -0.00000000000E+00 -0.19217963004E+03  0.19217963004E+03  0.00000000000E+00 0.  1.
         25    2    1    2    0    0 -0.28728587150E+02 -0.40479941772E+02 -0.51047250935E+02  0.14393353116E+03  0.12508829745E+03 0.  0.
         23    2    1    2    0    0  0.28728587150E+02  0.40479941772E+02 -0.64339476681E+02  0.12503900131E+03  0.95032763735E+02 0.  0.
          5    1    3    3  502    0  0.37458073032E+02  0.20647003568E+02 -0.26390981054E+02  0.50431758571E+02  0.41800000000E+01 0. -1.
         -5    1    3    3    0  502 -0.66186660182E+02 -0.61126945341E+02 -0.24656269881E+02  0.93501772589E+02  0.41800000000E+01 0. -1.
        -11    1    4    4    0    0  0.34723197397E+02  0.68617241943E+01  0.15168383901E+02  0.38507967573E+02  0.00000000000E+00 0. -1.
         11    1    4    4    0    0 -0.59946102471E+01  0.33618217578E+02 -0.79507860582E+02  0.86531033736E+02  0.00000000000E+00 0.  1.
</event>
<event>
 8    1  0.7262913E-009  0.1202266E+03  0.7561462E-02  0.1242724E+00
          1   -1    0    0  501    0  0.00000000000E+00  0.00000000000E+00  0.14770486552E+04  0.14770486552E+04  0.00000000000E+00 0. -1.
         -1   -1    0    0    0  501 -0.00000000000E+00 -0.00000000000E+00 -0.19730102728E+02  0.19730102728E+02  0.00000000000E+00 0.  1.
         25    2    1    2    0    0 -0.14659517709E+02  0.10991874439E+03  0.10826181028E+04  0.10954481219E+04  0.12509036479E+03 0.  0.
         23    2    1    2    0    0  0.14659517709E+02 -0.10991874439E+03  0.37470044967E+03  0.40133063606E+03  0.91481258341E+02 0.  0.
          5    1    3    3  502    0 -0.20190064062E+02  0.61362778050E+02  0.97537651611E+03  0.97752230143E+03  0.41800000000E+01 0.  1.
         -5    1    3    3    0  502  0.55305463525E+01  0.48555966344E+02  0.10724158674E+03  0.11792582048E+03  0.41800000000E+01 0.  1.
        -11    1    4    4    0    0 -0.60583441487E+01 -0.10526176046E+03  0.36094632420E+03  0.37603057150E+03  0.00000000000E+00 0. -1.
         11    1    4    4    0    0  0.20717861858E+02 -0.46569839293E+01  0.13754125476E+02  0.25300064563E+02  0.00000000000E+00 0.  1.
</event>
<event>
 8    1  0.7262913E-009  0.1030625E+03  0.7561462E-02  0.1273985E+00
          2   -1    0    0  501    0  0.00000000000E+00  0.00000000000E+00  0.61266218006E+03  0.61266218006E+03  0.00000000000E+00 0. -1.
         -2   -1    0    0    0  501 -0.00000000000E+00 -0.00000000000E+00 -0.29493930773E+02  0.29493930773E+02  0.00000000000E+00 0.  1.
         25    2    1    2    0    0 -0.59841722188E+02  0.31341517768E+02  0.42496643398E+03  0.44811533466E+03  0.12509021022E+03 0.  0.
         23    2    1    2    0    0  0.59841722188E+02 -0.31341517768E+02  0.15820181531E+03  0.19404077618E+03  0.89781323240E+02 0.  0.
          5    1    3    3  502    0 -0.36249380749E+02  0.74749750263E+02  0.18151846420E+03  0.19966964720E+03  0.41800000000E+01 0. -1.
         -5    1    3    3    0  502 -0.23592341439E+02 -0.43408232496E+02  0.24344796979E+03  0.24844568746E+03  0.41800000000E+01 0. -1.
        -11    1    4    4    0    0  0.36799149310E+02 -0.34082400418E+02  0.20152411037E+02  0.54054667502E+02  0.00000000000E+00 0.  1.
         11    1    4    4    0    0  0.23042572878E+02  0.27408826503E+01  0.13804940427E+03  0.13998610868E+03  0.00000000000E+00 0. -1.
</event>
<event>
 8    1  0.7262913E-009  0.1843161E+03  0.7561462E-02  0.1163690E+00
         -1   -1    0    0    0  501 -0.00000000000E+00  0.00000000000E+00  0.17115912083E+03  0.17115912083E+03  0.00000000000E+00 0.  1.
          1   -1    0    0  501    0  0.00000000000E+00 -0.00000000000E+00 -0.30480563742E+03  0.30480563742E+03  0.00000000000E+00 0. -1.
         25    2    1    2    0    0 -0.14702160312E+03 -0.81486063867E+02 -0.18343830216E+03  0.27848093138E+03  0.12508672214E+03 0.  0.
         23    2    1    2    0    0  0.14702160312E+03  0.81486063867E+02  0.49791785565E+02  0.19748382687E+03  0.90913748020E+02 0.  0.
          5    1    3    3  502    0 -0.84797445507E+02 -0.10225205445E+03 -0.77622936042E+02  0.15391192937E+03  0.41800000000E+01 0. -1.
         -5    1    3    3    0  502 -0.62224157609E+02  0.20765990580E+02 -0.10581536612E+03  0.12456900201E+03  0.41800000000E+01 0. -1.
        -11    1    4    4    0    0  0.26430998757E+02  0.41920851546E+01  0.47160052086E+02  0.54223996404E+02  0.00000000000E+00 0.  1.
         11    1    4    4    0    0  0.12059060436E+03  0.77293978712E+02  0.26317334791E+01  0.14325983047E+03  0.00000000000E+00 0. -1.
</event>
<event>
 8    1  0.7262913E-009  0.1459548E+03  0.7561462E-02  0.1205534E+00
          1   -1    0    0  501    0  0.00000000000E+00  0.00000000000E+00  0.19693374982E+03  0.19693374982E+03  0.00000000000E+00 0. -1.
         -1   -1    0    0    0  501 -0.00000000000E+00 -0.00000000000E+00 -0.17892480932E+03  0.17892480932E+03  0.00000000000E+00 0.  1.
         25    2    1    2    0    0  0.45447675641E+02 -0.13016839364E+03 -0.56335219494E+02  0.19450267463E+03  0.12509329142E+03 0.  0.
         23    2    1    2    0    0 -0.45447675641E+02  0.13016839364E+03  0.74344159991E+02  0.18135588451E+03  0.91398034973E+02 0.  0.
          5    1    3    3  502    0  0.49197685601E+02 -0.42230868598E+02 -0.80196507270E+02  0.10321245424E+03  0.41800000000E+01 0. -1.
         -5    1    3    3    0  502 -0.37500099607E+01 -0.87937525044E+02  0.23861287776E+02  0.91290220396E+02  0.41800000000E+01 0. -1.
        -11    1    4    4    0    0 -0.12094811970E+02  0.58974471080E+02 -0.15304844513E+02  0.62116913811E+02  0.00000000000E+00 0.  1.
         11    1    4    4    0    0 -0.33352863671E+02  0.71193922562E+02  0.89649004504E+02  0.11923897070E+03  0.00000000000E+00 0. -1.
</event>
<event>
 8    1  0.7262913E-009  0.2280353E+03  0.7561462E-02  0.1128030E+00
          2   -1    0    0  501    0  0.00000000000E+00  0.00000000000E+00  0.10017312062E+04  0.10017312062E+04  0.00000000000E+00 0. -1.
         -2   -1    0    0    0  501 -0.00000000000E+00 -0.00000000000E+00 -0.54430378189E+02  0.54430378189E+02  0.00000000000E+00 0.  1.
         25    2    1    2    0    0 -0.96248533247E+02 -0.18223184766E+03  0.47228148471E+03  0.53025425264E+03  0.12509014822E+03 0.  0.
         23    2    1    2    0    0  0.96248533247E+02  0.18223184766E+03  0.47501934334E+03  0.52590733180E+03  0.91994122830E+02 0.  0.
          5    1    3    3  502    0 -0.56592144186E+02 -0.15262806793E+02  0.61573291679E+02  0.85113845542E+02  0.41800000000E+01 0.  1.
         -5    1    3    3    0  502 -0.39656389061E+02 -0.16696904087E+03  0.41070819304E+03  0.44514040709E+03  0.41800000000E+01 0.  1.
        -11    1    4    4    0    0  0.37481940029E+02  0.36724022910E+01  0.83281402154E+02  0.91401172376E+02  0.00000000000E+00 0.  1.
         11    1    4    4    0    0  0.58766593219E+02  0.17855944537E+03  0.39173794119E+03  0.43450615942E+03  0.00000000000E+00 0. -1.
</event>
<event>
 8    1  0.7262913E-009  0.8333114E+02  0.7561462E-02  0.1319855E+00
          2   -1    0    0  501    0  0.00000000000E+00  0.00000000000E+00  0.58697750619E+03  0.58697750619E+03  0.00000000000E+00 0. -1.
         -2   -1    0    0    0  501 -0.00000000000E+00 -0.00000000000E+00 -0.21081564414E+02  0.21081564414E+02  0.00000000000E+00 0.  1.
         25    2    1    2    0    0  0.66045478807E+01 -0.26879108954E+02  0.30045901326E+03  0.32663327719E+03  0.12509025768E+03 0.  0.
         23    2    1    2    0    0 -0.66045478807E+01  0.26879108954E+02  0.26543692851E+03  0.28142579341E+03  0.89317454229E+02 0.  0.
          5    1    3    3  502    0 -0.22718981850E+02 -0.35456617759E+02  0.24381798062E+02  0.48839209207E+02  0.41800000000E+01 0.  1.
         -5    1    3    3    0  502  0.29323529731E+02  0.85775088049E+01  0.27607721520E+03  0.27779406798E+03  0.41800000000E+01 0.  1.
        -11    1    4    4    0    0  0.41440924866E+02  0.10546178331E+02  0.12171941622E+03  0.12901235761E+03  0.00000000000E+00 0.  1.
         11    1    4    4    0    0 -0.48045472747E+02  0.16332930623E+02  0.14371751229E+03  0.15241343580E+03  0.00000000000E+00 0. -1.
</event>
<event>
 8    1  0.7262913E-009  0.1143878E+03  0.7561462E-02  0.1252654E+00
         -2   -1    0    0    0  501 -0.00000000000E+00  0.00000000000E+00  0.36466267235E+03  0.36466267235E+03  0.00000000000E+00 0.  1.
          2   -1    0    0  501    0  0.00000000000E+00 -0.00000000000E+00 -0.49046308012E+02  0.49046308012E+02  0.00000000000E+00 0. -1.
         25    2    1    2    0    0  0.27776307114E+02  0.51447260047E+02  0.25330716460E+03  0.28849668650E+03  0.12508986641E+03 0.  0.
         23    2    1    2    0    0 -0.27776307114E+02 -0.51447260047E+02  0.62309199735E+02  0.12521229386E+03  0.91527801022E+02 0.  0.
          5    1    3    3  502    0 -0.19628478342E+02 -0.27215085934E+02  0.24057747711E+02  0.41499225165E+02  0.41800000000E+01 0. -1.
         -5    1    3    3    0  502  0.47404785456E+02  0.78662345980E+02  0.22924941689E+03  0.24699746133E+03  0.41800000000E+01 0. -1.
        -11    1    4    4    0    0 -0.12398766773E+02 -0.74383544563E+02  0.26366045801E+02  0.79886228415E+02  0.00000000000E+00 0. -1.
         11    1    4    4    0    0 -0.15377540341E+02  0.22936284516E+02  0.35943153934E+02  0.45326065449E+02  0.00000000000E+00 0.  1.
</event>
<event>
 8    1  0.7262913E-009  0.1103614E+03  0.7561462E-02  0.1259902E+00
          3   -1    0    0  501    0  0.00000000000E+00  0.00000000000E+00  0.42607242900E+03  0.42607242900E+03  0.00000000000E+00 0. -1.
         -3   -1    0    0    0  501 -0.00000000000E+00 -0.00000000000E+00 -0.43434578528E+02  0.43434578528E+02  0.00000000000E+00 0.  1.
         25    2    1    2    0    0  0.71538441594E+02 -0.86845115462E+01  0.14469072770E+03  0.20439177760E+03  0.12508965865E+03 0.  0.
         23    2    1    2    0    0 -0.71538441594E+02  0.86845115462E+01  0.23794712278E+03  0.26511522993E+03  0.92054780094E+02 0.  0.
          5    1    3    3  502    0 -0.25987174733E+02 -0.34315637916E+02  0.48295687423E+02  0.64829330397E+02  0.41800000000E+01 0. -1.
         -5    1    3    3    0  502  0.97525616327E+02  0.25631126370E+02  0.96395040275E+02  0.13956244720E+03  0.41800000000E+01 0. -1.
        -11    1    4    4    0    0 -0.15326220689E+02 -0.88117573239E+01 -0.22382856628E+01  0.17819933514E+02  0.00000000000E+00 0.  1.
         11    1    4    4    0    0 -0.56212220905E+02  0.17496268870E+02  0.24018540844E+03  0.24729529642E+03  0.00000000000E+00 0. -1.
</event>
<event>
 8    1  0.7262913E-009  0.2069633E+03  0.7561462E-02  0.1143994E+00
         -2   -1    0    0    0  501 -0.00000000000E+00  0.00000000000E+00  0.16912854330E+03  0.16912854330E+03  0.00000000000E+00 0.  1.
          2   -1    0    0  501    0  0.00000000000E+00 -0.00000000000E+00 -0.28119529999E+03  0.28119529999E+03  0.00000000000E+00 0. -1.
         25    2    1    2    0    0  0.60930442041E+02 -0.17281067947E+03 -0.98951562602E+01  0.22208524094E+03  0.12509152817E+03 0.  0.
         23    2    1    2    0    0 -0.60930442041E+02  0.17281067947E+03 -0.10217160043E+03  0.22823860236E+03  0.89876437224E+02 0.  0.
          5    1    3    3  502    0  0.80054056928E+02 -0.17928063461E+03  0.53256409156E+01  0.19645873059E+03  0.41800000000E+01 0.  1.
         -5    1    3    3    0  502 -0.19123614887E+02  0.64699551385E+01 -0.15220797176E+02  0.25626510346E+02  0.41800000000E+01 0.  1.
        -11    1    4    4    0    0 -0.77012335063E+02  0.15394407075E+03 -0.65925147126E+02  0.18432526060E+03  0.00000000000E+00 0.  1.
         11    1    4    4    0    0  0.16081893022E+02  0.18866608716E+02 -0.36246453303E+02  0.43913341762E+02  0.00000000000E+00 0. -1.
</event>
<event>
 8    1  0.7262913E-009  0.1052338E+03  0.7561462E-02  0.1269660E+00
          1   -1    0    0  501    0  0.00000000000E+00  0.00000000000E+00  0.14511068345E+03  0.14511068345E+03  0.00000000000E+00 0. -1.
         -1   -1    0    0    0  501 -0.00000000000E+00 -0.00000000000E+00 -0.12966363767E+03  0.12966363767E+03  0.00000000000E+00 0.  1.
         25    2    1    2    0    0  0.38527447155E+02  0.50299388806E+02 -0.46311736037E+02  0.14766992986E+03  0.12508892274E+03 0.  0.
         23    2    1    2    0    0 -0.38527447155E+02 -0.50299388806E+02  0.61758781811E+02  0.12710439126E+03  0.91252322968E+02 0.  0.
          5    1    3    3  502    0 -0.33437082775E+02 -0.60482182045E+01 -0.44513994848E+02  0.56156812457E+02  0.41800000000E+01 0.  1.
         -5    1    3    3    0  502  0.71964529931E+02  0.56347607011E+02 -0.17977411896E+01  0.91513117406E+02  0.41800000000E+01 0.  1.
        -11    1    4    4    0    0 -0.51110347150E+02 -0.25933475369E+02  0.76799151114E+02  0.95827565670E+02  0.00000000000E+00 0. -1.
         11    1    4    4    0    0  0.12582899995E+02 -0.24365913437E+02 -0.15040369303E+02  0.31276825585E+02  0.00000000000E+00 0.  1.
</event>
<event>
 8    1  0.7262913E-009  0.1195712E+03  0.7561462E-02  0.1243806E+00
          2   -1    0    0  501    0  0.00000000000E+00  0.00000000000E+00  0.18505290355E+03  0.18505290355E+03  0.00000000000E+00 0. -1.
         -2   -1    0    0    0  501 -0.00000000000E+00 -0.00000000000E+00 -0.86720167980E+02  0.86720167980E+02  0.00000000000E+00 0.  1.
         25    2    1    2    0    0 -0.32099292726E+02 -0.53323485383E+02  0.77582581224E+02  0.15981214273E+03  0.12508839022E+03 0.  0.
         23    2    1    2    0    0  0.32099292726E+02  0.53323485383E+02  0.20750154349E+02  0.11196092880E+03  0.90724428828E+02 0.  0.
          5    1    3    3  502    0 -0.34676959930E+02  0.30142592560E+02  0.57687370465E+02  0.73867263029E+02  0.41800000000E+01 0.  1.
         -5    1    3    3    0  502  0.25776672041E+01 -0.83466077943E+02  0.19895210759E+02  0.85944879699E+02  0.41800000000E+01 0.  1.
        -11    1    4    4    0    0  0.21464386229E+02  0.78862310414E+02  0.20635868328E+02  0.84296043453E+02  0.00000000000E+00 0. -1.
         11    1    4    4    0    0  0.10634906497E+02 -0.25538825032E+02  0.11428602047E+00  0.27664885351E+02  0.00000000000E+00 0.  1.
</event>
<event>
 8    1  0.7262913E-009  0.1534532E+03  0.7561462E-02  0.1196293E+00
          2   -1    0    0  501    0  0.00000000000E+00  0.00000000000E+00  0.35586012085E+02  0.35586012085E+02  0.00000000000E+00 0.  1.
         -2   -1    0    0    0  501 -0.00000000000E+00 -0.00000000000E+00 -0.86849015332E+03  0.86849015332E+03  0.00000000000E+00 0. -1.
         25    2    1    2    0    0  0.13881538927E+03 -0.46149970096E+01 -0.46077764663E+03  0.49724638357E+03  0.12508763265E+03 0.  0.
         23    2    1    2    0    0 -0.13881538927E+03  0.46149970096E+01 -0.37212649460E+03  0.40682978183E+03  0.87984844757E+02 0.  0.
          5    1    3    3  502    0  0.25703068699E+02  0.22660225102E+02 -0.28065763888E+03  0.28277255207E+03  0.41800000000E+01 0.  1.
         -5    1    3    3    0  502  0.11311232057E+03 -0.27275222112E+02 -0.18012000775E+03  0.21447383150E+03  0.41800000000E+01 0.  1.
        -11    1    4    4    0    0 -0.35018918174E+02 -0.30441582035E+02 -0.17772925289E+03  0.18368642268E+03  0.00000000000E+00 0. -1.
         11    1    4    4    0    0 -0.10379647109E+03  0.35056579044E+02 -0.19439724171E+03  0.22314335915E+03  0.00000000000E+00 0.  1.
</event>
<event>
 8    1  0.7262913E-009  0.1664799E+03  0.7561462E-02  0.1181569E+00
         -1   -1    0    0    0  501 -0.00000000000E+00  0.00000000000E+00  0.24702128938E+02  0.24702128938E+02  0.00000000000E+00 0.  1.
          1   -1    0    0  501    0  0.00000000000E+00 -0.00000000000E+00 -0.12309118661E+04  0.12309118661E+04  0.00000000000E+00 0. -1.
         25    2    1    2    0    0  0.11073041804E+03  0.69608076606E+02 -0.76762677956E+03  0.78867357120E+03  0.12509444193E+03 0.  0.
         23    2    1    2    0    0 -0.11073041804E+03 -0.69608076606E+02 -0.43858295761E+03  0.46694042384E+03  0.92584226014E+02 0.  0.
          5    1    3    3  502    0  0.12218082797E+02 -0.31087617413E+02 -0.24800278151E+03  0.25027699363E+03  0.41800000000E+01 0. -1.
         -5    1    3    3    0  502  0.98512335245E+02  0.10069569402E+03 -0.51962399805E+03  0.53839657757E+03  0.41800000000E+01 0. -1.
        -11    1    4    4    0    0 -0.26436743944E+02  0.21622929540E+02 -0.12698580512E+03  0.13149846849E+03  0.00000000000E+00 0.  1.
         11    1    4    4    0    0 -0.84293674099E+02 -0.91231006146E+02 -0.31159715249E+03  0.33544195536E+03  0.00000000000E+00 0. -1.
</event>
<event>
 8    1  0.7262913E-009  0.1412347E+03  0.7561462E-02  0.1211677E+00
          1   -1    0    0  501    0  0.00000000000E+00  0.00000000000E+00  0.22106899383E+03  0.22106899383E+03  0.00000000000E+00 0. -1.
         -1   -1    0    0    0  501 -0.00000000000E+00 -0.00000000000E+00 -0.11184671100E+03  0.11184671100E+03  0.00000000000E+00 0.  1.
         25    2    1    2    0    0 -0.96801601017E+02  0.16420268704E+02  0.11512253397E+03  0.19631796820E+03  0.12508945450E+03 0.  0.
         23    2    1    2    0    0  0.96801601017E+02 -0.16420268704E+02 -0.59002511441E+01  0.13659773662E+03  0.94783719609E+02 0.  0.
          5    1    3    3  502    0 -0.11328748817E+03  0.47887531122E+02  0.93103073733E+02  0.15431437182E+03  0.41800000000E+01 0. -1.
         -5    1    3    3    0  502  0.16485887154E+02 -0.31467262418E+02  0.22019460241E+02  0.42003596378E+02  0.41800000000E+01 0. -1.
        -11    1    4    4    0    0  0.25361965270E+02  0.29351612750E+02  0.25171272186E+02  0.46242182008E+02  0.00000000000E+00 0. -1.
         11    1    4    4    0    0  0.71439635746E+02 -0.45771881454E+02 -0.31071523330E+02  0.90355554613E+02  0.00000000000E+00 0.  1.
</event>
<event>
 8    1  0.7262913E-009  0.1273775E+03  0.7561462E-02  0.1231400E+00
          2   -1    0    0  501    0  0.00000000000E+00  0.00000000000E+00  0.18763340504E+03  0.18763340504E+03  0.00000000000E+00 0.  1.
         -2   -1    0    0    0  501 -0.00000000000E+00 -0.00000000000E+00 -0.22410770833E+03  0.22410770833E+03  0.00000000000E+00 0. -1.
         25    2    1    2    0    0 -0.11325269453E+03  0.22228593156E+02 -0.15047091131E+03  0.22716833493E+03  0.12507467399E+03 0.  0.
         23    2    1    2    0    0  0.11325269453E+03 -0.22228593156E+02  0.11399660802E+03  0.18457277843E+03  0.88043175361E+02 0.  0.
          5    1    3    3  502    0 -0.39918325341E+02 -0.70608414670E+01  0.15277514377E+02  0.43522442783E+02  0.41800000000E+01 0.  1.
         -5    1    3    3    0  502 -0.73334369186E+02  0.29289434623E+02 -0.16574842569E+03  0.18364589215E+03  0.41800000000E+01 0.  1.
        -11    1    4    4    0    0  0.10421420815E+03 -0.42641059905E+02  0.11660428377E+03  0.16209694680E+03  0.00000000000E+00 0.  1.
         11    1    4    4    0    0  0.90384863753E+01  0.20412466749E+02 -0.26076757456E+01  0.22475831631E+02  0.00000000000E+00 0. -1.
</event>
<event>
 8    1  0.7262913E-009  0.1159765E+03  0.7561462E-02  0.1249886E+00
          2   -1    0    0  501    0  0.00000000000E+00  0.00000000000E+00  0.19526685414E+02  0.19526685414E+02  0.00000000000E+00 0. -1.
         -2   -1    0    0    0  501 -0.00000000000E+00 -0.00000000000E+00 -0.82006719996E+03  0.82006719996E+03  0.00000000000E+00 0.  1.
         25    2    1    2    0    0 -0.12572556402E+02 -0.42460715917E+02 -0.28495055363E+03  0.31433423132E+03  0.12509280312E+03 0.  0.
         23    2    1    2    0    0  0.12572556402E+02  0.42460715917E+02 -0.51558996091E+03  0.52525965405E+03  0.90020635479E+02 0.  0.
          5    1    3    3  502    0 -0.62391576616E+02 -0.52311206017E+02 -0.18399637734E+03  0.20124937362E+03  0.41800000000E+01 0. -1.
         -5    1    3    3    0  502  0.49819020214E+02  0.98504901001E+01 -0.10095417629E+03  0.11308485770E+03  0.41800000000E+01 0. -1.
        -11    1    4    4    0    0 -0.36788097981E+02  0.32558850160E+02 -0.22053863112E+03  0.22594408754E+03  0.00000000000E+00 0.  1.
         11    1    4    4    0    0  0.49360654383E+02  0.99018657569E+01 -0.29505132979E+03  0.29931556652E+03  0.00000000000E+00 0. -1.
</event>
<event>
 8    1  0.7262913E-009  0.9972620E+02  0.7561462E-02  0.1280873E+00
         -2   -1    0    0    0  501 -0.00000000000E+00  0.00000000000E+00  0.30678284459E+02  0.30678284459E+02  0.00000000000E+00 0.  1.
          2   -1    0    0  501    0  0.00000000000E+00 -0.00000000000E+00 -0.45825654403E+03  0.45825654403E+03  0.00000000000E+00 0. -1.
         25    2    1    2    0    0  0.26764077532E+02  0.24797139822E+02 -0.26535252234E+03  0.29561939176E+03  0.12509056592E+03 0.  0.
         23    2    1    2    0    0 -0.26764077532E+02 -0.24797139822E+02 -0.16222573723E+03  0.19331543673E+03  0.98602506399E+02 0.  0.
          5    1    3    3  502    0 -0.28465551593E+02 -0.10223886616E+02 -0.10209030870E+02  0.32194909478E+02  0.41800000000E+01 0.  1.
         -5    1    3    3    0  502  0.55229629125E+02  0.35021026437E+02 -0.25514349147E+03  0.26342448228E+03  0.41800000000E+01 0.  1.
        -11    1    4    4    0    0 -0.63024916494E+02 -0.83632970261E+01 -0.11624162775E+03  0.13249226716E+03  0.00000000000E+00 0.  1.
         11    1    4    4    0    0  0.36260838962E+02 -0.16433842796E+02 -0.45984109486E+02  0.60823169570E+02  0.00000000000E+00 0. -1.
</event>
<event>
 8    1  0.7262913E-009  0.7757574E+02  0.7561462E-02  0.1336075E+00
         -4   -1    0    0    0  501 -0.00000000000E+00  0.00000000000E+00  0.20680383847E+03  0.20680383847E+03  0.00000000000E+00 0.  1.
          4   -1    0    0  501    0  0.00000000000E+00 -0.00000000000E+00 -0.58978833117E+02  0.58978833117E+02  0.00000000000E+00 0. -1.
         25    2    1    2    0    0  0.23149832659E+01  0.65224222043E+01  0.52636495050E+02  0.13588850815E+03  0.12508870811E+03 0.  0.
         23    2    1    2    0    0 -0.23149832659E+01 -0.65224222043E+01  0.95188510307E+02  0.12989416344E+03  0.88112088058E+02 0.  0.
          5    1    3    3  502    0  0.32580099568E+02 -0.19987065758E+02 -0.26716316074E+02  0.46820717957E+02  0.41800000000E+01 0. -1.
         -5    1    3    3    0  502 -0.30265116302E+02  0.26509487962E+02  0.79352811124E+02  0.89067790195E+02  0.41800000000E+01 0. -1.
        -11    1    4    4    0    0 -0.50079570720E+01 -0.41182936958E+02  0.17970736189E+02  0.45211296041E+02  0.00000000000E+00 0. -1.
         11    1    4    4    0    0  0.26929738061E+01  0.34660514754E+02  0.77217774118E+02  0.84682867398E+02  0.00000000000E+00 0.  1.
</event>
<event>
 8    1  0.7262913E-009  0.1265257E+03  0.7561462E-02  0.1232704E+00
          1   -1    0    0  501    0  0.00000000000E+00  0.00000000000E+00  0.59345800843E+03  0.59345800843E+03  0.00000000000E+00 0. -1.
         -1   -1    0    0    0  501 -0.00000000000E+00 -0.00000000000E+00 -0.29999197476E+02  0.29999197476E+02  0.00000000000E+00 0.  1.
         25    2    1    2    0    0  0.73974647052E+02 -0.14314911527E+02  0.26725626821E+03  0.30455008637E+03  0.12509067557E+03 0.  0.
         23    2    1    2    0    0 -0.73974647052E+02  0.14314911527E+02  0.29620254275E+03  0.31890711953E+03  0.91041965384E+02 0.  0.
          5    1    3    3  502    0 -0.19958478125E+02  0.28907548913E+02  0.32676164925E+02  0.48157983631E+02  0.41800000000E+01 0. -1.
         -5    1    3    3    0  502  0.93933125176E+02 -0.43222460439E+02  0.23458010328E+03  0.25639210274E+03  0.41800000000E+01 0. -1.
        -11    1    4    4    0    0 -0.56880078255E+02 -0.31690238017E+02  0.20820230678E+03  0.21814631566E+03  0.00000000000E+00 0.  1.
         11    1    4    4    0    0 -0.17094568796E+02  0.46005149544E+02  0.88000235968E+02  0.10076080387E+03  0.00000000000E+00 0. -1.
</event>
<event>
 8    1  0.7262913E-009  0.1104384E+03  0.7561462E-02  0.1259760E+00
          2   -1    0    0  501    0  0.00000000000E+00  0.00000000000E+00  0.79847525294E+02  0.79847525294E+02  0.00000000000E+00 0.  1.
         -2   -1    0    0    0  501 -0.00000000000E+00 -0.00000000000E+00 -0.19756079395E+03  0.19756079395E+03  0.00000000000E+00 0. -1.
         25    2    1    2    0    0 -0.19282762164E+02 -0.67263083949E+01 -0.28239734709E+01  0.12675958021E+03  0.12507177223E+03 0.  0.
         23    2    1    2    0    0  0.19282762164E+02  0.67263083949E+01 -0.11488929519E+03  0.15064873903E+03  0.95280765540E+02 0.  0.
          5    1    3    3  502    0 -0.42480630095E+02  0.49525847134E+02  0.32728639822E+01  0.65464475147E+02  0.41800000000E+01 0. -1.
         -5    1    3    3    0  502  0.23197867931E+02 -0.56252155529E+02 -0.60968374531E+01  0.61295105067E+02  0.41800000000E+01 0. -1.
        -11    1    4    4    0    0  0.15449428127E+02  0.49347744277E+02 -0.80833398514E+02  0.95957923123E+02  0.00000000000E+00 0.  1.
         11    1    4    4    0    0  0.38333340362E+01 -0.42621435882E+02 -0.34055896671E+02  0.54690815907E+02  0.00000000000E+00 0. -1.
</event>
<event>
 8    1  0.7262913E-009  0.1020538E+03  0.7561462E-02  0.1276035E+00
         -2   -1    0    0    0  501 -0.00000000000E+00  0.00000000000E+00  0.51817541692E+02  0.51817541692E+02  0.00000000000E+00 0.  1.
          2   -1    0    0  501    0  0.00000000000E+00 -0.00000000000E+00 -0.24388641869E+03  0.24388641869E+03  0.00000000000E+00 0. -1.
         25    2    1    2    0    0 -0.18111520249E+02  0.22395596812E+02 -0.11948095985E+03  0.17536341942E+03  0.12508812566E+03 0.  0.
         23    2    1    2    0    0  0.18111520249E+02 -0.22395596812E+02 -0.72587917155E+02  0.12034054097E+03  0.91560090439E+02 0.  0.
          5    1    3    3  502    0 -0.40158624729E+02  0.64507168413E+02 -0.95031657667E+02  0.12174719001E+03  0.41800000000E+01 0.  1.
         -5    1    3    3    0  502  0.22047104480E+02 -0.42111571601E+02 -0.24449302178E+02  0.53616229406E+02  0.41800000000E+01 0.  1.
        -11    1    4    4    0    0 -0.29411711851E+02 -0.60001069942E+01  0.23421176892E+01  0.30108729518E+02  0.00000000000E+00 0.  1.
         11    1    4    4    0    0  0.47523232100E+02 -0.16395489818E+02 -0.74930034845E+02  0.90231811449E+02  0.00000000000E+00 0. -1.
</event>
<event>
 8    1  0.7262913E-009  0.8677712E+02  0.7561462E-02  0.1310850E+00
         -1   -1    0    0    0  501 -0.00000000000E+00  0.00000000000E+00  0.13627109128E+03  0.13627109128E+03  0.00000000000E+00 0.  1.
          1   -1    0    0  501    0  0.00000000000E+00 -0.00000000000E+00 -0.10868577848E+03  0.10868577848E+03  0.00000000000E+00 0. -1.
         25    2    1    2    0    0  0.93062453516E+01 -0.28602535460E+02  0.64750664178E+02  0.14403128774E+03  0.12509057559E+03 0.  0.
         23    2    1    2    0    0 -0.93062453516E+01  0.28602535460E+02 -0.37165351373E+02  0.10092558201E+03  0.88881935872E+02 0.  0.
          5    1    3    3  502    0  0.63884121752E+02 -0.11533562147E+02  0.56385124937E+02  0.86086925732E+02  0.41800000000E+01 0.  1.
         -5    1    3    3    0  502 -0.54577876400E+02 -0.17068973313E+02  0.83655392407E+01  0.57944362013E+02  0.41800000000E+01 0.  1.
        -11    1    4    4    0    0  0.32696107819E+01 -0.10023813387E+02  0.24733846579E+02  0.26887364246E+02  0.00000000000E+00 0.  1.
         11    1    4    4    0    0 -0.12575856134E+02  0.38626348846E+02 -0.61899197952E+02  0.74038217765E+02  0.00000000000E+00 0. -1.
</event>
<event>
 8    1  0.7262913E-009  0.1809878E+03  0.7561462E-02  0.1166850E+00
         -2   -1    0    0    0  501 -0.00000000000E+00  0.00000000000E+00  0.54519896132E+02  0.54519896132E+02  0.00000000000E+00 0.  1.
          2   -1    0    0  501    0  0.00000000000E+00 -0.00000000000E+00 -0.89108264577E+03  0.89108264577E+03  0.00000000000E+00 0. -1.
         25    2    1    2    0    0  0.93190682745E+02 -0.13067054318E+03 -0.20687772048E+03  0.29018241303E+03  0.12509255531E+03 0.  0.
         23    2    1    2    0    0 -0.93190682745E+02  0.13067054318E+03 -0.62968502916E+03  0.65542012888E+03  0.85516169135E+02 0.  0.
          5    1    3    3  502    0  0.10719854198E+03 -0.59631365979E+02 -0.88368814139E+02  0.15124135322E+03  0.41800000000E+01 0. -1.
         -5    1    3    3    0  502 -0.14007859237E+02 -0.71039177203E+02 -0.11850890634E+03  0.13894105981E+03  0.41800000000E+01 0. -1.
        -11    1    4    4    0    0 -0.29453154368E+02  0.11605479487E+02 -0.43028062154E+02  0.53419000263E+02  0.00000000000E+00 0.  1.
         11    1    4    4    0    0 -0.63737528377E+02  0.11906506369E+03 -0.58665696701E+03  0.60200112862E+03  0.00000000000E+00 0. -1.
</event>
<event>
 8    1  0.7262913E-009  0.1634001E+03  0.7561462E-02  0.1184911E+00
          3   -1    0    0  501    0  0.00000000000E+00  0.00000000000E+00  0.11341587407E+03  0.11341587407E+03  0.00000000000E+00 0. -1.
         -3   -1    0    0    0  501 -0.00000000000E+00 -0.00000000000E+00 -0.26473321075E+03  0.26473321075E+03  0.00000000000E+00 0.  1.
         25    2    1    2    0    0  0.57905961660E+02 -0.12079809557E+03 -0.65138965987E+02  0.19451448595E+03  0.12509004782E+03 0.  0.
         23    2    1    2    0    0 -0.57905961660E+02  0.12079809557E+03 -0.86178370690E+02  0.18363459887E+03  0.91376550804E+02 0.  0.
          5    1    3    3  502    0 -0.38673653958E+02 -0.20452356503E+02 -0.15603861178E+02  0.46635858314E+02  0.41800000000E+01 0.  1.
         -5    1    3    3    0  502  0.96579615618E+02 -0.10034573907E+03 -0.49535104808E+02  0.14787862763E+03  0.41800000000E+01 0.  1.
        -11    1    4    4    0    0 -0.16632657465E+02  0.91258333501E+02 -0.94250281926E+02  0.13224161361E+03  0.00000000000E+00 0.  1.
         11    1    4    4    0    0 -0.41273304195E+02  0.29539762071E+02  0.80719112362E+01  0.51392985255E+02  0.00000000000E+00 0. -1.
</event>
<event>
 8    1  0.7262913E-009  0.1153743E+03  0.7561462E-02  0.1250929E+00
         -1   -1    0    0    0  501 -0.00000000000E+00  0.00000000000E+00  0.27969614387E+03  0.27969614387E+03  0.00000000000E+00 0.  1.
          1   -1    0    0  501    0  0.00000000000E+00 -0.00000000000E+00 -0.61028042379E+02  0.61028042379E+02  0.00000000000E+00 0. -1.
         25    2    1    2    0    0  0.14451162952E+02 -0.69270613788E+02  0.10628927743E+03  0.17875155856E+03  0.12508978833E+03 0.  0.
         23    2    1    2    0    0 -0.14451162952E+02  0.69270613788E+02  0.11237882406E+03  0.16197262769E+03  0.92730135223E+02 0.  0.
          5    1    3    3  502    0  0.32965180918E+02 -0.97634824592E+02  0.10074670555E+03  0.14417570255E+03  0.41800000000E+01 0. -1.
         -5    1    3    3    0  502 -0.18514017965E+02  0.28364210803E+02  0.55425718759E+01  0.34575856008E+02  0.41800000000E+01 0. -1.
        -11    1    4    4    0    0  0.16593358849E+02  0.58210791576E+02  0.19772700413E+02  0.63677276131E+02  0.00000000000E+00 0. -1.
         11    1    4    4    0    0 -0.31044521801E+02  0.11059822213E+02  0.92606123651E+02  0.98295351563E+02  0.00000000000E+00 0.  1.
</event>
<event>
 8    1  0.7262913E-009  0.1203519E+03  0.7561462E-02  0.1242518E+00
         -3   -1    0    0    0  501 -0.00000000000E+00  0.00000000000E+00  0.19541510288E+03  0.19541510288E+03  0.00000000000E+00 0.  1.
          3   -1    0    0  501    0  0.00000000000E+00 -0.00000000000E+00 -0.82398287002E+02  0.82398287002E+02  0.00000000000E+00 0. -1.
         25    2    1    2    0    0 -0.15663726867E+02  0.54792266933E+02  0.10123077131E+03  0.17071497133E+03  0.12509351510E+03 0.  0.
         23    2    1    2    0    0  0.15663726867E+02 -0.54792266933E+02  0.11786044563E+02  0.10709841855E+03  0.89908929231E+02 0.  0.
          5    1    3    3  502    0 -0.86356242880E+01  0.94634164105E+02  0.82602637911E+02  0.12597963015E+03  0.41800000000E+01 0.  1.
         -5    1    3    3    0  502 -0.70281025794E+01 -0.39841897172E+02  0.18628133403E+02  0.44735341177E+02  0.41800000000E+01 0.  1.
        -11    1    4    4    0    0  0.50395012791E+02 -0.16068179458E+02  0.15004066693E+02  0.54981503459E+02  0.00000000000E+00 0.  1.
         11    1    4    4    0    0 -0.34731285923E+02 -0.38724087476E+02 -0.32180221301E+01  0.52116915096E+02  0.00000000000E+00 0. -1.
</event>
<event>
 8    1  0.7262913E-009  0.1011390E+03  0.7561462E-02  0.1277919E+00
          2   -1    0    0  501    0  0.00000000000E+00  0.00000000000E+00  0.57874115680E+03  0.57874115680E+03  0.00000000000E+00 0. -1.
         -2   -1    0    0    0  501 -0.00000000000E+00 -0.00000000000E+00 -0.30994850819E+02  0.30994850819E+02  0.00000000000E+00 0.  1.
         25    2    1    2    0    0  0.39315087027E+02 -0.46474437224E+02  0.41443346595E+03  0.43715935077E+03  0.12509057072E+03 0.  0.
         23    2    1    2    0    0 -0.39315087027E+02  0.46474437224E+02  0.13331284004E+03  0.17257665686E+03  0.91130893716E+02 0.  0.
          5    1    3    3  502    0  0.11040741275E+02 -0.86905364209E+02  0.29793431721E+03  0.31057490251E+03  0.41800000000E+01 0. -1.
         -5    1    3    3    0  502  0.28274345752E+02  0.40430926985E+02  0.11649914873E+03  0.12658444826E+03  0.41800000000E+01 0. -1.
        -11    1    4    4    0    0  0.15356315262E+01  0.10549915404E+02 -0.12804174550E+02  0.16661505488E+02  0.00000000000E+00 0.  1.
         11    1    4    4    0    0 -0.40850718554E+02  0.35924521820E+02  0.14611701459E+03  0.15591515137E+03  0.00000000000E+00 0. -1.
</event>
<event>
 8    1  0.7262913E-009  0.1016677E+03  0.7561462E-02  0.1276828E+00
         -3   -1    0    0    0  501 -0.00000000000E+00  0.00000000000E+00  0.27897657630E+03  0.27897657630E+03  0.00000000000E+00 0.  1.
          3   -1    0    0  501    0  0.00000000000E+00 -0.00000000000E+00 -0.60097394673E+02  0.60097394673E+02  0.00000000000E+00 0. -1.
         25    2    1    2    0    0 -0.24900106514E+02 -0.58006870657E+02  0.84593876092E+02  0.16367130512E+03  0.12508940762E+03 0.  0.
         23    2    1    2    0    0  0.24900106514E+02  0.58006870657E+02  0.13428530554E+03  0.17540266585E+03  0.93534697081E+02 0.  0.
          5    1    3    3  502    0 -0.21865269258E+01  0.16228009556E+02 -0.24467382550E+02  0.29736415436E+02  0.41800000000E+01 0.  1.
         -5    1    3    3    0  502 -0.22713579589E+02 -0.74234880213E+02  0.10906125864E+03  0.13393488968E+03  0.41800000000E+01 0.  1.
        -11    1    4    4    0    0  0.30116208486E+02  0.80317960632E+02  0.12274602736E+03  0.14974828228E+03  0.00000000000E+00 0.  1.
         11    1    4    4    0    0 -0.52161019717E+01 -0.22311089975E+02  0.11539278175E+02  0.25654383572E+02  0.00000000000E+00 0. -1.
</event>
<event>
 8    1  0.7262913E-009  0.1166928E+03  0.7561462E-02  0.1248655E+00
         -1   -1    0    0    0  501 -0.00000000000E+00  0.00000000000E+00  0.11496934788E+03  0.11496934788E+03  0.00000000000E+00 0.  1.
          1   -1    0    0  501    0  0.00000000000E+00 -0.00000000000E+00 -0.20889716684E+03  0.20889716684E+03  0.00000000000E+00 0. -1.
         25    2    1    2    0    0 -0.11699957655E+02 -0.94903495858E+02 -0.10688442891E+03  0.19030383986E+03  0.12509079817E+03 0.  0.
         23    2    1    2    0    0  0.11699957655E+02  0.94903495858E+02  0.12956609951E+02  0.13356267486E+03  0.92344744514E+02 0.  0.
          5    1    3    3  502    0 -0.25794223275E+02 -0.53520492509E+02 -0.12829529691E+03  0.14144589313E+03  0.41800000000E+01 0.  1.
         -5    1    3    3    0  502  0.14094265621E+02 -0.41383003349E+02  0.21410868007E+02  0.48857946727E+02  0.41800000000E+01 0.  1.
        -11    1    4    4    0    0  0.22043640449E+02  0.10967979286E+03  0.20977346958E+02  0.11382279267E+03  0.00000000000E+00 0. -1.
         11    1    4    4    0    0 -0.10343682795E+02 -0.14776297000E+02 -0.80207370066E+01  0.19739882191E+02  0.00000000000E+00 0.  1.
</event>
<event>
 8    1  0.7262913E-009  0.1203410E+03  0.7561462E-02  0.1242536E+00
         -2   -1    0    0    0  501 -0.00000000000E+00  0.00000000000E+00  0.52543813718E+02  0.52543813718E+02  0.00000000000E+00 0.  1.
          2   -1    0    0  501    0  0.00000000000E+00 -0.00000000000E+00 -0.41431126870E+03  0.41431126870E+03  0.00000000000E+00 0. -1.
         25    2    1    2    0    0  0.15810686527E+02  0.76392124009E+02 -0.29599925947E+03  0.33067555044E+03  0.12508006886E+03 0.  0.
         23    2    1    2    0    0 -0.15810686527E+02 -0.76392124009E+02 -0.65768195508E+02  0.13617953198E+03  0.90186889135E+02 0.  0.
          5    1    3    3  502    0  0.97398655024E+01 -0.21135086074E+02 -0.56692196922E+01  0.24313973252E+02  0.41800000000E+01 0. -1.
         -5    1    3    3    0  502  0.60708210243E+01  0.97527210083E+02 -0.29033003978E+03  0.30636157718E+03  0.41800000000E+01 0. -1.
        -11    1    4    4    0    0  0.33395934033E+02 -0.57558133398E+02 -0.35730634004E+02  0.75530823751E+02  0.00000000000E+00 0. -1.
         11    1    4    4    0    0 -0.49206620559E+02 -0.18833990611E+02 -0.30037561504E+02  0.60648708233E+02  0.00000000000E+00 0.  1.
</event>
<event>
 8    1  0.7262913E-009  0.9804939E+02  0.7561462E-02  0.1284452E+00
          1   -1    0    0  501    0  0.00000000000E+00  0.00000000000E+00  0.61236396644E+03  0.61236396644E+03  0.00000000000E+00 0. -1.
         -1   -1    0    0    0  501 -0.00000000000E+00 -0.00000000000E+00 -0.20177161867E+02  0.20177161867E+02  0.00000000000E+00 0.  1.
         25    2    1    2    0    0  0.91533800758E+01  0.20571959495E+02  0.38894723268E+03  0.40918763403E+03  0.12509028800E+03 0.  0.
         23    2    1    2    0    0 -0.91533800758E+01 -0.20571959495E+02  0.20323957189E+03  0.22335349428E+03  0.89852489882E+02 0.  0.
          5    1    3    3  502    0 -0.44175664760E+02 -0.25221081000E+02  0.22573115286E+03  0.23142950991E+03  0.41800000000E+01 0.  1.
         -5    1    3    3    0  502  0.53329044836E+02  0.45793040495E+02  0.16321607982E+03  0.17775812412E+03  0.41800000000E+01 0.  1.
        -11    1    4    4    0    0 -0.40378638457E+02 -0.92204767152E+01  0.42989599954E+02  0.59695538684E+02  0.00000000000E+00 0.  1.
         11    1    4    4    0    0  0.31225258382E+02 -0.11351482779E+02  0.16024997194E+03  0.16365795559E+03  0.00000000000E+00 0. -1.
</event>
<event>
 8    1  0.7262913E-009  0.1382728E+03  0.7561462E-02  0.1215672E+00
          2   -1    0    0  501    0  0.00000000000E+00  0.00000000000E+00  0.49669883447E+02  0.49669883447E+02  0.00000000000E+00 0. -1.
         -2   -1    0    0    0  501 -0.00000000000E+00 -0.00000000000E+00 -0.57283786381E+03  0.57283786381E+03  0.00000000000E+00 0.  1.
         25    2    1    2    0    0  0.10598093964E+03  0.22124956029E+02 -0.14966729913E+03  0.22309128554E+03  0.12509175835E+03 0.  0.
         23    2    1    2    0    0 -0.10598093964E+03 -0.22124956029E+02 -0.37350068123E+03  0.39941646172E+03  0.91155239937E+02 0.  0.
          5    1    3    3  502    0  0.54713318801E+02  0.59798795001E+02 -0.13523533460E+03  0.15771972376E+03  0.41800000000E+01 0.  1.
         -5    1    3    3    0  502  0.51267620837E+02 -0.37673838972E+02 -0.14431964532E+02  0.65371561779E+02  0.41800000000E+01 0.  1.
        -11    1    4    4    0    0 -0.36812172565E+02 -0.45580788955E+02 -0.24202582096E+03  0.24901655042E+03  0.00000000000E+00 0.  1.
         11    1    4    4    0    0 -0.69168767073E+02  0.23455832926E+02 -0.13147486027E+03  0.15039991130E+03  0.00000000000E+00 0. -1.
</event>
<event>
 8    1  0.7262913E-009  0.9041789E+02  0.7561462E-02  0.1301843E+00
          1   -1    0    0  501    0  0.00000000000E+00  0.00000000000E+00  0.33743714719E+03  0.33743714719E+03  0.00000000000E+00 0. -1.
         -1   -1    0    0    0  501 -0.00000000000E+00 -0.00000000000E+00 -0.49103718186E+02  0.49103718186E+02  0.00000000000E+00 0.  1.
         25    2    1    2    0    0  0.55921688588E+02  0.30373420484E+02  0.20131632637E+03  0.24540951088E+03  0.12509110617E+03 0.  0.
         23    2    1    2    0    0 -0.55921688588E+02 -0.30373420484E+02  0.87017102637E+02  0.14113135449E+03  0.91084044397E+02 0.  0.
          5    1    3    3  502    0 -0.10242240382E+02  0.33960182776E+02  0.16679886565E+03  0.17057998559E+03  0.41800000000E+01 0. -1.
         -5    1    3    3    0  502  0.66163928970E+02 -0.35867622925E+01  0.34517460713E+02  0.74829525286E+02  0.41800000000E+01 0. -1.
        -11    1    4    4    0    0 -0.73170240661E+01 -0.29205110458E+02 -0.10728267232E+02  0.31962056189E+02  0.00000000000E+00 0.  1.
         11    1    4    4    0    0 -0.48604664522E+02 -0.11683100256E+01  0.97745369869E+02  0.10916929831E+03  0.00000000000E+00 0. -1.
</event>
<event>
 8    1  0.7262913E-009  0.7467213E+02  0.7561462E-02  0.1344889E+00
         -1   -1    0    0    0  501 -0.00000000000E+00  0.00000000000E+00  0.19289364296E+03  0.19289364296E+03  0.00000000000E+00 0.  1.
          1   -1    0    0  501    0  0.00000000000E+00 -0.00000000000E+00 -0.76059113703E+02  0.76059113703E+02  0.00000000000E+00 0. -1.
         25    2    1    2    0    0 -0.15535960889E+02 -0.16028806721E+02  0.15581278082E+02  0.12801385635E+03  0.12508590034E+03 0.  0.
         23    2    1    2    0    0  0.15535960889E+02  0.16028806721E+02  0.10125325118E+03  0.14093890032E+03  0.95463417198E+02 0.  0.
          5    1    3    3  502    0 -0.83909461470E+01  0.25067804032E+02 -0.46176361299E+02  0.53371635904E+02  0.41800000000E+01 0.  1.
         -5    1    3    3    0  502 -0.71450147418E+01 -0.41096610754E+02  0.61757639381E+02  0.74642220445E+02  0.41800000000E+01 0.  1.
        -11    1    4    4    0    0 -0.20398733944E+02  0.34632979035E+02  0.90568722962E+02  0.99087058501E+02  0.00000000000E+00 0.  1.
         11    1    4    4    0    0  0.35934694833E+02 -0.18604172314E+02  0.10684528216E+02  0.41851841817E+02  0.00000000000E+00 0. -1.
</event>
<event>
 8    1  0.7262913E-009  0.1183459E+03  0.7561462E-02  0.1245851E+00
          2   -1    0    0  501    0  0.00000000000E+00  0.00000000000E+00  0.12224566037E+03  0.12224566037E+03  0.00000000000E+00 0. -1.
         -2   -1    0    0    0  501 -0.00000000000E+00 -0.00000000000E+00 -0.20409065906E+03  0.20409065906E+03  0.00000000000E+00 0.  1.
         25    2    1    2    0    0 -0.63112302067E+02 -0.43640625303E+01  0.59572027966E+02  0.15231313366E+03  0.12509299123E+03 0.  0.
         23    2    1    2    0    0  0.63112302067E+02  0.43640625303E+01 -0.14141702666E+03  0.17402318577E+03  0.79265919794E+02 0.  0.
          5    1    3    3  502    0 -0.78091841527E+02 -0.49359214660E+02  0.36652889987E+02  0.99476502398E+02  0.41800000000E+01 0. -1.
         -5    1    3    3    0  502  0.14979539460E+02  0.44995152130E+02  0.22919137979E+02  0.52836631264E+02  0.41800000000E+01 0. -1.
        -11    1    4    4    0    0  0.54226923670E+02  0.35111375460E+02 -0.11742951580E+03  0.13402633740E+03  0.00000000000E+00 0.  1.
         11    1    4    4    0    0  0.88853783975E+01 -0.30747312930E+02 -0.23987510868E+02  0.39996848367E+02  0.00000000000E+00 0. -1.
</event>
<event>
 8    1  0.7262913E-009  0.1095098E+03  0.7561462E-02  0.1261480E+00
         -1   -1    0    0    0  501 -0.00000000000E+00  0.00000000000E+00  0.25336160902E+02  0.25336160902E+02  0.00000000000E+00 0.  1.
          1   -1    0    0  501    0  0.00000000000E+00 -0.00000000000E+00 -0.51532192128E+03  0.51532192128E+03  0.00000000000E+00 0. -1.
         25    2    1    2    0    0 -0.16849216366E+02  0.31705532046E+02 -0.30904378244E+03  0.33532679003E+03  0.12508740861E+03 0.  0.
         23    2    1    2    0    0  0.16849216366E+02 -0.31705532046E+02 -0.18094197794E+03  0.20533129215E+03  0.90176511915E+02 0.  0.
          5    1    3    3  502    0 -0.41058801269E+02  0.71707641098E+02 -0.21038396815E+03  0.22606790442E+03  0.41800000000E+01 0. -1.
         -5    1    3    3    0  502  0.24209584902E+02 -0.40002109052E+02 -0.98659814290E+02  0.10925888561E+03  0.41800000000E+01 0. -1.
        -11    1    4    4    0    0  0.27458105977E+02  0.21632844049E+02 -0.34485263670E+02  0.49103573555E+02  0.00000000000E+00 0.  1.
         11    1    4    4    0    0 -0.10608889610E+02 -0.53338376094E+02 -0.14645671427E+03  0.15622771860E+03  0.00000000000E+00 0. -1.
</event>
<event>
 8    1  0.7262913E-009  0.1038283E+03  0.7561462E-02  0.1272446E+00
          2   -1    0    0  501    0  0.00000000000E+00  0.00000000000E+00  0.10720896371E+03  0.10720896371E+03  0.00000000000E+00 0. -1.
         -2   -1    0    0    0  501 -0.00000000000E+00 -0.00000000000E+00 -0.18425942409E+03  0.18425942409E+03  0.00000000000E+00 0.  1.
         25    2    1    2    0    0  0.48850697976E+02 -0.18806655801E+02  0.34763432177E+02  0.13998289874E+03  0.12508650897E+03 0.  0.
         23    2    1    2    0    0 -0.48850697976E+02  0.18806655801E+02 -0.11181389256E+03  0.15148548906E+03  0.87780554967E+02 0.  0.
          5    1    3    3  502    0  0.84583203258E+02  0.65748459580E+01  0.42977175129E+02  0.95194836282E+02  0.41800000000E+01 0.  1.
         -5    1    3    3    0  502 -0.35732505282E+02 -0.25381501759E+02 -0.82137429519E+01  0.44788062456E+02  0.41800000000E+01 0.  1.
        -11    1    4    4    0    0 -0.68114130940E+01 -0.20212967920E+02 -0.85967143079E+02  0.88573749552E+02  0.00000000000E+00 0.  1.
         11    1    4    4    0    0 -0.42039284882E+02  0.39019623722E+02 -0.25846749478E+02  0.62911739503E+02  0.00000000000E+00 0. -1.
</event>
<event>
 8    1  0.7262913E-009  0.9044422E+02  0.7561462E-02  0.1301780E+00
         -2   -1    0    0    0  501 -0.00000000000E+00  0.00000000000E+00  0.16587014675E+02  0.16587014675E+02  0.00000000000E+00 0. -1.
          2   -1    0    0  501    0  0.00000000000E+00 -0.00000000000E+00 -0.10484606069E+04  0.10484606069E+04  0.00000000000E+00 0.  1.
         25    2    1    2    0    0 -0.54441967762E+02  0.69657832662E+00 -0.78138022155E+03  0.79320053491E+03  0.12509046673E+03 0.  0.
         23    2    1    2    0    0  0.54441967762E+02 -0.69657832662E+00 -0.25049337070E+03  0.27184708670E+03  0.90495838060E+02 0.  0.
          5    1    3    3  502    0 -0.62856906158E+02  0.82570012242E+01 -0.16662507797E+03  0.17832710879E+03  0.41800000000E+01 0. -1.
         -5    1    3    3    0  502  0.84149383960E+01 -0.75604228976E+01 -0.61475514358E+03  0.61487342611E+03  0.41800000000E+01 0. -1.
        -11    1    4    4    0    0  0.16799705446E+02 -0.44484060876E+02 -0.12368948664E+03  0.13251471949E+03  0.00000000000E+00 0.  1.
         11    1    4    4    0    0  0.37642262316E+02  0.43787482549E+02 -0.12680388406E+03  0.13933236721E+03  0.00000000000E+00 0. -1.
</event>
<event>
 8    1  0.7262913E-009  0.1301572E+03  0.7561462E-02  0.1227223E+00
          2   -1    0    0  501    0  0.00000000000E+00  0.00000000000E+00  0.21930920812E+03  0.21930920812E+03  0.00000000000E+00 0. -1.
         -2   -1    0    0    0  501 -0.00000000000E+00 -0.00000000000E+00 -0.12350373687E+03  0.12350373687E+03  0.00000000000E+00 0.  1.
         25    2    1    2    0    0  0.29063359611E+02  0.11808720377E+03  0.31637962644E+02  0.17730712225E+03  0.12509032078E+03 0.  0.
         23    2    1    2    0    0 -0.29063359611E+02 -0.11808720377E+03  0.64167508609E+02  0.16550582275E+03  0.92116456917E+02 0.  0.
          5    1    3    3  502    0 -0.57039698292E+01  0.30115562525E+02  0.68921919262E+02  0.75545918041E+02  0.41800000000E+01 0. -1.
         -5    1    3    3    0  502  0.34767329440E+02  0.87971641248E+02 -0.37283956617E+02  0.10176120421E+03  0.41800000000E+01 0. -1.
        -11    1    4    4    0    0  0.17000543562E+02 -0.19456175009E+02 -0.15932038594E+02  0.30354424408E+02  0.00000000000E+00 0.  1.
         11    1    4    4    0    0 -0.46063903173E+02 -0.98631028765E+02  0.80099547203E+02  0.13515139834E+03  0.00000000000E+00 0. -1.
</event>
<event>
 8    1  0.7262913E-009  0.1703874E+03  0.7561462E-02  0.1177444E+00
          2   -1    0    0  501    0  0.00000000000E+00  0.00000000000E+00  0.12896153778E+04  0.12896153778E+04  0.00000000000E+00 0.  1.
         -2   -1    0    0    0  501 -0.00000000000E+00 -0.00000000000E+00 -0.36894839223E+02  0.36894839223E+02  0.00000000000E+00 0. -1.
         25    2    1    2    0    0  0.15981882450E+03  0.57446381117E+02  0.90678512193E+03  0.93099349435E+03  0.12508991083E+03 0.  0.
         23    2    1    2    0    0 -0.15981882450E+03 -0.57446381117E+02  0.34593541664E+03  0.39551672267E+03  0.88994505782E+02 0.  0.
          5    1    3    3  502    0  0.13322930892E+03  0.42312405509E+02  0.87703434979E+03  0.88811435724E+03  0.41800000000E+01 0. -1.
         -5    1    3    3    0  502  0.26589515576E+02  0.15133975608E+02  0.29750772139E+02  0.42879137108E+02  0.41800000000E+01 0. -1.
        -11    1    4    4    0    0 -0.12415854164E+03 -0.40785151961E+02  0.32636814341E+03  0.35156071612E+03  0.00000000000E+00 0. -1.
         11    1    4    4    0    0 -0.35660282858E+02 -0.16661229156E+02  0.19567273226E+02  0.43956006552E+02  0.00000000000E+00 0.  1.
</event>
<event>
 8    1  0.7262913E-009  0.1229022E+03  0.7561462E-02  0.1238385E+00
         -1   -1    0    0    0  501 -0.00000000000E+00  0.00000000000E+00  0.42401655002E+02  0.42401655002E+02  0.00000000000E+00 0.  1.
          1   -1    0    0  501    0  0.00000000000E+00 -0.00000000000E+00 -0.48998323114E+03  0.48998323114E+03  0.00000000000E+00 0. -1.
         25    2    1    2    0    0 -0.12746959942E+02  0.60193305086E+02 -0.10812129907E+03  0.17641451811E+03  0.12508456309E+03 0.  0.
         23    2    1    2    0    0  0.12746959942E+02 -0.60193305086E+02 -0.33946027707E+03  0.35597036803E+03  0.87726303025E+02 0.  0.
          5    1    3    3  502    0 -0.66029895882E+02  0.11655407449E+02 -0.53605776541E+02  0.85946770455E+02  0.41800000000E+01 0.  1.
         -5    1    3    3    0  502  0.53282935940E+02  0.48537897638E+02 -0.54515522525E+02  0.90467747655E+02  0.41800000000E+01 0.  1.
        -11    1    4    4    0    0  0.39053246022E+02 -0.68490599483E+02 -0.23220803553E+03  0.24522783286E+03  0.00000000000E+00 0.  1.
         11    1    4    4    0    0 -0.26306286080E+02  0.82972943967E+01 -0.10725224154E+03  0.11074253517E+03  0.00000000000E+00 0. -1.
</event>
<event>
 8    1  0.7262913E-009  0.1173903E+03  0.7561462E-02  0.1247465E+00
          2   -1    0    0  501    0  0.00000000000E+00  0.00000000000E+00  0.92536994298E+03  0.92536994298E+03  0.00000000000E+00 0. -1.
         -2   -1    0    0    0  501 -0.00000000000E+00 -0.00000000000E+00 -0.16967603811E+02  0.16967603811E+02  0.00000000000E+00 0.  1.
         25    2    1    2    0    0  0.44660608533E+02  0.39352364785E+02  0.41941288224E+03  0.44169920759E+03  0.12509134913E+03 0.  0.
         23    2    1    2    0    0 -0.44660608533E+02 -0.39352364785E+02  0.48898945693E+03  0.50063833920E+03  0.89358150845E+02 0.  0.
          5    1    3    3  502    0 -0.14862738703E+02  0.61770532109E+02  0.12291710046E+03  0.13842899127E+03  0.41800000000E+01 0.  1.
         -5    1    3    3    0  502  0.59523347236E+02 -0.22418167325E+02  0.29649578178E+03  0.30327021632E+03  0.41800000000E+01 0.  1.
        -11    1    4    4    0    0 -0.70890670202E+02 -0.16988254240E+02  0.33091046661E+03  0.33884483885E+03  0.00000000000E+00 0.  1.
         11    1    4    4    0    0  0.26230061668E+02 -0.22364110545E+02  0.15807899032E+03  0.16179350035E+03  0.00000000000E+00 0. -1.
</event>
<event>
 8    1  0.7262913E-009  0.1483346E+03  0.7561462E-02  0.1202535E+00
          2   -1    0    0  501    0  0.00000000000E+00  0.00000000000E+00  0.11540574333E+04  0.11540574333E+04  0.00000000000E+00 0. -1.
         -2   -1    0    0    0  501 -0.00000000000E+00 -0.00000000000E+00 -0.29695426792E+02  0.29695426792E+02  0.00000000000E+00 0.  1.
         25    2    1    2    0    0  0.50471753451E+02  0.11207668441E+03  0.84179927216E+03  0.85987331968E+03  0.12509008838E+03 0.  0.
         23    2    1    2    0    0 -0.50471753451E+02 -0.11207668441E+03  0.28256273430E+03  0.32387954036E+03  0.99738040710E+02 0.  0.
          5    1    3    3  502    0  0.35831977977E+02  0.82357713452E+01  0.52164333195E+03  0.52295410578E+03  0.41800000000E+01 0.  1.
         -5    1    3    3    0  502  0.14639775474E+02  0.10384091306E+03  0.32015594020E+03  0.33691921391E+03  0.41800000000E+01 0.  1.
        -11    1    4    4    0    0 -0.75466005557E+02 -0.58127408061E+02  0.20585533172E+03  0.22682665443E+03  0.00000000000E+00 0. -1.
         11    1    4    4    0    0  0.24994252107E+02 -0.53949276348E+02  0.76707402583E+02  0.97052885933E+02  0.00000000000E+00 0.  1.
</event>
<event>
 8    1  0.7262913E-009  0.1909678E+03  0.7561462E-02  0.1157591E+00
         -1   -1    0    0    0  501 -0.00000000000E+00  0.00000000000E+00  0.45103539044E+03  0.45103539044E+03  0.00000000000E+00 0.  1.
          1   -1    0    0  501    0  0.00000000000E+00 -0.00000000000E+00 -0.26575875734E+03  0.26575875734E+03  0.00000000000E+00 0. -1.
         25    2    1    2    0    0  0.14813046933E+03 -0.95715881222E+02  0.38097519173E+03  0.43805554972E+03  0.12508557896E+03 0.  0.
         23    2    1    2    0    0 -0.14813046933E+03  0.95715881222E+02 -0.19569855864E+03  0.27873859806E+03  0.91066537940E+02 0.  0.
          5    1    3    3  502    0  0.81617096153E+01 -0.38747590657E+02  0.15823232402E+02  0.42846661121E+02  0.41800000000E+01 0.  1.
         -5    1    3    3    0  502  0.13996875972E+03 -0.56968290565E+02  0.36515195933E+03  0.39520888860E+03  0.41800000000E+01 0.  1.
        -11    1    4    4    0    0 -0.70042747458E+02  0.35347192587E+01 -0.37015229965E+02  0.79300743761E+02  0.00000000000E+00 0. -1.
         11    1    4    4    0    0 -0.78087721876E+02  0.92181161964E+02 -0.15868332867E+03  0.19943785430E+03  0.00000000000E+00 0.  1.
</event>
<event>
 8    1  0.7262913E-009  0.1373404E+03  0.7561462E-02  0.1216953E+00
         -2   -1    0    0    0  501 -0.00000000000E+00  0.00000000000E+00  0.21186793152E+02  0.21186793152E+02  0.00000000000E+00 0.  1.
          2   -1    0    0  501    0  0.00000000000E+00 -0.00000000000E+00 -0.16791493464E+04  0.16791493464E+04  0.00000000000E+00 0. -1.
         25    2    1    2    0    0 -0.12399335772E+03  0.25717268455E+02 -0.12759201902E+04  0.12882762064E+04  0.12509005426E+03 0.  0.
         23    2    1    2    0    0  0.12399335772E+03 -0.25717268455E+02 -0.38204236301E+03  0.41205993307E+03  0.88324915246E+02 0.  0.
          5    1    3    3  502    0 -0.45835314558E+02 -0.24598090990E+02 -0.15600323202E+03  0.16450052565E+03  0.41800000000E+01 0.  1.
         -5    1    3    3    0  502 -0.78158043158E+02  0.50315359445E+02 -0.11199169582E+04  0.11237756808E+04  0.41800000000E+01 0.  1.
        -11    1    4    4    0    0  0.54274578944E+02  0.22669984677E+01 -0.28070487555E+03  0.28591274256E+03  0.00000000000E+00 0. -1.
         11    1    4    4    0    0  0.69718778772E+02 -0.27984266923E+02 -0.10133748746E+03  0.12614719051E+03  0.00000000000E+00 0.  1.
</event>
<event>
 8    1  0.7262913E-009  0.1081535E+03  0.7561462E-02  0.1264028E+00
          2   -1    0    0  501    0  0.00000000000E+00  0.00000000000E+00  0.41275813963E+03  0.41275813963E+03  0.00000000000E+00 0. -1.
         -2   -1    0    0    0  501 -0.00000000000E+00 -0.00000000000E+00 -0.43476112776E+02  0.43476112776E+02  0.00000000000E+00 0.  1.
         25    2    1    2    0    0  0.62624948902E+02 -0.43718564715E+02  0.17346623666E+03  0.22709331234E+03  0.12509052771E+03 0.  0.
         23    2    1    2    0    0 -0.62624948902E+02  0.43718564715E+02  0.19581579019E+03  0.22914094006E+03  0.91260887565E+02 0.  0.
          5    1    3    3  502    0  0.27229607229E+02  0.13636921777E+02  0.15368387716E+03  0.15672786492E+03  0.41800000000E+01 0. -1.
         -5    1    3    3    0  502  0.35395341674E+02 -0.57355486491E+02  0.19782359504E+02  0.70365447418E+02  0.41800000000E+01 0. -1.
        -11    1    4    4    0    0 -0.47160823876E+02 -0.20909379701E+02  0.71348672827E+02  0.88045321183E+02  0.00000000000E+00 0. -1.
         11    1    4    4    0    0 -0.15464125027E+02  0.64627944415E+02  0.12446711736E+03  0.14109561888E+03  0.00000000000E+00 0.  1.
</event>
<event>
 8    1  0.7262913E-009  0.1184136E+03  0.7561462E-02  0.1245737E+00
         -2   -1    0    0    0  501 -0.00000000000E+00  0.00000000000E+00  0.11223667105E+03  0.11223667105E+03  0.00000000000E+00 0.  1.
          2   -1    0    0  501    0  0.00000000000E+00 -0.00000000000E+00 -0.17248530806E+03  0.17248530806E+03  0.00000000000E+00 0. -1.
         25    2    1    2    0    0  0.51412830233E+02  0.67007535738E+02 -0.54243852981E+02  0.16038436985E+03  0.12508981393E+03 0.  0.
         23    2    1    2    0    0 -0.51412830233E+02 -0.67007535738E+02 -0.60047840263E+01  0.12433760927E+03  0.91052153672E+02 0.  0.
          5    1    3    3  502    0 -0.35556069048E+02 -0.65888661662E+01 -0.18952607707E+02  0.41040479315E+02  0.41800000000E+01 0. -1.
         -5    1    3    3    0  502  0.86968899280E+02  0.73596401905E+02 -0.35291245274E+02  0.11934389054E+03  0.41800000000E+01 0. -1.
        -11    1    4    4    0    0 -0.16501147989E+02 -0.36494519626E+02  0.41695398597E+02  0.57815604397E+02  0.00000000000E+00 0.  1.
         11    1    4    4    0    0 -0.34911682243E+02 -0.30513016113E+02 -0.47700182623E+02  0.66522004868E+02  0.00000000000E+00 0. -1.
</event>
<event>
 8    1  0.7262913E-009  0.9624634E+02  0.7561462E-02  0.1288393E+00
          1   -1    0    0  501    0  0.00000000000E+00  0.00000000000E+00  0.91598671046E+02  0.91598671046E+02  0.00000000000E+00 0. -1.
         -1   -1    0    0    0  501 -0.00000000000E+00 -0.00000000000E+00 -0.16530598711E+03  0.16530598711E+03  0.00000000000E+00 0.  1.
         25    2    1    2    0    0  0.46280527260E+02  0.10228855641E+01 -0.41149005822E+01  0.13344284609E+03  0.12508847776E+03 0.  0.
         23    2    1    2    0    0 -0.46280527260E+02 -0.10228855641E+01 -0.69592415478E+02  0.12346181206E+03  0.90866832486E+02 0.  0.
          5    1    3    3  502    0  0.83684165255E+02  0.72211931114E+01 -0.27763342116E+02  0.88563314695E+02  0.41800000000E+01 0.  1.
         -5    1    3    3    0  502 -0.37403637995E+02 -0.61983075473E+01  0.23648441533E+02  0.44879531400E+02  0.41800000000E+01 0.  1.
        -11    1    4    4    0    0 -0.20830567303E+02 -0.26855265715E+02  0.10475518654E+02  0.35564790479E+02  0.00000000000E+00 0. -1.
         11    1    4    4    0    0 -0.25449959957E+02  0.25832380151E+02 -0.80067934132E+02  0.87897021578E+02  0.00000000000E+00 0.  1.
</event>
<event>
 8    1  0.7262913E-009  0.1065687E+03  0.7561462E-02  0.1267059E+00
          2   -1    0    0  501    0  0.00000000000E+00  0.00000000000E+00  0.35212237072E+03  0.35212237072E+03  0.00000000000E+00 0. -1.
         -2   -1    0    0    0  501 -0.00000000000E+00 -0.00000000000E+00 -0.34900051197E+02  0.34900051197E+02  0.00000000000E+00 0.  1.
         25    2    1    2    0    0  0.15667957993E+02  0.13153060431E+02  0.20256498953E+03  0.23895306927E+03  0.12508999330E+03 0.  0.
         23    2    1    2    0    0 -0.15667957993E+02 -0.13153060431E+02  0.11465732999E+03  0.14806935264E+03  0.91431624536E+02 0.  0.
          5    1    3    3  502    0  0.19808977271E+02  0.66195470719E+02  0.83409193633E+02  0.10839189041E+03  0.41800000000E+01 0.  1.
         -5    1    3    3    0  502 -0.41410192780E+01 -0.53042410287E+02  0.11915579590E+03  0.13056117886E+03  0.41800000000E+01 0.  1.
        -11    1    4    4    0    0 -0.17426283097E+02 -0.50364719531E+02  0.48075085460E+02  0.71773910009E+02  0.00000000000E+00 0. -1.
         11    1    4    4    0    0  0.17583251040E+01  0.37211659099E+02  0.66582244527E+02  0.76295442632E+02  0.00000000000E+00 0.  1.
</event>
<event>
 8    1  0.7262913E-009  0.1347765E+03  0.7561462E-02  0.1220536E+00
         -1   -1    0    0    0  501 -0.00000000000E+00  0.00000000000E+00  0.19252043533E+03  0.19252043533E+03  0.00000000000E+00 0. -1.
          1   -1    0    0  501    0  0.00000000000E+00 -0.00000000000E+00 -0.15733291024E+03  0.15733291024E+03  0.00000000000E+00 0.  1.
         25    2    1    2    0    0 -0.11815234653E+03 -0.47039467456E+02  0.66557224931E+02  0.19039728306E+03  0.12509425534E+03 0.  0.
         23    2    1    2    0    0  0.11815234653E+03  0.47039467456E+02 -0.31369699850E+02  0.15945606251E+03  0.90936732477E+02 0.  0.
          5    1    3    3  502    0 -0.85685541792E+02 -0.15862936198E+02  0.10107591458E+03  0.13351950316E+03  0.41800000000E+01 0.  1.
         -5    1    3    3    0  502 -0.32466804735E+02 -0.31176531258E+02 -0.34518689649E+02  0.56877779898E+02  0.41800000000E+01 0.  1.
        -11    1    4    4    0    0  0.72273128240E+02  0.12468506589E+01 -0.54610402088E+02  0.90593905526E+02  0.00000000000E+00 0.  1.
         11    1    4    4    0    0  0.45879218287E+02  0.45792616797E+02  0.23240702238E+02  0.68862156982E+02  0.00000000000E+00 0. -1.
</event>
<event>
 8    1  0.7262913E-009  0.1032977E+03  0.7561462E-02  0.1273510E+00
         -2   -1    0    0    0  501 -0.00000000000E+00  0.00000000000E+00  0.93731826626E+02  0.93731826626E+02  0.00000000000E+00 0.  1.
          2   -1    0    0  501    0  0.00000000000E+00 -0.00000000000E+00 -0.13314495568E+03  0.13314495568E+03  0.00000000000E+00 0. -1.
         25    2    1    2    0    0  0.84247921803E+01  0.93814347108E+01 -0.43633813522E+02  0.13307986386E+03  0.12508937621E+03 0.  0.
         23    2    1    2    0    0 -0.84247921803E+01 -0.93814347108E+01  0.42206844681E+01  0.93796918450E+02  0.92849659627E+02 0.  0.
          5    1    3    3  502    0 -0.28752955012E+02  0.57022165214E+02 -0.13427017120E+02  0.65391260398E+02  0.41800000000E+01 0. -1.
         -5    1    3    3    0  502  0.37177747193E+02 -0.47640730503E+02 -0.30206796402E+02  0.67688603458E+02  0.41800000000E+01 0. -1.
        -11    1    4    4    0    0 -0.29002426230E+02  0.27385770450E+02 -0.20601606568E+02  0.44894847628E+02  0.00000000000E+00 0. -1.
         11    1    4    4    0    0  0.20577634050E+02 -0.36767205161E+02  0.24822291036E+02  0.48902070822E+02  0.00000000000E+00 0.  1.
</event>
<event>
 8    1  0.7262913E-009  0.2447749E+03  0.7561462E-02  0.1116652E+00
         -3   -1    0    0    0  501 -0.00000000000E+00  0.00000000000E+00  0.53431384628E+03  0.53431384628E+03  0.00000000000E+00 0.  1.
          3   -1    0    0  501    0  0.00000000000E+00 -0.00000000000E+00 -0.12740039723E+03  0.12740039723E+03  0.00000000000E+00 0. -1.
         25    2    1    2    0    0  0.21529417847E+03 -0.68004800410E+02  0.12260642324E+03  0.28576119272E+03  0.12510350948E+03 0.  0.
         23    2    1    2    0    0 -0.21529417847E+03  0.68004800410E+02  0.28430702581E+03  0.37595305078E+03  0.97642077545E+02 0.  0.
          5    1    3    3  502    0  0.10178264302E+03 -0.88803935117E+02  0.99938380621E+02  0.16808033089E+03  0.41800000000E+01 0.  1.
         -5    1    3    3    0  502  0.11351153545E+03  0.20799134707E+02  0.22668042620E+02  0.11768086183E+03  0.41800000000E+01 0.  1.
        -11    1    4    4    0    0 -0.83553691639E+02  0.67141296073E+02  0.17285073318E+03  0.20338768150E+03  0.00000000000E+00 0.  1.
         11    1    4    4    0    0 -0.13174048683E+03  0.86350433735E+00  0.11145629263E+03  0.17256536928E+03  0.00000000000E+00 0. -1.
</event>
<event>
 8    1  0.7262913E-009  0.9611489E+02  0.7561462E-02  0.1288685E+00
          2   -1    0    0  501    0  0.00000000000E+00  0.00000000000E+00  0.65626663938E+02  0.65626663938E+02  0.00000000000E+00 0.  1.
         -2   -1    0    0    0  501 -0.00000000000E+00 -0.00000000000E+00 -0.20131731872E+03  0.20131731872E+03  0.00000000000E+00 0. -1.
         25    2    1    2    0    0 -0.23174208063E+02  0.22767109156E+02 -0.51862768861E+02  0.13926104099E+03  0.12509398692E+03 0.  0.
         23    2    1    2    0    0  0.23174208063E+02 -0.22767109156E+02 -0.83827885923E+02  0.12768294167E+03  0.90666608830E+02 0.  0.
          5    1    3    3  502    0 -0.60565126488E+02 -0.25101209791E+02 -0.40934313155E+02  0.77403460342E+02  0.41800000000E+01 0.  1.
         -5    1    3    3    0  502  0.37390918425E+02  0.47868318946E+02 -0.10928455706E+02  0.61857580647E+02  0.41800000000E+01 0.  1.
        -11    1    4    4    0    0 -0.15164427700E+02 -0.22716196300E+02  0.77606575472E+01  0.28393894544E+02  0.00000000000E+00 0.  1.
         11    1    4    4    0    0  0.38338635764E+02 -0.50912855769E-01 -0.91588543470E+02  0.99289047126E+02  0.00000000000E+00 0. -1.
</event>
<event>
 8    1  0.7262913E-009  0.1062336E+03  0.7561462E-02  0.1267708E+00
         -2   -1    0    0    0  501 -0.00000000000E+00  0.00000000000E+00  0.17582791316E+02  0.17582791316E+02  0.00000000000E+00 0.  1.
          2   -1    0    0  501    0  0.00000000000E+00 -0.00000000000E+00 -0.76476683639E+03  0.76476683639E+03  0.00000000000E+00 0. -1.
         25    2    1    2    0    0 -0.49647561437E+01  0.47007973007E+02 -0.42872510502E+03  0.44909566360E+03  0.12508917242E+03 0.  0.
         23    2    1    2    0    0  0.49647561437E+01 -0.47007973007E+02 -0.31845894005E+03  0.33325396411E+03  0.86068053107E+02 0.  0.
          5    1    3    3  502    0  0.44035513392E+02  0.57964478856E+02 -0.33333986800E+03  0.34122125849E+03  0.41800000000E+01 0.  1.
         -5    1    3    3    0  502 -0.49000269536E+02 -0.10956505849E+02 -0.95385237025E+02  0.10787440511E+03  0.41800000000E+01 0.  1.
        -11    1    4    4    0    0  0.38425537264E+02 -0.39028434668E+02 -0.12096416523E+03  0.13278580458E+03  0.00000000000E+00 0.  1.
         11    1    4    4    0    0 -0.33460781121E+02 -0.79795383389E+01 -0.19749477482E+03  0.20046815953E+03  0.00000000000E+00 0. -1.
</event>
<event>
 8    1  0.7262913E-009  0.1614859E+03  0.7561462E-02  0.1187029E+00
         -2   -1    0    0    0  501 -0.00000000000E+00  0.00000000000E+00  0.59572520439E+02  0.59572520439E+02  0.00000000000E+00 0.  1.
          2   -1    0    0  501    0  0.00000000000E+00 -0.00000000000E+00 -0.49989102295E+03  0.49989102295E+03  0.00000000000E+00 0. -1.
         25    2    1    2    0    0  0.11797878488E+03  0.40352587681E+02 -0.15958851138E+03  0.23803897975E+03  0.12508692138E+03 0.  0.
         23    2    1    2    0    0 -0.11797878488E+03 -0.40352587681E+02 -0.28072999114E+03  0.32142456364E+03  0.94641941934E+02 0.  0.
          5    1    3    3  502    0 -0.74751217968E+01 -0.24314838689E+02 -0.11413208426E+01  0.25804337612E+02  0.41800000000E+01 0. -1.
         -5    1    3    3    0  502  0.12545390668E+03  0.64667426370E+02 -0.15844719054E+03  0.21223464214E+03  0.41800000000E+01 0. -1.
        -11    1    4    4    0    0 -0.62255677829E+02 -0.69333251713E+02 -0.18068718843E+03  0.20329960472E+03  0.00000000000E+00 0.  1.
         11    1    4    4    0    0 -0.55723107056E+02  0.28980664031E+02 -0.10004280270E+03  0.11812495892E+03  0.00000000000E+00 0. -1.
</event>
<event>
 8    1  0.7262913E-009  0.8011766E+02  0.7561462E-02  0.1328718E+00
         -2   -1    0    0    0  501 -0.00000000000E+00  0.00000000000E+00  0.59386028669E+02  0.59386028669E+02  0.00000000000E+00 0. -1.
          2   -1    0    0  501    0  0.00000000000E+00 -0.00000000000E+00 -0.21414964909E+03  0.21414964909E+03  0.00000000000E+00 0.  1.
         25    2    1    2    0    0  0.23404764340E+00 -0.20767079480E+02 -0.81830170005E+02  0.15091069009E+03  0.12508610351E+03 0.  0.
         23    2    1    2    0    0 -0.23404764340E+00  0.20767079480E+02 -0.72933450419E+02  0.12262498767E+03  0.96365310376E+02 0.  0.
          5    1    3    3  502    0  0.25633415487E+02 -0.66981341818E+02 -0.60317082777E+02  0.93804024519E+02  0.41800000000E+01 0.  1.
         -5    1    3    3    0  502 -0.25399367843E+02  0.46214262338E+02 -0.21513087228E+02  0.57106665568E+02  0.41800000000E+01 0.  1.
        -11    1    4    4    0    0 -0.14488321690E+02  0.11445508460E+02 -0.93851320718E+02  0.95650308572E+02  0.00000000000E+00 0.  1.
         11    1    4    4    0    0  0.14254274047E+02  0.93215710203E+01  0.20917870299E+02  0.26974679103E+02  0.00000000000E+00 0. -1.
</event>
<event>
 8    1  0.7262913E-009  0.2082457E+03  0.7561462E-02  0.1142963E+00
          2   -1    0    0  501    0  0.00000000000E+00  0.00000000000E+00  0.19578061124E+03  0.19578061124E+03  0.00000000000E+00 0. -1.
         -2   -1    0    0    0  501 -0.00000000000E+00 -0.00000000000E+00 -0.24778891684E+03  0.24778891684E+03  0.00000000000E+00 0.  1.
         25    2    1    2    0    0 -0.17030914160E+01 -0.19180887091E+03 -0.18251270809E+02  0.22972409059E+03  0.12508599214E+03 0.  0.
         23    2    1    2    0    0  0.17030914160E+01  0.19180887091E+03 -0.33757034792E+02  0.21384543750E+03  0.88299435215E+02 0.  0.
          5    1    3    3  502    0 -0.19422578996E+02 -0.18473865118E+03 -0.50031762084E+02  0.19242207626E+03  0.41800000000E+01 0.  1.
         -5    1    3    3    0  502  0.17719487580E+02 -0.70702197312E+01  0.31780491274E+02  0.37302014326E+02  0.41800000000E+01 0.  1.
        -11    1    4    4    0    0  0.44975488003E+02  0.94169737327E+02 -0.17562915978E+02  0.10582622533E+03  0.00000000000E+00 0. -1.
         11    1    4    4    0    0 -0.43272396587E+02  0.97639133588E+02 -0.16194118815E+02  0.10801921217E+03  0.00000000000E+00 0.  1.
</event>
<event>
 8    1  0.7262913E-009  0.1059101E+03  0.7561462E-02  0.1268337E+00
          1   -1    0    0  501    0  0.00000000000E+00  0.00000000000E+00  0.69962185503E+03  0.69962185503E+03  0.00000000000E+00 0. -1.
         -1   -1    0    0    0  501 -0.00000000000E+00 -0.00000000000E+00 -0.27440603275E+02  0.27440603275E+02  0.00000000000E+00 0.  1.
         25    2    1    2    0    0  0.81965855079E+02 -0.21098721107E+02  0.32515068779E+03  0.35851699530E+03  0.12509160131E+03 0.  0.
         23    2    1    2    0    0 -0.81965855079E+02  0.21098721107E+02  0.34703056396E+03  0.36854546300E+03  0.90730306649E+02 0.  0.
          5    1    3    3  502    0  0.66347732896E+02  0.12162755824E+02  0.58712021623E+02  0.89523897216E+02  0.41800000000E+01 0. -1.
         -5    1    3    3    0  502  0.15618122183E+02 -0.33261476931E+02  0.26643866617E+03  0.26899309809E+03  0.41800000000E+01 0. -1.
        -11    1    4    4    0    0 -0.34377932365E+02 -0.23813206152E+02  0.23592703033E+03  0.23960483022E+03  0.00000000000E+00 0.  1.
         11    1    4    4    0    0 -0.47587922715E+02  0.44911927260E+02  0.11110353362E+03  0.12894063278E+03  0.00000000000E+00 0. -1.
</event>
<event>
 8    1  0.7262913E-009  0.1317210E+03  0.7561462E-02  0.1224924E+00
         -1   -1    0    0    0  501 -0.00000000000E+00  0.00000000000E+00  0.15813308754E+02  0.15813308754E+02  0.00000000000E+00 0.  1.
          1   -1    0    0  501    0  0.00000000000E+00 -0.00000000000E+00 -0.11452108728E+04  0.11452108728E+04  0.00000000000E+00 0. -1.
         25    2    1    2    0    0  0.43678225007E+02 -0.61189036996E+02 -0.72168856904E+03  0.73629697420E+03  0.12508780094E+03 0.  0.
         23    2    1    2    0    0 -0.43678225007E+02  0.61189036996E+02 -0.40770899504E+03  0.42472720739E+03  0.92275080452E+02 0.  0.
          5    1    3    3  502    0  0.87130945861E+02 -0.44099132180E+02 -0.53173206529E+03  0.54064128296E+03  0.41800000000E+01 0. -1.
         -5    1    3    3    0  502 -0.43452720854E+02 -0.17089904815E+02 -0.18995650375E+03  0.19565569124E+03  0.41800000000E+01 0. -1.
        -11    1    4    4    0    0 -0.68106916231E+02  0.64937578113E+02 -0.33262676547E+03  0.34568194370E+03  0.00000000000E+00 0. -1.
         11    1    4    4    0    0  0.24428691224E+02 -0.37485411171E+01 -0.75082229571E+02  0.79045263696E+02  0.00000000000E+00 0.  1.
</event>
<event>
 8    1  0.7262913E-009  0.1497844E+03  0.7561462E-02  0.1200738E+00
          1   -1    0    0  501    0  0.00000000000E+00  0.00000000000E+00  0.60692375806E+03  0.60692375806E+03  0.00000000000E+00 0. -1.
         -1   -1    0    0    0  501 -0.00000000000E+00 -0.00000000000E+00 -0.44146044634E+02  0.44146044634E+02  0.00000000000E+00 0.  1.
         25    2    1    2    0    0 -0.11357412569E+03  0.40146293523E+02  0.26008405918E+03  0.31273284354E+03  0.12508919490E+03 0.  0.
         23    2    1    2    0    0  0.11357412569E+03 -0.40146293523E+02  0.30269365425E+03  0.33833695916E+03  0.91310693228E+02 0.  0.
          5    1    3    3  502    0 -0.36383390997E+02  0.79030388689E+02  0.13312219032E+03  0.15908659099E+03  0.41800000000E+01 0.  1.
         -5    1    3    3    0  502 -0.77190734692E+02 -0.38884095166E+02  0.12696186886E+03  0.15364625255E+03  0.41800000000E+01 0.  1.
        -11    1    4    4    0    0  0.32599166385E+02  0.53755737105E+01  0.18733492431E+03  0.19022611889E+03  0.00000000000E+00 0. -1.
         11    1    4    4    0    0  0.80974959303E+02 -0.45521867234E+02  0.11535872994E+03  0.14811084026E+03  0.00000000000E+00 0.  1.
</event>
<event>
 8    1  0.7262913E-009  0.1108193E+03  0.7561462E-02  0.1259060E+00
          2   -1    0    0  501    0  0.00000000000E+00  0.00000000000E+00  0.73638879882E+03  0.73638879882E+03  0.00000000000E+00 0.  1.
         -2   -1    0    0    0  501 -0.00000000000E+00 -0.00000000000E+00 -0.22404880992E+02  0.22404880992E+02  0.00000000000E+00 0. -1.
         25    2    1    2    0    0  0.55091643586E+02  0.58602385352E+01  0.27887588387E+03  0.31062535890E+03  0.12508766286E+03 0.  0.
         23    2    1    2    0    0 -0.55091643586E+02 -0.58602385352E+01  0.43510803397E+03  0.44816832092E+03  0.92013102670E+02 0.  0.
          5    1    3    3  502    0  0.51362744626E+02 -0.46181892007E+02  0.83945722841E+02  0.10878996033E+03  0.41800000000E+01 0. -1.
         -5    1    3    3    0  502  0.37288989601E+01  0.52042130542E+02  0.19493016102E+03  0.20183539857E+03  0.41800000000E+01 0. -1.
        -11    1    4    4    0    0 -0.65340448325E+02  0.23157908643E+02  0.36615131160E+03  0.37265593502E+03  0.00000000000E+00 0.  1.
         11    1    4    4    0    0  0.10248804738E+02 -0.29018147178E+02  0.68956722368E+02  0.75512385898E+02  0.00000000000E+00 0. -1.
</event>
<event>
 8    1  0.7262913E-009  0.1280524E+03  0.7561462E-02  0.1230375E+00
          3   -1    0    0  501    0  0.00000000000E+00  0.00000000000E+00  0.35318481989E+02  0.35318481989E+02  0.00000000000E+00 0. -1.
         -3   -1    0    0    0  501 -0.00000000000E+00 -0.00000000000E+00 -0.54349886190E+03  0.54349886190E+03  0.00000000000E+00 0.  1.
         25    2    1    2    0    0 -0.58985318063E+02  0.44200065293E+02 -0.36574773995E+03  0.39351332991E+03  0.12509363700E+03 0.  0.
         23    2    1    2    0    0  0.58985318063E+02 -0.44200065293E+02 -0.14243263996E+03  0.18530401398E+03  0.92831067818E+02 0.  0.
          5    1    3    3  502    0  0.37117762127E+02  0.14448603621E+02 -0.15278488721E+03  0.15794677766E+03  0.41800000000E+01 0. -1.
         -5    1    3    3    0  502 -0.96103080190E+02  0.29751461672E+02 -0.21296285274E+03  0.23556655225E+03  0.41800000000E+01 0. -1.
        -11    1    4    4    0    0  0.69790589028E+02 -0.62779771964E+02 -0.96685934143E+02  0.13475977124E+03  0.00000000000E+00 0.  1.
         11    1    4    4    0    0 -0.10805270964E+02  0.18579706671E+02 -0.45746705821E+02  0.50544242739E+02  0.00000000000E+00 0. -1.
</event>
<event>
 8    1  0.7262913E-009  0.1182297E+03  0.7561462E-02  0.1246046E+00
         -2   -1    0    0    0  501 -0.00000000000E+00  0.00000000000E+00  0.14076071919E+03  0.14076071919E+03  0.00000000000E+00 0.  1.
          2   -1    0    0  501    0  0.00000000000E+00 -0.00000000000E+00 -0.11788893785E+03  0.11788893785E+03  0.00000000000E+00 0. -1.
         25    2    1    2    0    0 -0.62903755753E+02 -0.12365225479E+02  0.38235751796E+02  0.14566795790E+03  0.12508956773E+03 0.  0.
         23    2    1    2    0    0  0.62903755753E+02  0.12365225479E+02 -0.15363970461E+02  0.11298169914E+03  0.91755280298E+02 0.  0.
          5    1    3    3  502    0  0.33915411368E+02  0.17495107839E+02  0.17375163199E+02  0.42139086639E+02  0.41800000000E+01 0.  1.
         -5    1    3    3    0  502 -0.96819167121E+02 -0.29860333319E+02  0.20860588597E+02  0.10352887126E+03  0.41800000000E+01 0.  1.
        -11    1    4    4    0    0  0.72180213189E+02 -0.96040383507E+01 -0.36196156833E+02  0.81316557343E+02  0.00000000000E+00 0. -1.
         11    1    4    4    0    0 -0.92764574357E+01  0.21969263830E+02  0.20832186372E+02  0.31665141794E+02  0.00000000000E+00 0.  1.
</event>
<event>
 8    1  0.7262913E-009  0.1153018E+03  0.7561462E-02  0.1251055E+00
          2   -1    0    0  501    0  0.00000000000E+00  0.00000000000E+00  0.39190977832E+03  0.39190977832E+03  0.00000000000E+00 0.  1.
         -2   -1    0    0    0  501 -0.00000000000E+00 -0.00000000000E+00 -0.40395509177E+02  0.40395509177E+02  0.00000000000E+00 0. -1.
         25    2    1    2    0    0 -0.10870574523E+02 -0.52179461625E+02  0.13729877610E+03  0.19323084443E+03  0.12508532973E+03 0.  0.
         23    2    1    2    0    0  0.10870574523E+02  0.52179461625E+02  0.21421549305E+03  0.23907444307E+03  0.91801123430E+02 0.  0.
          5    1    3    3  502    0  0.33360801201E+02 -0.69233195026E+02  0.12006828861E+03  0.14261852853E+03  0.41800000000E+01 0.  1.
         -5    1    3    3    0  502 -0.44231375724E+02  0.17053733402E+02  0.17230487488E+02  0.50612315897E+02  0.41800000000E+01 0.  1.
        -11    1    4    4    0    0  0.51250437499E+02  0.22695321137E+02  0.11846691611E+03  0.13105760245E+03  0.00000000000E+00 0. -1.
         11    1    4    4    0    0 -0.40379862975E+02  0.29484140488E+02  0.95748576934E+02  0.10801684063E+03  0.00000000000E+00 0.  1.
</event>
<event>
 8    1  0.7262913E-009  0.1044587E+03  0.7561462E-02  0.1271190E+00
         -1   -1    0    0    0  501 -0.00000000000E+00  0.00000000000E+00  0.41441911528E+02  0.41441911528E+02  0.00000000000E+00 0.  1.
          1   -1    0    0  501    0  0.00000000000E+00 -0.00000000000E+00 -0.50360486319E+03  0.50360486319E+03  0.00000000000E+00 0. -1.
         25    2    1    2    0    0  0.64657145795E+02  0.13405218145E+02 -0.36713207981E+03  0.39343887385E+03  0.12509171457E+03 0.  0.
         23    2    1    2    0    0 -0.64657145795E+02 -0.13405218145E+02 -0.95030871851E+02  0.15160790087E+03  0.97948162947E+02 0.  0.
          5    1    3    3  502    0 -0.70253590695E+01  0.20848449071E+02 -0.27726611434E+03  0.27816898472E+03  0.41800000000E+01 0.  1.
         -5    1    3    3    0  502  0.71682504864E+02 -0.74432309264E+01 -0.89865965473E+02  0.11526988913E+03  0.41800000000E+01 0.  1.
        -11    1    4    4    0    0 -0.44601492214E+02 -0.53410051355E+02 -0.75812500392E+02  0.10290511119E+03  0.00000000000E+00 0.  1.
         11    1    4    4    0    0 -0.20055653581E+02  0.40004833210E+02 -0.19218371459E+02  0.48702789676E+02  0.00000000000E+00 0. -1.
</event>
<event>
 8    1  0.7262913E-009  0.1396294E+03  0.7561462E-02  0.1213828E+00
          1   -1    0    0  501    0  0.00000000000E+00  0.00000000000E+00  0.18424958822E+04  0.18424958822E+04  0.00000000000E+00 0. -1.
         -1   -1    0    0    0  501 -0.00000000000E+00 -0.00000000000E+00 -0.16017231756E+02  0.16017231756E+02  0.00000000000E+00 0.  1.
         25    2    1    2    0    0  0.94462331822E+02  0.78088450339E+02  0.12363025418E+04  0.12486442838E+04  0.12509050412E+03 0.  0.
         23    2    1    2    0    0 -0.94462331822E+02 -0.78088450339E+02  0.59017610857E+03  0.60986883015E+03  0.92796619837E+02 0.  0.
          5    1    3    3  502    0  0.62507055509E+02  0.33891370425E+02  0.10920325277E+04  0.10943529005E+04  0.41800000000E+01 0. -1.
         -5    1    3    3    0  502  0.31955276314E+02  0.44197079914E+02  0.14427001413E+03  0.15429138322E+03  0.41800000000E+01 0. -1.
        -11    1    4    4    0    0 -0.56499791857E+02  0.10031793262E+02  0.20011688256E+03  0.20818172360E+03  0.00000000000E+00 0. -1.
         11    1    4    4    0    0 -0.37962539966E+02 -0.88120243601E+02  0.39005922601E+03  0.40168710655E+03  0.00000000000E+00 0.  1.
</event>
<event>
 8    1  0.7262913E-009  0.1226431E+03  0.7561462E-02  0.1238799E+00
         -1   -1    0    0    0  501 -0.00000000000E+00  0.00000000000E+00  0.60097573781E+03  0.60097573781E+03  0.00000000000E+00 0.  1.
          1   -1    0    0  501    0  0.00000000000E+00 -0.00000000000E+00 -0.26424893946E+02  0.26424893946E+02  0.00000000000E+00 0. -1.
         25    2    1    2    0    0  0.35231961643E+02  0.49397995237E+02  0.26952411825E+03  0.30326911745E+03  0.12508978465E+03 0.  0.
         23    2    1    2    0    0 -0.35231961643E+02 -0.49397995237E+02  0.30502672561E+03  0.32413151431E+03  0.91315289925E+02 0.  0.
          5    1    3    3  502    0 -0.30639211355E+02  0.64298633462E+02  0.13605725600E+03  0.15362983059E+03  0.41800000000E+01 0. -1.
         -5    1    3    3    0  502  0.65871172998E+02 -0.14900638225E+02  0.13346686225E+03  0.14963928685E+03  0.41800000000E+01 0. -1.
        -11    1    4    4    0    0  0.62877594433E+01 -0.62438189949E+02  0.13924034550E+03  0.15272831204E+03  0.00000000000E+00 0.  1.
         11    1    4    4    0    0 -0.41519721087E+02  0.13040194712E+02  0.16578638011E+03  0.17140320227E+03  0.00000000000E+00 0. -1.
</event>
<event>
 8    1  0.7262913E-009  0.2002949E+03  0.7561462E-02  0.1149490E+00
          2   -1    0    0  501    0  0.00000000000E+00  0.00000000000E+00  0.65403628701E+03  0.65403628701E+03  0.00000000000E+00 0.  1.
         -2   -1    0    0    0  501 -0.00000000000E+00 -0.00000000000E+00 -0.66152595039E+02  0.66152595039E+02  0.00000000000E+00 0. -1.
         25    2    1    2    0    0  0.17076783550E+03  0.48892223464E+02  0.27743325298E+03  0.35237610082E+03  0.12509038099E+03 0.  0.
         23    2    1    2    0    0 -0.17076783550E+03 -0.48892223464E+02  0.31045043899E+03  0.36781278123E+03  0.85759336581E+02 0.  0.
          5    1    3    3  502    0  0.13143342394E+03 -0.20569641353E+02  0.13849159074E+03  0.19208135823E+03  0.41800000000E+01 0. -1.
         -5    1    3    3    0  502  0.39334411559E+02  0.69461864817E+02  0.13894166224E+03  0.16029474259E+03  0.41800000000E+01 0. -1.
        -11    1    4    4    0    0 -0.83475496572E+02  0.72153950916E+01  0.19691941108E+03  0.21400344603E+03  0.00000000000E+00 0.  1.
         11    1    4    4    0    0 -0.87292338924E+02 -0.56107618555E+02  0.11353102791E+03  0.15380933520E+03  0.00000000000E+00 0. -1.
</event>
<event>
 8    1  0.7262913E-009  0.1090666E+03  0.7561462E-02  0.1262308E+00
         -2   -1    0    0    0  501 -0.00000000000E+00  0.00000000000E+00  0.92237837947E+02  0.92237837947E+02  0.00000000000E+00 0.  1.
          2   -1    0    0  501    0  0.00000000000E+00 -0.00000000000E+00 -0.16244974118E+03  0.16244974118E+03  0.00000000000E+00 0. -1.
         25    2    1    2    0    0 -0.47433014561E+02 -0.79252478264E+00  0.28688916443E+01  0.13380969288E+03  0.12508510864E+03 0.  0.
         23    2    1    2    0    0  0.47433014561E+02  0.79252478264E+00 -0.73080794877E+02  0.12087788625E+03  0.83786286692E+02 0.  0.
          5    1    3    3  502    0 -0.81665108413E+01  0.60201107220E+02  0.51487433747E+01  0.61113395980E+02  0.41800000000E+01 0.  1.
         -5    1    3    3    0  502 -0.39266503720E+02 -0.60993632003E+02 -0.22798517304E+01  0.72696296901E+02  0.41800000000E+01 0.  1.
        -11    1    4    4    0    0  0.40370778180E+02  0.32665236181E+02 -0.14669873300E+02  0.53963159362E+02  0.00000000000E+00 0. -1.
         11    1    4    4    0    0  0.70622363806E+01 -0.31872711398E+02 -0.58410921577E+02  0.66914726885E+02  0.00000000000E+00 0.  1.
</event>
<event>
 8    1  0.7262913E-009  0.1561916E+03  0.7561462E-02  0.1193065E+00
          2   -1    0    0  501    0  0.00000000000E+00  0.00000000000E+00  0.32850596832E+03  0.32850596832E+03  0.00000000000E+00 0. -1.
         -2   -1    0    0    0  501 -0.00000000000E+00 -0.00000000000E+00 -0.11307886963E+03  0.11307886963E+03  0.00000000000E+00 0.  1.
         25    2    1    2    0    0 -0.90507266050E+02  0.66989802943E+02  0.24163249894E+03  0.29447020441E+03  0.12508891971E+03 0.  0.
         23    2    1    2    0    0  0.90507266050E+02 -0.66989802943E+02 -0.26205400247E+02  0.14711463355E+03  0.90976884398E+02 0.  0.
          5    1    3    3  502    0  0.27053332459E+02 -0.79853035621E+01  0.34759654192E+02  0.44959468743E+02  0.41800000000E+01 0.  1.
         -5    1    3    3    0  502 -0.11756059851E+03  0.74975106505E+02  0.20687284475E+03  0.24951073566E+03  0.41800000000E+01 0.  1.
        -11    1    4    4    0    0  0.19932074370E+02 -0.70938928512E+02 -0.79768327351E+01  0.74116455849E+02  0.00000000000E+00 0. -1.
         11    1    4    4    0    0  0.70575191680E+02  0.39491255689E+01 -0.18228567512E+02  0.72998177696E+02  0.00000000000E+00 0.  1.
</event>
<event>
 8    1  0.7262913E-009  0.2244446E+03  0.7561462E-02  0.1130612E+00
          1   -1    0    0  501    0  0.00000000000E+00  0.00000000000E+00  0.57019888763E+02  0.57019888763E+02  0.00000000000E+00 0. -1.
         -1   -1    0    0    0  501 -0.00000000000E+00 -0.00000000000E+00 -0.11319162867E+04  0.11319162867E+04  0.00000000000E+00 0.  1.
         25    2    1    2    0    0  0.20352923617E+03 -0.49452806711E+02 -0.77275105862E+03  0.81034603915E+03  0.12508706767E+03 0.  0.
         23    2    1    2    0    0 -0.20352923617E+03  0.49452806711E+02 -0.30214533935E+03  0.37859013635E+03  0.90382272505E+02 0.  0.
          5    1    3    3  502    0  0.62229653519E+02  0.31236367126E+02 -0.13262947472E+03  0.14985423041E+03  0.41800000000E+01 0. -1.
         -5    1    3    3    0  502  0.14129958265E+03 -0.80689173837E+02 -0.64012158390E+03  0.66049180873E+03  0.41800000000E+01 0. -1.
        -11    1    4    4    0    0 -0.16850813486E+03  0.61424964407E+02 -0.28735302555E+03  0.33873260702E+03  0.00000000000E+00 0.  1.
         11    1    4    4    0    0 -0.35021101307E+02 -0.11972157696E+02 -0.14792313802E+02  0.39857529330E+02  0.00000000000E+00 0. -1.
</event>
<event>
 8    1  0.7262913E-009  0.1049267E+03  0.7561462E-02  0.1270264E+00
          1   -1    0    0  501    0  0.00000000000E+00  0.00000000000E+00  0.46282708829E+03  0.46282708829E+03  0.00000000000E+00 0. -1.
         -1   -1    0    0    0  501 -0.00000000000E+00 -0.00000000000E+00 -0.38540546134E+02  0.38540546134E+02  0.00000000000E+00 0.  1.
         25    2    1    2    0    0  0.56457267178E+02 -0.27662283288E+02  0.14920090478E+03  0.20460184190E+03  0.12509348019E+03 0.  0.
         23    2    1    2    0    0 -0.56457267178E+02  0.27662283288E+02  0.27508563737E+03  0.29676579253E+03  0.91897784481E+02 0.  0.
          5    1    3    3  502    0  0.70911567920E+02 -0.53497352661E+02  0.52238077314E+02  0.10313440904E+03  0.41800000000E+01 0. -1.
         -5    1    3    3    0  502 -0.14454300742E+02  0.25835069373E+02  0.96962827470E+02  0.10146743286E+03  0.41800000000E+01 0. -1.
        -11    1    4    4    0    0 -0.41156989469E+02 -0.16462712950E+02  0.22057371039E+03  0.22498373367E+03  0.00000000000E+00 0. -1.
         11    1    4    4    0    0 -0.15300277709E+02  0.44124996238E+02  0.54511926983E+02  0.71782058861E+02  0.00000000000E+00 0.  1.
</event>
<event>
 8    1  0.7262913E-009  0.1102878E+03  0.7561462E-02  0.1260038E+00
         -2   -1    0    0    0  501 -0.00000000000E+00  0.00000000000E+00  0.11126773314E+02  0.11126773314E+02  0.00000000000E+00 0.  1.
          2   -1    0    0  501    0  0.00000000000E+00 -0.00000000000E+00 -0.13754702215E+04  0.13754702215E+04  0.00000000000E+00 0. -1.
         25    2    1    2    0    0  0.11808990539E+02  0.23957829156E+02 -0.10627295027E+04  0.10703994834E+04  0.12509048044E+03 0.  0.
         23    2    1    2    0    0 -0.11808990539E+02 -0.23957829156E+02 -0.30161394547E+03  0.31619751141E+03  0.91084928957E+02 0.  0.
          5    1    3    3  502    0 -0.13466697061E+02  0.71967250619E+02 -0.63611810470E+03  0.64033143966E+03  0.41800000000E+01 0.  1.
         -5    1    3    3    0  502  0.25275687600E+02 -0.48009421463E+02 -0.42661139800E+03  0.43006804373E+03  0.41800000000E+01 0.  1.
        -11    1    4    4    0    0  0.29235903882E+02 -0.39319379226E+02 -0.12583828429E+03  0.13504082883E+03  0.00000000000E+00 0.  1.
         11    1    4    4    0    0 -0.41044894421E+02  0.15361550071E+02 -0.17577566118E+03  0.18115668258E+03  0.00000000000E+00 0. -1.
</event>
<event>
 8    1  0.7262913E-009  0.1486170E+03  0.7561462E-02  0.1202183E+00
          2   -1    0    0  501    0  0.00000000000E+00  0.00000000000E+00  0.22804426461E+03  0.22804426461E+03  0.00000000000E+00 0. -1.
         -2   -1    0    0    0  501 -0.00000000000E+00 -0.00000000000E+00 -0.12316447470E+03  0.12316447470E+03  0.00000000000E+00 0.  1.
         25    2    1    2    0    0 -0.79955964588E+02 -0.95854007084E+02  0.83803499965E+02  0.19558062559E+03  0.12509119694E+03 0.  0.
         23    2    1    2    0    0  0.79955964588E+02  0.95854007084E+02  0.21076289938E+02  0.15562811372E+03  0.90525978791E+02 0.  0.
          5    1    3    3  502    0  0.10415971267E+02 -0.79158338796E+02  0.61638212977E+02  0.10095185366E+03  0.41800000000E+01 0. -1.
         -5    1    3    3    0  502 -0.90371935855E+02 -0.16695668288E+02  0.22165286989E+02  0.94628771930E+02  0.41800000000E+01 0. -1.
        -11    1    4    4    0    0  0.45984622010E+02  0.63270991733E+02  0.56691970563E+02  0.96601156218E+02  0.00000000000E+00 0. -1.
         11    1    4    4    0    0  0.33971342577E+02  0.32583015351E+02 -0.35615680625E+02  0.59026957505E+02  0.00000000000E+00 0.  1.
</event>
<event>
 8    1  0.7262913E-009  0.1421379E+03  0.7561462E-02  0.1210481E+00
         -1   -1    0    0    0  501 -0.00000000000E+00  0.00000000000E+00  0.48768583270E+02  0.48768583270E+02  0.00000000000E+00 0.  1.
          1   -1    0    0  501    0  0.00000000000E+00 -0.00000000000E+00 -0.51073915492E+03  0.51073915492E+03  0.00000000000E+00 0. -1.
         25    2    1    2    0    0 -0.23182758618E+02 -0.11101780190E+03 -0.27435858188E+03  0.32215281619E+03  0.12508961944E+03 0.  0.
         23    2    1    2    0    0  0.23182758618E+02  0.11101780190E+03 -0.18761198976E+03  0.23735492200E+03  0.90976412642E+02 0.  0.
          5    1    3    3  502    0 -0.65302177945E+02 -0.25515566991E+02 -0.14802209313E+03  0.16383965044E+03  0.41800000000E+01 0. -1.
         -5    1    3    3    0  502  0.42119419327E+02 -0.85502234906E+02 -0.12633648876E+03  0.15831316575E+03  0.41800000000E+01 0. -1.
        -11    1    4    4    0    0  0.32425915439E+02  0.81860002600E+02 -0.61034551075E+02  0.10713410495E+03  0.00000000000E+00 0.  1.
         11    1    4    4    0    0 -0.92431568211E+01  0.29157799297E+02 -0.12657743869E+03  0.13022081705E+03  0.00000000000E+00 0. -1.
</event>
<event>
 8    1  0.7262913E-009  0.1180055E+03  0.7561462E-02  0.1246424E+00
          1   -1    0    0  501    0  0.00000000000E+00  0.00000000000E+00  0.64205510917E+02  0.64205510917E+02  0.00000000000E+00 0. -1.
         -1   -1    0    0    0  501 -0.00000000000E+00 -0.00000000000E+00 -0.32867076764E+03  0.32867076764E+03  0.00000000000E+00 0.  1.
         25    2    1    2    0    0  0.32969202501E+02  0.74713350543E+02 -0.21438075052E+03  0.26129626400E+03  0.12509028069E+03 0.  0.
         23    2    1    2    0    0 -0.32969202501E+02 -0.74713350543E+02 -0.50084506201E+02  0.13158001456E+03  0.90198610893E+02 0.  0.
          5    1    3    3  502    0  0.79466077873E+02  0.31379698417E+02 -0.11702801141E+03  0.14495713456E+03  0.41800000000E+01 0. -1.
         -5    1    3    3    0  502 -0.46496875372E+02  0.43333652126E+02 -0.97352739116E+02  0.11633912944E+03  0.41800000000E+01 0. -1.
        -11    1    4    4    0    0  0.40600324985E+01 -0.21903191532E+02 -0.62097460594E+02  0.65972178040E+02  0.00000000000E+00 0.  1.
         11    1    4    4    0    0 -0.37029234999E+02 -0.52810159011E+02  0.12012954393E+02  0.65607836518E+02  0.00000000000E+00 0. -1.
</event>
<event>
 8    1  0.7262913E-009  0.1410048E+03  0.7561462E-02  0.1211983E+00
         -3   -1    0    0    0  501 -0.00000000000E+00  0.00000000000E+00  0.32024205199E+03  0.32024205199E+03  0.00000000000E+00 0.  1.
          3   -1    0    0  501    0  0.00000000000E+00 -0.00000000000E+00 -0.11089116114E+03  0.11089116114E+03  0.00000000000E+00 0. -1.
         25    2    1    2    0    0  0.11023881126E+02  0.10160045217E+03 -0.22041993837E+02  0.16302821110E+03  0.12509264681E+03 0.  0.
         23    2    1    2    0    0 -0.11023881126E+02 -0.10160045217E+03  0.23139288469E+03  0.26810500202E+03  0.88845074087E+02 0.  0.
          5    1    3    3  502    0 -0.35634723188E+02 -0.79630840443E+01 -0.23928134941E+02  0.43855127932E+02  0.41800000000E+01 0. -1.
         -5    1    3    3    0  502  0.46658604314E+02  0.10956353621E+03  0.18861411038E+01  0.11917308317E+03  0.41800000000E+01 0. -1.
        -11    1    4    4    0    0 -0.37695820873E+01  0.11840839602E+02  0.26960371760E+01  0.12715496375E+02  0.00000000000E+00 0. -1.
         11    1    4    4    0    0 -0.72542990386E+01 -0.11344129177E+03  0.22869684751E+03  0.25538950565E+03  0.00000000000E+00 0.  1.
</event>
<event>
 8    1  0.7262913E-009  0.8474624E+02  0.7561462E-02  0.1316097E+00
         -2   -1    0    0    0  501 -0.00000000000E+00  0.00000000000E+00  0.12108128294E+03  0.12108128294E+03  0.00000000000E+00 0.  1.
          2   -1    0    0  501    0  0.00000000000E+00 -0.00000000000E+00 -0.14560144758E+03  0.14560144758E+03  0.00000000000E+00 0. -1.
         25    2    1    2    0    0 -0.28597768819E+02 -0.60275150532E+02  0.35683537575E+02  0.14619358805E+03  0.12509326193E+03 0.  0.
         23    2    1    2    0    0  0.28597768819E+02  0.60275150532E+02 -0.60203702208E+02  0.12048914247E+03  0.80263450837E+02 0.  0.
          5    1    3    3  502    0 -0.35236763841E+00 -0.13576882904E+02  0.76567187263E+02  0.77874658765E+02  0.41800000000E+01 0. -1.
         -5    1    3    3    0  502 -0.28245401181E+02 -0.46698267629E+02 -0.40883649688E+02  0.68318929289E+02  0.41800000000E+01 0. -1.
        -11    1    4    4    0    0 -0.21717420746E+02  0.41506502318E+02 -0.44319085771E+02  0.64487343426E+02  0.00000000000E+00 0. -1.
         11    1    4    4    0    0  0.50315189565E+02  0.18768648215E+02 -0.15884616437E+02  0.56001799043E+02  0.00000000000E+00 0.  1.
</event>
<event>
 8    1  0.7262913E-009  0.1039396E+03  0.7561462E-02  0.1272223E+00
         -2   -1    0    0    0  501 -0.00000000000E+00  0.00000000000E+00  0.17469096792E+03  0.17469096792E+03  0.00000000000E+00 0.  1.
          2   -1    0    0  501    0  0.00000000000E+00 -0.00000000000E+00 -0.10877267374E+03  0.10877267374E+03  0.00000000000E+00 0. -1.
         25    2    1    2    0    0  0.11051737804E+02  0.52977218096E+02 -0.30531164124E+02  0.13965978502E+03  0.12507588506E+03 0.  0.
         23    2    1    2    0    0 -0.11051737804E+02 -0.52977218096E+02  0.96449458298E+02  0.14380385663E+03  0.91914768295E+02 0.  0.
          5    1    3    3  502    0 -0.40799757340E+02  0.38193794592E+01 -0.50677818943E+02  0.65306367157E+02  0.41800000000E+01 0. -1.
         -5    1    3    3    0  502  0.51851495144E+02  0.49157838637E+02  0.20146654820E+02  0.74353417867E+02  0.41800000000E+01 0. -1.
        -11    1    4    4    0    0 -0.83680818736E+01  0.20213243046E+02 -0.10007933290E+01  0.21899807670E+02  0.00000000000E+00 0. -1.
         11    1    4    4    0    0 -0.26836559306E+01 -0.73190461143E+02  0.97450251627E+02  0.12190404896E+03  0.00000000000E+00 0.  1.
</event>
<event>
 8    1  0.7262913E-009  0.1375117E+03  0.7561462E-02  0.1216717E+00
          2   -1    0    0  501    0  0.00000000000E+00  0.00000000000E+00  0.25512342789E+03  0.25512342789E+03  0.00000000000E+00 0. -1.
         -2   -1    0    0    0  501 -0.00000000000E+00 -0.00000000000E+00 -0.11218034220E+03  0.11218034220E+03  0.00000000000E+00 0.  1.
         25    2    1    2    0    0  0.92486087310E+02  0.39094425891E+01 -0.22285466638E+02  0.15720270339E+03  0.12508832017E+03 0.  0.
         23    2    1    2    0    0 -0.92486087310E+02 -0.39094425891E+01  0.16522855233E+03  0.21010106670E+03  0.90956163259E+02 0.  0.
          5    1    3    3  502    0 -0.11953637794E+02 -0.34081776743E+02  0.15807734270E+02  0.39646107315E+02  0.41800000000E+01 0.  1.
         -5    1    3    3    0  502  0.10443972510E+03  0.37991219332E+02 -0.38093200908E+02  0.11755659608E+03  0.41800000000E+01 0.  1.
        -11    1    4    4    0    0 -0.84783736031E+02  0.32077813046E+02  0.13429059400E+03  0.16202231828E+03  0.00000000000E+00 0.  1.
         11    1    4    4    0    0 -0.77023512786E+01 -0.35987255635E+02  0.30937958330E+02  0.48078748413E+02  0.00000000000E+00 0. -1.
</event>
<event>
 8    1  0.7262913E-009  0.1287812E+03  0.7561462E-02  0.1229275E+00
          4   -1    0    0  501    0  0.00000000000E+00  0.00000000000E+00  0.26352428016E+02  0.26352428016E+02  0.00000000000E+00 0.  1.
         -4   -1    0    0    0  501 -0.00000000000E+00 -0.00000000000E+00 -0.63436459301E+03  0.63436459301E+03  0.00000000000E+00 0. -1.
         25    2    1    2    0    0 -0.48026258973E+02 -0.49741750016E+02 -0.33557825533E+03  0.36475128938E+03  0.12509985775E+03 0.  0.
         23    2    1    2    0    0  0.48026258973E+02  0.49741750016E+02 -0.27243390966E+03  0.29596573164E+03  0.92707690766E+02 0.  0.
          5    1    3    3  502    0 -0.87795228227E+02 -0.14670522202E+02 -0.19312410990E+03  0.21269137393E+03  0.41800000000E+01 0. -1.
         -5    1    3    3    0  502  0.39768969254E+02 -0.35071227815E+02 -0.14245414543E+03  0.15205991545E+03  0.41800000000E+01 0. -1.
        -11    1    4    4    0    0  0.21276468177E+02 -0.26778575653E+02 -0.92301332252E+02  0.98434324032E+02  0.00000000000E+00 0.  1.
         11    1    4    4    0    0  0.26749790796E+02  0.76520325669E+02 -0.18013257741E+03  0.19753140761E+03  0.00000000000E+00 0. -1.
</event>
<event>
 8    1  0.7262913E-009  0.1304990E+03  0.7561462E-02  0.1226717E+00
          1   -1    0    0  501    0  0.00000000000E+00  0.00000000000E+00  0.22520904146E+02  0.22520904146E+02  0.00000000000E+00 0. -1.
         -1   -1    0    0    0  501 -0.00000000000E+00 -0.00000000000E+00 -0.99954743750E+03  0.99954743750E+03  0.00000000000E+00 0.  1.
         25    2    1    2    0    0  0.75694572329E+02  0.15849574774E+02 -0.75815593702E+03  0.77228702084E+03  0.12508373365E+03 0.  0.
         23    2    1    2    0    0 -0.75694572329E+02 -0.15849574774E+02 -0.21887059633E+03  0.24978132080E+03  0.92225229636E+02 0.  0.
          5    1    3    3  502    0  0.10333770631E+03 -0.93273080139E+01 -0.44907269616E+03  0.46092237856E+03  0.41800000000E+01 0. -1.
         -5    1    3    3    0  502 -0.27643133985E+02  0.25176882788E+02 -0.30908324087E+03  0.31136464229E+03  0.41800000000E+01 0. -1.
        -11    1    4    4    0    0 -0.57410661819E+02 -0.52995322248E+02 -0.15651441066E+03  0.17493212688E+03  0.00000000000E+00 0.  1.
         11    1    4    4    0    0 -0.18283910510E+02  0.37145747473E+02 -0.62356185669E+02  0.74849193918E+02  0.00000000000E+00 0. -1.
</event>
<event>
 8    1  0.7262913E-009  0.1787690E+03  0.7561462E-02  0.1169000E+00
          2   -1    0    0  501    0  0.00000000000E+00  0.00000000000E+00  0.45511572260E+03  0.45511572260E+03  0.00000000000E+00 0. -1.
         -2   -1    0    0    0  501 -0.00000000000E+00 -0.00000000000E+00 -0.89259321270E+02  0.89259321270E+02  0.00000000000E+00 0.  1.
         25    2    1    2    0    0 -0.14849545090E+03  0.74622713801E+02  0.15794211878E+03  0.26117844051E+03  0.12509602931E+03 0.  0.
         23    2    1    2    0    0  0.14849545090E+03 -0.74622713801E+02  0.20791428255E+03  0.28319660336E+03  0.96708422156E+02 0.  0.
          5    1    3    3  502    0 -0.69031636954E+02  0.85943305101E+02  0.14102053788E+03  0.17904156807E+03  0.41800000000E+01 0. -1.
         -5    1    3    3    0  502 -0.79463813942E+02 -0.11320591300E+02  0.16921580897E+02  0.82136872436E+02  0.41800000000E+01 0. -1.
        -11    1    4    4    0    0  0.12685677297E+03 -0.69358815876E+02  0.10703438928E+03  0.17988787251E+03  0.00000000000E+00 0.  1.
         11    1    4    4    0    0  0.21638677924E+02 -0.52638979246E+01  0.10087989327E+03  0.10330873085E+03  0.00000000000E+00 0. -1.
</event>
<event>
 8    1  0.7262913E-009  0.7206922E+02  0.7561462E-02  0.1353195E+00
          1   -1    0    0  501    0  0.00000000000E+00  0.00000000000E+00  0.27195251488E+02  0.27195251488E+02  0.00000000000E+00 0. -1.
         -1   -1    0    0    0  501 -0.00000000000E+00 -0.00000000000E+00 -0.44164219950E+03  0.44164219950E+03  0.00000000000E+00 0.  1.
         25    2    1    2    0    0 -0.68370406596E+01  0.34693715848E+01 -0.19087952073E+03  0.22834394765E+03  0.12508870983E+03 0.  0.
         23    2    1    2    0    0  0.68370406596E+01 -0.34693715848E+01 -0.22356742727E+03  0.24049350334E+03  0.88294671105E+02 0.  0.
          5    1    3    3  502    0 -0.14286789642E+02  0.28819242742E+02 -0.19801825958E+03  0.20065733138E+03  0.41800000000E+01 0.  1.
         -5    1    3    3    0  502  0.74497489826E+01 -0.25349871158E+02  0.71387388484E+01  0.27686616261E+02  0.41800000000E+01 0.  1.
        -11    1    4    4    0    0 -0.38717400460E+02  0.34651338734E+01 -0.13722722070E+03  0.14262662568E+03  0.00000000000E+00 0.  1.
         11    1    4    4    0    0  0.45554441120E+02 -0.69345054582E+01 -0.86340206572E+02  0.97866877658E+02  0.00000000000E+00 0. -1.
</event>
<event>
 8    1  0.7262913E-009  0.1825531E+03  0.7561462E-02  0.1165355E+00
         -1   -1    0    0    0  501 -0.00000000000E+00  0.00000000000E+00  0.52860939771E+02  0.52860939771E+02  0.00000000000E+00 0.  1.
          1   -1    0    0  501    0  0.00000000000E+00 -0.00000000000E+00 -0.80106987765E+03  0.80106987765E+03  0.00000000000E+00 0. -1.
         25    2    1    2    0    0 -0.14441696725E+03 -0.42816464330E+02 -0.20687137412E+03  0.28483853168E+03  0.12509082160E+03 0.  0.
         23    2    1    2    0    0  0.14441696725E+03  0.42816464330E+02 -0.54133756376E+03  0.56909228575E+03  0.90167409351E+02 0.  0.
          5    1    3    3  502    0 -0.42790857244E+02  0.43743173371E+02 -0.78172370596E+02  0.99362541256E+02  0.41800000000E+01 0.  1.
         -5    1    3    3    0  502 -0.10162611001E+03 -0.86559637702E+02 -0.12869900353E+03  0.18547599042E+03  0.41800000000E+01 0.  1.
        -11    1    4    4    0    0  0.10215319805E+03 -0.99159265210E+01 -0.25480716808E+03  0.27470037200E+03  0.00000000000E+00 0.  1.
         11    1    4    4    0    0  0.42263769206E+02  0.52732390851E+02 -0.28653039568E+03  0.29439191375E+03  0.00000000000E+00 0. -1.
</event>
<event>
 8    1  0.7262913E-009  0.1114494E+03  0.7561462E-02  0.1257909E+00
          1   -1    0    0  501    0  0.00000000000E+00  0.00000000000E+00  0.14844875917E+03  0.14844875917E+03  0.00000000000E+00 0. -1.
         -1   -1    0    0    0  501 -0.00000000000E+00 -0.00000000000E+00 -0.91316286796E+02  0.91316286796E+02  0.00000000000E+00 0.  1.
         25    2    1    2    0    0 -0.40728777018E+02  0.36821622576E+01  0.50059340838E+02  0.14080943170E+03  0.12509583068E+03 0.  0.
         23    2    1    2    0    0  0.40728777018E+02 -0.36821622576E+01  0.70731315333E+01  0.98955614262E+02  0.89832025515E+02 0.  0.
          5    1    3    3  502    0 -0.46068010070E+02  0.58415566989E+02  0.16725224375E+02  0.76366521126E+02  0.41800000000E+01 0. -1.
         -5    1    3    3    0  502  0.53392330524E+01 -0.54733404731E+02  0.33334116463E+02  0.64442910576E+02  0.41800000000E+01 0. -1.
        -11    1    4    4    0    0 -0.25953131807E+02  0.34109931274E+01 -0.12628330248E+02  0.29063286971E+02  0.00000000000E+00 0.  1.
         11    1    4    4    0    0  0.66681908825E+02 -0.70931553850E+01  0.19701461781E+02  0.69892327291E+02  0.00000000000E+00 0. -1.
</event>
<event>
 8    1  0.7262913E-009  0.1434667E+03  0.7561462E-02  0.1208739E+00
          2   -1    0    0  501    0  0.00000000000E+00  0.00000000000E+00  0.72776720923E+02  0.72776720923E+02  0.00000000000E+00 0. -1.
         -2   -1    0    0    0  501 -0.00000000000E+00 -0.00000000000E+00 -0.60359271081E+03  0.60359271081E+03  0.00000000000E+00 0.  1.
         25    2    1    2    0    0  0.37510303333E+02 -0.98645286509E+02 -0.50814514164E+03  0.53385110637E+03  0.12509038090E+03 0.  0.
         23    2    1    2    0    0 -0.37510303333E+02  0.98645286509E+02 -0.22670848243E+02  0.14251832536E+03  0.93056919661E+02 0.  0.
          5    1    3    3  502    0 -0.22572274208E+02 -0.79941864276E+02 -0.16302194577E+03  0.18301321381E+03  0.41800000000E+01 0.  1.
         -5    1    3    3    0  502  0.60082577541E+02 -0.18703422233E+02 -0.34512319587E+03  0.35083789256E+03  0.41800000000E+01 0.  1.
        -11    1    4    4    0    0 -0.42919943711E+02  0.11538219206E+03 -0.19338307708E+02  0.12461597794E+03  0.00000000000E+00 0.  1.
         11    1    4    4    0    0  0.54096403787E+01 -0.16736905556E+02 -0.33325405348E+01  0.17902347416E+02  0.00000000000E+00 0. -1.
</event>
<event>
 8    1  0.7262913E-009  0.1599323E+03  0.7561462E-02  0.1188773E+00
          1   -1    0    0  501    0  0.00000000000E+00  0.00000000000E+00  0.37819660440E+03  0.37819660440E+03  0.00000000000E+00 0. -1.
         -1   -1    0    0    0  501 -0.00000000000E+00 -0.00000000000E+00 -0.74362755406E+02  0.74362755406E+02  0.00000000000E+00 0.  1.
         25    2    1    2    0    0 -0.82457528225E+02  0.97268191398E+02  0.14133022891E+03  0.22777885121E+03  0.12509447004E+03 0.  0.
         23    2    1    2    0    0  0.82457528225E+02 -0.97268191398E+02  0.16250362008E+03  0.22478050860E+03  0.88648211981E+02 0.  0.
          5    1    3    3  502    0 -0.90917155397E+02  0.11391001051E+03  0.14777021635E+03  0.20759318120E+03  0.41800000000E+01 0. -1.
         -5    1    3    3    0  502  0.84596271721E+01 -0.16641819116E+02 -0.64399874391E+01  0.20185670007E+02  0.41800000000E+01 0. -1.
        -11    1    4    4    0    0  0.69147279659E+02 -0.13931835500E+02  0.66265984212E+02  0.96781315285E+02  0.00000000000E+00 0.  1.
         11    1    4    4    0    0  0.13310248566E+02 -0.83336355898E+02  0.96237635869E+02  0.12799919331E+03  0.00000000000E+00 0. -1.
</event>
<event>
 8    1  0.7262913E-009  0.1045253E+03  0.7561462E-02  0.1271058E+00
         -2   -1    0    0    0  501 -0.00000000000E+00  0.00000000000E+00  0.81966850376E+02  0.81966850376E+02  0.00000000000E+00 0.  1.
          2   -1    0    0  501    0  0.00000000000E+00 -0.00000000000E+00 -0.29623899825E+03  0.29623899825E+03  0.00000000000E+00 0. -1.
         25    2    1    2    0    0 -0.49469246848E+02  0.43292152646E+02 -0.67551120795E+01  0.14147213459E+03  0.12508923400E+03 0.  0.
         23    2    1    2    0    0  0.49469246848E+02 -0.43292152646E+02 -0.20751703580E+03  0.23673371403E+03  0.93048988978E+02 0.  0.
          5    1    3    3  502    0 -0.34567360476E+02 -0.18802476415E+02 -0.50350238700E+02  0.64039475847E+02  0.41800000000E+01 0. -1.
         -5    1    3    3    0  502 -0.14901886372E+02  0.62094629061E+02  0.43595126620E+02  0.77432658747E+02  0.41800000000E+01 0. -1.
        -11    1    4    4    0    0  0.72702487692E+02 -0.29452947920E+02 -0.18700913645E+03  0.20279434157E+03  0.00000000000E+00 0. -1.
         11    1    4    4    0    0 -0.23233240843E+02 -0.13839204726E+02 -0.20507899348E+02  0.33939372463E+02  0.00000000000E+00 0.  1.
</event>
<event>
 8    1  0.7262913E-009  0.1414058E+03  0.7561462E-02  0.1211450E+00
          2   -1    0    0  501    0  0.00000000000E+00  0.00000000000E+00  0.26257296041E+03  0.26257296041E+03  0.00000000000E+00 0. -1.
         -2   -1    0    0    0  501 -0.00000000000E+00 -0.00000000000E+00 -0.12157611676E+03  0.12157611676E+03  0.00000000000E+00 0.  1.
         25    2    1    2    0    0  0.12665617800E+03 -0.10613667669E+02  0.76088661348E+01  0.17849166067E+03  0.12508773208E+03 0.  0.
         23    2    1    2    0    0 -0.12665617800E+03  0.10613667669E+02  0.13338797752E+03  0.20565741651E+03  0.91368391988E+02 0.  0.
          5    1    3    3  502    0  0.12530325628E+03 -0.30707912593E+02  0.44265871873E+02  0.13645813184E+03  0.41800000000E+01 0.  1.
         -5    1    3    3    0  502  0.13529217151E+01  0.20094244924E+02 -0.36657005738E+02  0.42033528831E+02  0.41800000000E+01 0.  1.
        -11    1    4    4    0    0 -0.12063632546E+03 -0.37200519988E+00  0.66790648660E+02  0.13789217584E+03  0.00000000000E+00 0.  1.
         11    1    4    4    0    0 -0.60198525357E+01  0.10985672869E+02  0.66597328856E+02  0.67765240674E+02  0.00000000000E+00 0. -1.
</event>
<event>
 8    1  0.7262913E-009  0.1248428E+03  0.7561462E-02  0.1235315E+00
         -3   -1    0    0    0  501 -0.00000000000E+00  0.00000000000E+00  0.45356252810E+02  0.45356252810E+02  0.00000000000E+00 0.  1.
          3   -1    0    0  501    0  0.00000000000E+00 -0.00000000000E+00 -0.46634128542E+03  0.46634128542E+03  0.00000000000E+00 0. -1.
         25    2    1    2    0    0  0.24869704227E+02  0.78020466709E+02 -0.13930723893E+03  0.20435095321E+03  0.12508840812E+03 0.  0.
         23    2    1    2    0    0 -0.24869704227E+02 -0.78020466709E+02 -0.28167779368E+03  0.30734658502E+03  0.91727032319E+02 0.  0.
          5    1    3    3  502    0 -0.46549618869E+02  0.46041167430E+02 -0.36476684014E+02  0.75064485556E+02  0.41800000000E+01 0. -1.
         -5    1    3    3    0  502  0.71419323096E+02  0.31979299279E+02 -0.10283055491E+03  0.12928646765E+03  0.41800000000E+01 0. -1.
        -11    1    4    4    0    0 -0.46796376270E+02 -0.38829389577E+02 -0.23432134612E+03  0.24208286923E+03  0.00000000000E+00 0. -1.
         11    1    4    4    0    0  0.21926672043E+02 -0.39191077132E+02 -0.47356447566E+02  0.65263715798E+02  0.00000000000E+00 0.  1.
</event>
<event>
 8    1  0.7262913E-009  0.1586977E+03  0.7561462E-02  0.1190175E+00
          3   -1    0    0  501    0  0.00000000000E+00  0.00000000000E+00  0.20988957002E+03  0.20988957002E+03  0.00000000000E+00 0. -1.
         -3   -1    0    0    0  501 -0.00000000000E+00 -0.00000000000E+00 -0.19064738943E+03  0.19064738943E+03  0.00000000000E+00 0.  1.
         25    2    1    2    0    0  0.11649756231E+03 -0.96338219452E+02  0.83355000785E+02  0.21318643273E+03  0.12509062472E+03 0.  0.
         23    2    1    2    0    0 -0.11649756231E+03  0.96338219452E+02 -0.64112820199E+02  0.18735052673E+03  0.90205496506E+02 0.  0.
          5    1    3    3  502    0  0.10837593887E+03 -0.59236035477E+02  0.11093131808E+03  0.16606469148E+03  0.41800000000E+01 0. -1.
         -5    1    3    3    0  502  0.81216234332E+01 -0.37102183975E+02 -0.27576317293E+02  0.47121741249E+02  0.41800000000E+01 0. -1.
        -11    1    4    4    0    0 -0.60661122195E+02  0.26514351788E+02  0.15100018266E+02  0.67902821358E+02  0.00000000000E+00 0. -1.
         11    1    4    4    0    0 -0.55836440111E+02  0.69823867664E+02 -0.79212838465E+02  0.11944770537E+03  0.00000000000E+00 0.  1.
</event>
<event>
 8    1  0.7262913E-009  0.1537865E+03  0.7561462E-02  0.1195896E+00
         -2   -1    0    0    0  501 -0.00000000000E+00  0.00000000000E+00  0.65680876802E+02  0.65680876802E+02  0.00000000000E+00 0.  1.
          2   -1    0    0  501    0  0.00000000000E+00 -0.00000000000E+00 -0.48715939944E+03  0.48715939944E+03  0.00000000000E+00 0. -1.
         25    2    1    2    0    0 -0.13465502720E+03  0.19864671907E+02 -0.16135400897E+03  0.24537730652E+03  0.12509326443E+03 0.  0.
         23    2    1    2    0    0  0.13465502720E+03 -0.19864671907E+02 -0.26012451367E+03  0.30746296972E+03  0.91335281219E+02 0.  0.
          5    1    3    3  502    0 -0.42263179361E+02 -0.30074120172E+02  0.90771744083E+00  0.52047337922E+02  0.41800000000E+01 0.  1.
         -5    1    3    3    0  502 -0.92391847842E+02  0.49938792079E+02 -0.16226172641E+03  0.19332996860E+03  0.41800000000E+01 0.  1.
        -11    1    4    4    0    0  0.89821636564E+02  0.18160031098E+02 -0.94148593190E+02  0.13138367754E+03  0.00000000000E+00 0.  1.
         11    1    4    4    0    0  0.44833390639E+02 -0.38024703005E+02 -0.16597592048E+03  0.17607929218E+03  0.00000000000E+00 0. -1.
</event>
<event>
 8    1  0.7262913E-009  0.2339364E+03  0.7561462E-02  0.1123899E+00
          2   -1    0    0  501    0  0.00000000000E+00  0.00000000000E+00  0.61153073774E+03  0.61153073774E+03  0.00000000000E+00 0. -1.
         -2   -1    0    0    0  501 -0.00000000000E+00 -0.00000000000E+00 -0.10898432623E+03  0.10898432623E+03  0.00000000000E+00 0.  1.
         25    2    1    2    0    0  0.15052185438E+03 -0.17196501594E+03  0.18630827080E+03  0.32029323274E+03  0.12509271688E+03 0.  0.
         23    2    1    2    0    0 -0.15052185438E+03  0.17196501594E+03  0.31623814071E+03  0.40022183123E+03  0.89118781388E+02 0.  0.
          5    1    3    3  502    0  0.10830254828E+02 -0.39153834545E+02  0.10199690785E+03  0.10986882538E+03  0.41800000000E+01 0.  1.
         -5    1    3    3    0  502  0.13969159955E+03 -0.13281118140E+03  0.84311362941E+02  0.21042440735E+03  0.41800000000E+01 0.  1.
        -11    1    4    4    0    0 -0.80693329247E+02  0.12928240696E+03  0.25844739872E+03  0.30003401814E+03  0.00000000000E+00 0. -1.
         11    1    4    4    0    0 -0.69828525133E+02  0.42682608977E+02  0.57790741991E+02  0.10018781309E+03  0.00000000000E+00 0.  1.
</event>
<event>
 8    1  0.7262913E-009  0.1728965E+03  0.7561462E-02  0.1174861E+00
          2   -1    0    0  501    0  0.00000000000E+00  0.00000000000E+00  0.21704001079E+03  0.21704001079E+03  0.00000000000E+00 0. -1.
         -2   -1    0    0    0  501 -0.00000000000E+00 -0.00000000000E+00 -0.19363582857E+03  0.19363582857E+03  0.00000000000E+00 0.  1.
         25    2    1    2    0    0 -0.15281905401E+03  0.14576872867E+02  0.93754250798E+02  0.21909541030E+03  0.12508713275E+03 0.  0.
         23    2    1    2    0    0  0.15281905401E+03 -0.14576872867E+02 -0.70350068575E+02  0.19158042906E+03  0.90486353438E+02 0.  0.
          5    1    3    3  502    0 -0.71636042362E+02 -0.37205953623E+02  0.92316368795E+02  0.12270203706E+03  0.41800000000E+01 0. -1.
         -5    1    3    3    0  502 -0.81183011651E+02  0.51782826490E+02  0.14378820027E+01  0.96393373241E+02  0.41800000000E+01 0. -1.
        -11    1    4    4    0    0 -0.24980469417E+01  0.10904463764E+02 -0.25617668309E+02  0.27953756421E+02  0.00000000000E+00 0.  1.
         11    1    4    4    0    0  0.15531710096E+03 -0.25481336631E+02 -0.44732400267E+02  0.16362667264E+03  0.00000000000E+00 0. -1.
</event>
<event>
 8    1  0.7262913E-009  0.1136319E+03  0.7561462E-02  0.1253988E+00
          1   -1    0    0  501    0  0.00000000000E+00  0.00000000000E+00  0.71210182062E+02  0.71210182062E+02  0.00000000000E+00 0. -1.
         -1   -1    0    0    0  501 -0.00000000000E+00 -0.00000000000E+00 -0.24946934032E+03  0.24946934032E+03  0.00000000000E+00 0.  1.
         25    2    1    2    0    0 -0.46534561642E+02 -0.24122965501E+02 -0.15966582616E+03  0.20949274400E+03  0.12508657342E+03 0.  0.
         23    2    1    2    0    0  0.46534561642E+02  0.24122965501E+02 -0.18593332097E+02  0.11118677839E+03  0.96277748200E+02 0.  0.
          5    1    3    3  502    0  0.17241625764E+02  0.39393844755E+02 -0.34620505880E+02  0.55364252825E+02  0.41800000000E+01 0. -1.
         -5    1    3    3    0  502 -0.63776187406E+02 -0.63516810256E+02 -0.12504532029E+03  0.15412849117E+03  0.41800000000E+01 0. -1.
        -11    1    4    4    0    0 -0.22123930962E+02  0.67355165497E+01  0.19958855982E+02  0.30548182213E+02  0.00000000000E+00 0.  1.
         11    1    4    4    0    0  0.68658492604E+02  0.17387448951E+02 -0.38552188079E+02  0.80638596177E+02  0.00000000000E+00 0. -1.
</event>
<event>
 8    1  0.7262913E-009  0.1168421E+03  0.7561462E-02  0.1248399E+00
         -1   -1    0    0    0  501 -0.00000000000E+00  0.00000000000E+00  0.10843206906E+03  0.10843206906E+03  0.00000000000E+00 0.  1.
          1   -1    0    0  501    0  0.00000000000E+00 -0.00000000000E+00 -0.16752388596E+03  0.16752388596E+03  0.00000000000E+00 0. -1.
         25    2    1    2    0    0 -0.43870158486E+02  0.44061924247E+02 -0.79994079330E+02  0.16097154720E+03  0.12508693899E+03 0.  0.
         23    2    1    2    0    0  0.43870158486E+02 -0.44061924247E+02  0.20902262429E+02  0.11498440782E+03  0.94437627524E+02 0.  0.
          5    1    3    3  502    0 -0.70262657380E+02 -0.14622722233E+02 -0.59477259172E+02  0.93304243131E+02  0.41800000000E+01 0. -1.
         -5    1    3    3    0  502  0.26392498895E+02  0.58684646480E+02 -0.20516820158E+02  0.67667304068E+02  0.41800000000E+01 0. -1.
        -11    1    4    4    0    0  0.13010355131E+02  0.21341249629E+02 -0.19900964886E+02  0.31949439427E+02  0.00000000000E+00 0. -1.
         11    1    4    4    0    0  0.30859803355E+02 -0.65403173876E+02  0.40803227315E+02  0.83034968389E+02  0.00000000000E+00 0.  1.
</event>
<event>
 8    1  0.7262913E-009  0.1960971E+03  0.7561462E-02  0.1153074E+00
         -2   -1    0    0    0  501 -0.00000000000E+00  0.00000000000E+00  0.90009113509E+02  0.90009113509E+02  0.00000000000E+00 0.  1.
          2   -1    0    0  501    0  0.00000000000E+00 -0.00000000000E+00 -0.69817290534E+03  0.69817290534E+03  0.00000000000E+00 0. -1.
         25    2    1    2    0    0  0.15103725099E+03 -0.10960912814E+03 -0.51864419132E+03  0.56521331346E+03  0.12509148798E+03 0.  0.
         23    2    1    2    0    0 -0.15103725099E+03  0.10960912814E+03 -0.89519600506E+02  0.22296870538E+03  0.82914851192E+02 0.  0.
          5    1    3    3  502    0  0.36740270205E+02 -0.65230007515E+02 -0.34214638862E+03  0.35026622015E+03  0.41800000000E+01 0.  1.
         -5    1    3    3    0  502  0.11429698078E+03 -0.44379120622E+02 -0.17649780270E+03  0.21494709331E+03  0.41800000000E+01 0.  1.
        -11    1    4    4    0    0 -0.10266685424E+03  0.10348794825E+03 -0.35174915578E+02  0.14995837115E+03  0.00000000000E+00 0.  1.
         11    1    4    4    0    0 -0.48370396748E+02  0.61211798889E+01 -0.54344684927E+02  0.73010334232E+02  0.00000000000E+00 0. -1.
</event>
<event>
 8    1  0.7262913E-009  0.1003425E+03  0.7561462E-02  0.1279577E+00
          2   -1    0    0  501    0  0.00000000000E+00  0.00000000000E+00  0.32725673267E+02  0.32725673267E+02  0.00000000000E+00 0. -1.
         -2   -1    0    0    0  501 -0.00000000000E+00 -0.00000000000E+00 -0.38134528085E+03  0.38134528085E+03  0.00000000000E+00 0.  1.
         25    2    1    2    0    0 -0.46577617026E+01 -0.73501419032E+01 -0.23575816597E+03  0.26703007660E+03  0.12508968647E+03 0.  0.
         23    2    1    2    0    0  0.46577617026E+01  0.73501419032E+01 -0.11286144161E+03  0.14704087751E+03  0.93848789690E+02 0.  0.
          5    1    3    3  502    0 -0.56691441869E+02 -0.28854788230E+01 -0.56215458487E+02  0.79999348385E+02  0.41800000000E+01 0.  1.
         -5    1    3    3    0  502  0.52033680166E+02 -0.44646630801E+01 -0.17954270748E+03  0.18703072822E+03  0.41800000000E+01 0.  1.
        -11    1    4    4    0    0 -0.42530416238E+02 -0.43653869545E+01 -0.71015873272E+02  0.82892383035E+02  0.00000000000E+00 0.  1.
         11    1    4    4    0    0  0.47188177941E+02  0.11715528858E+02 -0.41845568342E+02  0.64148494477E+02  0.00000000000E+00 0. -1.
</event>
<event>
 8    1  0.7262913E-009  0.9913890E+02  0.7561462E-02  0.1282117E+00
         -4   -1    0    0    0  501 -0.00000000000E+00  0.00000000000E+00  0.44925637330E+02  0.44925637330E+02  0.00000000000E+00 0.  1.
          4   -1    0    0  501    0  0.00000000000E+00 -0.00000000000E+00 -0.28353133925E+03  0.28353133925E+03  0.00000000000E+00 0. -1.
         25    2    1    2    0    0 -0.24970842386E+02  0.12349115216E+02 -0.15906836852E+03  0.20426968029E+03  0.12508921938E+03 0.  0.
         23    2    1    2    0    0  0.24970842386E+02 -0.12349115216E+02 -0.79537333398E+02  0.12418729629E+03  0.91215423802E+02 0.  0.
          5    1    3    3  502    0  0.48291724201E+02  0.22067266215E+02 -0.54997470696E+02  0.76558794710E+02  0.41800000000E+01 0.  1.
         -5    1    3    3    0  502 -0.73262566587E+02 -0.97181509999E+01 -0.10407089782E+03  0.12771088558E+03  0.41800000000E+01 0.  1.
        -11    1    4    4    0    0 -0.22593511541E+01 -0.35307258982E+02  0.17672578612E+01  0.35423585431E+02  0.00000000000E+00 0.  1.
         11    1    4    4    0    0  0.27230193540E+02  0.22958143766E+02 -0.81304591259E+02  0.88763710857E+02  0.00000000000E+00 0. -1.
</event>
<event>
 8    1  0.7262913E-009  0.1330743E+03  0.7561462E-02  0.1222964E+00
          2   -1    0    0  501    0  0.00000000000E+00  0.00000000000E+00  0.65477343516E+03  0.65477343516E+03  0.00000000000E+00 0. -1.
         -2   -1    0    0    0  501 -0.00000000000E+00 -0.00000000000E+00 -0.56364096966E+02  0.56364096966E+02  0.00000000000E+00 0.  1.
         25    2    1    2    0    0 -0.82311722357E+02 -0.29732732270E+02  0.70507220320E+02  0.16816122797E+03  0.12509066899E+03 0.  0.
         23    2    1    2    0    0  0.82311722357E+02  0.29732732270E+02  0.52790211788E+03  0.54297630416E+03  0.92105188872E+02 0.  0.
          5    1    3    3  502    0 -0.42657887544E+02 -0.70231726702E+02  0.64565821179E+01  0.82530907289E+02  0.41800000000E+01 0. -1.
         -5    1    3    3    0  502 -0.39653834813E+02  0.40498994432E+02  0.64050638202E+02  0.85630320678E+02  0.41800000000E+01 0. -1.
        -11    1    4    4    0    0  0.32794269603E+02 -0.33395420109E+02  0.19026973738E+03  0.19594206074E+03  0.00000000000E+00 0. -1.
         11    1    4    4    0    0  0.49517452754E+02  0.63128152379E+02  0.33763238050E+03  0.34703424343E+03  0.00000000000E+00 0.  1.
</event>
<event>
 8    1  0.7262913E-009  0.1612422E+03  0.7561462E-02  0.1187301E+00
         -1   -1    0    0    0  501 -0.00000000000E+00  0.00000000000E+00  0.57998745913E+03  0.57998745913E+03  0.00000000000E+00 0.  1.
          1   -1    0    0  501    0  0.00000000000E+00 -0.00000000000E+00 -0.53785803717E+02  0.53785803717E+02  0.00000000000E+00 0. -1.
         25    2    1    2    0    0 -0.10488927226E+03  0.61175073528E+02  0.15658772066E+03  0.23433140402E+03  0.12508934245E+03 0.  0.
         23    2    1    2    0    0  0.10488927226E+03 -0.61175073528E+02  0.36961393476E+03  0.39944185883E+03  0.90527281844E+02 0.  0.
          5    1    3    3  502    0 -0.24091616540E+02  0.86000998096E+02  0.73647863981E+02  0.11583634114E+03  0.41800000000E+01 0.  1.
         -5    1    3    3    0  502 -0.80797655723E+02 -0.24825924567E+02  0.82939856677E+02  0.11849506288E+03  0.41800000000E+01 0.  1.
        -11    1    4    4    0    0  0.89681537031E+02 -0.82765969178E+02  0.26844002222E+03  0.29487799047E+03  0.00000000000E+00 0.  1.
         11    1    4    4    0    0  0.15207735231E+02  0.21590895650E+02  0.10117391254E+03  0.10456386835E+03  0.00000000000E+00 0. -1.
</event>
<event>
 8    1  0.7262913E-009  0.1239645E+03  0.7561462E-02  0.1236696E+00
          1   -1    0    0  501    0  0.00000000000E+00  0.00000000000E+00  0.32845970064E+03  0.32845970064E+03  0.00000000000E+00 0.  1.
         -1   -1    0    0    0  501 -0.00000000000E+00 -0.00000000000E+00 -0.87650410516E+02  0.87650410516E+02  0.00000000000E+00 0. -1.
         25    2    1    2    0    0  0.11236399761E+03  0.31575045889E+02  0.19893181111E+03  0.26238007641E+03  0.12508711981E+03 0.  0.
         23    2    1    2    0    0 -0.11236399761E+03 -0.31575045889E+02  0.41877479013E+02  0.15373003475E+03  0.90865553723E+02 0.  0.
          5    1    3    3  502    0  0.95217266149E+02  0.44706419799E+02  0.58898803390E+02  0.12062973591E+03  0.41800000000E+01 0. -1.
         -5    1    3    3    0  502  0.17146731463E+02 -0.13131373910E+02  0.14003300772E+03  0.14175034050E+03  0.41800000000E+01 0. -1.
        -11    1    4    4    0    0 -0.58373260339E+02 -0.52576511812E+00 -0.23959528711E+02  0.63101291331E+02  0.00000000000E+00 0. -1.
         11    1    4    4    0    0 -0.53990737272E+02 -0.31049280771E+02  0.65837007724E+02  0.90628743419E+02  0.00000000000E+00 0.  1.
</event>
<event>
 8    1  0.7262913E-009  0.1100982E+03  0.7561462E-02  0.1260388E+00
         -2   -1    0    0    0  501 -0.00000000000E+00  0.00000000000E+00  0.44091507720E+03  0.44091507720E+03  0.00000000000E+00 0.  1.
          2   -1    0    0  501    0  0.00000000000E+00 -0.00000000000E+00 -0.32315814827E+02  0.32315814827E+02  0.00000000000E+00 0. -1.
         25    2    1    2    0    0 -0.18577369541E+02  0.47397249149E+02  0.24041317857E+03  0.27574897858E+03  0.12508950744E+03 0.  0.
         23    2    1    2    0    0  0.18577369541E+02 -0.47397249149E+02  0.16818608380E+03  0.19748191344E+03  0.90116199812E+02 0.  0.
          5    1    3    3  502    0 -0.25449163580E+01  0.80919875607E+02  0.21695548573E+03  0.23160668828E+03  0.41800000000E+01 0. -1.
         -5    1    3    3    0  502 -0.16032453183E+02 -0.33522626458E+02  0.23457692848E+02  0.44142290306E+02  0.41800000000E+01 0. -1.
        -11    1    4    4    0    0  0.28963612206E+02  0.18929064640E+02  0.75353903998E+02  0.82918099158E+02  0.00000000000E+00 0.  1.
         11    1    4    4    0    0 -0.10386242666E+02 -0.66326313789E+02  0.92832179799E+02  0.11456381429E+03  0.00000000000E+00 0. -1.
</event>
<event>
 8    1  0.7262913E-009  0.9952101E+02  0.7561462E-02  0.1281306E+00
         -2   -1    0    0    0  501 -0.00000000000E+00  0.00000000000E+00  0.97545395767E+02  0.97545395767E+02  0.00000000000E+00 0. -1.
          2   -1    0    0  501    0  0.00000000000E+00 -0.00000000000E+00 -0.30378153770E+03  0.30378153770E+03  0.00000000000E+00 0.  1.
         25    2    1    2    0    0  0.38232487112E+02 -0.17695781661E+02  0.38097284465E+02  0.13737339252E+03  0.12508070246E+03 0.  0.
         23    2    1    2    0    0 -0.38232487112E+02  0.17695781661E+02 -0.24433342640E+03  0.26395354095E+03  0.90541618965E+02 0.  0.
          5    1    3    3  502    0 -0.91294787440E+01 -0.45186792567E+02  0.62085112588E+02  0.77441766572E+02  0.41800000000E+01 0. -1.
         -5    1    3    3    0  502  0.47361965856E+02  0.27491010906E+02 -0.23987828123E+02  0.59931625945E+02  0.41800000000E+01 0. -1.
        -11    1    4    4    0    0  0.26814798212E+01  0.47271219919E+02 -0.14488016751E+03  0.15242054161E+03  0.00000000000E+00 0. -1.
         11    1    4    4    0    0 -0.40913966933E+02 -0.29575438258E+02 -0.99453258887E+02  0.11153299934E+03  0.00000000000E+00 0.  1.
</event>
<event>
 8    1  0.7262913E-009  0.1112428E+03  0.7561462E-02  0.1258286E+00
         -1   -1    0    0    0  501 -0.00000000000E+00  0.00000000000E+00  0.96699094363E+02  0.96699094363E+02  0.00000000000E+00 0.  1.
          1   -1    0    0  501    0  0.00000000000E+00 -0.00000000000E+00 -0.20628943172E+03  0.20628943172E+03  0.00000000000E+00 0. -1.
         25    2    1    2    0    0  0.24541023264E+01 -0.34008013771E+02  0.28860169236E+02  0.13283040534E+03  0.12509372325E+03 0.  0.
         23    2    1    2    0    0 -0.24541023264E+01  0.34008013771E+02 -0.13845050659E+03  0.17015812074E+03  0.92858363432E+02 0.  0.
          5    1    3    3  502    0  0.53974650315E+02 -0.51291236583E+02  0.22847467905E+02  0.77997006459E+02  0.41800000000E+01 0.  1.
         -5    1    3    3    0  502 -0.51520547989E+02  0.17283222812E+02  0.60127013306E+01  0.54833398883E+02  0.41800000000E+01 0.  1.
        -11    1    4    4    0    0 -0.43179436458E+02  0.51316492340E+01 -0.37022214631E+02  0.57109035475E+02  0.00000000000E+00 0.  1.
         11    1    4    4    0    0  0.40725334132E+02  0.28876364537E+02 -0.10142829196E+03  0.11304908527E+03  0.00000000000E+00 0. -1.
</event>
<event>
 8    1  0.7262913E-009  0.3717329E+03  0.7561462E-02  0.1054032E+00
          2   -1    0    0  501    0  0.00000000000E+00  0.00000000000E+00  0.10840220557E+03  0.10840220557E+03  0.00000000000E+00 0. -1.
         -2   -1    0    0    0  501 -0.00000000000E+00 -0.00000000000E+00 -0.14294145297E+04  0.14294145297E+04  0.00000000000E+00 0.  1.
         25    2    1    2    0    0  0.80139561608E+02  0.34971016760E+03 -0.43468489893E+03  0.57733650299E+03  0.12508767192E+03 0.  0.
         23    2    1    2    0    0 -0.80139561608E+02 -0.34971016760E+03 -0.88632742523E+03  0.96048023231E+03  0.90699621221E+02 0.  0.
          5    1    3    3  502    0  0.10748050400E+03  0.27490998473E+03 -0.37741976615E+03  0.47915624876E+03  0.41800000000E+01 0.  1.
         -5    1    3    3    0  502 -0.27340942388E+02  0.74800182875E+02 -0.57265132783E+02  0.98180254234E+02  0.41800000000E+01 0.  1.
        -11    1    4    4    0    0 -0.47000969224E+02 -0.32171906936E+03 -0.80762814568E+03  0.87061786818E+03  0.00000000000E+00 0.  1.
         11    1    4    4    0    0 -0.33138592384E+02 -0.27991098238E+02 -0.78699279550E+02  0.89862364133E+02  0.00000000000E+00 0. -1.
</event>
<event>
 8    1  0.7262913E-009  0.1033999E+03  0.7561462E-02  0.1273305E+00
          2   -1    0    0  501    0  0.00000000000E+00  0.00000000000E+00  0.52130840338E+03  0.52130840338E+03  0.00000000000E+00 0. -1.
         -2   -1    0    0    0  501 -0.00000000000E+00 -0.00000000000E+00 -0.33597126286E+02  0.33597126286E+02  0.00000000000E+00 0.  1.
         25    2    1    2    0    0 -0.27487000709E+02 -0.71656746359E+02  0.25966222859E+03  0.29826341050E+03  0.12508542914E+03 0.  0.
         23    2    1    2    0    0  0.27487000709E+02  0.71656746359E+02  0.22804904850E+03  0.25664211916E+03  0.89266927234E+02 0.  0.
          5    1    3    3  502    0 -0.89902763008E+01  0.12030114111E+02 -0.77584604313E+01  0.17413064686E+02  0.41800000000E+01 0. -1.
         -5    1    3    3    0  502 -0.18496724408E+02 -0.83686860471E+02  0.26742068902E+03  0.28085034582E+03  0.41800000000E+01 0. -1.
        -11    1    4    4    0    0 -0.24429765230E+02  0.15541194280E+02  0.12513272476E+03  0.12843886076E+03  0.00000000000E+00 0. -1.
         11    1    4    4    0    0  0.51916765939E+02  0.56115552079E+02  0.10291632374E+03  0.12820325840E+03  0.00000000000E+00 0.  1.
</event>
<event>
 8    1  0.7262913E-009  0.3725145E+03  0.7561462E-02  0.1053736E+00
          1   -1    0    0  501    0  0.00000000000E+00  0.00000000000E+00  0.69835719229E+03  0.69835719229E+03  0.00000000000E+00 0. -1.
         -1   -1    0    0    0  501 -0.00000000000E+00 -0.00000000000E+00 -0.21297811891E+03  0.21297811891E+03  0.00000000000E+00 0.  1.
         25    2    1    2    0    0 -0.36481391489E+03 -0.52735434118E+02  0.28334040364E+03  0.48145155976E+03  0.12507438408E+03 0.  0.
         23    2    1    2    0    0  0.36481391489E+03  0.52735434118E+02  0.20203866974E+03  0.42988375144E+03  0.90056633135E+02 0.  0.
          5    1    3    3  502    0 -0.26113477954E+03 -0.13463482754E+02  0.12962070256E+03  0.29187606511E+03  0.41800000000E+01 0. -1.
         -5    1    3    3    0  502 -0.10367913535E+03 -0.39271951364E+02  0.15371970108E+03  0.18957549464E+03  0.41800000000E+01 0. -1.
        -11    1    4    4    0    0  0.14197891963E+03 -0.60540984484E+01  0.38299019695E+02  0.14717839732E+03  0.00000000000E+00 0. -1.
         11    1    4    4    0    0  0.22283499526E+03  0.58789532566E+02  0.16373965005E+03  0.28270535412E+03  0.00000000000E+00 0.  1.
</event>
<event>
 8    1  0.7262913E-009  0.1277679E+03  0.7561462E-02  0.1230806E+00
         -1   -1    0    0    0  501 -0.00000000000E+00  0.00000000000E+00  0.60232793524E+02  0.60232793524E+02  0.00000000000E+00 0.  1.
          1   -1    0    0  501    0  0.00000000000E+00 -0.00000000000E+00 -0.40517717473E+03  0.40517717473E+03  0.00000000000E+00 0. -1.
         25    2    1    2    0    0  0.10680491395E+03  0.28033223273E+02 -0.21286356418E+03  0.27046558338E+03  0.12509030172E+03 0.  0.
         23    2    1    2    0    0 -0.10680491395E+03 -0.28033223273E+02 -0.13208081702E+03  0.19494438487E+03  0.91459388352E+02 0.  0.
          5    1    3    3  502    0  0.89899611064E+02 -0.16779262130E+02 -0.58150857611E+02  0.10845496000E+03  0.41800000000E+01 0.  1.
         -5    1    3    3    0  502  0.16905302886E+02  0.44812485403E+02 -0.15471270657E+03  0.16201062338E+03  0.41800000000E+01 0.  1.
        -11    1    4    4    0    0 -0.53861165664E+02  0.40357653306E+01 -0.12039034565E+03  0.13195130880E+03  0.00000000000E+00 0. -1.
         11    1    4    4    0    0 -0.52943748286E+02 -0.32068988604E+02 -0.11690471375E+02  0.62993076077E+02  0.00000000000E+00 0.  1.
</event>
<event>
 8    1  0.7262913E-009  0.1148232E+03  0.7561462E-02  0.1251890E+00
         -1   -1    0    0    0  501 -0.00000000000E+00  0.00000000000E+00  0.63384067430E+02  0.63384067430E+02  0.00000000000E+00 0.  1.
          1   -1    0    0  501    0  0.00000000000E+00 -0.00000000000E+00 -0.53582212189E+03  0.53582212189E+03  0.00000000000E+00 0. -1.
         25    2    1    2    0    0 -0.92218876227E+02 -0.13872932873E+02 -0.61410866277E+02  0.16768068145E+03  0.12509491211E+03 0.  0.
         23    2    1    2    0    0  0.92218876227E+02  0.13872932873E+02 -0.41102718818E+03  0.43152550787E+03  0.92596625835E+02 0.  0.
          5    1    3    3  502    0 -0.12932634401E+02 -0.15818264142E+02 -0.82836273531E+02  0.85421256871E+02  0.41800000000E+01 0. -1.
         -5    1    3    3    0  502 -0.79286241826E+02  0.19453312693E+01  0.21425407253E+02  0.82259424582E+02  0.41800000000E+01 0. -1.
        -11    1    4    4    0    0  0.10879634777E+03  0.17096138927E+01 -0.31325149821E+03  0.33161132249E+03  0.00000000000E+00 0.  1.
         11    1    4    4    0    0 -0.16577471545E+02  0.12163318980E+02 -0.97775689972E+02  0.99914185384E+02  0.00000000000E+00 0. -1.
</event>
<event>
 8    1  0.7262913E-009  0.8874466E+02  0.7561462E-02  0.1305920E+00
         -2   -1    0    0    0  501 -0.00000000000E+00  0.00000000000E+00  0.17647845095E+03  0.17647845095E+03  0.00000000000E+00 0.  1.
          2   -1    0    0  501    0  0.00000000000E+00 -0.00000000000E+00 -0.80342146970E+02  0.80342146970E+02  0.00000000000E+00 0. -1.
         25    2    1    2    0    0  0.19376074488E+02  0.58376994073E+01  0.10457209378E+03  0.16429479652E+03  0.12509175181E+03 0.  0.
         23    2    1    2    0    0 -0.19376074488E+02 -0.58376994073E+01 -0.84357897970E+01  0.92525801401E+02  0.89890769150E+02 0.  0.
          5    1    3    3  502    0  0.54257762850E+02  0.20844702170E+02  0.60041473506E+01  0.58582664871E+02  0.41800000000E+01 0.  1.
         -5    1    3    3    0  502 -0.34881688362E+02 -0.15007002762E+02  0.98567946429E+02  0.10571213165E+03  0.41800000000E+01 0.  1.
        -11    1    4    4    0    0 -0.44528778281E+02  0.16386726676E+02 -0.26564378311E+02  0.54378333014E+02  0.00000000000E+00 0. -1.
         11    1    4    4    0    0  0.25152703793E+02 -0.22224426083E+02  0.18128588514E+02  0.38147468387E+02  0.00000000000E+00 0.  1.
</event>
<event>
 8    1  0.7262913E-009  0.2390987E+03  0.7561462E-02  0.1120395E+00
         -2   -1    0    0    0  501 -0.00000000000E+00  0.00000000000E+00  0.14995668829E+03  0.14995668829E+03  0.00000000000E+00 0. -1.
          2   -1    0    0  501    0  0.00000000000E+00 -0.00000000000E+00 -0.93646839352E+03  0.93646839352E+03  0.00000000000E+00 0.  1.
         25    2    1    2    0    0  0.21943526785E+03 -0.17484191029E+02  0.11238338663E+02  0.25343963274E+03  0.12509122061E+03 0.  0.
         23    2    1    2    0    0 -0.21943526785E+03  0.17484191029E+02 -0.79775004389E+03  0.83298544907E+03  0.94879355595E+02 0.  0.
          5    1    3    3  502    0  0.21175746683E+03 -0.42389267720E+02  0.33910183714E+02  0.21864456941E+03  0.41800000000E+01 0. -1.
         -5    1    3    3    0  502  0.76778010204E+01  0.24905076691E+02 -0.22671845051E+02  0.34795063321E+02  0.41800000000E+01 0. -1.
        -11    1    4    4    0    0 -0.19181492317E+03 -0.15902408957E+02 -0.70161239894E+03  0.72753406085E+03  0.00000000000E+00 0.  1.
         11    1    4    4    0    0 -0.27620344674E+02  0.33386599985E+02 -0.96137644958E+02  0.10545138822E+03  0.00000000000E+00 0. -1.
</event>
<event>
 8    1  0.7262913E-009  0.1001981E+03  0.7561462E-02  0.1279880E+00
          1   -1    0    0  501    0  0.00000000000E+00  0.00000000000E+00  0.44370244690E+02  0.44370244690E+02  0.00000000000E+00 0. -1.
         -1   -1    0    0    0  501 -0.00000000000E+00 -0.00000000000E+00 -0.30714803886E+03  0.30714803886E+03  0.00000000000E+00 0.  1.
         25    2    1    2    0    0 -0.21937010137E+02 -0.31128034879E+02 -0.18847274295E+03  0.22939032352E+03  0.12509100175E+03 0.  0.
         23    2    1    2    0    0  0.21937010137E+02  0.31128034879E+02 -0.74305051225E+02  0.12212796004E+03  0.89128059643E+02 0.  0.
          5    1    3    3  502    0  0.29270143146E+02  0.26556797559E+02 -0.20975216981E+02  0.44938145308E+02  0.41800000000E+01 0. -1.
         -5    1    3    3    0  502 -0.51207153284E+02 -0.57684832438E+02 -0.16749752597E+03  0.18445217821E+03  0.41800000000E+01 0. -1.
        -11    1    4    4    0    0  0.30880539214E+02  0.52123912734E+02 -0.78255911902E+02  0.98967154796E+02  0.00000000000E+00 0.  1.
         11    1    4    4    0    0 -0.89435290767E+01 -0.20995877855E+02  0.39508606771E+01  0.23160805239E+02  0.00000000000E+00 0. -1.
</event>
<event>
 8    1  0.7262913E-009  0.9783163E+02  0.7561462E-02  0.1284923E+00
          1   -1    0    0  501    0  0.00000000000E+00  0.00000000000E+00  0.17594634351E+03  0.17594634351E+03  0.00000000000E+00 0. -1.
         -1   -1    0    0    0  501 -0.00000000000E+00 -0.00000000000E+00 -0.81069448731E+02  0.81069448731E+02  0.00000000000E+00 0.  1.
         25    2    1    2    0    0  0.46556276774E+01  0.16814095120E+02  0.24226670263E+01  0.12632248194E+03  0.12508841459E+03 0.  0.
         23    2    1    2    0    0 -0.46556276774E+01 -0.16814095120E+02  0.92454227753E+02  0.13069331030E+03  0.90711457180E+02 0.  0.
          5    1    3    3  502    0 -0.48390805488E+02  0.20014505497E+02  0.35668659899E+02  0.63497843940E+02  0.41800000000E+01 0.  1.
         -5    1    3    3    0  502  0.53046433165E+02 -0.32004103761E+01 -0.33245992872E+02  0.62824638003E+02  0.41800000000E+01 0.  1.
        -11    1    4    4    0    0  0.33906857231E+02 -0.33627771264E+02  0.64215642434E+02  0.80025937675E+02  0.00000000000E+00 0. -1.
         11    1    4    4    0    0 -0.38562484909E+02  0.16813676144E+02  0.28238585319E+02  0.50667372624E+02  0.00000000000E+00 0.  1.
</event>
<event>
 8    1  0.7262913E-009  0.1278085E+03  0.7561462E-02  0.1230744E+00
         -3   -1    0    0    0  501 -0.00000000000E+00  0.00000000000E+00  0.32762517768E+03  0.32762517768E+03  0.00000000000E+00 0.  1.
          3   -1    0    0  501    0  0.00000000000E+00 -0.00000000000E+00 -0.83600745042E+02  0.83600745042E+02  0.00000000000E+00 0. -1.
         25    2    1    2    0    0 -0.79413268187E+02  0.69746126548E+02  0.47958507975E+02  0.17064301541E+03  0.12509208963E+03 0.  0.
         23    2    1    2    0    0  0.79413268187E+02 -0.69746126548E+02  0.19606592466E+03  0.24058290731E+03  0.90924689411E+02 0.  0.
          5    1    3    3  502    0 -0.98253706593E+02  0.42416829571E+02  0.72342647081E+02  0.12924360439E+03  0.41800000000E+01 0. -1.
         -5    1    3    3    0  502  0.18840438406E+02  0.27329296977E+02 -0.24384139105E+02  0.41399411016E+02  0.41800000000E+01 0. -1.
        -11    1    4    4    0    0  0.56509406169E+02 -0.19395622822E+02  0.32705143296E+02  0.68111155975E+02  0.00000000000E+00 0. -1.
         11    1    4    4    0    0  0.22903862018E+02 -0.50350503726E+02  0.16336078137E+03  0.17247175134E+03  0.00000000000E+00 0.  1.
</event>
<event>
 8    1  0.7262913E-009  0.7623543E+02  0.7561462E-02  0.1340087E+00
          1   -1    0    0  501    0  0.00000000000E+00  0.00000000000E+00  0.62906227609E+03  0.62906227609E+03  0.00000000000E+00 0. -1.
         -1   -1    0    0    0  501 -0.00000000000E+00 -0.00000000000E+00 -0.21777025416E+02  0.21777025416E+02  0.00000000000E+00 0.  1.
         25    2    1    2    0    0  0.34923664093E+02  0.27370154142E+02  0.36675071991E+03  0.39002871824E+03  0.12509005894E+03 0.  0.
         23    2    1    2    0    0 -0.34923664093E+02 -0.27370154142E+02  0.24053453077E+03  0.26081058327E+03  0.90534591193E+02 0.  0.
          5    1    3    3  502    0  0.37584015342E+02  0.29109042947E+02  0.37620198172E+03  0.37921669008E+03  0.41800000000E+01 0. -1.
         -5    1    3    3    0  502 -0.26603512490E+01 -0.17388888052E+01 -0.94512618086E+01  0.10812028155E+02  0.41800000000E+01 0. -1.
        -11    1    4    4    0    0  0.30088627813E+01  0.30312040323E+02  0.94325610150E+02  0.99122115464E+02  0.00000000000E+00 0.  1.
         11    1    4    4    0    0 -0.37932526874E+02 -0.57682194465E+02  0.14620892062E+03  0.16168846780E+03  0.00000000000E+00 0. -1.
</event>
<event>
 8    1  0.7262913E-009  0.1098869E+03  0.7561462E-02  0.1260779E+00
          2   -1    0    0  501    0  0.00000000000E+00  0.00000000000E+00  0.47580195639E+03  0.47580195639E+03  0.00000000000E+00 0. -1.
         -2   -1    0    0    0  501 -0.00000000000E+00 -0.00000000000E+00 -0.46872794801E+02  0.46872794801E+02  0.00000000000E+00 0.  1.
         25    2    1    2    0    0  0.10111075741E+00 -0.95313825044E+02  0.18075701898E+03  0.23959377374E+03  0.12508933222E+03 0.  0.
         23    2    1    2    0    0 -0.10111075741E+00  0.95313825044E+02  0.24817214261E+03  0.28308097746E+03  0.97266088451E+02 0.  0.
          5    1    3    3  502    0  0.12375236067E+02  0.17074169445E+01  0.12746314153E+03  0.12814205629E+03  0.41800000000E+01 0.  1.
         -5    1    3    3    0  502 -0.12274125309E+02 -0.97021241988E+02  0.53293877450E+02  0.11145171745E+03  0.41800000000E+01 0.  1.
        -11    1    4    4    0    0 -0.24538207406E+02  0.66798312439E+02  0.23113695325E+03  0.24184381184E+03  0.00000000000E+00 0. -1.
         11    1    4    4    0    0  0.24437096649E+02  0.28515512605E+02  0.17035189363E+02  0.41237165620E+02  0.00000000000E+00 0.  1.
</event>
<event>
 8    1  0.7262913E-009  0.1222006E+03  0.7561462E-02  0.1239510E+00
          1   -1    0    0  501    0  0.00000000000E+00  0.00000000000E+00  0.93224193970E+03  0.93224193970E+03  0.00000000000E+00 0. -1.
         -1   -1    0    0    0  501 -0.00000000000E+00 -0.00000000000E+00 -0.18492745661E+02  0.18492745661E+02  0.00000000000E+00 0.  1.
         25    2    1    2    0    0 -0.71925316047E+02  0.14669970103E+02  0.51825684752E+03  0.53817063935E+03  0.12509603487E+03 0.  0.
         23    2    1    2    0    0  0.71925316047E+02 -0.14669970103E+02  0.39549234652E+03  0.41256404602E+03  0.91686622785E+02 0.  0.
          5    1    3    3  502    0 -0.84688030934E+02  0.55824961025E+02  0.34899571347E+03  0.36346109734E+03  0.41800000000E+01 0.  1.
         -5    1    3    3    0  502  0.12762714887E+02 -0.41154990921E+02  0.16926113405E+03  0.17470954201E+03  0.41800000000E+01 0.  1.
        -11    1    4    4    0    0  0.78993320729E+02 -0.28567743964E+02  0.38429413831E+03  0.39336757041E+03  0.00000000000E+00 0. -1.
         11    1    4    4    0    0 -0.70680046820E+01  0.13897773861E+02  0.11198208217E+02  0.19196475607E+02  0.00000000000E+00 0.  1.
</event>
<event>
 8    1  0.7262913E-009  0.1264231E+03  0.7561462E-02  0.1232862E+00
         -2   -1    0    0    0  501 -0.00000000000E+00  0.00000000000E+00  0.37818769290E+02  0.37818769290E+02  0.00000000000E+00 0.  1.
          2   -1    0    0  501    0  0.00000000000E+00 -0.00000000000E+00 -0.44487192236E+03  0.44487192236E+03  0.00000000000E+00 0. -1.
         25    2    1    2    0    0  0.65326872385E+02 -0.15788884162E+02 -0.18323520402E+03  0.23182067892E+03  0.12509515604E+03 0.  0.
         23    2    1    2    0    0 -0.65326872385E+02  0.15788884162E+02 -0.22381794905E+03  0.25087001273E+03  0.91238149100E+02 0.  0.
          5    1    3    3  502    0  0.48327878398E+02 -0.69894064229E+02 -0.11315440238E+03  0.14157031900E+03  0.41800000000E+01 0.  1.
         -5    1    3    3    0  502  0.16998993987E+02  0.54105180067E+02 -0.70080801642E+02  0.90250359919E+02  0.41800000000E+01 0.  1.
        -11    1    4    4    0    0 -0.81958028608E+02 -0.74818873435E+01 -0.14110985169E+03  0.16335570800E+03  0.00000000000E+00 0.  1.
         11    1    4    4    0    0  0.16631156223E+02  0.23270771505E+02 -0.82708097352E+02  0.87514304724E+02  0.00000000000E+00 0. -1.
</event>
<event>
 8    1  0.7262913E-009  0.1246333E+03  0.7561462E-02  0.1235643E+00
         -2   -1    0    0    0  501 -0.00000000000E+00  0.00000000000E+00  0.56931062273E+02  0.56931062273E+02  0.00000000000E+00 0.  1.
          2   -1    0    0  501    0  0.00000000000E+00 -0.00000000000E+00 -0.38010066964E+03  0.38010066964E+03  0.00000000000E+00 0. -1.
         25    2    1    2    0    0  0.66408081212E+02  0.27119177499E+02 -0.74155097014E+02  0.16214867982E+03  0.12509089862E+03 0.  0.
         23    2    1    2    0    0 -0.66408081212E+02 -0.27119177499E+02 -0.24901451036E+03  0.27488305209E+03  0.91689600942E+02 0.  0.
          5    1    3    3  502    0 -0.30054669626E+02  0.36048563818E+02 -0.21250965369E+02  0.51690018850E+02  0.41800000000E+01 0.  1.
         -5    1    3    3    0  502  0.96462750838E+02 -0.89293863185E+01 -0.52904131645E+02  0.11045866097E+03  0.41800000000E+01 0.  1.
        -11    1    4    4    0    0  0.16339889234E+02 -0.13760967431E+02 -0.11386364236E+03  0.11585027085E+03  0.00000000000E+00 0. -1.
         11    1    4    4    0    0 -0.82747970446E+02 -0.13358210068E+02 -0.13515086800E+03  0.15903278124E+03  0.00000000000E+00 0.  1.
</event>
<event>
 8    1  0.7262913E-009  0.1395026E+03  0.7561462E-02  0.1214000E+00
         -1   -1    0    0    0  501 -0.00000000000E+00  0.00000000000E+00  0.13934573993E+03  0.13934573993E+03  0.00000000000E+00 0.  1.
          1   -1    0    0  501    0  0.00000000000E+00 -0.00000000000E+00 -0.15280003901E+03  0.15280003901E+03  0.00000000000E+00 0. -1.
         25    2    1    2    0    0  0.28394374977E+02  0.92532966774E+02  0.82725365612E+00  0.15816577613E+03  0.12508852034E+03 0.  0.
         23    2    1    2    0    0 -0.28394374977E+02 -0.92532966774E+02 -0.14281552729E+02  0.13398000281E+03  0.91531895717E+02 0.  0.
          5    1    3    3  502    0  0.59143595968E+02  0.10311845011E+03  0.19342547795E+02  0.12051135321E+03  0.41800000000E+01 0. -1.
         -5    1    3    3    0  502 -0.30749220991E+02 -0.10585483332E+02 -0.18515294139E+02  0.37654422927E+02  0.41800000000E+01 0. -1.
        -11    1    4    4    0    0 -0.53678145949E+02 -0.34083771865E+02  0.12658496651E+02  0.64832741686E+02  0.00000000000E+00 0.  1.
         11    1    4    4    0    0  0.25283770971E+02 -0.58449194908E+02 -0.26940049380E+02  0.69147261121E+02  0.00000000000E+00 0. -1.
</event>
<event>
 8    1  0.7262913E-009  0.1628845E+03  0.7561462E-02  0.1185478E+00
         -2   -1    0    0    0  501 -0.00000000000E+00  0.00000000000E+00  0.85657412988E+02  0.85657412988E+02  0.00000000000E+00 0.  1.
          2   -1    0    0  501    0  0.00000000000E+00 -0.00000000000E+00 -0.37081821806E+03  0.37081821806E+03  0.00000000000E+00 0. -1.
         25    2    1    2    0    0  0.12851385759E+03 -0.63395656974E+02 -0.16675601601E+03  0.25296243556E+03  0.12509038337E+03 0.  0.
         23    2    1    2    0    0 -0.12851385759E+03  0.63395656974E+02 -0.11840478907E+03  0.20351319549E+03  0.82843863678E+02 0.  0.
          5    1    3    3  502    0  0.13692991060E+03 -0.54923864354E+02 -0.18123748332E+03  0.23373260160E+03  0.41800000000E+01 0.  1.
         -5    1    3    3    0  502 -0.84160530061E+01 -0.84717926196E+01  0.14481467312E+02  0.19229833954E+02  0.41800000000E+01 0.  1.
        -11    1    4    4    0    0  0.88265815599E+01  0.19390824772E+02 -0.15243533679E+02  0.26196907192E+02  0.00000000000E+00 0.  1.
         11    1    4    4    0    0 -0.13734043915E+03  0.44004832202E+02 -0.10316125539E+03  0.17731628830E+03  0.00000000000E+00 0. -1.
</event>
<event>
 8    1  0.7262913E-009  0.1137311E+03  0.7561462E-02  0.1253812E+00
         -2   -1    0    0    0  501 -0.00000000000E+00  0.00000000000E+00  0.10417112091E+03  0.10417112091E+03  0.00000000000E+00 0.  1.
          2   -1    0    0  501    0  0.00000000000E+00 -0.00000000000E+00 -0.22325404280E+03  0.22325404280E+03  0.00000000000E+00 0. -1.
         25    2    1    2    0    0 -0.35836027409E+02  0.92958874016E+02 -0.10506405176E+03  0.19134444757E+03  0.12509464227E+03 0.  0.
         23    2    1    2    0    0  0.35836027409E+02 -0.92958874016E+02 -0.14018870129E+02  0.13608071614E+03  0.91628922659E+02 0.  0.
          5    1    3    3  502    0  0.19394870454E+02  0.47145753418E+00  0.18661226379E+02  0.27241458149E+02  0.41800000000E+01 0.  1.
         -5    1    3    3    0  502 -0.55230897862E+02  0.92487416482E+02 -0.12372527814E+03  0.16410298942E+03  0.41800000000E+01 0.  1.
        -11    1    4    4    0    0  0.72626644340E+01 -0.26356635431E+02 -0.48614237821E+02  0.55774211289E+02  0.00000000000E+00 0. -1.
         11    1    4    4    0    0  0.28573362975E+02 -0.66602238585E+02  0.34595367693E+02  0.80306504855E+02  0.00000000000E+00 0.  1.
</event>
<event>
 8    1  0.7262913E-009  0.1330097E+03  0.7561462E-02  0.1223057E+00
         -1   -1    0    0    0  501 -0.00000000000E+00  0.00000000000E+00  0.33228276911E+02  0.33228276911E+02  0.00000000000E+00 0.  1.
          1   -1    0    0  501    0  0.00000000000E+00 -0.00000000000E+00 -0.55692954641E+03  0.55692954641E+03  0.00000000000E+00 0. -1.
         25    2    1    2    0    0 -0.29211116073E+02  0.76825600701E+02 -0.29910655840E+03  0.33446503883E+03  0.12508663676E+03 0.  0.
         23    2    1    2    0    0  0.29211116073E+02 -0.76825600701E+02 -0.22459471110E+03  0.25569278449E+03  0.90446412654E+02 0.  0.
          5    1    3    3  502    0  0.48112780549E+02  0.15307688054E+02 -0.95243358326E+02  0.10787925969E+03  0.41800000000E+01 0.  1.
         -5    1    3    3    0  502 -0.77323896622E+02  0.61517912646E+02 -0.20386320008E+03  0.22658577915E+03  0.41800000000E+01 0.  1.
        -11    1    4    4    0    0 -0.22471296323E+02  0.16077712850E+01 -0.18315469982E+02  0.29034471368E+02  0.00000000000E+00 0.  1.
         11    1    4    4    0    0  0.51682412396E+02 -0.78433371986E+02 -0.20627924111E+03  0.22665831312E+03  0.00000000000E+00 0. -1.
</event>
<event>
 8    1  0.7262913E-009  0.1072755E+03  0.7561462E-02  0.1265700E+00
          1   -1    0    0  501    0  0.00000000000E+00  0.00000000000E+00  0.85824056352E+03  0.85824056352E+03  0.00000000000E+00 0. -1.
         -1   -1    0    0    0  501 -0.00000000000E+00 -0.00000000000E+00 -0.39536037961E+02  0.39536037961E+02  0.00000000000E+00 0.  1.
         25    2    1    2    0    0  0.87503929218E+02  0.53535676664E+02  0.69076984234E+03  0.70946017618E+03  0.12509100763E+03 0.  0.
         23    2    1    2    0    0 -0.87503929218E+02 -0.53535676664E+02  0.12793468322E+03  0.18831642531E+03  0.92589343691E+02 0.  0.
          5    1    3    3  502    0  0.23540828191E+02  0.22787707468E+02  0.29213263393E+02  0.44094640962E+02  0.41800000000E+01 0. -1.
         -5    1    3    3    0  502  0.63963101028E+02  0.30747969197E+02  0.66155657895E+03  0.66536553521E+03  0.41800000000E+01 0. -1.
        -11    1    4    4    0    0 -0.19854332960E+02 -0.35077310064E+02 -0.23334690155E+01  0.40373968052E+02  0.00000000000E+00 0.  1.
         11    1    4    4    0    0 -0.67649596258E+02 -0.18458366600E+02  0.13026815224E+03  0.14794245726E+03  0.00000000000E+00 0. -1.
</event>
<event>
 8    1  0.7262913E-009  0.7776874E+02  0.7561462E-02  0.1335505E+00
          1   -1    0    0  501    0  0.00000000000E+00  0.00000000000E+00  0.34404959714E+03  0.34404959714E+03  0.00000000000E+00 0. -1.
         -1   -1    0    0    0  501 -0.00000000000E+00 -0.00000000000E+00 -0.37275107760E+02  0.37275107760E+02  0.00000000000E+00 0.  1.
         25    2    1    2    0    0 -0.31726711681E+02 -0.80192913129E+01  0.17115996589E+03  0.21451126893E+03  0.12509379403E+03 0.  0.
         23    2    1    2    0    0  0.31726711681E+02  0.80192913129E+01  0.13561452348E+03  0.16681343597E+03  0.91457805420E+02 0.  0.
          5    1    3    3  502    0  0.11803954490E+02 -0.20115163507E+02 -0.11473406679E+02  0.26326120211E+02  0.41800000000E+01 0.  1.
         -5    1    3    3    0  502 -0.43530666171E+02  0.12095872194E+02  0.18263337257E+03  0.18818514872E+03  0.41800000000E+01 0.  1.
        -11    1    4    4    0    0  0.35578243448E+02 -0.31043654040E+02  0.11062739444E+03  0.12028275131E+03  0.00000000000E+00 0.  1.
         11    1    4    4    0    0 -0.38515317674E+01  0.39062945353E+02  0.24987129047E+02  0.46530684657E+02  0.00000000000E+00 0. -1.
</event>
<event>
 8    1  0.7262913E-009  0.1845338E+03  0.7561462E-02  0.1163486E+00
         -2   -1    0    0    0  501 -0.00000000000E+00  0.00000000000E+00  0.17658541866E+02  0.17658541866E+02  0.00000000000E+00 0.  1.
          2   -1    0    0  501    0  0.00000000000E+00 -0.00000000000E+00 -0.28351828169E+04  0.28351828169E+04  0.00000000000E+00 0. -1.
         25    2    1    2    0    0  0.52184302084E+02 -0.14376148752E+03 -0.22537098513E+04  0.22623538470E+04  0.12508504439E+03 0.  0.
         23    2    1    2    0    0 -0.52184302084E+02  0.14376148752E+03 -0.56381442378E+03  0.59048751185E+03  0.86012967131E+02 0.  0.
          5    1    3    3  502    0 -0.38615236444E+02 -0.40419186618E+02 -0.87427788503E+03  0.87607313609E+03  0.41800000000E+01 0. -1.
         -5    1    3    3    0  502  0.90799538528E+02 -0.10334230090E+03 -0.13794319663E+04  0.13862807109E+04  0.41800000000E+01 0. -1.
        -11    1    4    4    0    0  0.11034871889E+02  0.94749306803E+02 -0.29749043697E+03  0.31240960233E+03  0.00000000000E+00 0.  1.
         11    1    4    4    0    0 -0.63219173972E+02  0.49012180713E+02 -0.26632398681E+03  0.27807790952E+03  0.00000000000E+00 0. -1.
</event>
<event>
 8    1  0.7262913E-009  0.1252238E+03  0.7561462E-02  0.1234720E+00
         -2   -1    0    0    0  501 -0.00000000000E+00  0.00000000000E+00  0.18695487835E+02  0.18695487835E+02  0.00000000000E+00 0.  1.
          2   -1    0    0  501    0  0.00000000000E+00 -0.00000000000E+00 -0.11856775985E+04  0.11856775985E+04  0.00000000000E+00 0. -1.
         25    2    1    2    0    0  0.75595864293E+02 -0.47614501516E+02 -0.43833547362E+03  0.46450699054E+03  0.12508749487E+03 0.  0.
         23    2    1    2    0    0 -0.75595864293E+02  0.47614501516E+02 -0.72864663705E+03  0.73986609580E+03  0.92163130257E+02 0.  0.
          5    1    3    3  502    0  0.58768764029E+02  0.12011608935E+02 -0.35777325095E+03  0.36279087347E+03  0.41800000000E+01 0. -1.
         -5    1    3    3    0  502  0.16827100264E+02 -0.59626110452E+02 -0.80562222666E+02  0.10171611707E+03  0.41800000000E+01 0. -1.
        -11    1    4    4    0    0  0.82172888960E+01 -0.19298606322E+02 -0.10711236505E+03  0.10914677636E+03  0.00000000000E+00 0.  1.
         11    1    4    4    0    0 -0.83813153189E+02  0.66913107838E+02 -0.62153427200E+03  0.63071931944E+03  0.00000000000E+00 0. -1.
</event>
<event>
 8    1  0.7262913E-009  0.1046376E+03  0.7561462E-02  0.1270835E+00
          4   -1    0    0  501    0  0.00000000000E+00  0.00000000000E+00  0.23409166420E+03  0.23409166420E+03  0.00000000000E+00 0. -1.
         -4   -1    0    0    0  501 -0.00000000000E+00 -0.00000000000E+00 -0.17815418570E+03  0.17815418570E+03  0.00000000000E+00 0.  1.
         25    2    1    2    0    0  0.57857966950E+02  0.83018544630E+02  0.17104609813E+03  0.23482469865E+03  0.12508496439E+03 0.  0.
         23    2    1    2    0    0 -0.57857966950E+02 -0.83018544630E+02 -0.11510861962E+03  0.17742115125E+03  0.89379234208E+02 0.  0.
          5    1    3    3  502    0  0.71618946248E+01  0.16421795812E+02 -0.19412595288E+02  0.26744894244E+02  0.41800000000E+01 0. -1.
         -5    1    3    3    0  502  0.50696072325E+02  0.66596748817E+02  0.19045869342E+03  0.20807980440E+03  0.41800000000E+01 0. -1.
        -11    1    4    4    0    0 -0.17094047361E+02 -0.55044259962E+02 -0.11426013838E+03  0.12797443586E+03  0.00000000000E+00 0.  1.
         11    1    4    4    0    0 -0.40763919589E+02 -0.27974284668E+02 -0.84848124289E+00  0.49446715395E+02  0.00000000000E+00 0. -1.
</event>
<event>
 8    1  0.7262913E-009  0.3900699E+03  0.7561462E-02  0.1047273E+00
         -2   -1    0    0    0  501 -0.00000000000E+00  0.00000000000E+00  0.95669483159E+02  0.95669483159E+02  0.00000000000E+00 0. -1.
          2   -1    0    0  501    0  0.00000000000E+00 -0.00000000000E+00 -0.17394576924E+04  0.17394576924E+04  0.00000000000E+00 0.  1.
         25    2    1    2    0    0 -0.37969176441E+03 -0.74939744009E+02 -0.98485264609E+03  0.10655348109E+04  0.12509155686E+03 0.  0.
         23    2    1    2    0    0  0.37969176441E+03  0.74939744009E+02 -0.65893556313E+03  0.76959236460E+03  0.91074310915E+02 0.  0.
          5    1    3    3  502    0 -0.70786262824E+02 -0.41765800398E+02 -0.33876855183E+03  0.34862111410E+03  0.41800000000E+01 0. -1.
         -5    1    3    3    0  502 -0.30890550159E+03 -0.33173943611E+02 -0.64608409425E+03  0.71691369682E+03  0.41800000000E+01 0. -1.
        -11    1    4    4    0    0  0.16249606759E+03  0.36895961107E+02 -0.19915215279E+03  0.25966875801E+03  0.00000000000E+00 0. -1.
         11    1    4    4    0    0  0.21719569682E+03  0.38043782902E+02 -0.45978341034E+03  0.50992360659E+03  0.00000000000E+00 0.  1.
</event>
<event>
 8    1  0.7262913E-009  0.1075581E+03  0.7561462E-02  0.1265160E+00
         -2   -1    0    0    0  501 -0.00000000000E+00  0.00000000000E+00  0.13162128299E+03  0.13162128299E+03  0.00000000000E+00 0.  1.
          2   -1    0    0  501    0  0.00000000000E+00 -0.00000000000E+00 -0.20833213648E+03  0.20833213648E+03  0.00000000000E+00 0. -1.
         25    2    1    2    0    0 -0.49728725489E+01  0.61142557728E+02  0.71809203368E+02  0.15673934076E+03  0.12509003728E+03 0.  0.
         23    2    1    2    0    0  0.49728725489E+01 -0.61142557728E+02 -0.14852005686E+03  0.18321407870E+03  0.88011644230E+02 0.  0.
          5    1    3    3  502    0 -0.26506054389E+02  0.95080615512E+02  0.48011518773E+02  0.10984294561E+03  0.41800000000E+01 0. -1.
         -5    1    3    3    0  502  0.21533181840E+02 -0.33938057784E+02  0.23797684594E+02  0.46896395153E+02  0.41800000000E+01 0. -1.
        -11    1    4    4    0    0  0.24761520631E+02 -0.39186921050E+02 -0.18554957653E+02  0.49930292798E+02  0.00000000000E+00 0.  1.
         11    1    4    4    0    0 -0.19788648082E+02 -0.21955636678E+02 -0.12996509920E+03  0.13328378591E+03  0.00000000000E+00 0. -1.
</event>
<event>
 8    1  0.7262913E-009  0.1492840E+03  0.7561462E-02  0.1201356E+00
          4   -1    0    0  501    0  0.00000000000E+00  0.00000000000E+00  0.27455205693E+03  0.27455205693E+03  0.00000000000E+00 0. -1.
         -4   -1    0    0    0  501 -0.00000000000E+00 -0.00000000000E+00 -0.12225450010E+03  0.12225450010E+03  0.00000000000E+00 0.  1.
         25    2    1    2    0    0  0.44784316370E+02  0.12428851694E+03  0.10328138958E+02  0.18222881788E+03  0.12508957261E+03 0.  0.
         23    2    1    2    0    0 -0.44784316370E+02 -0.12428851694E+03  0.14196941786E+03  0.21457773915E+03  0.91842365463E+02 0.  0.
          5    1    3    3  502    0  0.53477240580E+02  0.13851197705E+03 -0.17457328033E+02  0.14955806146E+03  0.41800000000E+01 0.  1.
         -5    1    3    3    0  502 -0.86929242106E+01 -0.14223460110E+02  0.27785466991E+02  0.32670756415E+02  0.41800000000E+01 0.  1.
        -11    1    4    4    0    0 -0.82402243765E+01 -0.42114993652E+02 -0.40300348019E+01  0.43102380080E+02  0.00000000000E+00 0.  1.
         11    1    4    4    0    0 -0.36544091993E+02 -0.82173523290E+02  0.14599945267E+03  0.17147535907E+03  0.00000000000E+00 0. -1.
</event>
<event>
 8    1  0.7262913E-009  0.9942267E+02  0.7561462E-02  0.1281515E+00
          3   -1    0    0  501    0  0.00000000000E+00  0.00000000000E+00  0.21087971585E+02  0.21087971585E+02  0.00000000000E+00 0. -1.
         -3   -1    0    0    0  501 -0.00000000000E+00 -0.00000000000E+00 -0.58310283499E+03  0.58310283499E+03  0.00000000000E+00 0.  1.
         25    2    1    2    0    0 -0.17726192984E+01  0.22830911600E+02 -0.32519350869E+03  0.34917285692E+03  0.12508586335E+03 0.  0.
         23    2    1    2    0    0  0.17726192984E+01 -0.22830911600E+02 -0.23682135471E+03  0.25501794966E+03  0.91790020676E+02 0.  0.
          5    1    3    3  502    0  0.50270771924E+02  0.24485330441E+02 -0.75335408843E+02  0.93912609069E+02  0.41800000000E+01 0. -1.
         -5    1    3    3    0  502 -0.52043391222E+02 -0.16544188414E+01 -0.24985809985E+03  0.25526024785E+03  0.41800000000E+01 0. -1.
        -11    1    4    4    0    0 -0.26314096270E+02 -0.46747963681E+02 -0.10207599645E+03  0.11531397496E+03  0.00000000000E+00 0. -1.
         11    1    4    4    0    0  0.28086715568E+02  0.23917052081E+02 -0.13474535826E+03  0.13970397469E+03  0.00000000000E+00 0.  1.
</event>
<event>
 8    1  0.7262913E-009  0.1061128E+03  0.7561462E-02  0.1267943E+00
          1   -1    0    0  501    0  0.00000000000E+00  0.00000000000E+00  0.88640545719E+02  0.88640545719E+02  0.00000000000E+00 0. -1.
         -1   -1    0    0    0  501 -0.00000000000E+00 -0.00000000000E+00 -0.13677615152E+03  0.13677615152E+03  0.00000000000E+00 0.  1.
         25    2    1    2    0    0 -0.45208017443E+01 -0.18294619554E+02 -0.31297287119E+02  0.13031867722E+03  0.12509319206E+03 0.  0.
         23    2    1    2    0    0  0.45208017443E+01  0.18294619554E+02 -0.16838318685E+02  0.95098020021E+02  0.91678643548E+02 0.  0.
          5    1    3    3  502    0 -0.44723946401E+02  0.31562288324E+02 -0.36499698309E+02  0.65925031684E+02  0.41800000000E+01 0. -1.
         -5    1    3    3    0  502  0.40203144657E+02 -0.49856907877E+02  0.52024111900E+01  0.64393645537E+02  0.41800000000E+01 0. -1.
        -11    1    4    4    0    0 -0.28161549101E+02 -0.25843595649E+02 -0.11516080190E+02  0.39919724282E+02  0.00000000000E+00 0.  1.
         11    1    4    4    0    0  0.32682350845E+02  0.44138215203E+02 -0.53222384941E+01  0.55178295739E+02  0.00000000000E+00 0. -1.
</event>
<event>
 8    1  0.7262913E-009  0.1175920E+03  0.7561462E-02  0.1247123E+00
         -1   -1    0    0    0  501 -0.00000000000E+00  0.00000000000E+00  0.87922470269E+02  0.87922470269E+02  0.00000000000E+00 0.  1.
          1   -1    0    0  501    0  0.00000000000E+00 -0.00000000000E+00 -0.20973008230E+03  0.20973008230E+03  0.00000000000E+00 0. -1.
         25    2    1    2    0    0 -0.13920038247E+02  0.75884091609E+02 -0.35567697601E+02  0.15120943406E+03  0.12508824489E+03 0.  0.
         23    2    1    2    0    0  0.13920038247E+02 -0.75884091609E+02 -0.86239914428E+02  0.14644311851E+03  0.89755786969E+02 0.  0.
          5    1    3    3  502    0 -0.18767266778E+02  0.10867180958E+03 -0.40262074009E+02  0.11747459088E+03  0.41800000000E+01 0. -1.
         -5    1    3    3    0  502  0.48472285306E+01 -0.32787717970E+02  0.46943764084E+01  0.33734843174E+02  0.41800000000E+01 0. -1.
        -11    1    4    4    0    0 -0.18444638210E+02 -0.24036959389E+02  0.10454924128E+02  0.32051295354E+02  0.00000000000E+00 0.  1.
         11    1    4    4    0    0  0.32364676457E+02 -0.51847132220E+02 -0.96694838557E+02  0.11439182316E+03  0.00000000000E+00 0. -1.
</event>
<event>
 8    1  0.7262913E-009  0.6472659E+02  0.7561462E-02  0.1379003E+00
         -1   -1    0    0    0  501 -0.00000000000E+00  0.00000000000E+00  0.43061783333E+02  0.43061783333E+02  0.00000000000E+00 0.  1.
          1   -1    0    0  501    0  0.00000000000E+00 -0.00000000000E+00 -0.36620581680E+03  0.36620581680E+03  0.00000000000E+00 0. -1.
         25    2    1    2    0    0  0.20455305159E+02  0.93256362187E+01 -0.27561077674E+03  0.30350297036E+03  0.12508943106E+03 0.  0.
         23    2    1    2    0    0 -0.20455305159E+02 -0.93256362187E+01 -0.47533256728E+02  0.10576462977E+03  0.91767965085E+02 0.  0.
          5    1    3    3  502    0 -0.29573715354E+02  0.35032274968E+02 -0.39223159759E+02  0.60479695690E+02  0.41800000000E+01 0. -1.
         -5    1    3    3    0  502  0.50029020514E+02 -0.25706638750E+02 -0.23638761698E+03  0.24302327467E+03  0.41800000000E+01 0. -1.
        -11    1    4    4    0    0 -0.70604926956E+01 -0.11450634481E+02 -0.74433251370E+02  0.75639120147E+02  0.00000000000E+00 0. -1.
         11    1    4    4    0    0 -0.13394812464E+02  0.21249982622E+01  0.26899994642E+02  0.30125509627E+02  0.00000000000E+00 0.  1.
</event>
<event>
 8    1  0.7262913E-009  0.1095177E+03  0.7561462E-02  0.1261466E+00
         -1   -1    0    0    0  501 -0.00000000000E+00  0.00000000000E+00  0.12053035821E+03  0.12053035821E+03  0.00000000000E+00 0.  1.
          1   -1    0    0  501    0  0.00000000000E+00 -0.00000000000E+00 -0.12855744420E+03  0.12855744420E+03  0.00000000000E+00 0. -1.
         25    2    1    2    0    0 -0.29743795921E+02 -0.34557649783E+02  0.37194577693E+02  0.13823893852E+03  0.12509053905E+03 0.  0.
         23    2    1    2    0    0  0.29743795921E+02  0.34557649783E+02 -0.45221663676E+02  0.11084886389E+03  0.90352350307E+02 0.  0.
          5    1    3    3  502    0 -0.29570632690E+02  0.44566547489E+02  0.10803188515E+02  0.54724590039E+02  0.41800000000E+01 0. -1.
         -5    1    3    3    0  502 -0.17316323176E+00 -0.79124197272E+02  0.26391389178E+02  0.83514348481E+02  0.41800000000E+01 0. -1.
        -11    1    4    4    0    0  0.21765843014E+02  0.57702805714E+02 -0.26360020829E+01  0.61727742680E+02  0.00000000000E+00 0.  1.
         11    1    4    4    0    0  0.79779529068E+01 -0.23145155931E+02 -0.42585661593E+02  0.49121121210E+02  0.00000000000E+00 0. -1.
</event>
<event>
 8    1  0.7262913E-009  0.1051198E+03  0.7561462E-02  0.1269884E+00
          2   -1    0    0  501    0  0.00000000000E+00  0.00000000000E+00  0.19806735015E+03  0.19806735015E+03  0.00000000000E+00 0. -1.
         -2   -1    0    0    0  501 -0.00000000000E+00 -0.00000000000E+00 -0.80779349175E+02  0.80779349175E+02  0.00000000000E+00 0.  1.
         25    2    1    2    0    0 -0.32212489580E+02 -0.45988046828E+02  0.10082575292E+03  0.17019325082E+03  0.12508942896E+03 0.  0.
         23    2    1    2    0    0  0.32212489580E+02  0.45988046828E+02  0.16462248057E+02  0.10865344850E+03  0.91553379644E+02 0.  0.
          5    1    3    3  502    0 -0.44949931147E+02 -0.80468009148E+02  0.43595572869E+02  0.10204725954E+03  0.41800000000E+01 0. -1.
         -5    1    3    3    0  502  0.12737441568E+02  0.34479962320E+02  0.57230180049E+02  0.68145991282E+02  0.41800000000E+01 0. -1.
        -11    1    4    4    0    0  0.18115235100E+02 -0.11718710046E+02  0.39444057338E+02  0.44959132189E+02  0.00000000000E+00 0. -1.
         11    1    4    4    0    0  0.14097254480E+02  0.57706756874E+02 -0.22981809281E+02  0.63694316313E+02  0.00000000000E+00 0.  1.
</event>
<event>
 8    1  0.7262913E-009  0.9848787E+02  0.7561462E-02  0.1283508E+00
          2   -1    0    0  501    0  0.00000000000E+00  0.00000000000E+00  0.13824325359E+03  0.13824325359E+03  0.00000000000E+00 0. -1.
         -2   -1    0    0    0  501 -0.00000000000E+00 -0.00000000000E+00 -0.10052538702E+03  0.10052538702E+03  0.00000000000E+00 0.  1.
         25    2    1    2    0    0 -0.41631074060E+02 -0.19255477401E+02  0.36306456907E+02  0.13809017286E+03  0.12508723872E+03 0.  0.
         23    2    1    2    0    0  0.41631074060E+02  0.19255477401E+02  0.14114096684E+01  0.10067846775E+03  0.89611617849E+02 0.  0.
          5    1    3    3  502    0 -0.77286065907E+02  0.77972130167E+01 -0.37501456830E+01  0.77881117782E+02  0.41800000000E+01 0. -1.
         -5    1    3    3    0  502  0.35654991847E+02 -0.27052690418E+02  0.40056602590E+02  0.60209055079E+02  0.41800000000E+01 0. -1.
        -11    1    4    4    0    0 -0.12308446856E+02  0.16013169520E+02 -0.31492080876E+02  0.37412172084E+02  0.00000000000E+00 0.  1.
         11    1    4    4    0    0  0.53939520917E+02  0.32423078810E+01  0.32903490545E+02  0.63266295665E+02  0.00000000000E+00 0. -1.
</event>
<event>
 8    1  0.7262913E-009  0.1643321E+03  0.7561462E-02  0.1183891E+00
         -1   -1    0    0    0  501 -0.00000000000E+00  0.00000000000E+00  0.17128509507E+03  0.17128509507E+03  0.00000000000E+00 0.  1.
          1   -1    0    0  501    0  0.00000000000E+00 -0.00000000000E+00 -0.18132629571E+03  0.18132629571E+03  0.00000000000E+00 0. -1.
         25    2    1    2    0    0  0.77954669238E+02 -0.10441374919E+03 -0.52920298725E+02  0.18822018129E+03  0.12508843732E+03 0.  0.
         23    2    1    2    0    0 -0.77954669238E+02  0.10441374919E+03  0.42879098082E+02  0.16439120948E+03  0.90590789963E+02 0.  0.
          5    1    3    3  502    0  0.27514588713E+02  0.21285835190E+02  0.13201316962E+02  0.37441775349E+02  0.41800000000E+01 0. -1.
         -5    1    3    3    0  502  0.50440080526E+02 -0.12569958438E+03 -0.66121615687E+02  0.15077840594E+03  0.41800000000E+01 0. -1.
        -11    1    4    4    0    0 -0.97653307020E+02  0.95179714328E+02  0.32008686834E+02  0.14007106205E+03  0.00000000000E+00 0.  1.
         11    1    4    4    0    0  0.19698637781E+02  0.92340348650E+01  0.10870411248E+02  0.24320147431E+02  0.00000000000E+00 0. -1.
</event>
<event>
 8    1  0.7262913E-009  0.3038982E+03  0.7561462E-02  0.1083308E+00
         -1   -1    0    0    0  501 -0.00000000000E+00  0.00000000000E+00  0.72690065612E+02  0.72690065612E+02  0.00000000000E+00 0.  1.
          1   -1    0    0  501    0  0.00000000000E+00 -0.00000000000E+00 -0.15923531292E+04  0.15923531292E+04  0.00000000000E+00 0. -1.
         25    2    1    2    0    0  0.96688767552E+02 -0.27473907752E+03 -0.43837502957E+03  0.54097145150E+03  0.12508863378E+03 0.  0.
         23    2    1    2    0    0 -0.96688767552E+02  0.27473907752E+03 -0.10812880340E+04  0.11240717433E+04  0.97586849079E+02 0.  0.
          5    1    3    3  502    0  0.71835272284E+01 -0.19909275012E+03 -0.28973977787E+03  0.35164774632E+03  0.41800000000E+01 0. -1.
         -5    1    3    3    0  502  0.89505240323E+02 -0.75646327403E+02 -0.14863525170E+03  0.18932370518E+03  0.41800000000E+01 0. -1.
        -11    1    4    4    0    0 -0.26239749065E+02  0.71506658758E+02 -0.14957566892E+03  0.16785293387E+03  0.00000000000E+00 0.  1.
         11    1    4    4    0    0 -0.70449018487E+02  0.20323241876E+03 -0.93171236512E+03  0.95621880946E+03  0.00000000000E+00 0. -1.
</event>
<event>
 8    1  0.7262913E-009  0.1144525E+03  0.7561462E-02  0.1252540E+00
          2   -1    0    0  501    0  0.00000000000E+00  0.00000000000E+00  0.53167423145E+03  0.53167423145E+03  0.00000000000E+00 0. -1.
         -2   -1    0    0    0  501 -0.00000000000E+00 -0.00000000000E+00 -0.37197595372E+02  0.37197595372E+02  0.00000000000E+00 0.  1.
         25    2    1    2    0    0 -0.13007859095E+02 -0.74153813666E+02  0.18068448532E+03  0.23229826789E+03  0.12509040551E+03 0.  0.
         23    2    1    2    0    0  0.13007859095E+02  0.74153813666E+02  0.31379215077E+03  0.33657355894E+03  0.95646506548E+02 0.  0.
          5    1    3    3  502    0 -0.47638041527E+02 -0.26870305688E+02  0.16138501798E+03  0.17045231813E+03  0.41800000000E+01 0.  1.
         -5    1    3    3    0  502  0.34630182432E+02 -0.47283507977E+02  0.19299467339E+02  0.61845949758E+02  0.41800000000E+01 0.  1.
        -11    1    4    4    0    0  0.44823007185E+02  0.13515457067E+02  0.77347102654E+02  0.90412077964E+02  0.00000000000E+00 0.  1.
         11    1    4    4    0    0 -0.31815148089E+02  0.60638356599E+02  0.23644504811E+03  0.24616148098E+03  0.00000000000E+00 0. -1.
</event>
<event>
 8    1  0.7262913E-009  0.8988910E+02  0.7561462E-02  0.1303120E+00
          1   -1    0    0  501    0  0.00000000000E+00  0.00000000000E+00  0.41611797743E+02  0.41611797743E+02  0.00000000000E+00 0. -1.
         -1   -1    0    0    0  501 -0.00000000000E+00 -0.00000000000E+00 -0.33668466135E+03  0.33668466135E+03  0.00000000000E+00 0.  1.
         25    2    1    2    0    0 -0.38592196702E+02  0.25339241972E+02 -0.19109923007E+03  0.23302177666E+03  0.12509515513E+03 0.  0.
         23    2    1    2    0    0  0.38592196702E+02 -0.25339241972E+02 -0.10397363354E+03  0.14527468243E+03  0.90348115941E+02 0.  0.
          5    1    3    3  502    0 -0.83926042606E+02  0.10770200652E+02 -0.13427120535E+03  0.15876336743E+03  0.41800000000E+01 0.  1.
         -5    1    3    3    0  502  0.45333845903E+02  0.14569041320E+02 -0.56828024713E+02  0.74258409235E+02  0.41800000000E+01 0.  1.
        -11    1    4    4    0    0  0.21864071604E+02 -0.20182850775E+02 -0.11871647032E+03  0.12238866540E+03  0.00000000000E+00 0.  1.
         11    1    4    4    0    0  0.16728125098E+02 -0.51563911973E+01  0.14742836778E+02  0.22886017035E+02  0.00000000000E+00 0. -1.
</event>
<event>
 8    1  0.7262913E-009  0.1130638E+03  0.7561462E-02  0.1254999E+00
          2   -1    0    0  501    0  0.00000000000E+00  0.00000000000E+00  0.54623835311E+03  0.54623835311E+03  0.00000000000E+00 0. -1.
         -2   -1    0    0    0  501 -0.00000000000E+00 -0.00000000000E+00 -0.74927952931E+02  0.74927952931E+02  0.00000000000E+00 0.  1.
         25    2    1    2    0    0  0.12452570435E+02  0.10648727059E+03  0.44809122118E+03  0.47741786931E+03  0.12508986423E+03 0.  0.
         23    2    1    2    0    0 -0.12452570435E+02 -0.10648727059E+03  0.23219179007E+02  0.14374843673E+03  0.92897133873E+02 0.  0.
          5    1    3    3  502    0  0.17431012815E+02  0.80948699790E+02  0.44285578024E+03  0.45054993808E+03  0.41800000000E+01 0. -1.
         -5    1    3    3    0  502 -0.49784423804E+01  0.25538570800E+02  0.52354409326E+01  0.26867931234E+02  0.41800000000E+01 0. -1.
        -11    1    4    4    0    0  0.12307916297E+02 -0.66225477449E+01  0.37363709963E+02  0.39892226867E+02  0.00000000000E+00 0. -1.
         11    1    4    4    0    0 -0.24760486732E+02 -0.99864722845E+02 -0.14144530956E+02  0.10385620987E+03  0.00000000000E+00 0.  1.
</event>
<event>
 8    1  0.7262913E-009  0.7060144E+02  0.7561462E-02  0.1358060E+00
         -1   -1    0    0    0  501 -0.00000000000E+00  0.00000000000E+00  0.38515301231E+02  0.38515301231E+02  0.00000000000E+00 0.  1.
          1   -1    0    0  501    0  0.00000000000E+00 -0.00000000000E+00 -0.39833584790E+03  0.39833584790E+03  0.00000000000E+00 0. -1.
         25    2    1    2    0    0 -0.21734453578E+02 -0.38855008580E+02 -0.27441239857E+03  0.30484499564E+03  0.12508480609E+03 0.  0.
         23    2    1    2    0    0  0.21734453578E+02  0.38855008580E+02 -0.85408148102E+02  0.13200615350E+03  0.90271671272E+02 0.  0.
          5    1    3    3  502    0  0.79939730454E+01 -0.13137617888E+02  0.92600214788E+01  0.18431522092E+02  0.41800000000E+01 0.  1.
         -5    1    3    3    0  502 -0.29728426624E+02 -0.25717390691E+02 -0.28367242005E+03  0.28641347355E+03  0.41800000000E+01 0.  1.
        -11    1    4    4    0    0  0.48808905307E+02  0.20023100792E+02 -0.15948029789E+02  0.55114185622E+02  0.00000000000E+00 0.  1.
         11    1    4    4    0    0 -0.27074451729E+02  0.18831907788E+02 -0.69460118313E+02  0.76891967873E+02  0.00000000000E+00 0. -1.
</event>
<event>
 8    1  0.7262913E-009  0.1675649E+03  0.7561462E-02  0.1180411E+00
         -1   -1    0    0    0  501 -0.00000000000E+00  0.00000000000E+00  0.33933149195E+02  0.33933149195E+02  0.00000000000E+00 0.  1.
          1   -1    0    0  501    0  0.00000000000E+00 -0.00000000000E+00 -0.10142188168E+04  0.10142188168E+04  0.00000000000E+00 0. -1.
         25    2    1    2    0    0 -0.92210551640E+02  0.11820071998E+03 -0.54064573532E+03  0.57482098488E+03  0.12508859858E+03 0.  0.
         23    2    1    2    0    0  0.92210551640E+02 -0.11820071998E+03 -0.43963993230E+03  0.47333098114E+03  0.91020610814E+02 0.  0.
          5    1    3    3  502    0 -0.68316714639E+00  0.47566501989E+02 -0.44188655531E+02  0.65062650626E+02  0.41800000000E+01 0. -1.
         -5    1    3    3    0  502 -0.91527384494E+02  0.70634217988E+02 -0.49645707979E+03  0.50975833425E+03  0.41800000000E+01 0. -1.
        -11    1    4    4    0    0 -0.87479699860E+01 -0.47827779504E+02 -0.17224202329E+03  0.17897300930E+03  0.00000000000E+00 0. -1.
         11    1    4    4    0    0  0.10095852163E+03 -0.70372940472E+02 -0.26739790901E+03  0.29435797184E+03  0.00000000000E+00 0.  1.
</event>
<event>
 8    1  0.7262913E-009  0.1053183E+03  0.7561462E-02  0.1269494E+00
         -2   -1    0    0    0  501 -0.00000000000E+00  0.00000000000E+00  0.14997945670E+02  0.14997945670E+02  0.00000000000E+00 0.  1.
          2   -1    0    0  501    0  0.00000000000E+00 -0.00000000000E+00 -0.10417633035E+04  0.10417633035E+04  0.00000000000E+00 0. -1.
         25    2    1    2    0    0  0.23084963599E+02  0.22318825587E+02 -0.80600708919E+03  0.81628771201E+03  0.12508859039E+03 0.  0.
         23    2    1    2    0    0 -0.23084963599E+02 -0.22318825587E+02 -0.22075826867E+03  0.24047353718E+03  0.89790107356E+02 0.  0.
          5    1    3    3  502    0 -0.57056875701E+01 -0.46090838181E+02 -0.46158842228E+03  0.46393778054E+03  0.41800000000E+01 0.  1.
         -5    1    3    3    0  502  0.28790651169E+02  0.68409663768E+02 -0.34441866691E+03  0.35234993147E+03  0.41800000000E+01 0.  1.
        -11    1    4    4    0    0  0.25852558626E+02 -0.30573511305E+02 -0.14065018461E+03  0.14623805528E+03  0.00000000000E+00 0. -1.
         11    1    4    4    0    0 -0.48937522225E+02  0.82546857177E+01 -0.80108084059E+02  0.94235481902E+02  0.00000000000E+00 0.  1.
</event>
<event>
 8    1  0.7262913E-009  0.1063256E+03  0.7561462E-02  0.1267530E+00
         -2   -1    0    0    0  501 -0.00000000000E+00  0.00000000000E+00  0.19992262428E+03  0.19992262428E+03  0.00000000000E+00 0.  1.
          2   -1    0    0  501    0  0.00000000000E+00 -0.00000000000E+00 -0.68437276046E+02  0.68437276046E+02  0.00000000000E+00 0. -1.
         25    2    1    2    0    0  0.52872080121E+01  0.43672753888E+02  0.80435715068E+02  0.15508943920E+03  0.12509023101E+03 0.  0.
         23    2    1    2    0    0 -0.52872080121E+01 -0.43672753888E+02  0.51049633165E+02  0.11327046112E+03  0.91043222238E+02 0.  0.
          5    1    3    3  502    0 -0.10499508446E+02 -0.33201643671E+02 -0.88210570893E+01  0.36164516701E+02  0.41800000000E+01 0.  1.
         -5    1    3    3    0  502  0.15786716458E+02  0.76874397558E+02  0.89256772157E+02  0.11892492250E+03  0.41800000000E+01 0.  1.
        -11    1    4    4    0    0  0.41313137498E+02 -0.13454455342E+02  0.11068893498E+02  0.44836571030E+02  0.00000000000E+00 0.  1.
         11    1    4    4    0    0 -0.46600345510E+02 -0.30218298546E+02  0.39980739667E+02  0.68433890091E+02  0.00000000000E+00 0. -1.
</event>
<event>
 8    1  0.7262913E-009  0.1091242E+03  0.7561462E-02  0.1262200E+00
         -1   -1    0    0    0  501 -0.00000000000E+00  0.00000000000E+00  0.11333777037E+02  0.11333777037E+02  0.00000000000E+00 0.  1.
          1   -1    0    0  501    0  0.00000000000E+00 -0.00000000000E+00 -0.10928687558E+04  0.10928687558E+04  0.00000000000E+00 0. -1.
         25    2    1    2    0    0  0.18357728256E+02 -0.47813107799E+01 -0.71526460276E+03  0.72636728689E+03  0.12508443702E+03 0.  0.
         23    2    1    2    0    0 -0.18357728256E+02  0.47813107799E+01 -0.36627037598E+03  0.37783524592E+03  0.90805383219E+02 0.  0.
          5    1    3    3  502    0  0.74126961224E+01 -0.64280690094E+02 -0.41565932344E+03  0.42068646371E+03  0.41800000000E+01 0.  1.
         -5    1    3    3    0  502  0.10945032134E+02  0.59499379314E+02 -0.29960527932E+03  0.30568082318E+03  0.41800000000E+01 0.  1.
        -11    1    4    4    0    0 -0.48802981922E+02 -0.20750305174E+02 -0.21013553698E+03  0.21672390296E+03  0.00000000000E+00 0. -1.
         11    1    4    4    0    0  0.30445253666E+02  0.25531615954E+02 -0.15613483899E+03  0.16111134296E+03  0.00000000000E+00 0.  1.
</event>
<event>
 8    1  0.7262913E-009  0.9790502E+02  0.7561462E-02  0.1284764E+00
          1   -1    0    0  501    0  0.00000000000E+00  0.00000000000E+00  0.72798770315E+02  0.72798770315E+02  0.00000000000E+00 0. -1.
         -1   -1    0    0    0  501 -0.00000000000E+00 -0.00000000000E+00 -0.20214383078E+03  0.20214383078E+03  0.00000000000E+00 0.  1.
         25    2    1    2    0    0 -0.82902162888E+01 -0.19527248827E+02 -0.13125685510E+03  0.18255574880E+03  0.12509275868E+03 0.  0.
         23    2    1    2    0    0  0.82902162888E+01  0.19527248827E+02  0.19117946362E+01  0.92386852301E+02  0.89897910912E+02 0.  0.
          5    1    3    3  502    0  0.36398123043E+02 -0.40446893234E+02 -0.11992238041E+03  0.13175592684E+03  0.41800000000E+01 0. -1.
         -5    1    3    3    0  502 -0.44688339331E+02  0.20919644407E+02 -0.11334474689E+02  0.50799821956E+02  0.41800000000E+01 0. -1.
        -11    1    4    4    0    0  0.46926030612E+02  0.24202690745E+02 -0.43079690420E+01  0.52975288442E+02  0.00000000000E+00 0.  1.
         11    1    4    4    0    0 -0.38635814323E+02 -0.46754419176E+01  0.62197636782E+01  0.39411563858E+02  0.00000000000E+00 0. -1.
</event>
<event>
 8    1  0.7262913E-009  0.1082639E+03  0.7561462E-02  0.1263819E+00
          2   -1    0    0  501    0  0.00000000000E+00  0.00000000000E+00  0.57101818728E+03  0.57101818728E+03  0.00000000000E+00 0. -1.
         -2   -1    0    0    0  501 -0.00000000000E+00 -0.00000000000E+00 -0.23155497624E+02  0.23155497624E+02  0.00000000000E+00 0.  1.
         25    2    1    2    0    0  0.23322479711E+02  0.11606624429E+02  0.37410648699E+03  0.39532432330E+03  0.12508798980E+03 0.  0.
         23    2    1    2    0    0 -0.23322479711E+02 -0.11606624429E+02  0.17375620266E+03  0.19884936160E+03  0.93119272201E+02 0.  0.
          5    1    3    3  502    0  0.39701238574E+02 -0.49292071843E+02  0.16103209177E+03  0.17307427213E+03  0.41800000000E+01 0. -1.
         -5    1    3    3    0  502 -0.16378758863E+02  0.60898696272E+02  0.21307439522E+03  0.22225005118E+03  0.41800000000E+01 0. -1.
        -11    1    4    4    0    0  0.31870675439E+02  0.49972757625E+01  0.10101794951E+03  0.10604404198E+03  0.00000000000E+00 0.  1.
         11    1    4    4    0    0 -0.55193155150E+02 -0.16603900192E+02  0.72738253159E+02  0.92805319620E+02  0.00000000000E+00 0. -1.
</event>
<event>
 8    1  0.7262913E-009  0.5626313E+02  0.7561462E-02  0.1414218E+00
          2   -1    0    0  501    0  0.00000000000E+00  0.00000000000E+00  0.88351302617E+03  0.88351302617E+03  0.00000000000E+00 0. -1.
         -2   -1    0    0    0  501 -0.00000000000E+00 -0.00000000000E+00 -0.20791289228E+02  0.20791289228E+02  0.00000000000E+00 0.  1.
         25    2    1    2    0    0  0.12357552266E+01  0.14440270041E+02  0.73640772644E+03  0.74709666211E+03  0.12508810687E+03 0.  0.
         23    2    1    2    0    0 -0.12357552266E+01 -0.14440270041E+02  0.12631401050E+03  0.15720765329E+03  0.92460632240E+02 0.  0.
          5    1    3    3  502    0  0.12649880335E+02 -0.21700195421E+00  0.32806063807E+01  0.13722293560E+02  0.41800000000E+01 0. -1.
         -5    1    3    3    0  502 -0.11414125108E+02  0.14657271995E+02  0.73312712006E+03  0.73337436855E+03  0.41800000000E+01 0. -1.
        -11    1    4    4    0    0  0.25628000567E+02  0.22759044875E+02  0.16189374143E+02  0.37905993878E+02  0.00000000000E+00 0. -1.
         11    1    4    4    0    0 -0.26863755793E+02 -0.37199314916E+02  0.11012463636E+03  0.11930165941E+03  0.00000000000E+00 0.  1.
</event>
<event>
 8    1  0.7262913E-009  0.1432724E+03  0.7561462E-02  0.1208992E+00
         -2   -1    0    0    0  501 -0.00000000000E+00  0.00000000000E+00  0.73082051570E+02  0.73082051570E+02  0.00000000000E+00 0.  1.
          2   -1    0    0  501    0  0.00000000000E+00 -0.00000000000E+00 -0.48066456228E+03  0.48066456228E+03  0.00000000000E+00 0. -1.
         25    2    1    2    0    0  0.96752925495E+02  0.96255561324E+02 -0.32799095355E+03  0.37663192627E+03  0.12508909063E+03 0.  0.
         23    2    1    2    0    0 -0.96752925495E+02 -0.96255561324E+02 -0.79591557159E+02  0.17711468758E+03  0.80053325409E+02 0.  0.
          5    1    3    3  502    0  0.84532399732E+02  0.93156178969E+02 -0.33756038184E+03  0.36026141074E+03  0.41800000000E+01 0. -1.
         -5    1    3    3    0  502  0.12220525763E+02  0.30993823541E+01  0.95694282845E+01  0.16370515526E+02  0.41800000000E+01 0. -1.
        -11    1    4    4    0    0 -0.87166728778E+02 -0.50683144922E+02 -0.22271088472E+02  0.10326093727E+03  0.00000000000E+00 0.  1.
         11    1    4    4    0    0 -0.95861967169E+01 -0.45572416402E+02 -0.57320468687E+02  0.73853750309E+02  0.00000000000E+00 0. -1.
</event>
<event>
 8    1  0.7262913E-009  0.9867830E+02  0.7561462E-02  0.1283100E+00
         -2   -1    0    0    0  501 -0.00000000000E+00  0.00000000000E+00  0.41754412374E+02  0.41754412374E+02  0.00000000000E+00 0.  1.
          2   -1    0    0  501    0  0.00000000000E+00 -0.00000000000E+00 -0.38618208279E+03  0.38618208279E+03  0.00000000000E+00 0. -1.
         25    2    1    2    0    0 -0.12722715673E+02  0.51098947752E+02 -0.12247745513E+03  0.18281523585E+03  0.12509082096E+03 0.  0.
         23    2    1    2    0    0  0.12722715673E+02 -0.51098947752E+02 -0.22195021529E+03  0.24512125932E+03  0.89719361052E+02 0.  0.
          5    1    3    3  502    0 -0.26994489166E+02  0.67855562696E+02 -0.17149560800E+02  0.75130950146E+02  0.41800000000E+01 0. -1.
         -5    1    3    3    0  502  0.14271773493E+02 -0.16756614944E+02 -0.10532789433E+03  0.10768428570E+03  0.41800000000E+01 0. -1.
        -11    1    4    4    0    0  0.10902214446E+02  0.24169540409E+02 -0.37781273861E+02  0.46156793845E+02  0.00000000000E+00 0.  1.
         11    1    4    4    0    0  0.18205012272E+01 -0.75268488161E+02 -0.18416894142E+03  0.19896446547E+03  0.00000000000E+00 0. -1.
</event>
<event>
 8    1  0.7262913E-009  0.1292583E+03  0.7561462E-02  0.1228560E+00
          2   -1    0    0  501    0  0.00000000000E+00  0.00000000000E+00  0.10314159387E+04  0.10314159387E+04  0.00000000000E+00 0. -1.
         -2   -1    0    0    0  501 -0.00000000000E+00 -0.00000000000E+00 -0.36789061322E+02  0.36789061322E+02  0.00000000000E+00 0.  1.
         25    2    1    2    0    0  0.80290825697E+02  0.52521456212E+01  0.90518724009E+03  0.91732656371E+03  0.12509949293E+03 0.  0.
         23    2    1    2    0    0 -0.80290825697E+02 -0.52521456212E+01  0.89439637256E+02  0.15087843629E+03  0.91053018065E+02 0.  0.
          5    1    3    3  502    0 -0.14835392486E+02 -0.40330505375E+02  0.26279352843E+03  0.26631663395E+03  0.41800000000E+01 0.  1.
         -5    1    3    3    0  502  0.95126218183E+02  0.45582650996E+02  0.64239371167E+03  0.65100992976E+03  0.41800000000E+01 0.  1.
        -11    1    4    4    0    0  0.61238643320E+01  0.19048305614E+02  0.48010488502E+02  0.52012947112E+02  0.00000000000E+00 0. -1.
         11    1    4    4    0    0 -0.86414690029E+02 -0.24300451235E+02  0.41429148754E+02  0.98865489174E+02  0.00000000000E+00 0.  1.
</event>
<event>
 8    1  0.7262913E-009  0.9550731E+02  0.7561462E-02  0.1290038E+00
         -1   -1    0    0    0  501 -0.00000000000E+00  0.00000000000E+00  0.32961874686E+03  0.32961874686E+03  0.00000000000E+00 0.  1.
          1   -1    0    0  501    0  0.00000000000E+00 -0.00000000000E+00 -0.42761710533E+02  0.42761710533E+02  0.00000000000E+00 0. -1.
         25    2    1    2    0    0  0.28519241253E+02  0.40268308477E+02  0.13776167343E+03  0.19251072993E+03  0.12508884315E+03 0.  0.
         23    2    1    2    0    0 -0.28519241253E+02 -0.40268308477E+02  0.14909536290E+03  0.17986972747E+03  0.87685847386E+02 0.  0.
          5    1    3    3  502    0 -0.35325395699E+02  0.50420976652E+02  0.34738205672E+02  0.70812243300E+02  0.41800000000E+01 0. -1.
         -5    1    3    3    0  502  0.63844636953E+02 -0.10152668175E+02  0.10302346776E+03  0.12169848663E+03  0.41800000000E+01 0. -1.
        -11    1    4    4    0    0 -0.15080649017E+02  0.60870343473E+01 -0.60797757728E+01  0.17362074627E+02  0.00000000000E+00 0. -1.
         11    1    4    4    0    0 -0.13438592236E+02 -0.46355342824E+02  0.15517513867E+03  0.16250765284E+03  0.00000000000E+00 0.  1.
</event>
<event>
 8    1  0.7262913E-009  0.1019603E+03  0.7561462E-02  0.1276227E+00
          1   -1    0    0  501    0  0.00000000000E+00  0.00000000000E+00  0.19985644617E+04  0.19985644617E+04  0.00000000000E+00 0. -1.
         -1   -1    0    0    0  501 -0.00000000000E+00 -0.00000000000E+00 -0.11124033680E+02  0.11124033680E+02  0.00000000000E+00 0.  1.
         25    2    1    2    0    0  0.25176458748E+02 -0.31745080409E+02  0.16871320189E+04  0.16922479559E+04  0.12508833212E+03 0.  0.
         23    2    1    2    0    0 -0.25176458748E+02  0.31745080409E+02  0.30030840912E+03  0.31744053949E+03  0.94560833930E+02 0.  0.
          5    1    3    3  502    0  0.73932493290E+02 -0.14350157288E+02  0.78270687574E+03  0.78633292333E+03  0.41800000000E+01 0. -1.
         -5    1    3    3    0  502 -0.48756034543E+02 -0.17394923121E+02  0.90442514313E+03  0.90591503254E+03  0.41800000000E+01 0. -1.
        -11    1    4    4    0    0  0.19233331714E+02 -0.38846325478E+01  0.10822004721E+02  0.22408195042E+02  0.00000000000E+00 0.  1.
         11    1    4    4    0    0 -0.44409790462E+02  0.35629712957E+02  0.28948640440E+03  0.29503234445E+03  0.00000000000E+00 0. -1.
</event>
<event>
 8    1  0.7262913E-009  0.1373709E+03  0.7561462E-02  0.1216911E+00
          2   -1    0    0  501    0  0.00000000000E+00  0.00000000000E+00  0.10346870332E+04  0.10346870332E+04  0.00000000000E+00 0.  1.
         -2   -1    0    0    0  501 -0.00000000000E+00 -0.00000000000E+00 -0.18898120546E+02  0.18898120546E+02  0.00000000000E+00 0. -1.
         25    2    1    2    0    0  0.83934206330E+02 -0.23195364263E+02  0.54224208660E+03  0.56325915203E+03  0.12510561920E+03 0.  0.
         23    2    1    2    0    0 -0.83934206330E+02  0.23195364263E+02  0.47354682603E+03  0.49032600169E+03  0.92682336888E+02 0.  0.
          5    1    3    3  502    0  0.11243044085E+03  0.34838880196E+01  0.37896931588E+03  0.39533271593E+03  0.41800000000E+01 0.  1.
         -5    1    3    3    0  502 -0.28496234525E+02 -0.26679252282E+02  0.16327277071E+03  0.16792643610E+03  0.41800000000E+01 0.  1.
        -11    1    4    4    0    0 -0.97159252209E+02  0.36848679351E+02  0.43636925946E+03  0.44857092646E+03  0.00000000000E+00 0.  1.
         11    1    4    4    0    0  0.13225045880E+02 -0.13653315088E+02  0.37177566569E+02  0.41755075229E+02  0.00000000000E+00 0. -1.
</event>
<event>
 8    1  0.7262913E-009  0.1052100E+03  0.7561462E-02  0.1269707E+00
          1   -1    0    0  501    0  0.00000000000E+00  0.00000000000E+00  0.21987340021E+03  0.21987340021E+03  0.00000000000E+00 0. -1.
         -1   -1    0    0    0  501 -0.00000000000E+00 -0.00000000000E+00 -0.68249354550E+02  0.68249354550E+02  0.00000000000E+00 0.  1.
         25    2    1    2    0    0 -0.29927628563E+02 -0.23027958918E+01  0.28940385442E+02  0.13185514462E+03  0.12508903802E+03 0.  0.
         23    2    1    2    0    0  0.29927628563E+02  0.23027958918E+01  0.12268366021E+03  0.15626761014E+03  0.92018039944E+02 0.  0.
          5    1    3    3  502    0 -0.66458674127E+02  0.34301261041E+02  0.60569782815E+01  0.75149792159E+02  0.41800000000E+01 0.  1.
         -5    1    3    3    0  502  0.36531045563E+02 -0.36604056933E+02  0.22883407161E+02  0.56705352456E+02  0.41800000000E+01 0.  1.
        -11    1    4    4    0    0  0.53242293573E+02 -0.14156857993E+02  0.11370592080E+03  0.12634949497E+03  0.00000000000E+00 0. -1.
         11    1    4    4    0    0 -0.23314665010E+02  0.16459653885E+02  0.89777394119E+01  0.29918115173E+02  0.00000000000E+00 0.  1.
</event>
<event>
 8    1  0.7262913E-009  0.9909886E+02  0.7561462E-02  0.1282202E+00
          2   -1    0    0  501    0  0.00000000000E+00  0.00000000000E+00  0.83056296029E+02  0.83056296029E+02  0.00000000000E+00 0. -1.
         -2   -1    0    0    0  501 -0.00000000000E+00 -0.00000000000E+00 -0.15873334940E+03  0.15873334940E+03  0.00000000000E+00 0.  1.
         25    2    1    2    0    0  0.47360586752E+02 -0.12206224565E+02 -0.58453802444E+02  0.14648003792E+03  0.12509011709E+03 0.  0.
         23    2    1    2    0    0 -0.47360586752E+02  0.12206224565E+02 -0.17223250925E+02  0.95309607503E+02  0.79970393362E+02 0.  0.
          5    1    3    3  502    0  0.60326783134E+02 -0.42215603578E+02  0.60989220998E+01  0.74000994585E+02  0.41800000000E+01 0. -1.
         -5    1    3    3    0  502 -0.12966196383E+02  0.30009379013E+02 -0.64552724544E+02  0.72479043340E+02  0.41800000000E+01 0. -1.
        -11    1    4    4    0    0 -0.35014467662E+02  0.44671071835E+02 -0.50108015586E+00  0.56760626194E+02  0.00000000000E+00 0. -1.
         11    1    4    4    0    0 -0.12346119089E+02 -0.32464847270E+02 -0.16722170769E+02  0.38548981310E+02  0.00000000000E+00 0.  1.
</event>
<event>
 8    1  0.7262913E-009  0.1799142E+03  0.7561462E-02  0.1167886E+00
          1   -1    0    0  501    0  0.00000000000E+00  0.00000000000E+00  0.81214015039E+03  0.81214015039E+03  0.00000000000E+00 0. -1.
         -1   -1    0    0    0  501 -0.00000000000E+00 -0.00000000000E+00 -0.47707530797E+02  0.47707530797E+02  0.00000000000E+00 0.  1.
         25    2    1    2    0    0 -0.60030809624E+02  0.13169320876E+03  0.56947835144E+03  0.60075150874E+03  0.12509989269E+03 0.  0.
         23    2    1    2    0    0  0.60030809624E+02 -0.13169320876E+03  0.19495426815E+03  0.25909617245E+03  0.90425994986E+02 0.  0.
          5    1    3    3  502    0 -0.87920715848E+02  0.44269815906E+02  0.26524829095E+03  0.28295582186E+03  0.41800000000E+01 0.  1.
         -5    1    3    3    0  502  0.27889906223E+02  0.87423392858E+02  0.30423006050E+03  0.31779568688E+03  0.41800000000E+01 0.  1.
        -11    1    4    4    0    0  0.50716942602E+02 -0.15721284108E+02  0.47284162377E+02  0.71099641719E+02  0.00000000000E+00 0.  1.
         11    1    4    4    0    0  0.93138670220E+01 -0.11597192466E+03  0.14767010577E+03  0.18799653073E+03  0.00000000000E+00 0. -1.
</event>
<event>
 8    1  0.7262913E-009  0.1584034E+03  0.7561462E-02  0.1190511E+00
         -1   -1    0    0    0  501 -0.00000000000E+00  0.00000000000E+00  0.59532171391E+02  0.59532171391E+02  0.00000000000E+00 0.  1.
          1   -1    0    0  501    0  0.00000000000E+00 -0.00000000000E+00 -0.45569689088E+03  0.45569689088E+03  0.00000000000E+00 0. -1.
         25    2    1    2    0    0 -0.31426496029E+02  0.11814693677E+03 -0.17922558524E+03  0.25043093943E+03  0.12509005435E+03 0.  0.
         23    2    1    2    0    0  0.31426496029E+02 -0.11814693677E+03 -0.21693913425E+03  0.26479812284E+03  0.90050733328E+02 0.  0.
          5    1    3    3  502    0 -0.41942312781E+02 -0.11430430605E+02 -0.58204343235E+02  0.72766958963E+02  0.41800000000E+01 0. -1.
         -5    1    3    3    0  502  0.10515816752E+02  0.12957736737E+03 -0.12102124201E+03  0.17766398046E+03  0.41800000000E+01 0. -1.
        -11    1    4    4    0    0  0.53602256243E+02 -0.58083581264E+02 -0.74429549199E+02  0.10856639480E+03  0.00000000000E+00 0.  1.
         11    1    4    4    0    0 -0.22175760214E+02 -0.60063355505E+02 -0.14250958505E+03  0.15623172804E+03  0.00000000000E+00 0. -1.
</event>
<event>
 8    1  0.7262913E-009  0.9543904E+02  0.7561462E-02  0.1290190E+00
         -2   -1    0    0    0  501 -0.00000000000E+00  0.00000000000E+00  0.14888302786E+04  0.14888302786E+04  0.00000000000E+00 0.  1.
          2   -1    0    0  501    0  0.00000000000E+00 -0.00000000000E+00 -0.11477752824E+02  0.11477752824E+02  0.00000000000E+00 0. -1.
         25    2    1    2    0    0  0.52866278891E+02 -0.25834888025E+02  0.10588834947E+04  0.10678685841E+04  0.12508706023E+03 0.  0.
         23    2    1    2    0    0 -0.52866278891E+02  0.25834888025E+02  0.41846903108E+03  0.43243944735E+03  0.91789219221E+02 0.  0.
          5    1    3    3  502    0  0.17338614204E+02  0.18170451090E+02  0.40050683046E+02  0.47458639337E+02  0.41800000000E+01 0.  1.
         -5    1    3    3    0  502  0.35527664687E+02 -0.44005339114E+02  0.10188328117E+04  0.10204099447E+04  0.41800000000E+01 0.  1.
        -11    1    4    4    0    0 -0.21502593995E+01  0.51720866247E+02  0.21597561493E+03  0.22209263352E+03  0.00000000000E+00 0.  1.
         11    1    4    4    0    0 -0.50716019492E+02 -0.25885978222E+02  0.20249341616E+03  0.21034681383E+03  0.00000000000E+00 0. -1.
</event>
<event>
 8    1  0.7262913E-009  0.1960756E+03  0.7561462E-02  0.1153093E+00
         -1   -1    0    0    0  501 -0.00000000000E+00  0.00000000000E+00  0.12197067410E+03  0.12197067410E+03  0.00000000000E+00 0.  1.
          1   -1    0    0  501    0  0.00000000000E+00 -0.00000000000E+00 -0.36787634890E+03  0.36787634890E+03  0.00000000000E+00 0. -1.
         25    2    1    2    0    0 -0.10738290038E+03 -0.13831233558E+03 -0.71203046537E+02  0.22667075080E+03  0.12509342894E+03 0.  0.
         23    2    1    2    0    0  0.10738290038E+03  0.13831233558E+03 -0.17470262827E+03  0.26317627220E+03  0.89885218244E+02 0.  0.
          5    1    3    3  502    0 -0.17097111078E+02 -0.11156084276E+03 -0.80819269209E+01  0.11322951377E+03  0.41800000000E+01 0.  1.
         -5    1    3    3    0  502 -0.90285789304E+02 -0.26751492821E+02 -0.63121119616E+02  0.11344123704E+03  0.41800000000E+01 0.  1.
        -11    1    4    4    0    0  0.11917781039E+02 -0.48603385973E+01  0.55098670417E+01  0.14000536811E+02  0.00000000000E+00 0.  1.
         11    1    4    4    0    0  0.95465119343E+02  0.14317267418E+03 -0.18021249531E+03  0.24917573539E+03  0.00000000000E+00 0. -1.
</event>
<event>
 8    1  0.7262913E-009  0.1029597E+03  0.7561462E-02  0.1274192E+00
          2   -1    0    0  501    0  0.00000000000E+00  0.00000000000E+00  0.92961223571E+02  0.92961223571E+02  0.00000000000E+00 0. -1.
         -2   -1    0    0    0  501 -0.00000000000E+00 -0.00000000000E+00 -0.14188198091E+03  0.14188198091E+03  0.00000000000E+00 0.  1.
         25    2    1    2    0    0 -0.18939640569E+02 -0.31453740048E+02 -0.20324353228E+02  0.13193938300E+03  0.12508746422E+03 0.  0.
         23    2    1    2    0    0  0.18939640569E+02  0.31453740048E+02 -0.28596404115E+02  0.10290382149E+03  0.91779052077E+02 0.  0.
          5    1    3    3  502    0 -0.39411611137E+02  0.31212634262E+02  0.20311784627E+02  0.54383312006E+02  0.41800000000E+01 0.  1.
         -5    1    3    3    0  502  0.20471970568E+02 -0.62666374310E+02 -0.40636137855E+02  0.77556070993E+02  0.41800000000E+01 0.  1.
        -11    1    4    4    0    0  0.15750524643E+02  0.59314951219E+02 -0.39313345021E+02  0.72882656108E+02  0.00000000000E+00 0.  1.
         11    1    4    4    0    0  0.31891159261E+01 -0.27861211170E+02  0.10716940906E+02  0.30021165378E+02  0.00000000000E+00 0. -1.
</event>
<event>
 8    1  0.7262913E-009  0.8031699E+02  0.7561462E-02  0.1328154E+00
         -1   -1    0    0    0  501 -0.00000000000E+00  0.00000000000E+00  0.24656779095E+02  0.24656779095E+02  0.00000000000E+00 0.  1.
          1   -1    0    0  501    0  0.00000000000E+00 -0.00000000000E+00 -0.54914216389E+03  0.54914216389E+03  0.00000000000E+00 0. -1.
         25    2    1    2    0    0  0.33509024886E+02  0.11479060731E+02 -0.24052916842E+03  0.27341508677E+03  0.12508759021E+03 0.  0.
         23    2    1    2    0    0 -0.33509024886E+02 -0.11479060731E+02 -0.28395621637E+03  0.30038385622E+03  0.91349355091E+02 0.  0.
          5    1    3    3  502    0  0.35677855383E+02  0.34170253870E+02 -0.22997232475E+02  0.54652179424E+02  0.41800000000E+01 0.  1.
         -5    1    3    3    0  502 -0.21688304972E+01 -0.22691193138E+02 -0.21753193595E+03  0.21876290734E+03  0.41800000000E+01 0.  1.
        -11    1    4    4    0    0  0.82392127522E+01  0.28748316427E+02 -0.41876281894E+02  0.51458461980E+02  0.00000000000E+00 0.  1.
         11    1    4    4    0    0 -0.41748237638E+02 -0.40227377158E+02 -0.24207993448E+03  0.24892539424E+03  0.00000000000E+00 0. -1.
</event>
<event>
 8    1  0.7262913E-009  0.2176410E+03  0.7561462E-02  0.1135654E+00
          1   -1    0    0  501    0  0.00000000000E+00  0.00000000000E+00  0.10416140019E+04  0.10416140019E+04  0.00000000000E+00 0. -1.
         -1   -1    0    0    0  501 -0.00000000000E+00 -0.00000000000E+00 -0.58943974542E+02  0.58943974542E+02  0.00000000000E+00 0.  1.
         25    2    1    2    0    0 -0.16224860470E+03 -0.99051393615E+02  0.75974262793E+03  0.79309000929E+03  0.12508842406E+03 0.  0.
         23    2    1    2    0    0  0.16224860470E+03  0.99051393615E+02  0.22292739945E+03  0.30746796717E+03  0.93295965115E+02 0.  0.
          5    1    3    3  502    0 -0.63620446542E+02 -0.10823310127E+03  0.36193112245E+03  0.38311039561E+03  0.41800000000E+01 0. -1.
         -5    1    3    3    0  502 -0.98628158162E+02  0.91817076526E+01  0.39781150549E+03  0.40997961368E+03  0.41800000000E+01 0. -1.
        -11    1    4    4    0    0  0.89332103653E+02  0.22872035675E+01  0.78454119526E+02  0.11891385501E+03  0.00000000000E+00 0. -1.
         11    1    4    4    0    0  0.72916501051E+02  0.96764190047E+02  0.14447327992E+03  0.18855411216E+03  0.00000000000E+00 0.  1.
</event>
<event>
 8    1  0.7262913E-009  0.1071400E+03  0.7561462E-02  0.1265960E+00
         -1   -1    0    0    0  501 -0.00000000000E+00  0.00000000000E+00  0.13715696713E+03  0.13715696713E+03  0.00000000000E+00 0.  1.
          1   -1    0    0  501    0  0.00000000000E+00 -0.00000000000E+00 -0.11700939233E+03  0.11700939233E+03  0.00000000000E+00 0. -1.
         25    2    1    2    0    0 -0.24081267456E+00  0.53556264791E+02 -0.30127525945E+02  0.13937008563E+03  0.12509205195E+03 0.  0.
         23    2    1    2    0    0  0.24081267456E+00 -0.53556264791E+02  0.50275100741E+02  0.11479627383E+03  0.88217159563E+02 0.  0.
          5    1    3    3  502    0 -0.39761881442E+02 -0.25270295281E+02 -0.48576203638E+01  0.47546439562E+02  0.41800000000E+01 0.  1.
         -5    1    3    3    0  502  0.39521068768E+02  0.78826560071E+02 -0.25269905581E+02  0.91823646068E+02  0.41800000000E+01 0.  1.
        -11    1    4    4    0    0  0.23845666896E+02 -0.49237319002E+02 -0.46029873384E+01  0.54900973623E+02  0.00000000000E+00 0. -1.
         11    1    4    4    0    0 -0.23604854222E+02 -0.43189457884E+01  0.54878088079E+02  0.59895300206E+02  0.00000000000E+00 0.  1.
</event>
<event>
 8    1  0.7262913E-009  0.2584601E+03  0.7561462E-02  0.1108072E+00
          2   -1    0    0  501    0  0.00000000000E+00  0.00000000000E+00  0.17118964315E+04  0.17118964315E+04  0.00000000000E+00 0. -1.
         -2   -1    0    0    0  501 -0.00000000000E+00 -0.00000000000E+00 -0.75642007175E+02  0.75642007175E+02  0.00000000000E+00 0.  1.
         25    2    1    2    0    0  0.24435996259E+03  0.22498063798E+02  0.14295180705E+04  0.14558115472E+04  0.12508953989E+03 0.  0.
         23    2    1    2    0    0 -0.24435996259E+03 -0.22498063798E+02  0.20673635390E+03  0.33172689152E+03  0.84171588663E+02 0.  0.
          5    1    3    3  502    0  0.16426289530E+03 -0.40788747342E+02  0.10058347307E+04  0.10199838227E+04  0.41800000000E+01 0.  1.
         -5    1    3    3    0  502  0.80097067288E+02  0.63286811140E+02  0.42368333976E+03  0.43582772450E+03  0.41800000000E+01 0.  1.
        -11    1    4    4    0    0 -0.22807066359E+02 -0.36384061577E+01 -0.61418820407E+01  0.23898179643E+02  0.00000000000E+00 0.  1.
         11    1    4    4    0    0 -0.22155289623E+03 -0.18859657640E+02  0.21287823594E+03  0.30782871187E+03  0.00000000000E+00 0. -1.
</event>
<event>
 8    1  0.7262913E-009  0.1864147E+03  0.7561462E-02  0.1161735E+00
         -2   -1    0    0    0  501 -0.00000000000E+00  0.00000000000E+00  0.22351672253E+03  0.22351672253E+03  0.00000000000E+00 0. -1.
          2   -1    0    0  501    0  0.00000000000E+00 -0.00000000000E+00 -0.22012303992E+03  0.22012303992E+03  0.00000000000E+00 0.  1.
         25    2    1    2    0    0  0.77799646788E+02 -0.15680603251E+03  0.83561784229E+02  0.23080599275E+03  0.12509163694E+03 0.  0.
         23    2    1    2    0    0 -0.77799646788E+02  0.15680603251E+03 -0.80168101622E+02  0.21283376969E+03  0.90721398422E+02 0.  0.
          5    1    3    3  502    0  0.37738586014E+02 -0.11416521870E+03 -0.96220077898E+01  0.12069777740E+03  0.41800000000E+01 0.  1.
         -5    1    3    3    0  502  0.40061060773E+02 -0.42640813814E+02  0.93183792019E+02  0.11010821535E+03  0.41800000000E+01 0.  1.
        -11    1    4    4    0    0 -0.35589580056E+01  0.10079964742E+03 -0.22286542924E+02  0.10329532950E+03  0.00000000000E+00 0. -1.
         11    1    4    4    0    0 -0.74240688782E+02  0.56006385097E+02 -0.57881558698E+02  0.10953844019E+03  0.00000000000E+00 0.  1.
</event>
<event>
 8    1  0.7262913E-009  0.1118890E+03  0.7561462E-02  0.1257111E+00
          4   -1    0    0  501    0  0.00000000000E+00  0.00000000000E+00  0.46770996000E+03  0.46770996000E+03  0.00000000000E+00 0. -1.
         -4   -1    0    0    0  501 -0.00000000000E+00 -0.00000000000E+00 -0.33967944689E+02  0.33967944689E+02  0.00000000000E+00 0.  1.
         25    2    1    2    0    0 -0.53235395634E+02 -0.35403373433E+02  0.22412556310E+03  0.26451319436E+03  0.12509019050E+03 0.  0.
         23    2    1    2    0    0  0.53235395634E+02  0.35403373433E+02  0.20961645221E+03  0.23716471032E+03  0.90667726271E+02 0.  0.
          5    1    3    3  502    0  0.38185850539E+02  0.40339680752E+01  0.85160773735E+02  0.93510758007E+02  0.41800000000E+01 0. -1.
         -5    1    3    3    0  502 -0.91421246173E+02 -0.39437341508E+02  0.13896478936E+03  0.17100243636E+03  0.41800000000E+01 0. -1.
        -11    1    4    4    0    0  0.31045929804E+02 -0.11902150824E+02  0.16526621616E+02  0.37130044084E+02  0.00000000000E+00 0.  1.
         11    1    4    4    0    0  0.22189465830E+02  0.47305524256E+02  0.19308983059E+03  0.20003466624E+03  0.00000000000E+00 0. -1.
</event>
<event>
 8    1  0.7262913E-009  0.8231203E+02  0.7561462E-02  0.1322615E+00
         -2   -1    0    0    0  501 -0.00000000000E+00  0.00000000000E+00  0.77881402151E+03  0.77881402151E+03  0.00000000000E+00 0.  1.
          2   -1    0    0  501    0  0.00000000000E+00 -0.00000000000E+00 -0.23337545778E+02  0.23337545778E+02  0.00000000000E+00 0. -1.
         25    2    1    2    0    0  0.60159489671E+02 -0.48306689402E+02  0.48553383094E+03  0.50729013278E+03  0.12508987728E+03 0.  0.
         23    2    1    2    0    0 -0.60159489671E+02  0.48306689402E+02  0.26994264480E+03  0.29486143451E+03  0.90119551929E+02 0.  0.
          5    1    3    3  502    0  0.52418688066E+01 -0.10288201585E+02 -0.42200940377E+01  0.12984832465E+02  0.41800000000E+01 0. -1.
         -5    1    3    3    0  502  0.54917620865E+02 -0.38018487817E+02  0.48975392497E+03  0.49430530032E+03  0.41800000000E+01 0. -1.
        -11    1    4    4    0    0 -0.17118150846E+02 -0.41017515974E+01  0.11442077578E+01  0.17639860145E+02  0.00000000000E+00 0. -1.
         11    1    4    4    0    0 -0.43041338825E+02  0.52408441000E+02  0.26879843704E+03  0.27722157436E+03  0.00000000000E+00 0.  1.
</event>
<event>
 8    1  0.7262913E-009  0.7373660E+02  0.7561462E-02  0.1347829E+00
          1   -1    0    0  501    0  0.00000000000E+00  0.00000000000E+00  0.12350282808E+03  0.12350282808E+03  0.00000000000E+00 0. -1.
         -1   -1    0    0    0  501 -0.00000000000E+00 -0.00000000000E+00 -0.98277826425E+02  0.98277826425E+02  0.00000000000E+00 0.  1.
         25    2    1    2    0    0 -0.18335087699E+02 -0.64956039394E+01  0.14683927294E+02  0.12742968879E+03  0.12507733429E+03 0.  0.
         23    2    1    2    0    0  0.18335087699E+02  0.64956039394E+01  0.10541074359E+02  0.94350965712E+02  0.91720347637E+02 0.  0.
          5    1    3    3  502    0  0.34816454845E+01 -0.29380624295E+02 -0.48320625516E+02  0.56812834725E+02  0.41800000000E+01 0.  1.
         -5    1    3    3    0  502 -0.21816733184E+02  0.22885020355E+02  0.63004552810E+02  0.70616854067E+02  0.41800000000E+01 0.  1.
        -11    1    4    4    0    0  0.51385325157E+02  0.10377392681E+02  0.24987130248E+02  0.58073217565E+02  0.00000000000E+00 0. -1.
         11    1    4    4    0    0 -0.33050237458E+02 -0.38817887418E+01 -0.14446055889E+02  0.36277748147E+02  0.00000000000E+00 0.  1.
</event>
<event>
 8    1  0.7262913E-009  0.1151831E+03  0.7561462E-02  0.1251262E+00
         -3   -1    0    0    0  501 -0.00000000000E+00  0.00000000000E+00  0.25136744308E+02  0.25136744308E+02  0.00000000000E+00 0.  1.
          3   -1    0    0  501    0  0.00000000000E+00 -0.00000000000E+00 -0.61545396226E+03  0.61545396226E+03  0.00000000000E+00 0. -1.
         25    2    1    2    0    0  0.26866609333E+02  0.53782090872E+02 -0.36128681382E+03  0.38702590488E+03  0.12508621510E+03 0.  0.
         23    2    1    2    0    0 -0.26866609333E+02 -0.53782090872E+02 -0.22903040413E+03  0.25356480169E+03  0.90696497424E+02 0.  0.
          5    1    3    3  502    0 -0.38702905103E+02 -0.47213642112E+01 -0.19497725737E+03  0.19888139540E+03  0.41800000000E+01 0.  1.
         -5    1    3    3    0  502  0.65569514436E+02  0.58503455083E+02 -0.16630955645E+03  0.18814450948E+03  0.41800000000E+01 0.  1.
        -11    1    4    4    0    0 -0.10535765023E+01 -0.71730835779E+02 -0.19213366704E+03  0.20508966048E+03  0.00000000000E+00 0. -1.
         11    1    4    4    0    0 -0.25813032830E+02  0.17948744907E+02 -0.36896737089E+02  0.48475141211E+02  0.00000000000E+00 0.  1.
</event>
<event>
 8    1  0.7262913E-009  0.1157214E+03  0.7561462E-02  0.1250327E+00
         -1   -1    0    0    0  501 -0.00000000000E+00  0.00000000000E+00  0.14343662040E+02  0.14343662040E+02  0.00000000000E+00 0.  1.
          1   -1    0    0  501    0  0.00000000000E+00 -0.00000000000E+00 -0.14462967698E+04  0.14462967698E+04  0.00000000000E+00 0. -1.
         25    2    1    2    0    0  0.53997004336E+02 -0.25151019657E+02 -0.11593374262E+04  0.11675852786E+04  0.12507543558E+03 0.  0.
         23    2    1    2    0    0 -0.53997004336E+02  0.25151019657E+02 -0.27261568154E+03  0.29305515329E+03  0.89519622326E+02 0.  0.
          5    1    3    3  502    0 -0.35275121766E+02 -0.13445135533E+02 -0.58366293616E+03  0.58489742804E+03  0.41800000000E+01 0. -1.
         -5    1    3    3    0  502  0.89272126102E+02 -0.11705884125E+02 -0.57567449009E+03  0.58268785054E+03  0.41800000000E+01 0. -1.
        -11    1    4    4    0    0 -0.17878836818E+02  0.54139804986E+02 -0.10900150556E+03  0.12301259896E+03  0.00000000000E+00 0. -1.
         11    1    4    4    0    0 -0.36118167518E+02 -0.28988785328E+02 -0.16361417598E+03  0.17004255433E+03  0.00000000000E+00 0.  1.
</event>
<event>
 8    1  0.7262913E-009  0.3595310E+03  0.7561462E-02  0.1058770E+00
         -1   -1    0    0    0  501 -0.00000000000E+00  0.00000000000E+00  0.13340252805E+03  0.13340252805E+03  0.00000000000E+00 0.  1.
          1   -1    0    0  501    0  0.00000000000E+00 -0.00000000000E+00 -0.11282331506E+04  0.11282331506E+04  0.00000000000E+00 0. -1.
         25    2    1    2    0    0  0.18659416664E+03 -0.30189135916E+03 -0.68854683483E+03  0.78466525959E+03  0.12508816929E+03 0.  0.
         23    2    1    2    0    0 -0.18659416664E+03  0.30189135916E+03 -0.30628378772E+03  0.47697041905E+03  0.87950248799E+02 0.  0.
          5    1    3    3  502    0  0.34835908215E+02 -0.12725283588E+03 -0.35467448234E+03  0.37844191835E+03  0.41800000000E+01 0.  1.
         -5    1    3    3    0  502  0.15175825843E+03 -0.17463852328E+03 -0.33387235249E+03  0.40622334124E+03  0.41800000000E+01 0.  1.
        -11    1    4    4    0    0 -0.14257191738E+03  0.24813444905E+03 -0.28599449030E+03  0.40458658519E+03  0.00000000000E+00 0. -1.
         11    1    4    4    0    0 -0.44022249261E+02  0.53756910111E+02 -0.20289297425E+02  0.72383833863E+02  0.00000000000E+00 0.  1.
</event>
<event>
 8    1  0.7262913E-009  0.1154184E+03  0.7561462E-02  0.1250853E+00
          2   -1    0    0  501    0  0.00000000000E+00  0.00000000000E+00  0.47308122978E+03  0.47308122978E+03  0.00000000000E+00 0. -1.
         -2   -1    0    0    0  501 -0.00000000000E+00 -0.00000000000E+00 -0.32754608379E+02  0.32754608379E+02  0.00000000000E+00 0.  1.
         25    2    1    2    0    0 -0.78676785742E+01  0.50691897167E+02  0.31130127213E+03  0.33939786240E+03  0.12510338991E+03 0.  0.
         23    2    1    2    0    0  0.78676785742E+01 -0.50691897167E+02  0.12902534927E+03  0.16643797576E+03  0.91774126074E+02 0.  0.
          5    1    3    3  502    0 -0.43981565939E+02 -0.23829801820E+02  0.14747077307E+03  0.15577977695E+03  0.41800000000E+01 0. -1.
         -5    1    3    3    0  502  0.36113887365E+02  0.74521698988E+02  0.16383049906E+03  0.18361808545E+03  0.41800000000E+01 0. -1.
        -11    1    4    4    0    0  0.13482679877E+02  0.21465140160E+02  0.65148233299E+02  0.69905845254E+02  0.00000000000E+00 0. -1.
         11    1    4    4    0    0 -0.56150013026E+01 -0.72157037327E+02  0.63877115973E+02  0.96532130509E+02  0.00000000000E+00 0.  1.
</event>
<event>
 8    1  0.7262913E-009  0.1394181E+03  0.7561462E-02  0.1214114E+00
          2   -1    0    0  501    0  0.00000000000E+00  0.00000000000E+00  0.39357547294E+03  0.39357547294E+03  0.00000000000E+00 0.  1.
         -2   -1    0    0    0  501 -0.00000000000E+00 -0.00000000000E+00 -0.53039591818E+02  0.53039591818E+02  0.00000000000E+00 0. -1.
         25    2    1    2    0    0  0.23778657972E+02  0.89969877614E+02  0.20817308097E+03  0.26008176755E+03  0.12508593333E+03 0.  0.
         23    2    1    2    0    0 -0.23778657972E+02 -0.89969877614E+02  0.13236280015E+03  0.18653329721E+03  0.92815713388E+02 0.  0.
          5    1    3    3  502    0 -0.19286950874E+02  0.10145410460E+03  0.17885102343E+03  0.20656738076E+03  0.41800000000E+01 0. -1.
         -5    1    3    3    0  502  0.43065608846E+02 -0.11484226981E+02  0.29322057546E+02  0.53514386789E+02  0.41800000000E+01 0. -1.
        -11    1    4    4    0    0 -0.38407229604E+02  0.11531652168E+01  0.48094237929E+02  0.61558921351E+02  0.00000000000E+00 0.  1.
         11    1    4    4    0    0  0.14628571632E+02 -0.91123042831E+02  0.84268562226E+02  0.12497437586E+03  0.00000000000E+00 0. -1.
</event>
<event>
 8    1  0.7262913E-009  0.1166410E+03  0.7561462E-02  0.1248743E+00
          2   -1    0    0  501    0  0.00000000000E+00  0.00000000000E+00  0.22790604392E+03  0.22790604392E+03  0.00000000000E+00 0. -1.
         -2   -1    0    0    0  501 -0.00000000000E+00 -0.00000000000E+00 -0.77770092382E+02  0.77770092382E+02  0.00000000000E+00 0.  1.
         25    2    1    2    0    0 -0.52813193270E+02 -0.50284810715E+02  0.55105598343E+02  0.15492963570E+03  0.12509504178E+03 0.  0.
         23    2    1    2    0    0  0.52813193270E+02  0.50284810715E+02  0.95030353195E+02  0.15074650060E+03  0.91520182705E+02 0.  0.
          5    1    3    3  502    0  0.25562744152E+02 -0.75215714723E+01 -0.23596709441E+02  0.35837201654E+02  0.41800000000E+01 0. -1.
         -5    1    3    3    0  502 -0.78375937422E+02 -0.42763239243E+02  0.78702307784E+02  0.11909243405E+03  0.41800000000E+01 0. -1.
        -11    1    4    4    0    0 -0.26023452776E+02  0.18484559722E+02  0.28630028062E+02  0.42878637447E+02  0.00000000000E+00 0.  1.
         11    1    4    4    0    0  0.78836646046E+02  0.31800250993E+02  0.66400325134E+02  0.10786786315E+03  0.00000000000E+00 0. -1.
</event>
<event>
 8    1  0.7262913E-009  0.1101675E+03  0.7561462E-02  0.1260260E+00
          3   -1    0    0  501    0  0.00000000000E+00  0.00000000000E+00  0.20671910336E+03  0.20671910336E+03  0.00000000000E+00 0. -1.
         -3   -1    0    0    0  501 -0.00000000000E+00 -0.00000000000E+00 -0.74332351748E+02  0.74332351748E+02  0.00000000000E+00 0.  1.
         25    2    1    2    0    0  0.49291619801E+02 -0.29327496621E+02  0.54600307819E+02  0.14804890391E+03  0.12509004154E+03 0.  0.
         23    2    1    2    0    0 -0.49291619801E+02  0.29327496621E+02  0.77786443794E+02  0.13300255120E+03  0.91373858122E+02 0.  0.
          5    1    3    3  502    0 -0.23450613483E+02  0.30650386382E+02 -0.39660645754E+00  0.38820190041E+02  0.41800000000E+01 0.  1.
         -5    1    3    3    0  502  0.72742233284E+02 -0.59977883003E+02  0.54996914277E+02  0.10922871387E+03  0.41800000000E+01 0.  1.
        -11    1    4    4    0    0 -0.59313643930E+02  0.34733910410E+01  0.85595062382E+02  0.10419542939E+03  0.00000000000E+00 0. -1.
         11    1    4    4    0    0  0.10022024129E+02  0.25854105580E+02 -0.78086185875E+01  0.28807121815E+02  0.00000000000E+00 0.  1.
</event>
<event>
 8    1  0.7262913E-009  0.1195523E+03  0.7561462E-02  0.1243837E+00
         -1   -1    0    0    0  501 -0.00000000000E+00  0.00000000000E+00  0.52377448341E+02  0.52377448341E+02  0.00000000000E+00 0.  1.
          1   -1    0    0  501    0  0.00000000000E+00 -0.00000000000E+00 -0.46278839780E+03  0.46278839780E+03  0.00000000000E+00 0. -1.
         25    2    1    2    0    0 -0.10799991794E+03  0.16823143025E+02 -0.19416051916E+03  0.25552362258E+03  0.12508802532E+03 0.  0.
         23    2    1    2    0    0  0.10799991794E+03 -0.16823143025E+02 -0.21625043029E+03  0.25964222356E+03  0.93288987751E+02 0.  0.
          5    1    3    3  502    0 -0.26140079043E+02  0.35530707866E+02 -0.15783716563E+03  0.16393833654E+03  0.41800000000E+01 0.  1.
         -5    1    3    3    0  502 -0.81859838899E+02 -0.18707564842E+02 -0.36323353533E+02  0.91585286039E+02  0.41800000000E+01 0.  1.
        -11    1    4    4    0    0  0.40391681295E+02 -0.15007517211E+02 -0.12360029188E+02  0.44827266392E+02  0.00000000000E+00 0.  1.
         11    1    4    4    0    0  0.67608236648E+02 -0.18156258140E+01 -0.20389040111E+03  0.21481495717E+03  0.00000000000E+00 0. -1.
</event>
<event>
 8    1  0.7262913E-009  0.1099759E+03  0.7561462E-02  0.1260615E+00
          3   -1    0    0  501    0  0.00000000000E+00  0.00000000000E+00  0.56763781586E+02  0.56763781586E+02  0.00000000000E+00 0. -1.
         -3   -1    0    0    0  501 -0.00000000000E+00 -0.00000000000E+00 -0.42244396336E+03  0.42244396336E+03  0.00000000000E+00 0.  1.
         25    2    1    2    0    0  0.18449294902E+02  0.88186664018E+02 -0.29453199727E+03  0.33243647634E+03  0.12509056396E+03 0.  0.
         23    2    1    2    0    0 -0.18449294902E+02 -0.88186664018E+02 -0.71148184504E+02  0.14677126861E+03  0.91446579693E+02 0.  0.
          5    1    3    3  502    0  0.34645722778E+02  0.10147539276E+03 -0.13979609350E+03  0.17623280512E+03  0.41800000000E+01 0.  1.
         -5    1    3    3    0  502 -0.16196427876E+02 -0.13288728738E+02 -0.15473590376E+03  0.15620367121E+03  0.41800000000E+01 0.  1.
        -11    1    4    4    0    0 -0.70387303375E+00 -0.38730039403E+02  0.18447497877E+02  0.42904796554E+02  0.00000000000E+00 0. -1.
         11    1    4    4    0    0 -0.17745421868E+02 -0.49456624614E+02 -0.89595682381E+02  0.10386647205E+03  0.00000000000E+00 0.  1.
</event>
<event>
 8    1  0.7262913E-009  0.7079586E+02  0.7561462E-02  0.1357407E+00
         -2   -1    0    0    0  501 -0.00000000000E+00  0.00000000000E+00  0.20066165226E+02  0.20066165226E+02  0.00000000000E+00 0.  1.
          2   -1    0    0  501    0  0.00000000000E+00 -0.00000000000E+00 -0.62216324682E+03  0.62216324682E+03  0.00000000000E+00 0. -1.
         25    2    1    2    0    0 -0.19300825115E+02  0.20794492224E+02 -0.34864017608E+03  0.37148421876E+03  0.12508245143E+03 0.  0.
         23    2    1    2    0    0  0.19300825115E+02 -0.20794492224E+02 -0.25345690551E+03  0.27074519328E+03  0.90871469541E+02 0.  0.
          5    1    3    3  502    0  0.16315084770E+02 -0.72714630058E+01 -0.31331475368E+03  0.31385133971E+03  0.41800000000E+01 0. -1.
         -5    1    3    3    0  502 -0.35615909886E+02  0.28065955230E+02 -0.35325422403E+02  0.57632879052E+02  0.41800000000E+01 0. -1.
        -11    1    4    4    0    0  0.44659809631E+02  0.39718906318E+00 -0.21695998442E+03  0.22150912215E+03  0.00000000000E+00 0. -1.
         11    1    4    4    0    0 -0.25358984515E+02 -0.21191681287E+02 -0.36496921090E+02  0.49236071131E+02  0.00000000000E+00 0.  1.
</event>
<event>
 8    1  0.7262913E-009  0.9409051E+02  0.7561462E-02  0.1293238E+00
         -2   -1    0    0    0  501 -0.00000000000E+00  0.00000000000E+00  0.42207381730E+03  0.42207381730E+03  0.00000000000E+00 0.  1.
          2   -1    0    0  501    0  0.00000000000E+00 -0.00000000000E+00 -0.36647084873E+02  0.36647084873E+02  0.00000000000E+00 0. -1.
         25    2    1    2    0    0  0.26888609782E+02  0.16742873032E+02  0.11895864399E+03  0.17550595232E+03  0.12509140333E+03 0.  0.
         23    2    1    2    0    0 -0.26888609782E+02 -0.16742873032E+02  0.26646808843E+03  0.28321494985E+03  0.90565691800E+02 0.  0.
          5    1    3    3  502    0  0.45474368271E+02 -0.21191888130E+02  0.12306543858E+01  0.50358725186E+02  0.41800000000E+01 0.  1.
         -5    1    3    3    0  502 -0.18585758489E+02  0.37934761162E+02  0.11772798961E+03  0.12514722714E+03  0.41800000000E+01 0.  1.
        -11    1    4    4    0    0  0.52144849828E+01  0.34515038080E+02  0.83238992008E+02  0.90261888401E+02  0.00000000000E+00 0. -1.
         11    1    4    4    0    0 -0.32103094765E+02 -0.51257911112E+02  0.18322909643E+03  0.19295306145E+03  0.00000000000E+00 0.  1.
</event>
<event>
 8    1  0.7262913E-009  0.3077060E+03  0.7561462E-02  0.1081451E+00
          2   -1    0    0  501    0  0.00000000000E+00  0.00000000000E+00  0.10136960914E+04  0.10136960914E+04  0.00000000000E+00 0. -1.
         -2   -1    0    0    0  501 -0.00000000000E+00 -0.00000000000E+00 -0.96262366390E+02  0.96262366390E+02  0.00000000000E+00 0.  1.
         25    2    1    2    0    0 -0.22134536239E+03 -0.18879612907E+03  0.41324915384E+03  0.52063289703E+03  0.12508398183E+03 0.  0.
         23    2    1    2    0    0  0.22134536239E+03  0.18879612907E+03  0.50418457119E+03  0.58932556079E+03  0.92004276845E+02 0.  0.
          5    1    3    3  502    0 -0.31419576667E+02 -0.10334095300E+03  0.13097989840E+03  0.16982269739E+03  0.41800000000E+01 0.  1.
         -5    1    3    3    0  502 -0.18992578573E+03 -0.85455176076E+02  0.28226925544E+03  0.35081019963E+03  0.41800000000E+01 0.  1.
        -11    1    4    4    0    0  0.14199040585E+03  0.16161905036E+03  0.30537070242E+03  0.37354150866E+03  0.00000000000E+00 0. -1.
         11    1    4    4    0    0  0.79354956546E+02  0.27177078709E+02  0.19881386878E+03  0.21578405213E+03  0.00000000000E+00 0.  1.
</event>
<event>
 8    1  0.7262913E-009  0.1906815E+03  0.7561462E-02  0.1157848E+00
          1   -1    0    0  501    0  0.00000000000E+00  0.00000000000E+00  0.18578876476E+04  0.18578876476E+04  0.00000000000E+00 0. -1.
         -1   -1    0    0    0  501 -0.00000000000E+00 -0.00000000000E+00 -0.23252250779E+02  0.23252250779E+02  0.00000000000E+00 0.  1.
         25    2    1    2    0    0  0.10845225907E+03  0.12447199731E+03  0.12493033349E+04  0.12663577378E+04  0.12509167388E+03 0.  0.
         23    2    1    2    0    0 -0.10845225907E+03 -0.12447199731E+03  0.58533206192E+03  0.61478216058E+03  0.89935041241E+02 0.  0.
          5    1    3    3  502    0  0.37903225248E+02  0.12037491910E+03  0.59594204316E+03  0.60917252634E+03  0.41800000000E+01 0. -1.
         -5    1    3    3    0  502  0.70549033826E+02  0.40970782136E+01  0.65336129176E+03  0.65718521148E+03  0.41800000000E+01 0. -1.
        -11    1    4    4    0    0 -0.90032271490E+02 -0.41191701071E+02  0.37410120235E+03  0.38698097595E+03  0.00000000000E+00 0.  1.
         11    1    4    4    0    0 -0.18419987584E+02 -0.83280296242E+02  0.21123085957E+03  0.22780118463E+03  0.00000000000E+00 0. -1.
</event>
<event>
 8    1  0.7262913E-009  0.1202297E+03  0.7561462E-02  0.1242719E+00
         -1   -1    0    0    0  501 -0.00000000000E+00  0.00000000000E+00  0.28001342489E+03  0.28001342489E+03  0.00000000000E+00 0.  1.
          1   -1    0    0  501    0  0.00000000000E+00 -0.00000000000E+00 -0.57900445698E+02  0.57900445698E+02  0.00000000000E+00 0. -1.
         25    2    1    2    0    0 -0.19004619770E+02 -0.65016840513E+02  0.12995642573E+03  0.19267753390E+03  0.12509034479E+03 0.  0.
         23    2    1    2    0    0  0.19004619770E+02  0.65016840513E+02  0.92156553469E+02  0.14523633669E+03  0.89511999333E+02 0.  0.
          5    1    3    3  502    0 -0.69972736865E+02 -0.43942307561E+02  0.54305519418E+02  0.98962983673E+02  0.41800000000E+01 0.  1.
         -5    1    3    3    0  502  0.50968117095E+02 -0.21074532952E+02  0.75650906310E+02  0.93714550230E+02  0.41800000000E+01 0.  1.
        -11    1    4    4    0    0  0.26174681412E+02 -0.92821199564E+01  0.15115178099E+01  0.27812881620E+02  0.00000000000E+00 0. -1.
         11    1    4    4    0    0 -0.71700616416E+01  0.74298960469E+02  0.90645035659E+02  0.11742345507E+03  0.00000000000E+00 0.  1.
</event>
<event>
 8    1  0.7262913E-009  0.1498660E+03  0.7561462E-02  0.1200638E+00
         -2   -1    0    0    0  501 -0.00000000000E+00  0.00000000000E+00  0.26686337697E+02  0.26686337697E+02  0.00000000000E+00 0.  1.
          2   -1    0    0  501    0  0.00000000000E+00 -0.00000000000E+00 -0.84733845276E+03  0.84733845276E+03  0.00000000000E+00 0. -1.
         25    2    1    2    0    0  0.19263107743E+02  0.10096934626E+03 -0.46212310052E+03  0.48966437124E+03  0.12509020833E+03 0.  0.
         23    2    1    2    0    0 -0.19263107743E+02 -0.10096934626E+03 -0.35852901454E+03  0.38436041921E+03  0.92865501603E+02 0.  0.
          5    1    3    3  502    0  0.40309992914E+02 -0.15044037506E+02 -0.14495530310E+03  0.15126377918E+03  0.41800000000E+01 0. -1.
         -5    1    3    3    0  502 -0.21046885171E+02  0.11601338377E+03 -0.31716779742E+03  0.33840059206E+03  0.41800000000E+01 0. -1.
        -11    1    4    4    0    0  0.37749515162E+02 -0.37579881176E+02 -0.13945916627E+03  0.14928540592E+03  0.00000000000E+00 0.  1.
         11    1    4    4    0    0 -0.57012622906E+02 -0.63389465088E+02 -0.21906984826E+03  0.23507501329E+03  0.00000000000E+00 0. -1.
</event>
<event>
 8    1  0.7262913E-009  0.1830798E+03  0.7561462E-02  0.1164855E+00
         -2   -1    0    0    0  501 -0.00000000000E+00  0.00000000000E+00  0.35659008627E+02  0.35659008627E+02  0.00000000000E+00 0.  1.
          2   -1    0    0  501    0  0.00000000000E+00 -0.00000000000E+00 -0.11384464788E+04  0.11384464788E+04  0.00000000000E+00 0. -1.
         25    2    1    2    0    0 -0.55159614196E+02 -0.14360778109E+03 -0.37459692284E+03  0.42383383780E+03  0.12508592901E+03 0.  0.
         23    2    1    2    0    0  0.55159614196E+02  0.14360778109E+03 -0.72819054729E+03  0.75027164958E+03  0.94764429908E+02 0.  0.
          5    1    3    3  502    0 -0.60167377091E+02 -0.20138053518E+02 -0.67258574068E+02  0.92557239863E+02  0.41800000000E+01 0. -1.
         -5    1    3    3    0  502  0.50077628945E+01 -0.12346972757E+03 -0.30733834877E+03  0.33127659794E+03  0.41800000000E+01 0. -1.
        -11    1    4    4    0    0  0.70280735359E+02  0.55544186372E+02 -0.41663526651E+03  0.42615664221E+03  0.00000000000E+00 0. -1.
         11    1    4    4    0    0 -0.15121121162E+02  0.88063594718E+02 -0.31155528078E+03  0.32411500737E+03  0.00000000000E+00 0.  1.
</event>
<event>
 8    1  0.7262913E-009  0.8797755E+02  0.7561462E-02  0.1307825E+00
          2   -1    0    0  501    0  0.00000000000E+00  0.00000000000E+00  0.40504734301E+03  0.40504734301E+03  0.00000000000E+00 0. -1.
         -2   -1    0    0    0  501 -0.00000000000E+00 -0.00000000000E+00 -0.39358379951E+02  0.39358379951E+02  0.00000000000E+00 0.  1.
         25    2    1    2    0    0 -0.58732138844E+01 -0.44341264542E+02  0.28738543001E+03  0.31660455349E+03  0.12508962997E+03 0.  0.
         23    2    1    2    0    0  0.58732138844E+01  0.44341264542E+02  0.78303533057E+02  0.12780116948E+03  0.90559666785E+02 0.  0.
          5    1    3    3  502    0 -0.47150306245E+02 -0.12671764783E+02  0.38533707648E+02  0.62338142632E+02  0.41800000000E+01 0. -1.
         -5    1    3    3    0  502  0.41277092360E+02 -0.31669499759E+02  0.24885172236E+03  0.25426641086E+03  0.41800000000E+01 0. -1.
        -11    1    4    4    0    0  0.24143759639E+02  0.50090189278E+02  0.89682766394E+02  0.10552225727E+03  0.00000000000E+00 0. -1.
         11    1    4    4    0    0 -0.18270545755E+02 -0.57489247363E+01 -0.11379233337E+02  0.22278912207E+02  0.00000000000E+00 0.  1.
</event>
<event>
 8    1  0.7262913E-009  0.1033723E+03  0.7561462E-02  0.1273360E+00
          1   -1    0    0  501    0  0.00000000000E+00  0.00000000000E+00  0.15228968483E+04  0.15228968483E+04  0.00000000000E+00 0. -1.
         -1   -1    0    0    0  501 -0.00000000000E+00 -0.00000000000E+00 -0.86157107384E+01  0.86157107384E+01  0.00000000000E+00 0.  1.
         25    2    1    2    0    0 -0.27698299571E+02 -0.88890203325E+01  0.10779499409E+04  0.10855728007E+04  0.12508405232E+03 0.  0.
         23    2    1    2    0    0  0.27698299571E+02  0.88890203325E+01  0.43633119674E+03  0.44593975837E+03  0.87356421451E+02 0.  0.
          5    1    3    3  502    0  0.39626081379E+02 -0.25171142917E+02  0.22946810208E+03  0.23425818029E+03  0.41800000000E+01 0. -1.
         -5    1    3    3    0  502 -0.67324380951E+02  0.16282122584E+02  0.84848183879E+03  0.85131462042E+03  0.41800000000E+01 0. -1.
        -11    1    4    4    0    0 -0.17709829236E+02 -0.27037306970E+02  0.11605114121E+03  0.12046792683E+03  0.00000000000E+00 0. -1.
         11    1    4    4    0    0  0.45408128808E+02  0.35926327302E+02  0.32028005553E+03  0.32547183154E+03  0.00000000000E+00 0.  1.
</event>
<event>
 8    1  0.7262913E-009  0.2083618E+03  0.7561462E-02  0.1142870E+00
         -2   -1    0    0    0  501 -0.00000000000E+00  0.00000000000E+00  0.86252568068E+02  0.86252568068E+02  0.00000000000E+00 0.  1.
          2   -1    0    0  501    0  0.00000000000E+00 -0.00000000000E+00 -0.57294218972E+03  0.57294218972E+03  0.00000000000E+00 0. -1.
         25    2    1    2    0    0 -0.18625740257E+03 -0.44279053716E+02 -0.21019577221E+03  0.31061596349E+03  0.12509020551E+03 0.  0.
         23    2    1    2    0    0  0.18625740257E+03  0.44279053716E+02 -0.27649384944E+03  0.34857879430E+03  0.91683545109E+02 0.  0.
          5    1    3    3  502    0 -0.18611525486E+03 -0.56229987101E+02 -0.22070733255E+03  0.29415964812E+03  0.41800000000E+01 0.  1.
         -5    1    3    3    0  502 -0.14214770476E+00  0.11950933385E+02  0.10511560342E+02  0.16456315370E+02  0.41800000000E+01 0.  1.
        -11    1    4    4    0    0  0.10448746390E+03 -0.18996033932E+02 -0.16764013280E+03  0.19844821375E+03  0.00000000000E+00 0. -1.
         11    1    4    4    0    0  0.81769938669E+02  0.63275087648E+02 -0.10885371664E+03  0.15013058054E+03  0.00000000000E+00 0.  1.
</event>
<event>
 8    1  0.7262913E-009  0.1380772E+03  0.7561462E-02  0.1215940E+00
          1   -1    0    0  501    0  0.00000000000E+00  0.00000000000E+00  0.38707068178E+02  0.38707068178E+02  0.00000000000E+00 0. -1.
         -1   -1    0    0    0  501 -0.00000000000E+00 -0.00000000000E+00 -0.88889357345E+03  0.88889357345E+03  0.00000000000E+00 0.  1.
         25    2    1    2    0    0  0.48066986926E+02 -0.11866969023E+03 -0.64413045676E+03  0.66853888850E+03  0.12508904628E+03 0.  0.
         23    2    1    2    0    0 -0.48066986926E+02  0.11866969023E+03 -0.20605604851E+03  0.25906175313E+03  0.90889857488E+02 0.  0.
          5    1    3    3  502    0  0.28138028561E+02 -0.55855215580E+01 -0.23378523739E+02  0.37242106205E+02  0.41800000000E+01 0. -1.
         -5    1    3    3    0  502  0.19928958365E+02 -0.11308416867E+03 -0.62075193302E+03  0.63129678230E+03  0.41800000000E+01 0. -1.
        -11    1    4    4    0    0 -0.91697024335E+01  0.66805086882E+02 -0.34666541396E+02  0.75820657926E+02  0.00000000000E+00 0.  1.
         11    1    4    4    0    0 -0.38897284493E+02  0.51864603347E+02 -0.17138950712E+03  0.18324109520E+03  0.00000000000E+00 0. -1.
</event>
<event>
 8    1  0.7262913E-009  0.9486031E+02  0.7561462E-02  0.1291491E+00
         -1   -1    0    0    0  501 -0.00000000000E+00  0.00000000000E+00  0.41424874162E+02  0.41424874162E+02  0.00000000000E+00 0.  1.
          1   -1    0    0  501    0  0.00000000000E+00 -0.00000000000E+00 -0.31402112916E+03  0.31402112916E+03  0.00000000000E+00 0. -1.
         25    2    1    2    0    0 -0.28327842443E+02 -0.20661418227E+02 -0.14790018481E+03  0.19684232277E+03  0.12507227712E+03 0.  0.
         23    2    1    2    0    0  0.28327842443E+02  0.20661418227E+02 -0.12469607019E+03  0.15860368056E+03  0.91524077188E+02 0.  0.
          5    1    3    3  502    0 -0.57802542700E+02  0.97139800195E+00 -0.16323350098E+02  0.60216291110E+02  0.41800000000E+01 0. -1.
         -5    1    3    3    0  502  0.29474700257E+02 -0.21632816229E+02 -0.13157683471E+03  0.13662603166E+03  0.41800000000E+01 0. -1.
        -11    1    4    4    0    0 -0.21703705339E+02  0.36513257786E+02 -0.75710566379E+02  0.86812203526E+02  0.00000000000E+00 0. -1.
         11    1    4    4    0    0  0.50031547782E+02 -0.15851839558E+02 -0.48985503808E+02  0.71791477030E+02  0.00000000000E+00 0.  1.
</event>
<event>
 8    1  0.7262913E-009  0.1147561E+03  0.7561462E-02  0.1252007E+00
         -3   -1    0    0    0  501 -0.00000000000E+00  0.00000000000E+00  0.19320084256E+03  0.19320084256E+03  0.00000000000E+00 0.  1.
          3   -1    0    0  501    0  0.00000000000E+00 -0.00000000000E+00 -0.13621422868E+03  0.13621422868E+03  0.00000000000E+00 0. -1.
         25    2    1    2    0    0 -0.59928910063E+02 -0.69783194730E+02 -0.48918665077E+02  0.16278966077E+03  0.12508504840E+03 0.  0.
         23    2    1    2    0    0  0.59928910063E+02  0.69783194730E+02  0.10590527896E+03  0.16662541046E+03  0.89927363876E+02 0.  0.
          5    1    3    3  502    0  0.25746703293E+02 -0.24974919703E+02 -0.55029973893E+02  0.65821043529E+02  0.41800000000E+01 0.  1.
         -5    1    3    3    0  502 -0.85675613356E+02 -0.44808275027E+02  0.61113088153E+01  0.96968617244E+02  0.41800000000E+01 0.  1.
        -11    1    4    4    0    0  0.46504175544E+02  0.31797652240E+02  0.11248480929E+03  0.12580366192E+03  0.00000000000E+00 0.  1.
         11    1    4    4    0    0  0.13424734519E+02  0.37985542490E+02 -0.65795303315E+01  0.40821748549E+02  0.00000000000E+00 0. -1.
</event>
<event>
 8    1  0.7262913E-009  0.2804016E+03  0.7561462E-02  0.1095470E+00
          1   -1    0    0  501    0  0.00000000000E+00  0.00000000000E+00  0.15601241161E+04  0.15601241161E+04  0.00000000000E+00 0. -1.
         -1   -1    0    0    0  501 -0.00000000000E+00 -0.00000000000E+00 -0.62936170375E+02  0.62936170375E+02  0.00000000000E+00 0.  1.
         25    2    1    2    0    0 -0.73099679737E+02  0.26372940148E+03  0.48922070484E+03  0.57435334887E+03  0.12509240958E+03 0.  0.
         23    2    1    2    0    0  0.73099679737E+02 -0.26372940148E+03  0.10079672409E+04  0.10487069376E+04  0.94294866769E+02 0.  0.
          5    1    3    3  502    0 -0.51992546698E+02  0.12406018387E+03  0.12498922540E+03  0.18366799666E+03  0.41800000000E+01 0. -1.
         -5    1    3    3    0  502 -0.21107133039E+02  0.13966921761E+03  0.36423147944E+03  0.39068535220E+03  0.41800000000E+01 0. -1.
        -11    1    4    4    0    0  0.30910680293E+02 -0.22662328986E+03  0.87405909830E+03  0.90348928770E+03  0.00000000000E+00 0.  1.
         11    1    4    4    0    0  0.42188999444E+02 -0.37106111611E+02  0.13390814257E+03  0.14521764989E+03  0.00000000000E+00 0. -1.
</event>
<event>
 8    1  0.7262913E-009  0.1041850E+03  0.7561462E-02  0.1271734E+00
          1   -1    0    0  501    0  0.00000000000E+00  0.00000000000E+00  0.49660600542E+02  0.49660600542E+02  0.00000000000E+00 0. -1.
         -1   -1    0    0    0  501 -0.00000000000E+00 -0.00000000000E+00 -0.33743727104E+03  0.33743727104E+03  0.00000000000E+00 0.  1.
         25    2    1    2    0    0 -0.44690759633E+02 -0.59477656169E+02 -0.16363831859E+03  0.21899939295E+03  0.12509348192E+03 0.  0.
         23    2    1    2    0    0  0.44690759633E+02  0.59477656169E+02 -0.12413835191E+03  0.16809847864E+03  0.85509721826E+02 0.  0.
          5    1    3    3  502    0 -0.28169356945E+02  0.18502103865E+02 -0.12646886789E+03  0.13094917894E+03  0.41800000000E+01 0.  1.
         -5    1    3    3    0  502 -0.16521402687E+02 -0.77979760034E+02 -0.37169450703E+02  0.88050214010E+02  0.41800000000E+01 0.  1.
        -11    1    4    4    0    0  0.17141114132E+02 -0.10002797598E+02 -0.77494230309E+02  0.79995184134E+02  0.00000000000E+00 0.  1.
         11    1    4    4    0    0  0.27549645501E+02  0.69480453767E+02 -0.46644121596E+02  0.88103294503E+02  0.00000000000E+00 0. -1.
</event>
<event>
 8    1  0.7262913E-009  0.1244510E+03  0.7561462E-02  0.1235930E+00
          1   -1    0    0  501    0  0.00000000000E+00  0.00000000000E+00  0.14365057552E+03  0.14365057552E+03  0.00000000000E+00 0.  1.
         -1   -1    0    0    0  501 -0.00000000000E+00 -0.00000000000E+00 -0.15384200345E+03  0.15384200345E+03  0.00000000000E+00 0. -1.
         25    2    1    2    0    0 -0.78026717032E+02 -0.46846954480E+02  0.38160446628E+02  0.15932384936E+03  0.12508022854E+03 0.  0.
         23    2    1    2    0    0  0.78026717032E+02  0.46846954480E+02 -0.48351874558E+02  0.13816872960E+03  0.92031996349E+02 0.  0.
          5    1    3    3  502    0 -0.37620202182E+02 -0.68060647129E+02  0.69030756060E+02  0.10406848217E+03  0.41800000000E+01 0. -1.
         -5    1    3    3    0  502 -0.40406514851E+02  0.21213692649E+02 -0.30870309432E+02  0.55255367184E+02  0.41800000000E+01 0. -1.
        -11    1    4    4    0    0  0.93765024958E+02  0.22867551291E+02 -0.21501248091E+02  0.98879262118E+02  0.00000000000E+00 0.  1.
         11    1    4    4    0    0 -0.15738307926E+02  0.23979403189E+02 -0.26850626467E+02  0.39289467486E+02  0.00000000000E+00 0. -1.
</event>
<event>
 8    1  0.7262913E-009  0.1026849E+03  0.7561462E-02  0.1274749E+00
         -1   -1    0    0    0  501 -0.00000000000E+00  0.00000000000E+00  0.35824012042E+03  0.35824012042E+03  0.00000000000E+00 0.  1.
          1   -1    0    0  501    0  0.00000000000E+00 -0.00000000000E+00 -0.47858475544E+02  0.47858475544E+02  0.00000000000E+00 0. -1.
         25    2    1    2    0    0 -0.19870964914E+02 -0.77235193887E+01  0.64071717451E+02  0.14215054996E+03  0.12508831232E+03 0.  0.
         23    2    1    2    0    0  0.19870964914E+02  0.77235193887E+01  0.24630992743E+03  0.26394804600E+03  0.92441779738E+02 0.  0.
          5    1    3    3  502    0 -0.65656472665E+02  0.25380233661E-02  0.68918691411E+02  0.95278700847E+02  0.41800000000E+01 0. -1.
         -5    1    3    3    0  502  0.45785507750E+02 -0.77260574120E+01 -0.48469739601E+01  0.46871849117E+02  0.41800000000E+01 0. -1.
        -11    1    4    4    0    0  0.51237395925E+02  0.25150655977E+02  0.17578784186E+03  0.18482205384E+03  0.00000000000E+00 0.  1.
         11    1    4    4    0    0 -0.31366431011E+02 -0.17427136588E+02  0.70522085565E+02  0.79125992167E+02  0.00000000000E+00 0. -1.
</event>
<event>
 8    1  0.7262913E-009  0.1661003E+03  0.7561462E-02  0.1181977E+00
          2   -1    0    0  501    0  0.00000000000E+00  0.00000000000E+00  0.40044242825E+03  0.40044242825E+03  0.00000000000E+00 0.  1.
         -2   -1    0    0    0  501 -0.00000000000E+00 -0.00000000000E+00 -0.85870322442E+02  0.85870322442E+02  0.00000000000E+00 0. -1.
         25    2    1    2    0    0 -0.29739509839E+02 -0.13958746481E+03  0.22690258059E+03  0.29580661212E+03  0.12509065480E+03 0.  0.
         23    2    1    2    0    0  0.29739509839E+02  0.13958746481E+03  0.87669525219E+02  0.19050613857E+03  0.90760918934E+02 0.  0.
          5    1    3    3  502    0 -0.62286565470E+02 -0.13952584530E+03  0.15993974459E+03  0.22123578382E+03  0.41800000000E+01 0.  1.
         -5    1    3    3    0  502  0.32547055631E+02 -0.61619504199E-01  0.66962835999E+02  0.74570828293E+02  0.41800000000E+01 0.  1.
        -11    1    4    4    0    0  0.15854540810E+02  0.17330058288E+02  0.59938694037E+02  0.64376582912E+02  0.00000000000E+00 0.  1.
         11    1    4    4    0    0  0.13884969029E+02  0.12225740652E+03  0.27730831182E+02  0.12612955566E+03  0.00000000000E+00 0. -1.
</event>
<event>
 8    1  0.7262913E-009  0.1032085E+03  0.7561462E-02  0.1273690E+00
         -2   -1    0    0    0  501 -0.00000000000E+00  0.00000000000E+00  0.97941935435E+02  0.97941935435E+02  0.00000000000E+00 0.  1.
          2   -1    0    0  501    0  0.00000000000E+00 -0.00000000000E+00 -0.38048662691E+03  0.38048662691E+03  0.00000000000E+00 0. -1.
         25    2    1    2    0    0  0.35668855565E+02  0.85119875566E+02 -0.30885267874E+03  0.34576954051E+03  0.12509571337E+03 0.  0.
         23    2    1    2    0    0 -0.35668855565E+02 -0.85119875566E+02  0.26307987266E+02  0.13265902184E+03  0.91589548570E+02 0.  0.
          5    1    3    3  502    0  0.42935154398E+01  0.43117232225E+02 -0.13219586138E+02  0.45494613387E+02  0.41800000000E+01 0.  1.
         -5    1    3    3    0  502  0.31375340125E+02  0.42002643341E+02 -0.29563309260E+03  0.30027492712E+03  0.41800000000E+01 0.  1.
        -11    1    4    4    0    0 -0.21020318254E+02  0.27586909944E+01 -0.22632042384E+02  0.31010860968E+02  0.00000000000E+00 0. -1.
         11    1    4    4    0    0 -0.14648537311E+02 -0.87878566561E+02  0.48940029650E+02  0.10164816087E+03  0.00000000000E+00 0.  1.
</event>
<event>
 8    1  0.7262913E-009  0.1221266E+03  0.7561462E-02  0.1239630E+00
         -1   -1    0    0    0  501 -0.00000000000E+00  0.00000000000E+00  0.43722013349E+03  0.43722013349E+03  0.00000000000E+00 0.  1.
          1   -1    0    0  501    0  0.00000000000E+00 -0.00000000000E+00 -0.41881515529E+02  0.41881515529E+02  0.00000000000E+00 0. -1.
         25    2    1    2    0    0  0.77060805133E+02 -0.22246558421E+02  0.24049699291E+03  0.28270017231E+03  0.12508919528E+03 0.  0.
         23    2    1    2    0    0 -0.77060805133E+02  0.22246558421E+02  0.15484162505E+03  0.19640147671E+03  0.90356705097E+02 0.  0.
          5    1    3    3  502    0 -0.29831340653E+02 -0.26980667922E+02  0.51525743942E+02  0.65499923782E+02  0.41800000000E+01 0. -1.
         -5    1    3    3    0  502  0.10689214579E+03  0.47341095008E+01  0.18897124897E+03  0.21720024853E+03  0.41800000000E+01 0. -1.
        -11    1    4    4    0    0 -0.77416066273E+02  0.34301672436E+02  0.16169904551E+03  0.18252789751E+03  0.00000000000E+00 0.  1.
         11    1    4    4    0    0  0.35526113988E+00 -0.12055114015E+02 -0.68574204640E+01  0.13873579200E+02  0.00000000000E+00 0. -1.
</event>
<event>
 8    1  0.7262913E-009  0.2275879E+03  0.7561462E-02  0.1128349E+00
         -1   -1    0    0    0  501 -0.00000000000E+00  0.00000000000E+00  0.37565247535E+02  0.37565247535E+02  0.00000000000E+00 0.  1.
          1   -1    0    0  501    0  0.00000000000E+00 -0.00000000000E+00 -0.17417151503E+04  0.17417151503E+04  0.00000000000E+00 0. -1.
         25    2    1    2    0    0 -0.18764105275E+03 -0.10571781332E+03 -0.11690336279E+04  0.11952705780E+04  0.12508681335E+03 0.  0.
         23    2    1    2    0    0  0.18764105275E+03  0.10571781332E+03 -0.53511627489E+03  0.58400981981E+03  0.91283192587E+02 0.  0.
          5    1    3    3  502    0 -0.10161431677E+03 -0.91409653318E+02 -0.43305512618E+03  0.45413148846E+03  0.41800000000E+01 0. -1.
         -5    1    3    3    0  502 -0.86026735976E+02 -0.14308159999E+02 -0.73597850168E+03  0.74113908957E+03  0.41800000000E+01 0. -1.
        -11    1    4    4    0    0  0.17912961444E+03  0.66630073899E+02 -0.40398899867E+03  0.44691620754E+03  0.00000000000E+00 0.  1.
         11    1    4    4    0    0  0.85114383086E+01  0.39087739418E+02 -0.13112727622E+03  0.13709361226E+03  0.00000000000E+00 0. -1.
</event>
<event>
 8    1  0.7262913E-009  0.1362501E+03  0.7561462E-02  0.1218466E+00
          1   -1    0    0  501    0  0.00000000000E+00  0.00000000000E+00  0.80589042315E+03  0.80589042315E+03  0.00000000000E+00 0. -1.
         -1   -1    0    0    0  501 -0.00000000000E+00 -0.00000000000E+00 -0.28142128155E+02  0.28142128155E+02  0.00000000000E+00 0.  1.
         25    2    1    2    0    0 -0.97025204979E+02 -0.37424452357E+02  0.40401666567E+03  0.43553583172E+03  0.12509002572E+03 0.  0.
         23    2    1    2    0    0  0.97025204979E+02  0.37424452357E+02  0.37373162933E+03  0.39849671959E+03  0.91158240051E+02 0.  0.
          5    1    3    3  502    0 -0.62743681304E+01 -0.65537451852E+02  0.13617813178E+03  0.15131583283E+03  0.41800000000E+01 0. -1.
         -5    1    3    3    0  502 -0.90750836848E+02  0.28112999495E+02  0.26783853389E+03  0.28421999889E+03  0.41800000000E+01 0. -1.
        -11    1    4    4    0    0  0.84206676684E+02  0.14897527819E+02  0.35823172169E+03  0.36829698228E+03  0.00000000000E+00 0. -1.
         11    1    4    4    0    0  0.12818528294E+02  0.22526924539E+02  0.15499907641E+02  0.30199737311E+02  0.00000000000E+00 0.  1.
</event>
<event>
 8    1  0.7262913E-009  0.1189234E+03  0.7561462E-02  0.1244884E+00
         -1   -1    0    0    0  501 -0.00000000000E+00  0.00000000000E+00  0.39693148100E+02  0.39693148100E+02  0.00000000000E+00 0.  1.
          1   -1    0    0  501    0  0.00000000000E+00 -0.00000000000E+00 -0.43109496066E+03  0.43109496066E+03  0.00000000000E+00 0. -1.
         25    2    1    2    0    0  0.49513403868E+02 -0.53344535228E+02 -0.21703929713E+03  0.26086515894E+03  0.12508940023E+03 0.  0.
         23    2    1    2    0    0 -0.49513403868E+02  0.53344535228E+02 -0.17436251543E+03  0.20992294982E+03  0.91477546276E+02 0.  0.
          5    1    3    3  502    0  0.25608941817E+02  0.33777239777E+02 -0.12401069269E+03  0.13112148614E+03  0.41800000000E+01 0. -1.
         -5    1    3    3    0  502  0.23904462051E+02 -0.87121775006E+02 -0.93028604444E+02  0.12974367280E+03  0.41800000000E+01 0. -1.
        -11    1    4    4    0    0 -0.36932285224E+02  0.72807996556E+02 -0.16652064710E+03  0.18545652850E+03  0.00000000000E+00 0. -1.
         11    1    4    4    0    0 -0.12581118643E+02 -0.19463461328E+02 -0.78418683337E+01  0.24466421318E+02  0.00000000000E+00 0.  1.
</event>
<event>
 8    1  0.7262913E-009  0.1213140E+03  0.7561462E-02  0.1240945E+00
          1   -1    0    0  501    0  0.00000000000E+00  0.00000000000E+00  0.51541436806E+03  0.51541436806E+03  0.00000000000E+00 0. -1.
         -1   -1    0    0    0  501 -0.00000000000E+00 -0.00000000000E+00 -0.48906185574E+02  0.48906185574E+02  0.00000000000E+00 0.  1.
         25    2    1    2    0    0 -0.78872653269E+02  0.13158426140E+02  0.99288261639E+02  0.17860508621E+03  0.12509028064E+03 0.  0.
         23    2    1    2    0    0  0.78872653269E+02 -0.13158426140E+02  0.36721992085E+03  0.38571546742E+03  0.86786588412E+02 0.  0.
          5    1    3    3  502    0 -0.10503552437E+03  0.64476680105E+01  0.38813219093E+02  0.11224068861E+03  0.41800000000E+01 0. -1.
         -5    1    3    3    0  502  0.26162871100E+02  0.67107581291E+01  0.60475042546E+02  0.66364397607E+02  0.41800000000E+01 0. -1.
        -11    1    4    4    0    0  0.59677867102E+02 -0.43658728690E+02  0.30478675462E+03  0.31362796145E+03  0.00000000000E+00 0.  1.
         11    1    4    4    0    0  0.19194786167E+02  0.30500302550E+02  0.62433166228E+02  0.72087505970E+02  0.00000000000E+00 0. -1.
</event>
<event>
 8    1  0.7262913E-009  0.2212427E+03  0.7561462E-02  0.1132960E+00
          1   -1    0    0  501    0  0.00000000000E+00  0.00000000000E+00  0.90739525390E+03  0.90739525390E+03  0.00000000000E+00 0. -1.
         -1   -1    0    0    0  501 -0.00000000000E+00 -0.00000000000E+00 -0.63648934995E+02  0.63648934995E+02  0.00000000000E+00 0.  1.
         25    2    1    2    0    0  0.17241822903E+01 -0.21522551201E+03  0.46526176016E+03  0.52767590258E+03  0.12509340059E+03 0.  0.
         23    2    1    2    0    0 -0.17241822903E+01  0.21522551201E+03  0.37848455875E+03  0.44336828632E+03  0.83665299132E+02 0.  0.
          5    1    3    3  502    0 -0.13060501712E+02 -0.16351502469E+03  0.20858646821E+03  0.26539315577E+03  0.41800000000E+01 0. -1.
         -5    1    3    3    0  502  0.14784684002E+02 -0.51710487315E+02  0.25667529195E+03  0.26228274681E+03  0.41800000000E+01 0. -1.
        -11    1    4    4    0    0  0.28415093237E+02  0.60798033420E+02  0.69403089473E+02  0.96543291946E+02  0.00000000000E+00 0.  1.
         11    1    4    4    0    0 -0.30139275527E+02  0.15442747859E+03  0.30908146928E+03  0.34682499437E+03  0.00000000000E+00 0. -1.
</event>
<event>
 8    1  0.7262913E-009  0.1448832E+03  0.7561462E-02  0.1206905E+00
          2   -1    0    0  501    0  0.00000000000E+00  0.00000000000E+00  0.29024249163E+03  0.29024249163E+03  0.00000000000E+00 0.  1.
         -2   -1    0    0    0  501 -0.00000000000E+00 -0.00000000000E+00 -0.17374718157E+03  0.17374718157E+03  0.00000000000E+00 0. -1.
         25    2    1    2    0    0 -0.10374175184E+03 -0.68761640187E+02  0.21671905135E+03  0.27947346581E+03  0.12509099343E+03 0.  0.
         23    2    1    2    0    0  0.10374175184E+03  0.68761640187E+02 -0.10022374129E+03  0.18451620739E+03  0.92254638017E+02 0.  0.
          5    1    3    3  502    0 -0.11645189611E+03 -0.52719863573E+02  0.10402818484E+03  0.16486286351E+03  0.41800000000E+01 0. -1.
         -5    1    3    3    0  502  0.12710144272E+02 -0.16041776613E+02  0.11269086651E+03  0.11461060230E+03  0.41800000000E+01 0. -1.
        -11    1    4    4    0    0  0.70903631973E+02  0.72787687792E+01 -0.88826223317E+02  0.11388767910E+03  0.00000000000E+00 0. -1.
         11    1    4    4    0    0  0.32838119869E+02  0.61482871407E+02 -0.11397517977E+02  0.70628528295E+02  0.00000000000E+00 0.  1.
</event>
<event>
 8    1  0.7262913E-009  0.1108673E+03  0.7561462E-02  0.1258972E+00
         -2   -1    0    0    0  501 -0.00000000000E+00  0.00000000000E+00  0.47094170238E+03  0.47094170238E+03  0.00000000000E+00 0.  1.
          2   -1    0    0  501    0  0.00000000000E+00 -0.00000000000E+00 -0.67291280364E+02  0.67291280364E+02  0.00000000000E+00 0. -1.
         25    2    1    2    0    0  0.13415640893E+02 -0.29942254328E+02  0.41942866664E+03  0.43891443092E+03  0.12509577634E+03 0.  0.
         23    2    1    2    0    0 -0.13415640893E+02  0.29942254328E+02 -0.15778244627E+02  0.99318551817E+02  0.92405106551E+02 0.  0.
          5    1    3    3  502    0  0.46018068263E+01  0.46648066210E+02  0.22183484973E+03  0.22677167297E+03  0.41800000000E+01 0.  1.
         -5    1    3    3    0  502  0.88138340669E+01 -0.76590320538E+02  0.19759381691E+03  0.21214275795E+03  0.41800000000E+01 0.  1.
        -11    1    4    4    0    0  0.37703705173E+02  0.26782750277E+02 -0.20490318677E+01  0.46293451241E+02  0.00000000000E+00 0.  1.
         11    1    4    4    0    0 -0.51119346066E+02  0.31595040515E+01 -0.13729212760E+02  0.53025100576E+02  0.00000000000E+00 0. -1.
</event>
<event>
 8    1  0.7262913E-009  0.1136664E+03  0.7561462E-02  0.1253927E+00
          4   -1    0    0  501    0  0.00000000000E+00  0.00000000000E+00  0.13617722065E+03  0.13617722065E+03  0.00000000000E+00 0. -1.
         -4   -1    0    0    0  501 -0.00000000000E+00 -0.00000000000E+00 -0.12362412796E+03  0.12362412796E+03  0.00000000000E+00 0.  1.
         25    2    1    2    0    0  0.17834594206E+01 -0.59202628860E+02 -0.37537234383E+02  0.14340650635E+03  0.12509296585E+03 0.  0.
         23    2    1    2    0    0 -0.17834594206E+01  0.59202628860E+02  0.50090327073E+02  0.11639484226E+03  0.86778951630E+02 0.  0.
          5    1    3    3  502    0 -0.53155124502E+02 -0.17700087149E+02 -0.47679120220E+02  0.73685353028E+02  0.41800000000E+01 0.  1.
         -5    1    3    3    0  502  0.54938583922E+02 -0.41502541711E+02  0.10141885837E+02  0.69721153319E+02  0.41800000000E+01 0.  1.
        -11    1    4    4    0    0 -0.10604958348E+02 -0.19916278483E+02  0.43277184161E+00  0.22567910440E+02  0.00000000000E+00 0.  1.
         11    1    4    4    0    0  0.88214989274E+01  0.79118907342E+02  0.49657555231E+02  0.93826931816E+02  0.00000000000E+00 0. -1.
</event>
<event>
 8    1  0.7262913E-009  0.7499222E+02  0.7561462E-02  0.1343895E+00
         -3   -1    0    0    0  501 -0.00000000000E+00  0.00000000000E+00  0.50358622147E+02  0.50358622147E+02  0.00000000000E+00 0.  1.
          3   -1    0    0  501    0  0.00000000000E+00 -0.00000000000E+00 -0.29719774694E+03  0.29719774694E+03  0.00000000000E+00 0. -1.
         25    2    1    2    0    0 -0.45669095629E+02 -0.52505263927E+01 -0.19707559567E+03  0.23790687620E+03  0.12509059522E+03 0.  0.
         23    2    1    2    0    0  0.45669095629E+02  0.52505263927E+01 -0.49763529124E+02  0.10964949289E+03  0.86216982879E+02 0.  0.
          5    1    3    3  502    0 -0.21848856464E+02  0.22741454995E+02 -0.19835760970E+03  0.20089240909E+03  0.41800000000E+01 0. -1.
         -5    1    3    3    0  502 -0.23820239165E+02 -0.27991981387E+02  0.12820140251E+01  0.37014467115E+02  0.41800000000E+01 0. -1.
        -11    1    4    4    0    0  0.40333893843E+02  0.33499670717E+02 -0.29294374731E+00  0.52432210965E+02  0.00000000000E+00 0.  1.
         11    1    4    4    0    0  0.53352017863E+01 -0.28249144324E+02 -0.49470585376E+02  0.57217281923E+02  0.00000000000E+00 0. -1.
</event>
<event>
 8    1  0.7262913E-009  0.1492974E+03  0.7561462E-02  0.1201339E+00
         -1   -1    0    0    0  501 -0.00000000000E+00  0.00000000000E+00  0.45405057698E+03  0.45405057698E+03  0.00000000000E+00 0.  1.
          1   -1    0    0  501    0  0.00000000000E+00 -0.00000000000E+00 -0.54043593986E+02  0.54043593986E+02  0.00000000000E+00 0. -1.
         25    2    1    2    0    0  0.84262014821E+02  0.68678509598E+02  0.16631863232E+03  0.23478935740E+03  0.12508928838E+03 0.  0.
         23    2    1    2    0    0 -0.84262014821E+02 -0.68678509598E+02  0.23368835067E+03  0.27330481357E+03  0.90931023619E+02 0.  0.
          5    1    3    3  502    0 -0.10943670714E+02 -0.27335801327E+02  0.22090808548E+02  0.37047080657E+02  0.41800000000E+01 0.  1.
         -5    1    3    3    0  502  0.95205685535E+02  0.96014310925E+02  0.14422782377E+03  0.19774227674E+03  0.41800000000E+01 0.  1.
        -11    1    4    4    0    0 -0.74542372917E+02 -0.11317016427E+02  0.17554904478E+03  0.19105524684E+03  0.00000000000E+00 0.  1.
         11    1    4    4    0    0 -0.97196419043E+01 -0.57361493171E+02  0.58139305893E+02  0.82249566730E+02  0.00000000000E+00 0. -1.
</event>
<event>
 8    1  0.7262913E-009  0.1405219E+03  0.7561462E-02  0.1212628E+00
          2   -1    0    0  501    0  0.00000000000E+00  0.00000000000E+00  0.19957444617E+04  0.19957444617E+04  0.00000000000E+00 0. -1.
         -2   -1    0    0    0  501 -0.00000000000E+00 -0.00000000000E+00 -0.13830021035E+02  0.13830021035E+02  0.00000000000E+00 0.  1.
         25    2    1    2    0    0 -0.54224256924E+02  0.91176086491E+02  0.14676775421E+04  0.14768134589E+04  0.12508907218E+03 0.  0.
         23    2    1    2    0    0  0.54224256924E+02 -0.91176086491E+02  0.51423689855E+03  0.53276102383E+03  0.90229551137E+02 0.  0.
          5    1    3    3  502    0 -0.81904574469E+02  0.71645721658E+02  0.13471915115E+04  0.13515857020E+04  0.41800000000E+01 0.  1.
         -5    1    3    3    0  502  0.27680317545E+02  0.19530364833E+02  0.12048603068E+03  0.12522775698E+03  0.41800000000E+01 0.  1.
        -11    1    4    4    0    0  0.73481765989E+02 -0.40730861332E+02  0.27722020420E+03  0.28967156335E+03  0.00000000000E+00 0. -1.
         11    1    4    4    0    0 -0.19257509065E+02 -0.50445225159E+02  0.23701669435E+03  0.24308946048E+03  0.00000000000E+00 0.  1.
</event>
<event>
 8    1  0.7262913E-009  0.9779628E+02  0.7561462E-02  0.1285000E+00
         -3   -1    0    0    0  501 -0.00000000000E+00  0.00000000000E+00  0.18227561480E+03  0.18227561480E+03  0.00000000000E+00 0.  1.
          3   -1    0    0  501    0  0.00000000000E+00 -0.00000000000E+00 -0.97222021536E+02  0.97222021536E+02  0.00000000000E+00 0. -1.
         25    2    1    2    0    0 -0.50099549603E+02  0.28392825354E+02 -0.81622655496E+01  0.13794775005E+03  0.12508733654E+03 0.  0.
         23    2    1    2    0    0  0.50099549603E+02 -0.28392825354E+02  0.93215858817E+02  0.14154988629E+03  0.89616162447E+02 0.  0.
          5    1    3    3  502    0  0.20979077286E+02 -0.30045721544E+02  0.19567375942E+02  0.41751906161E+02  0.41800000000E+01 0.  1.
         -5    1    3    3    0  502 -0.71078626889E+02  0.58438546898E+02 -0.27729641491E+02  0.96195843887E+02  0.41800000000E+01 0.  1.
        -11    1    4    4    0    0  0.18502090410E+02  0.64189341910E+01 -0.14270420790E+02  0.24231693610E+02  0.00000000000E+00 0. -1.
         11    1    4    4    0    0  0.31597459192E+02 -0.34811759545E+02  0.10748627961E+03  0.11731819268E+03  0.00000000000E+00 0.  1.
</event>
<event>
 8    1  0.7262913E-009  0.6939347E+02  0.7561462E-02  0.1362168E+00
         -1   -1    0    0    0  501 -0.00000000000E+00  0.00000000000E+00  0.14857083181E+03  0.14857083181E+03  0.00000000000E+00 0.  1.
          1   -1    0    0  501    0  0.00000000000E+00 -0.00000000000E+00 -0.82515669210E+02  0.82515669210E+02  0.00000000000E+00 0. -1.
         25    2    1    2    0    0 -0.64933043272E+01  0.21403571921E+02  0.45307434235E+02  0.13490724290E+03  0.12508766805E+03 0.  0.
         23    2    1    2    0    0  0.64933043272E+01 -0.21403571921E+02  0.20747728360E+02  0.96179258118E+02  0.91212420032E+02 0.  0.
          5    1    3    3  502    0 -0.15170334421E+02  0.35871281399E+02 -0.35128290817E+02  0.52615179287E+02  0.41800000000E+01 0.  1.
         -5    1    3    3    0  502  0.86770300938E+01 -0.14467709478E+02  0.80435725051E+02  0.82292063611E+02  0.41800000000E+01 0.  1.
        -11    1    4    4    0    0 -0.25460019804E+02 -0.38376692517E+02 -0.11767991931E+02  0.47533869726E+02  0.00000000000E+00 0. -1.
         11    1    4    4    0    0  0.31953324132E+02  0.16973120596E+02  0.32515720291E+02  0.48645388392E+02  0.00000000000E+00 0.  1.
</event>
<event>
 8    1  0.7262913E-009  0.1698095E+03  0.7561462E-02  0.1178047E+00
          1   -1    0    0  501    0  0.00000000000E+00  0.00000000000E+00  0.10764097349E+04  0.10764097349E+04  0.00000000000E+00 0. -1.
         -1   -1    0    0    0  501 -0.00000000000E+00 -0.00000000000E+00 -0.31202687162E+02  0.31202687162E+02  0.00000000000E+00 0.  1.
         25    2    1    2    0    0 -0.10742302353E+03 -0.75732435148E+02  0.35872129836E+03  0.40199918156E+03  0.12508902574E+03 0.  0.
         23    2    1    2    0    0  0.10742302353E+03  0.75732435148E+02  0.68648574936E+03  0.70561324048E+03  0.96707049148E+02 0.  0.
          5    1    3    3  502    0 -0.32695895591E+02  0.31552857953E+02  0.56088850462E+02  0.72305158735E+02  0.41800000000E+01 0.  1.
         -5    1    3    3    0  502 -0.74727127940E+02 -0.10728529310E+03  0.30263244789E+03  0.32969402282E+03  0.41800000000E+01 0.  1.
        -11    1    4    4    0    0 -0.11735516413E+02  0.35532757178E+02  0.15613617911E+03  0.16055779521E+03  0.00000000000E+00 0.  1.
         11    1    4    4    0    0  0.11915853994E+03  0.40199677970E+02  0.53034957025E+03  0.54505544527E+03  0.00000000000E+00 0. -1.
</event>
<event>
 8    1  0.7262913E-009  0.1561955E+03  0.7561462E-02  0.1193060E+00
          2   -1    0    0  501    0  0.00000000000E+00  0.00000000000E+00  0.73298703807E+02  0.73298703807E+02  0.00000000000E+00 0. -1.
         -2   -1    0    0    0  501 -0.00000000000E+00 -0.00000000000E+00 -0.55093146750E+03  0.55093146750E+03  0.00000000000E+00 0.  1.
         25    2    1    2    0    0  0.45216370895E+02 -0.14528976372E+03 -0.35932496915E+03  0.40977525412E+03  0.12509072627E+03 0.  0.
         23    2    1    2    0    0 -0.45216370895E+02  0.14528976372E+03 -0.11830779455E+03  0.21445491719E+03  0.94024154431E+02 0.  0.
          5    1    3    3  502    0  0.15440832104E+02 -0.80442040997E+02 -0.31537494158E+03  0.32586525963E+03  0.41800000000E+01 0. -1.
         -5    1    3    3    0  502  0.29775538791E+02 -0.64847722722E+02 -0.43950027566E+02  0.83909994492E+02  0.41800000000E+01 0. -1.
        -11    1    4    4    0    0 -0.11540363288E+02  0.20145119865E+01  0.12797450456E+02  0.17349725690E+02  0.00000000000E+00 0. -1.
         11    1    4    4    0    0 -0.33676007607E+02  0.14327525173E+03 -0.13110524500E+03  0.19710519150E+03  0.00000000000E+00 0.  1.
</event>
<event>
 8    1  0.7262913E-009  0.1723174E+03  0.7561462E-02  0.1175452E+00
          1   -1    0    0  501    0  0.00000000000E+00  0.00000000000E+00  0.20619218288E+03  0.20619218288E+03  0.00000000000E+00 0. -1.
         -1   -1    0    0    0  501 -0.00000000000E+00 -0.00000000000E+00 -0.16451798407E+03  0.16451798407E+03  0.00000000000E+00 0.  1.
         25    2    1    2    0    0  0.29898808509E+02  0.13557455610E+03  0.73780772127E+02  0.20091010513E+03  0.12508744539E+03 0.  0.
         23    2    1    2    0    0 -0.29898808509E+02 -0.13557455610E+03 -0.32106573316E+02  0.16980006181E+03  0.92340835661E+02 0.  0.
          5    1    3    3  502    0  0.76349559971E+02  0.10356216774E+03  0.63012580483E+02  0.14332632554E+03  0.41800000000E+01 0. -1.
         -5    1    3    3    0  502 -0.46450751462E+02  0.32012388358E+02  0.10768191643E+02  0.57583779583E+02  0.41800000000E+01 0. -1.
        -11    1    4    4    0    0 -0.53360773854E+02 -0.11956381880E+03 -0.45213289772E+02  0.13851758201E+03  0.00000000000E+00 0.  1.
         11    1    4    4    0    0  0.23461965345E+02 -0.16010737295E+02  0.13106716456E+02  0.31282479806E+02  0.00000000000E+00 0. -1.
</event>
<event>
 8    1  0.7262913E-009  0.1036355E+03  0.7561462E-02  0.1272832E+00
         -2   -1    0    0    0  501 -0.00000000000E+00  0.00000000000E+00  0.29587922218E+02  0.29587922218E+02  0.00000000000E+00 0. -1.
          2   -1    0    0  501    0  0.00000000000E+00 -0.00000000000E+00 -0.43898118900E+03  0.43898118900E+03  0.00000000000E+00 0.  1.
         25    2    1    2    0    0  0.23385934011E+02  0.75294586140E+01 -0.19411731364E+03  0.23223386206E+03  0.12508973010E+03 0.  0.
         23    2    1    2    0    0 -0.23385934011E+02 -0.75294586140E+01 -0.21527595315E+03  0.23633524916E+03  0.94377006395E+02 0.  0.
          5    1    3    3  502    0 -0.31853133877E+01 -0.51712353674E+02 -0.42137351423E+02  0.66912947393E+02  0.41800000000E+01 0.  1.
         -5    1    3    3    0  502  0.26571247398E+02  0.59241812288E+02 -0.15197996221E+03  0.16532091467E+03  0.41800000000E+01 0.  1.
        -11    1    4    4    0    0 -0.51791834284E+02 -0.24336209765E+02 -0.88939444177E+02  0.10575854545E+03  0.00000000000E+00 0. -1.
         11    1    4    4    0    0  0.28405900273E+02  0.16806751151E+02 -0.12633650897E+03  0.13057670371E+03  0.00000000000E+00 0.  1.
</event>
<event>
 8    1  0.7262913E-009  0.1424743E+03  0.7561462E-02  0.1210038E+00
         -1   -1    0    0    0  501 -0.00000000000E+00  0.00000000000E+00  0.30785693912E+02  0.30785693912E+02  0.00000000000E+00 0.  1.
          1   -1    0    0  501    0  0.00000000000E+00 -0.00000000000E+00 -0.75118045359E+03  0.75118045359E+03  0.00000000000E+00 0. -1.
         25    2    1    2    0    0 -0.27592764223E+01 -0.10653938755E+03 -0.43097950666E+03  0.46124673043E+03  0.12508779506E+03 0.  0.
         23    2    1    2    0    0  0.27592764223E+01  0.10653938755E+03 -0.28941525302E+03  0.32071941707E+03  0.87985800545E+02 0.  0.
          5    1    3    3  502    0 -0.43726200081E+02  0.44182756472E+01 -0.88623093280E+02  0.99010235813E+02  0.41800000000E+01 0.  1.
         -5    1    3    3    0  502  0.40966923659E+02 -0.11095766320E+03 -0.34235641338E+03  0.36223649462E+03  0.41800000000E+01 0.  1.
        -11    1    4    4    0    0  0.30423698335E+02  0.38999112256E+02 -0.49616833980E+02  0.70059705904E+02  0.00000000000E+00 0.  1.
         11    1    4    4    0    0 -0.27664421912E+02  0.67540275292E+02 -0.23979841904E+03  0.25065971116E+03  0.00000000000E+00 0. -1.
</event>
<event>
 8    1  0.7262913E-009  0.1257488E+03  0.7561462E-02  0.1233904E+00
          2   -1    0    0  501    0  0.00000000000E+00  0.00000000000E+00  0.15560530756E+04  0.15560530756E+04  0.00000000000E+00 0. -1.
         -2   -1    0    0    0  501 -0.00000000000E+00 -0.00000000000E+00 -0.14093270157E+02  0.14093270157E+02  0.00000000000E+00 0.  1.
         25    2    1    2    0    0  0.52976386849E+01 -0.98078233666E+02  0.90607539328E+03  0.91992823538E+03  0.12509170659E+03 0.  0.
         23    2    1    2    0    0 -0.52976386849E+01  0.98078233666E+02  0.63588441212E+03  0.65021811033E+03  0.93740068947E+02 0.  0.
          5    1    3    3  502    0 -0.14590339406E+02 -0.93748854867E+02  0.32780883822E+03  0.34128848883E+03  0.41800000000E+01 0. -1.
         -5    1    3    3    0  502  0.19887978091E+02 -0.43293787993E+01  0.57826655506E+03  0.57863974655E+03  0.41800000000E+01 0. -1.
        -11    1    4    4    0    0 -0.23101069006E+02 -0.10746452203E+02  0.11460507903E+03  0.11740302281E+03  0.00000000000E+00 0. -1.
         11    1    4    4    0    0  0.17803430321E+02  0.10882468587E+03  0.52127933309E+03  0.53281508752E+03  0.00000000000E+00 0.  1.
</event>
<event>
 8    1  0.7262913E-009  0.3901688E+03  0.7561462E-02  0.1047238E+00
         -2   -1    0    0    0  501 -0.00000000000E+00  0.00000000000E+00  0.13479599886E+03  0.13479599886E+03  0.00000000000E+00 0.  1.
          2   -1    0    0  501    0  0.00000000000E+00 -0.00000000000E+00 -0.15834134206E+04  0.15834134206E+04  0.00000000000E+00 0. -1.
         25    2    1    2    0    0  0.17621282298E+03  0.33533035164E+03 -0.28306846668E+03  0.48915498274E+03  0.12508971417E+03 0.  0.
         23    2    1    2    0    0 -0.17621282298E+03 -0.33533035164E+03 -0.11655489551E+04  0.12290544368E+04  0.92590701983E+02 0.  0.
          5    1    3    3  502    0  0.65083513243E+02  0.27463594497E+02 -0.62762156032E+02  0.94586856108E+02  0.41800000000E+01 0.  1.
         -5    1    3    3    0  502  0.11112930974E+03  0.30786675715E+03 -0.22030631065E+03  0.39456812663E+03  0.41800000000E+01 0.  1.
        -11    1    4    4    0    0 -0.62797771145E+02 -0.72103842398E+02 -0.40910047273E+03  0.42012583940E+03  0.00000000000E+00 0. -1.
         11    1    4    4    0    0 -0.11341505184E+03 -0.26322650924E+03 -0.75644848236E+03  0.80892859735E+03  0.00000000000E+00 0.  1.
</event>
<event>
 8    1  0.7262913E-009  0.9630412E+02  0.7561462E-02  0.1288266E+00
          2   -1    0    0  501    0  0.00000000000E+00  0.00000000000E+00  0.48275586099E+03  0.48275586099E+03  0.00000000000E+00 0. -1.
         -2   -1    0    0    0  501 -0.00000000000E+00 -0.00000000000E+00 -0.25561565127E+02  0.25561565127E+02  0.00000000000E+00 0.  1.
         25    2    1    2    0    0  0.54561180180E+01  0.18746687393E+02  0.24117671500E+03  0.27238450828E+03  0.12508359197E+03 0.  0.
         23    2    1    2    0    0 -0.54561180180E+01 -0.18746687393E+02  0.21601758086E+03  0.23593291784E+03  0.92841472227E+02 0.  0.
          5    1    3    3  502    0 -0.39559281410E+02 -0.34772297705E+02  0.72258412081E+02  0.89514244396E+02  0.41800000000E+01 0.  1.
         -5    1    3    3    0  502  0.45015399428E+02  0.53518985098E+02  0.16891830292E+03  0.18287026388E+03  0.41800000000E+01 0.  1.
        -11    1    4    4    0    0 -0.32680790970E+02  0.56417893995E+01  0.18513492607E+03  0.18808190965E+03  0.00000000000E+00 0. -1.
         11    1    4    4    0    0  0.27224672952E+02 -0.24388476792E+02  0.30882654792E+02  0.47851008188E+02  0.00000000000E+00 0.  1.
</event>
<event>
 8    1  0.7262913E-009  0.2159573E+03  0.7561462E-02  0.1136933E+00
         -1   -1    0    0    0  501 -0.00000000000E+00  0.00000000000E+00  0.98636541229E+02  0.98636541229E+02  0.00000000000E+00 0.  1.
          1   -1    0    0  501    0  0.00000000000E+00 -0.00000000000E+00 -0.54267137545E+03  0.54267137545E+03  0.00000000000E+00 0. -1.
         25    2    1    2    0    0  0.17222065352E+03 -0.10629306362E+03 -0.19536481847E+03  0.30785193358E+03  0.12508889576E+03 0.  0.
         23    2    1    2    0    0 -0.17222065352E+03  0.10629306362E+03 -0.24867001575E+03  0.33345598310E+03  0.91640313489E+02 0.  0.
          5    1    3    3  502    0  0.16603700392E+03 -0.12597611235E+03 -0.14692188105E+03  0.25503289804E+03  0.41800000000E+01 0. -1.
         -5    1    3    3    0  502  0.61836495983E+01  0.19683048726E+02 -0.48442937422E+02  0.52819035542E+02  0.41800000000E+01 0. -1.
        -11    1    4    4    0    0 -0.72304492204E+02  0.46367354460E+02 -0.40643802458E+02  0.95025206292E+02  0.00000000000E+00 0.  1.
         11    1    4    4    0    0 -0.99916161312E+02  0.59925709164E+02 -0.20802621329E+03  0.23843077680E+03  0.00000000000E+00 0. -1.
</event>
<event>
 8    1  0.7262913E-009  0.1659717E+03  0.7561462E-02  0.1182115E+00
          1   -1    0    0  501    0  0.00000000000E+00  0.00000000000E+00  0.68885560173E+02  0.68885560173E+02  0.00000000000E+00 0. -1.
         -1   -1    0    0    0  501 -0.00000000000E+00 -0.00000000000E+00 -0.78457713148E+03  0.78457713148E+03  0.00000000000E+00 0.  1.
         25    2    1    2    0    0  0.91869794608E+02 -0.10032478193E+03 -0.65299859906E+03  0.67864537527E+03  0.12508898418E+03 0.  0.
         23    2    1    2    0    0 -0.91869794608E+02  0.10032478193E+03 -0.62692972243E+02  0.17481731638E+03  0.90141912052E+02 0.  0.
          5    1    3    3  502    0 -0.91370743162E+01 -0.59664537873E+02 -0.37858975716E+03  0.38339407903E+03  0.41800000000E+01 0.  1.
         -5    1    3    3    0  502  0.10100686892E+03 -0.40660244058E+02 -0.27440884190E+03  0.29525129624E+03  0.41800000000E+01 0.  1.
        -11    1    4    4    0    0  0.17686430510E+02  0.19532304284E+02 -0.16396916415E+02  0.31035134972E+02  0.00000000000E+00 0.  1.
         11    1    4    4    0    0 -0.10955622512E+03  0.80792477647E+02 -0.46296055828E+02  0.14378218141E+03  0.00000000000E+00 0. -1.
</event>
<event>
 8    1  0.7262913E-009  0.1566780E+03  0.7561462E-02  0.1192499E+00
         -2   -1    0    0    0  501 -0.00000000000E+00  0.00000000000E+00  0.31245324107E+03  0.31245324107E+03  0.00000000000E+00 0.  1.
          2   -1    0    0  501    0  0.00000000000E+00 -0.00000000000E+00 -0.94952659537E+02  0.94952659537E+02  0.00000000000E+00 0. -1.
         25    2    1    2    0    0 -0.24848448831E+02 -0.12737239188E+03  0.80382066302E+02  0.19735547373E+03  0.12508690902E+03 0.  0.
         23    2    1    2    0    0  0.24848448831E+02  0.12737239188E+03  0.13711851523E+03  0.21005042688E+03  0.92078895460E+02 0.  0.
          5    1    3    3  502    0 -0.60618772315E+02 -0.12068971258E+03  0.86187491527E+02  0.16026976750E+03  0.41800000000E+01 0. -1.
         -5    1    3    3    0  502  0.35770323484E+02 -0.66826792977E+01 -0.58054252252E+01  0.37085706233E+02  0.41800000000E+01 0. -1.
        -11    1    4    4    0    0  0.43349549190E+02  0.87522743723E+02  0.13425318268E+03  0.16602208029E+03  0.00000000000E+00 0.  1.
         11    1    4    4    0    0 -0.18501100358E+02  0.39849648153E+02  0.28653325522E+01  0.44028346586E+02  0.00000000000E+00 0. -1.
</event>
<event>
 8    1  0.7262913E-009  0.8343659E+02  0.7561462E-02  0.1319572E+00
          1   -1    0    0  501    0  0.00000000000E+00  0.00000000000E+00  0.19004175894E+03  0.19004175894E+03  0.00000000000E+00 0. -1.
         -1   -1    0    0    0  501 -0.00000000000E+00 -0.00000000000E+00 -0.76217194424E+02  0.76217194424E+02  0.00000000000E+00 0.  1.
         25    2    1    2    0    0 -0.16549915970E-01  0.45382810889E+02  0.40128581307E+02  0.13898682068E+03  0.12508970177E+03 0.  0.
         23    2    1    2    0    0  0.16549915970E-01 -0.45382810889E+02  0.73695983209E+02  0.12727213268E+03  0.93313975469E+02 0.  0.
          5    1    3    3  502    0 -0.20555024845E+02  0.72273640135E+02  0.62821747463E+02  0.98030773021E+02  0.41800000000E+01 0. -1.
         -5    1    3    3    0  502  0.20538474929E+02 -0.26890829246E+02 -0.22693166156E+02  0.40956047663E+02  0.41800000000E+01 0. -1.
        -11    1    4    4    0    0 -0.17155231484E+02 -0.29535125966E+02  0.91647654818E+02  0.97805512456E+02  0.00000000000E+00 0. -1.
         11    1    4    4    0    0  0.17171781400E+02 -0.15847684924E+02 -0.17951671609E+02  0.29466620225E+02  0.00000000000E+00 0.  1.
</event>
<event>
 8    1  0.7262913E-009  0.8492175E+02  0.7561462E-02  0.1315637E+00
         -1   -1    0    0    0  501 -0.00000000000E+00  0.00000000000E+00  0.59482420465E+02  0.59482420465E+02  0.00000000000E+00 0.  1.
          1   -1    0    0  501    0  0.00000000000E+00 -0.00000000000E+00 -0.41602244457E+03  0.41602244457E+03  0.00000000000E+00 0. -1.
         25    2    1    2    0    0  0.18668879836E+02 -0.38579753499E+02 -0.35181310268E+03  0.37584548485E+03  0.12510173784E+03 0.  0.
         23    2    1    2    0    0 -0.18668879836E+02  0.38579753499E+02 -0.47269214253E+01  0.99659380185E+02  0.89848337872E+02 0.  0.
          5    1    3    3  502    0  0.55298865766E+02 -0.59076797237E+02 -0.15881152778E+03  0.17828798692E+03  0.41800000000E+01 0. -1.
         -5    1    3    3    0  502 -0.36629985931E+02  0.20497043738E+02 -0.19300157490E+03  0.19755749792E+03  0.41800000000E+01 0. -1.
        -11    1    4    4    0    0 -0.20340221614E+02  0.21971492427E+02 -0.46143096478E+02  0.55005967380E+02  0.00000000000E+00 0. -1.
         11    1    4    4    0    0  0.16713417782E+01  0.16608261072E+02  0.41416175053E+02  0.44653412806E+02  0.00000000000E+00 0.  1.
</event>
<event>
 8    1  0.7262913E-009  0.8515154E+02  0.7561462E-02  0.1315037E+00
          1   -1    0    0  501    0  0.00000000000E+00  0.00000000000E+00  0.25725444971E+03  0.25725444971E+03  0.00000000000E+00 0. -1.
         -1   -1    0    0    0  501 -0.00000000000E+00 -0.00000000000E+00 -0.55995227436E+02  0.55995227436E+02  0.00000000000E+00 0.  1.
         25    2    1    2    0    0  0.89190806928E+01 -0.12897759580E+02  0.50922345530E+02  0.13596623602E+03  0.12509128611E+03 0.  0.
         23    2    1    2    0    0 -0.89190806928E+01  0.12897759580E+02  0.15033687674E+03  0.17728344113E+03  0.92640918535E+02 0.  0.
          5    1    3    3  502    0  0.13534495380E+02  0.42662910287E+02 -0.16940728089E+02  0.48039225093E+02  0.41800000000E+01 0. -1.
         -5    1    3    3    0  502 -0.46154146869E+01 -0.55560669867E+02  0.67863073620E+02  0.87927010923E+02  0.41800000000E+01 0. -1.
        -11    1    4    4    0    0  0.13177705757E+02 -0.23452986264E+02  0.70427380321E+01  0.27808176005E+02  0.00000000000E+00 0.  1.
         11    1    4    4    0    0 -0.22096786450E+02  0.36350745844E+02  0.14329413871E+03  0.14947526512E+03  0.00000000000E+00 0. -1.
</event>
<event>
 8    1  0.7262913E-009  0.1027830E+03  0.7561462E-02  0.1274550E+00
         -4   -1    0    0    0  501 -0.00000000000E+00  0.00000000000E+00  0.74633489219E+03  0.74633489219E+03  0.00000000000E+00 0. -1.
          4   -1    0    0  501    0  0.00000000000E+00 -0.00000000000E+00 -0.22526783281E+02  0.22526783281E+02  0.00000000000E+00 0.  1.
         25    2    1    2    0    0 -0.51564572909E+02  0.14176620038E+02  0.26415820935E+03  0.29713146661E+03  0.12509063574E+03 0.  0.
         23    2    1    2    0    0  0.51564572909E+02 -0.14176620038E+02  0.45964989955E+03  0.47173020885E+03  0.91605011047E+02 0.  0.
          5    1    3    3  502    0 -0.64161609032E+02 -0.23174947326E+02  0.65876048502E+02  0.94925846972E+02  0.41800000000E+01 0.  1.
         -5    1    3    3    0  502  0.12597036123E+02  0.37351567364E+02  0.19828216085E+03  0.20220561964E+03  0.41800000000E+01 0.  1.
        -11    1    4    4    0    0  0.74045418280E+02 -0.10070709325E+02  0.41388359478E+03  0.42057552614E+03  0.00000000000E+00 0. -1.
         11    1    4    4    0    0 -0.22480845371E+02 -0.41059107132E+01  0.45766304771E+02  0.51154682716E+02  0.00000000000E+00 0.  1.
</event>
<event>
 8    1  0.7262913E-009  0.6027307E+02  0.7561462E-02  0.1396689E+00
         -2   -1    0    0    0  501 -0.00000000000E+00  0.00000000000E+00  0.13383665324E+03  0.13383665324E+03  0.00000000000E+00 0.  1.
          2   -1    0    0  501    0  0.00000000000E+00 -0.00000000000E+00 -0.94864303830E+02  0.94864303830E+02  0.00000000000E+00 0. -1.
         25    2    1    2    0    0  0.15603807973E+02 -0.22064425140E+02  0.39242227530E+02  0.13385765260E+03  0.12509037156E+03 0.  0.
         23    2    1    2    0    0 -0.15603807973E+02  0.22064425140E+02 -0.26987811747E+00  0.94843304473E+02  0.90911285818E+02 0.  0.
          5    1    3    3  502    0  0.46179008008E+01 -0.21129425888E+02 -0.44306763557E+02  0.49480696671E+02  0.41800000000E+01 0.  1.
         -5    1    3    3    0  502  0.10985907172E+02 -0.93499925248E+00  0.83548991087E+02  0.84376955928E+02  0.41800000000E+01 0.  1.
        -11    1    4    4    0    0 -0.49150902970E+02  0.20161614512E+02  0.18623138731E+02  0.56294966549E+02  0.00000000000E+00 0.  1.
         11    1    4    4    0    0  0.33547094998E+02  0.19028106283E+01 -0.18893016849E+02  0.38548337924E+02  0.00000000000E+00 0. -1.
</event>
<event>
 8    1  0.7262913E-009  0.1090530E+03  0.7561462E-02  0.1262334E+00
          1   -1    0    0  501    0  0.00000000000E+00  0.00000000000E+00  0.81365113423E+02  0.81365113423E+02  0.00000000000E+00 0. -1.
         -1   -1    0    0    0  501 -0.00000000000E+00 -0.00000000000E+00 -0.19754589996E+03  0.19754589996E+03  0.00000000000E+00 0.  1.
         25    2    1    2    0    0 -0.23157754035E+02  0.38583418455E+02 -0.11592896556E+03  0.17639960322E+03  0.12510928507E+03 0.  0.
         23    2    1    2    0    0  0.23157754035E+02 -0.38583418455E+02 -0.25182098388E+00  0.10251141016E+03  0.92106264979E+02 0.  0.
          5    1    3    3  502    0  0.18828575422E+02 -0.31031968314E+02 -0.22852935655E+01  0.36608650297E+02  0.41800000000E+01 0.  1.
         -5    1    3    3    0  502 -0.41986329458E+02  0.69615386769E+02 -0.11364367199E+03  0.13979095293E+03  0.41800000000E+01 0.  1.
        -11    1    4    4    0    0 -0.16761077044E+02 -0.54628485335E+02  0.10656852477E+02  0.58127219255E+02  0.00000000000E+00 0. -1.
         11    1    4    4    0    0  0.39918831080E+02  0.16045066880E+02 -0.10908673460E+02  0.44384190908E+02  0.00000000000E+00 0.  1.
</event>
<event>
 8    1  0.7262913E-009  0.9155146E+02  0.7561462E-02  0.1299138E+00
         -1   -1    0    0    0  501 -0.00000000000E+00  0.00000000000E+00  0.43079891843E+03  0.43079891843E+03  0.00000000000E+00 0.  1.
          1   -1    0    0  501    0  0.00000000000E+00 -0.00000000000E+00 -0.35831370151E+02  0.35831370151E+02  0.00000000000E+00 0. -1.
         25    2    1    2    0    0 -0.23898735126E+02  0.45296696982E+02  0.16084322384E+03  0.21009730432E+03  0.12508954526E+03 0.  0.
         23    2    1    2    0    0  0.23898735126E+02 -0.45296696982E+02  0.23412432444E+03  0.25653298426E+03  0.91498811017E+02 0.  0.
          5    1    3    3  502    0 -0.37517162534E+02 -0.90071543259E+01 -0.97050738902E+00  0.38821135974E+02  0.41800000000E+01 0.  1.
         -5    1    3    3    0  502  0.13618427408E+02  0.54303851308E+02  0.16181373123E+03  0.17127616835E+03  0.41800000000E+01 0.  1.
        -11    1    4    4    0    0  0.45287015926E+02 -0.48691723826E+02  0.22193348837E+03  0.23168139986E+03  0.00000000000E+00 0.  1.
         11    1    4    4    0    0 -0.21388280800E+02  0.33950268435E+01  0.12190836071E+02  0.24851584395E+02  0.00000000000E+00 0. -1.
</event>
<event>
 8    1  0.7262913E-009  0.6659221E+02  0.7561462E-02  0.1372080E+00
         -1   -1    0    0    0  501 -0.00000000000E+00  0.00000000000E+00  0.47871020393E+02  0.47871020393E+02  0.00000000000E+00 0.  1.
          1   -1    0    0  501    0  0.00000000000E+00 -0.00000000000E+00 -0.29954423940E+03  0.29954423940E+03  0.00000000000E+00 0. -1.
         25    2    1    2    0    0  0.26231951194E+02  0.31374679328E+02 -0.18704249316E+03  0.22870444504E+03  0.12509333782E+03 0.  0.
         23    2    1    2    0    0 -0.26231951194E+02 -0.31374679328E+02 -0.64630725844E+02  0.11871081475E+03  0.90788991894E+02 0.  0.
          5    1    3    3  502    0 -0.24392746152E+02  0.13668700529E+02  0.54880689722E+01  0.28799839237E+02  0.41800000000E+01 0. -1.
         -5    1    3    3    0  502  0.50624697346E+02  0.17705978798E+02 -0.19253056213E+03  0.19990460580E+03  0.41800000000E+01 0. -1.
        -11    1    4    4    0    0  0.60755160557E+01 -0.11989345390E+02  0.21127765590E+02  0.25040742342E+02  0.00000000000E+00 0.  1.
         11    1    4    4    0    0 -0.32307467250E+02 -0.19385333938E+02 -0.85758491434E+02  0.93670072408E+02  0.00000000000E+00 0. -1.
</event>
<event>
 8    1  0.7262913E-009  0.1255769E+03  0.7561462E-02  0.1234170E+00
         -2   -1    0    0    0  501 -0.00000000000E+00  0.00000000000E+00  0.82941026573E+02  0.82941026573E+02  0.00000000000E+00 0. -1.
          2   -1    0    0  501    0  0.00000000000E+00 -0.00000000000E+00 -0.36696905479E+03  0.36696905479E+03  0.00000000000E+00 0.  1.
         25    2    1    2    0    0  0.26822411676E+02  0.12183684869E+03 -0.81846892549E+02  0.19470403575E+03  0.12508832179E+03 0.  0.
         23    2    1    2    0    0 -0.26822411676E+02 -0.12183684869E+03 -0.20218113567E+03  0.25520604562E+03  0.93216171515E+02 0.  0.
          5    1    3    3  502    0  0.32648416061E+01  0.57562982959E+02  0.28755452009E+02  0.64563957577E+02  0.41800000000E+01 0. -1.
         -5    1    3    3    0  502  0.23557570070E+02  0.64273865736E+02 -0.11060234456E+03  0.13014007817E+03  0.41800000000E+01 0. -1.
        -11    1    4    4    0    0 -0.50287363995E+01 -0.25839932251E+02  0.40983606865E+01  0.26641825178E+02  0.00000000000E+00 0. -1.
         11    1    4    4    0    0 -0.21793675276E+02 -0.95996916444E+02 -0.20627949636E+03  0.22856422044E+03  0.00000000000E+00 0.  1.
</event>
<event>
 8    1  0.7262913E-009  0.1345334E+03  0.7561462E-02  0.1220880E+00
          4   -1    0    0  501    0  0.00000000000E+00  0.00000000000E+00  0.19937466952E+02  0.19937466952E+02  0.00000000000E+00 0. -1.
         -4   -1    0    0    0  501 -0.00000000000E+00 -0.00000000000E+00 -0.10831332023E+04  0.10831332023E+04  0.00000000000E+00 0.  1.
         25    2    1    2    0    0 -0.78646566451E+02  0.31799199970E+02 -0.80036469559E+03  0.81451054774E+03  0.12508922773E+03 0.  0.
         23    2    1    2    0    0  0.78646566451E+02 -0.31799199970E+02 -0.26283103974E+03  0.28856012150E+03  0.83608114046E+02 0.  0.
          5    1    3    3  502    0 -0.38798157094E+02  0.79534985930E+02 -0.44765886368E+03  0.45634092695E+03  0.41800000000E+01 0. -1.
         -5    1    3    3    0  502 -0.39848409358E+02 -0.47735785959E+02 -0.35270583191E+03  0.35816962079E+03  0.41800000000E+01 0. -1.
        -11    1    4    4    0    0 -0.14428656346E+02 -0.19515038941E+02 -0.70031027653E+02  0.74117256445E+02  0.00000000000E+00 0.  1.
         11    1    4    4    0    0  0.93075222797E+02 -0.12284161029E+02 -0.19280001209E+03  0.21444286505E+03  0.00000000000E+00 0. -1.
</event>
<event>
 8    1  0.7262913E-009  0.1271097E+03  0.7561462E-02  0.1231809E+00
          2   -1    0    0  501    0  0.00000000000E+00  0.00000000000E+00  0.11316108836E+03  0.11316108836E+03  0.00000000000E+00 0. -1.
         -2   -1    0    0    0  501 -0.00000000000E+00 -0.00000000000E+00 -0.23766618409E+03  0.23766618409E+03  0.00000000000E+00 0.  1.
         25    2    1    2    0    0 -0.35893369336E+02 -0.88374691305E+02 -0.14963819516E+03  0.21711124788E+03  0.12508910615E+03 0.  0.
         23    2    1    2    0    0  0.35893369336E+02  0.88374691305E+02  0.25133099428E+02  0.13371602457E+03  0.90276699729E+02 0.  0.
          5    1    3    3  502    0  0.24546292623E+02 -0.26827012391E+02  0.79084698086E+01  0.37446299818E+02  0.41800000000E+01 0.  1.
         -5    1    3    3    0  502 -0.60439661960E+02 -0.61547678914E+02 -0.15754666497E+03  0.17966494806E+03  0.41800000000E+01 0.  1.
        -11    1    4    4    0    0 -0.60527849064E+01  0.89097200076E+02  0.19241536950E+02  0.91351978691E+02  0.00000000000E+00 0.  1.
         11    1    4    4    0    0  0.41946154243E+02 -0.72250877164E+00  0.58915624778E+01  0.42364045878E+02  0.00000000000E+00 0. -1.
</event>
<event>
 8    1  0.7262913E-009  0.1821608E+03  0.7561462E-02  0.1165728E+00
         -3   -1    0    0    0  501 -0.00000000000E+00  0.00000000000E+00  0.29317666604E+03  0.29317666604E+03  0.00000000000E+00 0.  1.
          3   -1    0    0  501    0  0.00000000000E+00 -0.00000000000E+00 -0.12402480863E+03  0.12402480863E+03  0.00000000000E+00 0. -1.
         25    2    1    2    0    0 -0.11152350817E+03 -0.98433455235E+02  0.32505384568E+02  0.19705344525E+03  0.12508725864E+03 0.  0.
         23    2    1    2    0    0  0.11152350817E+03  0.98433455235E+02  0.13664647284E+03  0.22014802942E+03  0.87557171812E+02 0.  0.
          5    1    3    3  502    0  0.13823473324E+02  0.17405816238E+02 -0.25608700343E+01  0.22761399539E+02  0.41800000000E+01 0.  1.
         -5    1    3    3    0  502 -0.12534698149E+03 -0.11583927147E+03  0.35066254602E+02  0.17429204571E+03  0.41800000000E+01 0.  1.
        -11    1    4    4    0    0  0.16109683448E+02 -0.15508343273E+02  0.29108584789E+02  0.36706134641E+02  0.00000000000E+00 0. -1.
         11    1    4    4    0    0  0.95413824723E+02  0.11394179851E+03  0.10753788805E+03  0.18344189478E+03  0.00000000000E+00 0.  1.
</event>
<event>
 8    1  0.7262913E-009  0.1722147E+03  0.7561462E-02  0.1175558E+00
          2   -1    0    0  501    0  0.00000000000E+00  0.00000000000E+00  0.96515685257E+03  0.96515685257E+03  0.00000000000E+00 0. -1.
         -2   -1    0    0    0  501 -0.00000000000E+00 -0.00000000000E+00 -0.34338635357E+02  0.34338635357E+02  0.00000000000E+00 0.  1.
         25    2    1    2    0    0 -0.13722504618E+03  0.38427956521E+02  0.57794572511E+03  0.60825659180E+03  0.12508956454E+03 0.  0.
         23    2    1    2    0    0  0.13722504618E+03 -0.38427956521E+02  0.35287249210E+03  0.39123889612E+03  0.90782470860E+02 0.  0.
          5    1    3    3  502    0 -0.14377720546E+03  0.65371587562E+02  0.44045371724E+03  0.46793405380E+03  0.41800000000E+01 0. -1.
         -5    1    3    3    0  502  0.65521592814E+01 -0.26943631041E+02  0.13749200787E+03  0.14032253801E+03  0.41800000000E+01 0. -1.
        -11    1    4    4    0    0  0.11521626550E+03 -0.57952433788E+02  0.32891850056E+03  0.35329966379E+03  0.00000000000E+00 0. -1.
         11    1    4    4    0    0  0.22008780684E+02  0.19524477267E+02  0.23953991535E+02  0.37939232336E+02  0.00000000000E+00 0.  1.
</event>
<event>
 8    1  0.7262913E-009  0.3452880E+03  0.7561462E-02  0.1064566E+00
         -2   -1    0    0    0  501 -0.00000000000E+00  0.00000000000E+00  0.14843764043E+03  0.14843764043E+03  0.00000000000E+00 0.  1.
          2   -1    0    0  501    0  0.00000000000E+00 -0.00000000000E+00 -0.96309407314E+03  0.96309407314E+03  0.00000000000E+00 0. -1.
         25    2    1    2    0    0  0.33348445902E+03  0.13885758944E+02 -0.61156847943E+03  0.70786122720E+03  0.12508722247E+03 0.  0.
         23    2    1    2    0    0 -0.33348445902E+03 -0.13885758944E+02 -0.20308795328E+03  0.40367048637E+03  0.10149111333E+03 0.  0.
          5    1    3    3  502    0  0.66034419027E+02  0.34390850027E+02 -0.22726079221E+03  0.23918238886E+03  0.41800000000E+01 0. -1.
         -5    1    3    3    0  502  0.26745004000E+03 -0.20505091083E+02 -0.38430768722E+03  0.46867883834E+03  0.41800000000E+01 0. -1.
        -11    1    4    4    0    0 -0.26633831885E+03 -0.50761530775E+02 -0.17142414273E+03  0.32077884875E+03  0.00000000000E+00 0.  1.
         11    1    4    4    0    0 -0.67146140172E+02  0.36875771831E+02 -0.31663810550E+02  0.82891637616E+02  0.00000000000E+00 0. -1.
</event>
<event>
 8    1  0.7262913E-009  0.9155728E+02  0.7561462E-02  0.1299124E+00
         -2   -1    0    0    0  501 -0.00000000000E+00  0.00000000000E+00  0.54099672548E+02  0.54099672548E+02  0.00000000000E+00 0.  1.
          2   -1    0    0  501    0  0.00000000000E+00 -0.00000000000E+00 -0.22124831227E+03  0.22124831227E+03  0.00000000000E+00 0. -1.
         25    2    1    2    0    0 -0.17209090759E+02 -0.11707703231E+02 -0.11975373570E+03  0.17441702133E+03  0.12508843670E+03 0.  0.
         23    2    1    2    0    0  0.17209090759E+02  0.11707703231E+02 -0.47394904022E+02  0.10093096348E+03  0.86646173272E+02 0.  0.
          5    1    3    3  502    0  0.16972301931E+01 -0.67504305016E+02 -0.67255602308E+02  0.95396542012E+02  0.41800000000E+01 0.  1.
         -5    1    3    3    0  502 -0.18906320952E+02  0.55796601784E+02 -0.52498133390E+02  0.79020479321E+02  0.41800000000E+01 0.  1.
        -11    1    4    4    0    0 -0.15889877781E+02 -0.80900576672E+01 -0.58206355745E+02  0.60876244119E+02  0.00000000000E+00 0. -1.
         11    1    4    4    0    0  0.33098968539E+02  0.19797760899E+02  0.10811451723E+02  0.40054719364E+02  0.00000000000E+00 0.  1.
</event>
<event>
 8    1  0.7262913E-009  0.9327125E+02  0.7561462E-02  0.1295118E+00
          2   -1    0    0  501    0  0.00000000000E+00  0.00000000000E+00  0.63841155499E+03  0.63841155499E+03  0.00000000000E+00 0. -1.
         -2   -1    0    0    0  501 -0.00000000000E+00 -0.00000000000E+00 -0.20687902088E+02  0.20687902088E+02  0.00000000000E+00 0.  1.
         25    2    1    2    0    0  0.13678935237E+02  0.14972403772E+02  0.43873592512E+03  0.45667018977E+03  0.12508862494E+03 0.  0.
         23    2    1    2    0    0 -0.13678935237E+02 -0.14972403772E+02  0.17898772778E+03  0.20242926730E+03  0.92356458477E+02 0.  0.
          5    1    3    3  502    0  0.62959117131E+02  0.18395760007E+02  0.33876780334E+03  0.34508455688E+03  0.41800000000E+01 0.  1.
         -5    1    3    3    0  502 -0.49280181894E+02 -0.34233562354E+01  0.99968121787E+02  0.11158563290E+03  0.41800000000E+01 0.  1.
        -11    1    4    4    0    0 -0.92900834497E+01  0.27251246752E+02  0.13900232843E+02  0.31971120924E+02  0.00000000000E+00 0.  1.
         11    1    4    4    0    0 -0.43888517872E+01 -0.42223650524E+02  0.16508749493E+03  0.17045814638E+03  0.00000000000E+00 0. -1.
</event>
<event>
 8    1  0.7262913E-009  0.8653782E+02  0.7561462E-02  0.1311459E+00
          2   -1    0    0  501    0  0.00000000000E+00  0.00000000000E+00  0.13820309909E+03  0.13820309909E+03  0.00000000000E+00 0. -1.
         -2   -1    0    0    0  501 -0.00000000000E+00 -0.00000000000E+00 -0.10100973369E+03  0.10100973369E+03  0.00000000000E+00 0.  1.
         25    2    1    2    0    0  0.25436163604E+01  0.41126026305E+02 -0.55111694945E+00  0.13169756305E+03  0.12508446890E+03 0.  0.
         23    2    1    2    0    0 -0.25436163604E+01 -0.41126026305E+02  0.37744482354E+02  0.10751526973E+03  0.91853509746E+02 0.  0.
          5    1    3    3  502    0  0.42526992182E+02 -0.20741229321E+02 -0.25374244216E+02  0.53852282471E+02  0.41800000000E+01 0.  1.
         -5    1    3    3    0  502 -0.39983375822E+02  0.61867255626E+02  0.24823127267E+02  0.77845280577E+02  0.41800000000E+01 0.  1.
        -11    1    4    4    0    0 -0.11196998904E+02 -0.15741286823E+01  0.60176027085E+02  0.61229118084E+02  0.00000000000E+00 0. -1.
         11    1    4    4    0    0  0.86533825433E+01 -0.39551897622E+02 -0.22431544732E+02  0.46286151644E+02  0.00000000000E+00 0.  1.
</event>
<event>
 8    1  0.7262913E-009  0.1408528E+03  0.7561462E-02  0.1212186E+00
          1   -1    0    0  501    0  0.00000000000E+00  0.00000000000E+00  0.52088588783E+03  0.52088588783E+03  0.00000000000E+00 0. -1.
         -1   -1    0    0    0  501 -0.00000000000E+00 -0.00000000000E+00 -0.43859464154E+02  0.43859464154E+02  0.00000000000E+00 0.  1.
         25    2    1    2    0    0 -0.10240462052E+03 -0.29259520671E+02  0.22750055144E+03  0.28061945772E+03  0.12509177947E+03 0.  0.
         23    2    1    2    0    0  0.10240462052E+03  0.29259520671E+02  0.24952587223E+03  0.28412589426E+03  0.84389199677E+02 0.  0.
          5    1    3    3  502    0 -0.47335428370E+01 -0.46275497886E+02  0.20383751153E+02  0.50958785733E+02  0.41800000000E+01 0.  1.
         -5    1    3    3    0  502 -0.97671077684E+02  0.17015977214E+02  0.20711680029E+03  0.22966067199E+03  0.41800000000E+01 0.  1.
        -11    1    4    4    0    0  0.99928017661E+02  0.52170181648E+02  0.20269213180E+03  0.23192981020E+03  0.00000000000E+00 0.  1.
         11    1    4    4    0    0  0.24766028596E+01 -0.22910660977E+02  0.46833740434E+02  0.52196084059E+02  0.00000000000E+00 0. -1.
</event>
<event>
 8    1  0.7262913E-009  0.1033152E+03  0.7561462E-02  0.1273475E+00
          1   -1    0    0  501    0  0.00000000000E+00  0.00000000000E+00  0.15187353335E+03  0.15187353335E+03  0.00000000000E+00 0. -1.
         -1   -1    0    0    0  501 -0.00000000000E+00 -0.00000000000E+00 -0.12045007183E+03  0.12045007183E+03  0.00000000000E+00 0.  1.
         25    2    1    2    0    0 -0.43785442797E+02  0.40466591783E+02 -0.38843783029E+02  0.14391288210E+03  0.12508944042E+03 0.  0.
         23    2    1    2    0    0  0.43785442797E+02 -0.40466591783E+02  0.70267244546E+02  0.12841072308E+03  0.89426607311E+02 0.  0.
          5    1    3    3  502    0 -0.33126152280E+02  0.84570639819E+02 -0.37426876106E+02  0.98324862265E+02  0.41800000000E+01 0.  1.
         -5    1    3    3    0  502 -0.10659290517E+02 -0.44104048036E+02 -0.14169069227E+01  0.45588019838E+02  0.41800000000E+01 0.  1.
        -11    1    4    4    0    0  0.33716197255E+02 -0.60152020425E+01 -0.13859883859E+02  0.36946731838E+02  0.00000000000E+00 0.  1.
         11    1    4    4    0    0  0.10069245543E+02 -0.34451389741E+02  0.84127128405E+02  0.91463991245E+02  0.00000000000E+00 0. -1.
</event>
<event>
 8    1  0.7262913E-009  0.8127363E+02  0.7561462E-02  0.1325475E+00
         -2   -1    0    0    0  501 -0.00000000000E+00  0.00000000000E+00  0.38140331220E+03  0.38140331220E+03  0.00000000000E+00 0.  1.
          2   -1    0    0  501    0  0.00000000000E+00 -0.00000000000E+00 -0.45100705999E+02  0.45100705999E+02  0.00000000000E+00 0. -1.
         25    2    1    2    0    0 -0.34154179038E+02 -0.47757541421E+02  0.26043365996E+03  0.29482282332E+03  0.12509002839E+03 0.  0.
         23    2    1    2    0    0  0.34154179038E+02  0.47757541421E+02  0.75868946247E+02  0.13168119488E+03  0.90202823532E+02 0.  0.
          5    1    3    3  502    0  0.14237233471E+02 -0.42401052260E+02  0.23590867111E+03  0.24014770778E+03  0.41800000000E+01 0.  1.
         -5    1    3    3    0  502 -0.48391412510E+02 -0.53564891608E+01  0.24524988850E+02  0.54675115536E+02  0.41800000000E+01 0.  1.
        -11    1    4    4    0    0  0.37851477491E+02  0.24229926214E+02  0.92359025383E+02  0.10271325738E+03  0.00000000000E+00 0.  1.
         11    1    4    4    0    0 -0.36972984529E+01  0.23527615207E+02 -0.16490079136E+02  0.28967937501E+02  0.00000000000E+00 0. -1.
</event>
<event>
 8    1  0.7262913E-009  0.1492586E+03  0.7561462E-02  0.1201387E+00
          1   -1    0    0  501    0  0.00000000000E+00  0.00000000000E+00  0.12538775277E+04  0.12538775277E+04  0.00000000000E+00 0. -1.
         -1   -1    0    0    0  501 -0.00000000000E+00 -0.00000000000E+00 -0.17905017591E+02  0.17905017591E+02  0.00000000000E+00 0.  1.
         25    2    1    2    0    0  0.84646564334E+02 -0.56726662762E+02  0.69482509882E+03  0.71330738456E+03  0.12507018746E+03 0.  0.
         23    2    1    2    0    0 -0.84646564334E+02  0.56726662762E+02  0.54114741133E+03  0.55847516078E+03  0.93118361727E+02 0.  0.
          5    1    3    3  502    0 -0.21322980211E+02 -0.49658970583E+02  0.20158745414E+03  0.20874783092E+03  0.41800000000E+01 0.  1.
         -5    1    3    3    0  502  0.10596954454E+03 -0.70676921791E+01  0.49323764468E+03  0.50455955364E+03  0.41800000000E+01 0.  1.
        -11    1    4    4    0    0 -0.83779447159E+02  0.79345737448E+02  0.44976623852E+03  0.46433222065E+03  0.00000000000E+00 0.  1.
         11    1    4    4    0    0 -0.86711717498E+00 -0.22619074686E+02  0.91381172811E+02  0.94142940130E+02  0.00000000000E+00 0. -1.
</event>
<event>
 8    1  0.7262913E-009  0.2716078E+03  0.7561462E-02  0.1100363E+00
         -2   -1    0    0    0  501 -0.00000000000E+00  0.00000000000E+00  0.23309270220E+03  0.23309270220E+03  0.00000000000E+00 0.  1.
          2   -1    0    0  501    0  0.00000000000E+00 -0.00000000000E+00 -0.44235882896E+03  0.44235882896E+03  0.00000000000E+00 0. -1.
         25    2    1    2    0    0 -0.13311418656E+03  0.21042780066E+03 -0.28512014455E+03  0.39867341176E+03  0.12509095276E+03 0.  0.
         23    2    1    2    0    0  0.13311418656E+03 -0.21042780066E+03  0.75854017792E+02  0.27677811940E+03  0.94090644649E+02 0.  0.
          5    1    3    3  502    0  0.96296381886E+01 -0.99451898064E+01 -0.26024706515E+02  0.29772377821E+02  0.41800000000E+01 0.  1.
         -5    1    3    3    0  502 -0.14274382475E+03  0.22037299046E+03 -0.25909543803E+03  0.36890103394E+03  0.41800000000E+01 0.  1.
        -11    1    4    4    0    0  0.93095550510E+02 -0.20579365130E+03  0.63045080682E+02  0.23450477743E+03  0.00000000000E+00 0.  1.
         11    1    4    4    0    0  0.40018636048E+02 -0.46341493604E+01  0.12808937110E+02  0.42273341970E+02  0.00000000000E+00 0. -1.
</event>
<event>
 8    1  0.7262913E-009  0.9460140E+02  0.7561462E-02  0.1292076E+00
          2   -1    0    0  501    0  0.00000000000E+00  0.00000000000E+00  0.13283586608E+03  0.13283586608E+03  0.00000000000E+00 0. -1.
         -2   -1    0    0    0  501 -0.00000000000E+00 -0.00000000000E+00 -0.10819507699E+03  0.10819507699E+03  0.00000000000E+00 0.  1.
         25    2    1    2    0    0  0.12304166272E+02  0.56275081959E+01  0.62926995437E+02  0.14068376086E+03  0.12509617283E+03 0.  0.
         23    2    1    2    0    0 -0.12304166272E+02 -0.56275081959E+01 -0.38286206345E+02  0.10034718222E+03  0.91764165263E+02 0.  0.
          5    1    3    3  502    0 -0.46998495951E+02 -0.21934123604E+02  0.53238989833E+02  0.74443447250E+02  0.41800000000E+01 0.  1.
         -5    1    3    3    0  502  0.59302662223E+02  0.27561631800E+02  0.96880056034E+01  0.66240313607E+02  0.41800000000E+01 0.  1.
        -11    1    4    4    0    0 -0.32324631761E+02  0.20836242489E+02 -0.51801489770E+02  0.64516859517E+02  0.00000000000E+00 0.  1.
         11    1    4    4    0    0  0.20020465489E+02 -0.26463750685E+02  0.13515283425E+02  0.35830322700E+02  0.00000000000E+00 0. -1.
</event>
<event>
 8    1  0.7262913E-009  0.1533373E+03  0.7561462E-02  0.1196431E+00
         -1   -1    0    0    0  501 -0.00000000000E+00  0.00000000000E+00  0.36012143459E+02  0.36012143459E+02  0.00000000000E+00 0.  1.
          1   -1    0    0  501    0  0.00000000000E+00 -0.00000000000E+00 -0.84831786722E+03  0.84831786722E+03  0.00000000000E+00 0. -1.
         25    2    1    2    0    0 -0.13459359338E+03 -0.21276527932E+02 -0.43830299823E+03  0.47573621850E+03  0.12508918944E+03 0.  0.
         23    2    1    2    0    0  0.13459359338E+03  0.21276527932E+02 -0.37400272553E+03  0.40859379218E+03  0.92210207066E+02 0.  0.
          5    1    3    3  502    0 -0.14830261098E+03 -0.13752662288E+02 -0.28515696048E+03  0.32173710488E+03  0.41800000000E+01 0. -1.
         -5    1    3    3    0  502  0.13709017604E+02 -0.75238656444E+01 -0.15314603775E+03  0.15399911362E+03  0.41800000000E+01 0. -1.
        -11    1    4    4    0    0  0.72811147340E+02 -0.77616753001E+01 -0.29606696781E+03  0.30498746893E+03  0.00000000000E+00 0. -1.
         11    1    4    4    0    0  0.61782446036E+02  0.29038203232E+02 -0.77935757725E+02  0.10360632325E+03  0.00000000000E+00 0.  1.
</event>
<event>
 8    1  0.7262913E-009  0.1353418E+03  0.7561462E-02  0.1219738E+00
          2   -1    0    0  501    0  0.00000000000E+00  0.00000000000E+00  0.73053687518E+02  0.73053687518E+02  0.00000000000E+00 0. -1.
         -2   -1    0    0    0  501 -0.00000000000E+00 -0.00000000000E+00 -0.31186489415E+03  0.31186489415E+03  0.00000000000E+00 0.  1.
         25    2    1    2    0    0 -0.58773985180E+02 -0.87495180727E+02 -0.12393953337E+03  0.20522797244E+03  0.12509086599E+03 0.  0.
         23    2    1    2    0    0  0.58773985180E+02  0.87495180727E+02 -0.11487167326E+03  0.17969060923E+03  0.89350018143E+02 0.  0.
          5    1    3    3  502    0 -0.11179523672E+01  0.24289560357E+02 -0.58268499964E+02  0.63276560020E+02  0.41800000000E+01 0.  1.
         -5    1    3    3    0  502 -0.57656032813E+02 -0.11178474108E+03 -0.65671033402E+02  0.14195141242E+03  0.41800000000E+01 0.  1.
        -11    1    4    4    0    0  0.67787059242E+02  0.57645283609E+02 -0.11861898091E+03  0.14828528839E+03  0.00000000000E+00 0.  1.
         11    1    4    4    0    0 -0.90130740614E+01  0.29849897118E+02  0.37473076449E+01  0.31405320832E+02  0.00000000000E+00 0. -1.
</event>
<event>
 8    1  0.7262913E-009  0.1362085E+03  0.7561462E-02  0.1218524E+00
          1   -1    0    0  501    0  0.00000000000E+00  0.00000000000E+00  0.10123772284E+03  0.10123772284E+03  0.00000000000E+00 0. -1.
         -1   -1    0    0    0  501 -0.00000000000E+00 -0.00000000000E+00 -0.32152790073E+03  0.32152790073E+03  0.00000000000E+00 0.  1.
         25    2    1    2    0    0  0.37880473089E+02  0.98730993195E+02 -0.23165562290E+03  0.28371530965E+03  0.12508920835E+03 0.  0.
         23    2    1    2    0    0 -0.37880473089E+02 -0.98730993195E+02  0.11365445020E+02  0.13905031392E+03  0.89571631683E+02 0.  0.
          5    1    3    3  502    0 -0.21964739780E+02 -0.20112264581E+02 -0.33802825420E+02  0.45244407241E+02  0.41800000000E+01 0.  1.
         -5    1    3    3    0  502  0.59845212869E+02  0.11884325778E+03 -0.19785279748E+03  0.23847090241E+03  0.41800000000E+01 0.  1.
        -11    1    4    4    0    0 -0.21363720613E+02 -0.85282237488E+02  0.45363790392E+02  0.98930996498E+02  0.00000000000E+00 0. -1.
         11    1    4    4    0    0 -0.16516752476E+02 -0.13448755707E+02 -0.33998345372E+02  0.40119317423E+02  0.00000000000E+00 0.  1.
</event>
<event>
 8    1  0.7262913E-009  0.1022458E+03  0.7561462E-02  0.1275643E+00
          4   -1    0    0  501    0  0.00000000000E+00  0.00000000000E+00  0.13257409546E+03  0.13257409546E+03  0.00000000000E+00 0.  1.
         -4   -1    0    0    0  501 -0.00000000000E+00 -0.00000000000E+00 -0.18076165913E+03  0.18076165913E+03  0.00000000000E+00 0. -1.
         25    2    1    2    0    0 -0.11622772431E+02  0.55108418436E+02  0.67699986277E+02  0.15297915376E+03  0.12508919506E+03 0.  0.
         23    2    1    2    0    0  0.11622772431E+02 -0.55108418436E+02 -0.11588754995E+03  0.16035660083E+03  0.95458308045E+02 0.  0.
          5    1    3    3  502    0  0.46367567698E+02  0.55810557918E+02  0.60159395990E+02  0.94347204702E+02  0.41800000000E+01 0. -1.
         -5    1    3    3    0  502 -0.57990340129E+02 -0.70213948159E+00  0.75405902872E+01  0.58631949055E+02  0.41800000000E+01 0. -1.
        -11    1    4    4    0    0  0.28379857024E+02 -0.47345119889E+02 -0.14187784781E+02  0.56993595245E+02  0.00000000000E+00 0.  1.
         11    1    4    4    0    0 -0.16757084593E+02 -0.77632985470E+01 -0.10169976516E+03  0.10336300558E+03  0.00000000000E+00 0. -1.
</event>
<event>
 8    1  0.7262913E-009  0.1027823E+03  0.7561462E-02  0.1274552E+00
          3   -1    0    0  501    0  0.00000000000E+00  0.00000000000E+00  0.60657544550E+02  0.60657544550E+02  0.00000000000E+00 0. -1.
         -3   -1    0    0    0  501 -0.00000000000E+00 -0.00000000000E+00 -0.24609307895E+03  0.24609307895E+03  0.00000000000E+00 0.  1.
         25    2    1    2    0    0  0.63802736386E+02  0.77948675139E+01 -0.11386372992E+03  0.18095237803E+03  0.12508902827E+03 0.  0.
         23    2    1    2    0    0 -0.63802736386E+02 -0.77948675139E+01 -0.71571804476E+02  0.12579824546E+03  0.81062483530E+02 0.  0.
          5    1    3    3  502    0  0.56891691122E+02  0.40026010897E+02 -0.12728803137E+03  0.14511533826E+03  0.41800000000E+01 0. -1.
         -5    1    3    3    0  502  0.69110452640E+01 -0.32231143383E+02  0.13424301450E+02  0.35837039775E+02  0.41800000000E+01 0. -1.
        -11    1    4    4    0    0 -0.14096950507E+02 -0.40678419476E+02 -0.22384042187E+02  0.48523222990E+02  0.00000000000E+00 0. -1.
         11    1    4    4    0    0 -0.49705785879E+02  0.32883551962E+02 -0.49187762289E+02  0.77275022475E+02  0.00000000000E+00 0.  1.
</event>
<event>
 8    1  0.7262913E-009  0.1668291E+03  0.7561462E-02  0.1181196E+00
         -1   -1    0    0    0  501 -0.00000000000E+00  0.00000000000E+00  0.11397099527E+03  0.11397099527E+03  0.00000000000E+00 0.  1.
          1   -1    0    0  501    0  0.00000000000E+00 -0.00000000000E+00 -0.25249889831E+03  0.25249889831E+03  0.00000000000E+00 0. -1.
         25    2    1    2    0    0  0.11087740508E+03 -0.66208327785E+02 -0.64745371160E+02  0.19108740716E+03  0.12508034403E+03 0.  0.
         23    2    1    2    0    0 -0.11087740508E+03  0.66208327785E+02 -0.73782531883E+02  0.17538248641E+03  0.92939834858E+02 0.  0.
          5    1    3    3  502    0 -0.25642736782E+02  0.38757574376E+01 -0.95729706694E+01  0.27958641112E+02  0.41800000000E+01 0. -1.
         -5    1    3    3    0  502  0.13652014187E+03 -0.70084085222E+02 -0.55172400490E+02  0.16312876605E+03  0.41800000000E+01 0. -1.
        -11    1    4    4    0    0 -0.73146428691E+02 -0.49684824352E+01 -0.12984413168E+02  0.74455898579E+02  0.00000000000E+00 0.  1.
         11    1    4    4    0    0 -0.37730976393E+02  0.71176810220E+02 -0.60798118715E+02  0.10092658784E+03  0.00000000000E+00 0. -1.
</event>
<event>
 8    1  0.7262913E-009  0.2466371E+03  0.7561462E-02  0.1115449E+00
         -2   -1    0    0    0  501 -0.00000000000E+00  0.00000000000E+00  0.17500198477E+03  0.17500198477E+03  0.00000000000E+00 0.  1.
          2   -1    0    0  501    0  0.00000000000E+00 -0.00000000000E+00 -0.51227610431E+03  0.51227610431E+03  0.00000000000E+00 0. -1.
         25    2    1    2    0    0  0.22038569120E+03  0.93855810141E+02 -0.88883979914E+01  0.27038000020E+03  0.12509026703E+03 0.  0.
         23    2    1    2    0    0 -0.22038569120E+03 -0.93855810141E+02 -0.32838572154E+03  0.41689808888E+03  0.92671831837E+02 0.  0.
          5    1    3    3  502    0  0.63445913430E+02  0.10890576873E+02  0.51793344534E+02  0.82728541228E+02  0.41800000000E+01 0.  1.
         -5    1    3    3    0  502  0.15693977777E+03  0.82965233268E+02 -0.60681742526E+02  0.18765145897E+03  0.41800000000E+01 0.  1.
        -11    1    4    4    0    0 -0.20188923834E+03 -0.10701270340E+03 -0.26686247740E+03  0.35132117085E+03  0.00000000000E+00 0.  1.
         11    1    4    4    0    0 -0.18496452868E+02  0.13156893254E+02 -0.61523244137E+02  0.65576918028E+02  0.00000000000E+00 0. -1.
</event>
<event>
 8    1  0.7262913E-009  0.1384323E+03  0.7561462E-02  0.1215454E+00
          1   -1    0    0  501    0  0.00000000000E+00  0.00000000000E+00  0.16126695359E+03  0.16126695359E+03  0.00000000000E+00 0. -1.
         -1   -1    0    0    0  501 -0.00000000000E+00 -0.00000000000E+00 -0.25683056388E+03  0.25683056388E+03  0.00000000000E+00 0.  1.
         25    2    1    2    0    0 -0.13618398282E+00 -0.13310974230E+03  0.62018397269E+02  0.19290499972E+03  0.12509130776E+03 0.  0.
         23    2    1    2    0    0  0.13618398282E+00  0.13310974230E+03 -0.15758200756E+03  0.22519251775E+03  0.90340239678E+02 0.  0.
          5    1    3    3  502    0 -0.77633915720E+01 -0.10126240945E+03 -0.20797456049E+02  0.10375139707E+03  0.41800000000E+01 0. -1.
         -5    1    3    3    0  502  0.76272075892E+01 -0.31847332856E+02  0.82815853318E+02  0.89153602655E+02  0.41800000000E+01 0. -1.
        -11    1    4    4    0    0  0.20453693399E+02  0.25475424498E+02  0.73310988539E+00  0.32678559900E+02  0.00000000000E+00 0. -1.
         11    1    4    4    0    0 -0.20317509416E+02  0.10763431780E+03 -0.15831511744E+03  0.19251395785E+03  0.00000000000E+00 0.  1.
</event>
<event>
 8    1  0.7262913E-009  0.1788336E+03  0.7561462E-02  0.1168937E+00
          2   -1    0    0  501    0  0.00000000000E+00  0.00000000000E+00  0.46070121993E+02  0.46070121993E+02  0.00000000000E+00 0. -1.
         -2   -1    0    0    0  501 -0.00000000000E+00 -0.00000000000E+00 -0.73336668550E+03  0.73336668550E+03  0.00000000000E+00 0.  1.
         25    2    1    2    0    0  0.12549278027E+03 -0.77837323648E+02 -0.38530112855E+03  0.43117495799E+03  0.12509115829E+03 0.  0.
         23    2    1    2    0    0 -0.12549278027E+03  0.77837323648E+02 -0.30199543495E+03  0.34826184950E+03  0.90983439324E+02 0.  0.
          5    1    3    3  502    0 -0.11221442132E+02  0.18876582929E+02 -0.23279785312E+02  0.32274865620E+02  0.41800000000E+01 0. -1.
         -5    1    3    3    0  502  0.13671422240E+03 -0.96713906577E+02 -0.36202134324E+03  0.39890009237E+03  0.41800000000E+01 0. -1.
        -11    1    4    4    0    0 -0.94132421050E+02  0.93556598152E+02 -0.26967328998E+03  0.30056186232E+03  0.00000000000E+00 0.  1.
         11    1    4    4    0    0 -0.31360359222E+02 -0.15719274504E+02 -0.32322144967E+02  0.47699987177E+02  0.00000000000E+00 0. -1.
</event>
<event>
 8    1  0.7262913E-009  0.1494459E+03  0.7561462E-02  0.1201155E+00
         -2   -1    0    0    0  501 -0.00000000000E+00  0.00000000000E+00  0.30237102909E+02  0.30237102909E+02  0.00000000000E+00 0.  1.
          2   -1    0    0  501    0  0.00000000000E+00 -0.00000000000E+00 -0.10603936814E+04  0.10603936814E+04  0.00000000000E+00 0. -1.
         25    2    1    2    0    0 -0.12487260361E+03  0.65878206346E+02 -0.57701655376E+03  0.60706199586E+03  0.12507221237E+03 0.  0.
         23    2    1    2    0    0  0.12487260361E+03 -0.65878206346E+02 -0.45314002469E+03  0.48356878841E+03  0.92573138307E+02 0.  0.
          5    1    3    3  502    0 -0.10920727284E+03  0.59719804266E+02 -0.57640696058E+03  0.58970767340E+03  0.41800000000E+01 0.  1.
         -5    1    3    3    0  502 -0.15665330768E+02  0.61584020799E+01 -0.60959317679E+00  0.17354322462E+02  0.41800000000E+01 0.  1.
        -11    1    4    4    0    0  0.56109539385E+02 -0.68064944524E+02 -0.16251209929E+03  0.18490889513E+03  0.00000000000E+00 0. -1.
         11    1    4    4    0    0  0.68763064227E+02  0.21867381776E+01 -0.29062792541E+03  0.29865989328E+03  0.00000000000E+00 0.  1.
</event>
<event>
 8    1  0.7262913E-009  0.1018900E+03  0.7561462E-02  0.1276371E+00
         -1   -1    0    0    0  501 -0.00000000000E+00  0.00000000000E+00  0.25061933870E+02  0.25061933870E+02  0.00000000000E+00 0.  1.
          1   -1    0    0  501    0  0.00000000000E+00 -0.00000000000E+00 -0.51976035726E+03  0.51976035726E+03  0.00000000000E+00 0. -1.
         25    2    1    2    0    0 -0.18913759025E+02  0.25595393190E+02 -0.33828051730E+03  0.36206803287E+03  0.12508676031E+03 0.  0.
         23    2    1    2    0    0  0.18913759025E+02 -0.25595393190E+02 -0.15641790609E+03  0.18275425827E+03  0.88992713947E+02 0.  0.
          5    1    3    3  502    0 -0.36014012536E+02 -0.33500657811E+02 -0.63373679625E+02  0.80330559826E+02  0.41800000000E+01 0.  1.
         -5    1    3    3    0  502  0.17100253511E+02  0.59096051001E+02 -0.27490683768E+03  0.28173747304E+03  0.41800000000E+01 0.  1.
        -11    1    4    4    0    0 -0.33118587796E+02 -0.23630418146E+02 -0.51547797022E+02  0.65668964490E+02  0.00000000000E+00 0.  1.
         11    1    4    4    0    0  0.52032346821E+02 -0.19649750439E+01 -0.10487010907E+03  0.11708529378E+03  0.00000000000E+00 0. -1.
</event>
<event>
 8    1  0.7262913E-009  0.1290829E+03  0.7561462E-02  0.1228823E+00
         -2   -1    0    0    0  501 -0.00000000000E+00  0.00000000000E+00  0.17929900800E+02  0.17929900800E+02  0.00000000000E+00 0.  1.
          2   -1    0    0  501    0  0.00000000000E+00 -0.00000000000E+00 -0.14408474189E+04  0.14408474189E+04  0.00000000000E+00 0. -1.
         25    2    1    2    0    0 -0.19122300417E+02 -0.79760919361E+02 -0.11337756227E+04  0.11436004885E+04  0.12508975982E+03 0.  0.
         23    2    1    2    0    0  0.19122300417E+02  0.79760919361E+02 -0.28914189540E+03  0.31517683121E+03  0.94899592342E+02 0.  0.
          5    1    3    3  502    0 -0.20936993977E+02 -0.10643790147E+03 -0.10491809529E+04  0.10547822187E+04  0.41800000000E+01 0.  1.
         -5    1    3    3    0  502  0.18146935598E+01  0.26676982113E+02 -0.84594669818E+02  0.88818269793E+02  0.41800000000E+01 0.  1.
        -11    1    4    4    0    0 -0.91474948475E+01 -0.18316712420E+02 -0.78227139671E+02  0.80862005893E+02  0.00000000000E+00 0. -1.
         11    1    4    4    0    0  0.28269795265E+02  0.98077631782E+02 -0.21091475573E+03  0.23431482532E+03  0.00000000000E+00 0.  1.
</event>
<event>
 8    1  0.7262913E-009  0.1518163E+03  0.7561462E-02  0.1198259E+00
          2   -1    0    0  501    0  0.00000000000E+00  0.00000000000E+00  0.80091869943E+03  0.80091869943E+03  0.00000000000E+00 0. -1.
         -2   -1    0    0    0  501 -0.00000000000E+00 -0.00000000000E+00 -0.31513824057E+02  0.31513824057E+02  0.00000000000E+00 0.  1.
         25    2    1    2    0    0 -0.86417539355E+02  0.70133140046E+02  0.51246529503E+03  0.53912376007E+03  0.12508837526E+03 0.  0.
         23    2    1    2    0    0  0.86417539355E+02 -0.70133140046E+02  0.25693958034E+03  0.29330876341E+03  0.87323732787E+02 0.  0.
          5    1    3    3  502    0 -0.17149951010E+02  0.91266904703E+02  0.24656866353E+03  0.26350967145E+03  0.41800000000E+01 0. -1.
         -5    1    3    3    0  502 -0.69267588345E+02 -0.21133764657E+02  0.26589663149E+03  0.27561408861E+03  0.41800000000E+01 0. -1.
        -11    1    4    4    0    0  0.60192813997E+02 -0.87844427335E+02  0.22168202578E+03  0.24593238669E+03  0.00000000000E+00 0.  1.
         11    1    4    4    0    0  0.26224725358E+02  0.17711287288E+02  0.35257554567E+02  0.47376376724E+02  0.00000000000E+00 0. -1.
</event>
<event>
 8    1  0.7262913E-009  0.9183295E+02  0.7561462E-02  0.1298473E+00
          2   -1    0    0  501    0  0.00000000000E+00  0.00000000000E+00  0.38184724057E+03  0.38184724057E+03  0.00000000000E+00 0. -1.
         -2   -1    0    0    0  501 -0.00000000000E+00 -0.00000000000E+00 -0.35320995925E+02  0.35320995925E+02  0.00000000000E+00 0.  1.
         25    2    1    2    0    0 -0.31155210228E+02 -0.13652984083E+02  0.22368754314E+03  0.25853382424E+03  0.12508625113E+03 0.  0.
         23    2    1    2    0    0  0.31155210228E+02  0.13652984083E+02  0.12283870150E+03  0.15863441225E+03  0.94437699385E+02 0.  0.
          5    1    3    3  502    0  0.20174283963E+02 -0.43446207235E+02  0.17550943502E+03  0.18197694590E+03  0.41800000000E+01 0. -1.
         -5    1    3    3    0  502 -0.51329494191E+02  0.29793223153E+02  0.48178108118E+02  0.76556878342E+02  0.41800000000E+01 0. -1.
        -11    1    4    4    0    0  0.29814159461E+02 -0.24083009426E+02  0.11341609332E+03  0.11971668919E+03  0.00000000000E+00 0. -1.
         11    1    4    4    0    0  0.13410507665E+01  0.37735993509E+02  0.94226081846E+01  0.38917723061E+02  0.00000000000E+00 0.  1.
</event>
<event>
 8    1  0.7262913E-009  0.9171513E+02  0.7561462E-02  0.1298751E+00
          2   -1    0    0  501    0  0.00000000000E+00  0.00000000000E+00  0.28965258620E+03  0.28965258620E+03  0.00000000000E+00 0. -1.
         -2   -1    0    0    0  501 -0.00000000000E+00 -0.00000000000E+00 -0.51569916392E+02  0.51569916392E+02  0.00000000000E+00 0.  1.
         25    2    1    2    0    0 -0.37833421767E+02  0.17916524311E+02  0.18717042438E+03  0.22898217791E+03  0.12509076862E+03 0.  0.
         23    2    1    2    0    0  0.37833421767E+02 -0.17916524311E+02  0.50912245429E+02  0.11224032468E+03  0.90848577880E+02 0.  0.
          5    1    3    3  502    0 -0.22267702668E+02  0.68249966159E+02  0.14315822969E+03  0.16020505482E+03  0.41800000000E+01 0. -1.
         -5    1    3    3    0  502 -0.15565719100E+02 -0.50333441848E+02  0.44012194689E+02  0.68777123091E+02  0.41800000000E+01 0. -1.
        -11    1    4    4    0    0  0.44763560430E+02 -0.63896554856E+01 -0.12903715602E+02  0.47022440557E+02  0.00000000000E+00 0.  1.
         11    1    4    4    0    0 -0.69301386625E+01 -0.11526868825E+02  0.63815961030E+02  0.65217884120E+02  0.00000000000E+00 0. -1.
</event>
<event>
 8    1  0.7262913E-009  0.1709099E+03  0.7561462E-02  0.1176902E+00
         -2   -1    0    0    0  501 -0.00000000000E+00  0.00000000000E+00  0.96027379411E+02  0.96027379411E+02  0.00000000000E+00 0.  1.
          2   -1    0    0  501    0  0.00000000000E+00 -0.00000000000E+00 -0.38992141920E+03  0.38992141920E+03  0.00000000000E+00 0. -1.
         25    2    1    2    0    0  0.71425728966E+02  0.11639546696E+03 -0.25601451973E+03  0.31597203833E+03  0.12508139433E+03 0.  0.
         23    2    1    2    0    0 -0.71425728966E+02 -0.11639546696E+03 -0.37879520062E+02  0.16997676028E+03  0.93849355405E+02 0.  0.
          5    1    3    3  502    0  0.70837589794E+02  0.14179983091E+03 -0.20870673607E+03  0.26210900453E+03  0.41800000000E+01 0.  1.
         -5    1    3    3    0  502  0.58813917246E+00 -0.25404363951E+02 -0.47307783662E+02  0.53863033803E+02  0.41800000000E+01 0.  1.
        -11    1    4    4    0    0 -0.24975526200E+01 -0.79085198740E+02 -0.45424056784E+02  0.91236239310E+02  0.00000000000E+00 0.  1.
         11    1    4    4    0    0 -0.68928176346E+02 -0.37310268218E+02  0.75445367214E+01  0.78740520974E+02  0.00000000000E+00 0. -1.
</event>
<event>
 8    1  0.7262913E-009  0.1147566E+03  0.7561462E-02  0.1252007E+00
         -2   -1    0    0    0  501 -0.00000000000E+00  0.00000000000E+00  0.30161949762E+02  0.30161949762E+02  0.00000000000E+00 0.  1.
          2   -1    0    0  501    0  0.00000000000E+00 -0.00000000000E+00 -0.81680496302E+03  0.81680496302E+03  0.00000000000E+00 0. -1.
         25    2    1    2    0    0 -0.55240418789E+02  0.83752986527E+02 -0.55870024172E+03  0.58125748451E+03  0.12509291178E+03 0.  0.
         23    2    1    2    0    0  0.55240418789E+02 -0.83752986527E+02 -0.22794277153E+03  0.26570942827E+03  0.92614937010E+02 0.  0.
          5    1    3    3  502    0 -0.12510185651E+02  0.83297276025E+01  0.25764147815E+00  0.15602175685E+02  0.41800000000E+01 0. -1.
         -5    1    3    3    0  502 -0.42730233138E+02  0.75423258924E+02 -0.55895788320E+03  0.56565530883E+03  0.41800000000E+01 0. -1.
        -11    1    4    4    0    0 -0.48753485256E+01 -0.63505079016E+02 -0.65691881984E+02  0.91499111704E+02  0.00000000000E+00 0.  1.
         11    1    4    4    0    0  0.60115767314E+02 -0.20247907511E+02 -0.16225088955E+03  0.17421031657E+03  0.00000000000E+00 0. -1.
</event>
<event>
 8    1  0.7262913E-009  0.1055046E+03  0.7561462E-02  0.1269129E+00
          1   -1    0    0  501    0  0.00000000000E+00  0.00000000000E+00  0.11138209342E+03  0.11138209342E+03  0.00000000000E+00 0. -1.
         -1   -1    0    0    0  501 -0.00000000000E+00 -0.00000000000E+00 -0.12305178165E+03  0.12305178165E+03  0.00000000000E+00 0.  1.
         25    2    1    2    0    0 -0.22725572783E+02 -0.27832412657E+02 -0.35370926482E+00  0.13014963524E+03  0.12509079739E+03 0.  0.
         23    2    1    2    0    0  0.22725572783E+02  0.27832412657E+02 -0.11315978967E+02  0.10428423983E+03  0.97242256479E+02 0.  0.
          5    1    3    3  502    0 -0.61705872737E+02  0.56460398474E+01  0.31410932785E+02  0.69596060195E+02  0.41800000000E+01 0.  1.
         -5    1    3    3    0  502  0.38980299954E+02 -0.33478452505E+02 -0.31764642050E+02  0.60553575049E+02  0.41800000000E+01 0.  1.
        -11    1    4    4    0    0  0.56735719376E+02  0.62678709265E+01 -0.24205603253E+02  0.62001123279E+02  0.00000000000E+00 0.  1.
         11    1    4    4    0    0 -0.34010146593E+02  0.21564541731E+02  0.12889624286E+02  0.42283116555E+02  0.00000000000E+00 0. -1.
</event>
<event>
 8    1  0.7262913E-009  0.1077843E+03  0.7561462E-02  0.1264729E+00
          2   -1    0    0  501    0  0.00000000000E+00  0.00000000000E+00  0.63337139663E+02  0.63337139663E+02  0.00000000000E+00 0. -1.
         -2   -1    0    0    0  501 -0.00000000000E+00 -0.00000000000E+00 -0.31698239055E+03  0.31698239055E+03  0.00000000000E+00 0.  1.
         25    2    1    2    0    0 -0.55405875191E+02  0.92684978074E+01 -0.23468523828E+03  0.27180940561E+03  0.12508987110E+03 0.  0.
         23    2    1    2    0    0  0.55405875191E+02 -0.92684978074E+01 -0.18960012602E+02  0.10851012460E+03  0.90880410466E+02 0.  0.
          5    1    3    3  502    0  0.26131091488E+02 -0.15089975736E+01 -0.39257388476E+01  0.26795425758E+02  0.41800000000E+01 0.  1.
         -5    1    3    3    0  502 -0.81536966679E+02  0.10777495381E+02 -0.23075949943E+03  0.24501397985E+03  0.41800000000E+01 0.  1.
        -11    1    4    4    0    0  0.16279138930E+02  0.40356064289E+02 -0.50967951025E+01  0.43813235552E+02  0.00000000000E+00 0.  1.
         11    1    4    4    0    0  0.39126736261E+02 -0.49624562096E+02 -0.13863217500E+02  0.64696889053E+02  0.00000000000E+00 0. -1.
</event>
<event>
 8    1  0.7262913E-009  0.9892205E+02  0.7561462E-02  0.1282579E+00
          2   -1    0    0  501    0  0.00000000000E+00  0.00000000000E+00  0.88383267361E+03  0.88383267361E+03  0.00000000000E+00 0.  1.
         -2   -1    0    0    0  501 -0.00000000000E+00 -0.00000000000E+00 -0.15397880252E+02  0.15397880252E+02  0.00000000000E+00 0. -1.
         25    2    1    2    0    0  0.89447543538E+01  0.31668750289E+01  0.65757299508E+03  0.66943271016E+03  0.12509145394E+03 0.  0.
         23    2    1    2    0    0 -0.89447543538E+01 -0.31668750289E+01  0.21086179828E+03  0.22979784370E+03  0.90853251279E+02 0.  0.
          5    1    3    3  502    0 -0.45771598149E+02 -0.15920087963E+02  0.13233782422E+03  0.14099383148E+03  0.41800000000E+01 0.  1.
         -5    1    3    3    0  502  0.54716352503E+02  0.19086962992E+02  0.52523517086E+03  0.52843887868E+03  0.41800000000E+01 0.  1.
        -11    1    4    4    0    0  0.22064519976E+02 -0.38325289081E+02  0.93968094415E+02  0.10385409762E+03  0.00000000000E+00 0.  1.
         11    1    4    4    0    0 -0.31009274330E+02  0.35158414052E+02  0.11689370386E+03  0.12594374608E+03  0.00000000000E+00 0. -1.
</event>
<event>
 8    1  0.7262913E-009  0.1703477E+03  0.7561462E-02  0.1177486E+00
          1   -1    0    0  501    0  0.00000000000E+00  0.00000000000E+00  0.29515820220E+03  0.29515820220E+03  0.00000000000E+00 0. -1.
         -1   -1    0    0    0  501 -0.00000000000E+00 -0.00000000000E+00 -0.12712063122E+03  0.12712063122E+03  0.00000000000E+00 0.  1.
         25    2    1    2    0    0 -0.53490203142E+02 -0.14798521801E+03  0.57036046173E+02  0.20895069940E+03  0.12508580108E+03 0.  0.
         23    2    1    2    0    0  0.53490203142E+02  0.14798521801E+03  0.11100152480E+03  0.21332813403E+03  0.91797209528E+02 0.  0.
          5    1    3    3  502    0 -0.41738936343E+02 -0.13842087691E+03  0.91446151945E+02  0.17112086102E+03  0.41800000000E+01 0. -1.
         -5    1    3    3    0  502 -0.11751266799E+02 -0.95643411045E+01 -0.34410105773E+02  0.37829838374E+02  0.41800000000E+01 0. -1.
        -11    1    4    4    0    0 -0.22086106264E+02  0.12971918873E+02  0.27212105901E+02  0.37370649937E+02  0.00000000000E+00 0. -1.
         11    1    4    4    0    0  0.75576309406E+02  0.13501329914E+03  0.83789418903E+02  0.17595748409E+03  0.00000000000E+00 0.  1.
</event>
<event>
 8    1  0.7262913E-009  0.1359262E+03  0.7561462E-02  0.1218918E+00
          2   -1    0    0  501    0  0.00000000000E+00  0.00000000000E+00  0.94871187912E+02  0.94871187912E+02  0.00000000000E+00 0. -1.
         -2   -1    0    0    0  501 -0.00000000000E+00 -0.00000000000E+00 -0.20514851798E+03  0.20514851798E+03  0.00000000000E+00 0.  1.
         25    2    1    2    0    0 -0.83638597110E+02 -0.31204176254E+01 -0.29505580501E+02  0.15337209625E+03  0.12508904306E+03 0.  0.
         23    2    1    2    0    0  0.83638597110E+02  0.31204176254E+01 -0.80771749565E+02  0.14664760964E+03  0.89310099952E+02 0.  0.
          5    1    3    3  502    0  0.24042001997E+01 -0.51421724306E+02 -0.12769445972E+02  0.53202491103E+02  0.41800000000E+01 0. -1.
         -5    1    3    3    0  502 -0.86042797309E+02  0.48301306680E+02 -0.16736134528E+02  0.10016960514E+03  0.41800000000E+01 0. -1.
        -11    1    4    4    0    0  0.80043015485E+02 -0.31953780303E+02 -0.65372348249E+02  0.10817334385E+03  0.00000000000E+00 0.  1.
         11    1    4    4    0    0  0.35955816244E+01  0.35074197929E+02 -0.15399401316E+02  0.38474265795E+02  0.00000000000E+00 0. -1.
</event>
<event>
 8    1  0.7262913E-009  0.1235250E+03  0.7561462E-02  0.1237393E+00
          2   -1    0    0  501    0  0.00000000000E+00  0.00000000000E+00  0.13827916619E+03  0.13827916619E+03  0.00000000000E+00 0. -1.
         -2   -1    0    0    0  501 -0.00000000000E+00 -0.00000000000E+00 -0.11750931150E+03  0.11750931150E+03  0.00000000000E+00 0.  1.
         25    2    1    2    0    0 -0.55066399193E+02  0.36056477327E+02 -0.61610446741E+00  0.14135339822E+03  0.12509206900E+03 0.  0.
         23    2    1    2    0    0  0.55066399193E+02 -0.36056477327E+02  0.21385959157E+02  0.11443507947E+03  0.91135340491E+02 0.  0.
          5    1    3    3  502    0  0.24858055263E+02  0.53751367485E+02 -0.13476962438E+01  0.59383677077E+02  0.41800000000E+01 0.  1.
         -5    1    3    3    0  502 -0.79924454455E+02 -0.17694890158E+02  0.73159177643E+00  0.81969721143E+02  0.41800000000E+01 0.  1.
        -11    1    4    4    0    0  0.77094331099E+02 -0.31136584580E+02 -0.28496754014E+00  0.83145077987E+02  0.00000000000E+00 0.  1.
         11    1    4    4    0    0 -0.22027931907E+02 -0.49198927476E+01  0.21670926697E+02  0.31290001481E+02  0.00000000000E+00 0. -1.
</event>
<event>
 8    1  0.7262913E-009  0.1711788E+03  0.7561462E-02  0.1176624E+00
          1   -1    0    0  501    0  0.00000000000E+00  0.00000000000E+00  0.42080869780E+03  0.42080869780E+03  0.00000000000E+00 0. -1.
         -1   -1    0    0    0  501 -0.00000000000E+00 -0.00000000000E+00 -0.10805844961E+03  0.10805844961E+03  0.00000000000E+00 0.  1.
         25    2    1    2    0    0 -0.23017943842E+02  0.15488625022E+03  0.43760916548E+02  0.20513864402E+03  0.12508904512E+03 0.  0.
         23    2    1    2    0    0  0.23017943842E+02 -0.15488625022E+03  0.26898933164E+03  0.32372850338E+03  0.89024194016E+02 0.  0.
          5    1    3    3  502    0 -0.22366145622E+02  0.82641607682E+00 -0.27197758026E+02  0.35469957360E+02  0.41800000000E+01 0. -1.
         -5    1    3    3    0  502 -0.65179821993E+00  0.15405983414E+03  0.70958674573E+02  0.16966868666E+03  0.41800000000E+01 0. -1.
        -11    1    4    4    0    0  0.72644933361E+01 -0.14816665650E+03  0.26831003008E+03  0.30658832855E+03  0.00000000000E+00 0.  1.
         11    1    4    4    0    0  0.15753450506E+02 -0.67195937165E+01  0.67930155861E+00  0.17140174829E+02  0.00000000000E+00 0. -1.
</event>
<event>
 8    1  0.7262913E-009  0.2506718E+03  0.7561462E-02  0.1112881E+00
         -2   -1    0    0    0  501 -0.00000000000E+00  0.00000000000E+00  0.94545937510E+03  0.94545937510E+03  0.00000000000E+00 0. -1.
          2   -1    0    0  501    0  0.00000000000E+00 -0.00000000000E+00 -0.92234396747E+02  0.92234396747E+02  0.00000000000E+00 0.  1.
         25    2    1    2    0    0 -0.19012056585E+03 -0.14052258913E+03  0.67812716418E+03  0.72896866332E+03  0.12508570541E+03 0.  0.
         23    2    1    2    0    0  0.19012056585E+03  0.14052258913E+03  0.17509781417E+03  0.30872510852E+03  0.93592309991E+02 0.  0.
          5    1    3    3  502    0  0.14482527761E+01 -0.52777925062E+02  0.19099354993E+03  0.19820094683E+03  0.41800000000E+01 0. -1.
         -5    1    3    3    0  502 -0.19156881862E+03 -0.87744664066E+02  0.48713361425E+03  0.53076771649E+03  0.41800000000E+01 0. -1.
        -11    1    4    4    0    0  0.16532722878E+03  0.11126385061E+03  0.18185325110E+03  0.26978388011E+03  0.00000000000E+00 0.  1.
         11    1    4    4    0    0  0.24793337063E+02  0.29258738516E+02 -0.67554369259E+01  0.38941228414E+02  0.00000000000E+00 0. -1.
</event>
<event>
 8    1  0.7262913E-009  0.7041084E+02  0.7561462E-02  0.1358702E+00
          1   -1    0    0  501    0  0.00000000000E+00  0.00000000000E+00  0.30330981527E+03  0.30330981527E+03  0.00000000000E+00 0. -1.
         -1   -1    0    0    0  501 -0.00000000000E+00 -0.00000000000E+00 -0.41406002880E+02  0.41406002880E+02  0.00000000000E+00 0.  1.
         25    2    1    2    0    0  0.17282006379E+02  0.33692464781E+02  0.14324218254E+03  0.19390575103E+03  0.12508903827E+03 0.  0.
         23    2    1    2    0    0 -0.17282006379E+02 -0.33692464781E+02  0.11866162985E+03  0.15081006712E+03  0.85024961149E+02 0.  0.
          5    1    3    3  502    0 -0.92416070263E+01 -0.23378339953E+01 -0.21101816703E+02  0.23529382406E+02  0.41800000000E+01 0.  1.
         -5    1    3    3    0  502  0.26523613405E+02  0.36030298776E+02  0.16434399925E+03  0.17037636863E+03  0.41800000000E+01 0.  1.
        -11    1    4    4    0    0 -0.66203571640E+01  0.24981056517E+02  0.67353227439E+02  0.72141108670E+02  0.00000000000E+00 0. -1.
         11    1    4    4    0    0 -0.10661649215E+02 -0.58673521298E+02  0.51308402407E+02  0.78668958447E+02  0.00000000000E+00 0.  1.
</event>
<event>
 8    1  0.7262913E-009  0.2350623E+03  0.7561462E-02  0.1123127E+00
          2   -1    0    0  501    0  0.00000000000E+00  0.00000000000E+00  0.16784436756E+03  0.16784436756E+03  0.00000000000E+00 0. -1.
         -2   -1    0    0    0  501 -0.00000000000E+00 -0.00000000000E+00 -0.33930486435E+03  0.33930486435E+03  0.00000000000E+00 0.  1.
         25    2    1    2    0    0 -0.20934947239E+03 -0.38965179325E+01 -0.12330347102E+03  0.27330166619E+03  0.12509064845E+03 0.  0.
         23    2    1    2    0    0  0.20934947239E+03  0.38965179325E+01 -0.48157025772E+02  0.23384756573E+03  0.92321180791E+02 0.  0.
          5    1    3    3  502    0 -0.75851986430E+02  0.58190066424E+02 -0.37038347677E+02  0.10261052224E+03  0.41800000000E+01 0.  1.
         -5    1    3    3    0  502 -0.13349748596E+03 -0.62086584357E+02 -0.86265123342E+02  0.17069114394E+03  0.41800000000E+01 0.  1.
        -11    1    4    4    0    0  0.20531400257E+03 -0.16853977090E+02 -0.51749918501E+02  0.21240515592E+03  0.00000000000E+00 0. -1.
         11    1    4    4    0    0  0.40354698230E+01  0.20750495023E+02  0.35928927286E+01  0.21442409812E+02  0.00000000000E+00 0.  1.
</event>
<event>
 8    1  0.7262913E-009  0.2239881E+03  0.7561462E-02  0.1130944E+00
         -4   -1    0    0    0  501 -0.00000000000E+00  0.00000000000E+00  0.19017878542E+03  0.19017878542E+03  0.00000000000E+00 0.  1.
          4   -1    0    0  501    0  0.00000000000E+00 -0.00000000000E+00 -0.37361138306E+03  0.37361138306E+03  0.00000000000E+00 0. -1.
         25    2    1    2    0    0  0.21792962188E+03 -0.64918093978E+00 -0.20993340084E+03  0.32743434675E+03  0.12508987615E+03 0.  0.
         23    2    1    2    0    0 -0.21792962188E+03  0.64918093978E+00  0.26500803195E+02  0.23635582173E+03  0.87567347608E+02 0.  0.
          5    1    3    3  502    0  0.18896894380E+03  0.19215135748E+02 -0.10580561780E+03  0.21746444381E+03  0.41800000000E+01 0. -1.
         -5    1    3    3    0  502  0.28960678075E+02 -0.19864316687E+02 -0.10412778303E+03  0.10996990293E+03  0.41800000000E+01 0. -1.
        -11    1    4    4    0    0 -0.67073801514E+02  0.21261614578E+02  0.44167807271E+02  0.83076749474E+02  0.00000000000E+00 0.  1.
         11    1    4    4    0    0 -0.15085582036E+03 -0.20612433639E+02 -0.17667004076E+02  0.15327907225E+03  0.00000000000E+00 0. -1.
</event>
<event>
 8    1  0.7262913E-009  0.9530757E+02  0.7561462E-02  0.1290485E+00
         -2   -1    0    0    0  501 -0.00000000000E+00  0.00000000000E+00  0.57903793201E+02  0.57903793201E+02  0.00000000000E+00 0. -1.
          2   -1    0    0  501    0  0.00000000000E+00 -0.00000000000E+00 -0.26342668063E+03  0.26342668063E+03  0.00000000000E+00 0.  1.
         25    2    1    2    0    0  0.13056397944E+00 -0.51289449308E+01 -0.34734986937E+02  0.12992632554E+03  0.12509199666E+03 0.  0.
         23    2    1    2    0    0 -0.13056397944E+00  0.51289449308E+01 -0.17078790049E+03  0.19140414829E+03  0.86259596022E+02 0.  0.
          5    1    3    3  502    0  0.32471659475E+02 -0.43230171222E+02 -0.53691809036E+02  0.76312116538E+02  0.41800000000E+01 0.  1.
         -5    1    3    3    0  502 -0.32341095495E+02  0.38101226292E+02  0.18956822099E+02  0.53614209001E+02  0.41800000000E+01 0.  1.
        -11    1    4    4    0    0  0.19422837890E+02  0.41007588017E+02 -0.83742162838E+02  0.95245045768E+02  0.00000000000E+00 0. -1.
         11    1    4    4    0    0 -0.19553401870E+02 -0.35878643086E+02 -0.87045737657E+02  0.96159102526E+02  0.00000000000E+00 0.  1.
</event>
<event>
 8    1  0.7262913E-009  0.1349129E+03  0.7561462E-02  0.1220343E+00
         -3   -1    0    0    0  501 -0.00000000000E+00  0.00000000000E+00  0.36228740037E+03  0.36228740037E+03  0.00000000000E+00 0.  1.
          3   -1    0    0  501    0  0.00000000000E+00 -0.00000000000E+00 -0.68177211265E+02  0.68177211265E+02  0.00000000000E+00 0. -1.
         25    2    1    2    0    0 -0.63003416222E+02 -0.75871410178E+02  0.23404271804E+03  0.28310652843E+03  0.12508961280E+03 0.  0.
         23    2    1    2    0    0  0.63003416222E+02  0.75871410178E+02  0.60067471066E+02  0.14735808321E+03  0.91544537083E+02 0.  0.
          5    1    3    3  502    0 -0.89304247785E+02 -0.87052214584E+02  0.15521793251E+03  0.19915676164E+03  0.41800000000E+01 0.  1.
         -5    1    3    3    0  502  0.26300831564E+02  0.11180804406E+02  0.78824785537E+02  0.83949766784E+02  0.41800000000E+01 0.  1.
        -11    1    4    4    0    0  0.13091241392E+02 -0.10245844156E+02 -0.15233141264E+02  0.22547871661E+02  0.00000000000E+00 0. -1.
         11    1    4    4    0    0  0.49912174829E+02  0.86117254334E+02  0.75300612330E+02  0.12481021155E+03  0.00000000000E+00 0.  1.
</event>
<event>
 8    1  0.7262913E-009  0.3015331E+03  0.7561462E-02  0.1084477E+00
         -2   -1    0    0    0  501 -0.00000000000E+00  0.00000000000E+00  0.32102341781E+02  0.32102341781E+02  0.00000000000E+00 0. -1.
          2   -1    0    0  501    0  0.00000000000E+00 -0.00000000000E+00 -0.42544041818E+04  0.42544041818E+04  0.00000000000E+00 0.  1.
         25    2    1    2    0    0 -0.50760239736E+02  0.29352377846E+03 -0.32497262096E+04  0.32657465930E+04  0.12509021478E+03 0.  0.
         23    2    1    2    0    0  0.50760239736E+02 -0.29352377846E+03 -0.97257563040E+03  0.10207599306E+04  0.85525835523E+02 0.  0.
          5    1    3    3  502    0 -0.56697042946E+02  0.26942940742E+03 -0.24161294871E+04  0.24317701230E+04  0.41800000000E+01 0.  1.
         -5    1    3    3    0  502  0.59368032095E+01  0.24094371039E+02 -0.83359672250E+03  0.83397647000E+03  0.41800000000E+01 0.  1.
        -11    1    4    4    0    0  0.58503845072E+02 -0.19186478410E+03 -0.74229867829E+03  0.76892270291E+03  0.00000000000E+00 0.  1.
         11    1    4    4    0    0 -0.77436053360E+01 -0.10165899437E+03 -0.23027695211E+03  0.25183722765E+03  0.00000000000E+00 0. -1.
</event>
<event>
 8    1  0.7262913E-009  0.1105972E+03  0.7561462E-02  0.1259468E+00
          2   -1    0    0  501    0  0.00000000000E+00  0.00000000000E+00  0.15426763165E+03  0.15426763165E+03  0.00000000000E+00 0. -1.
         -2   -1    0    0    0  501 -0.00000000000E+00 -0.00000000000E+00 -0.86007950990E+02  0.86007950990E+02  0.00000000000E+00 0.  1.
         25    2    1    2    0    0  0.23979662899E+02  0.28470752079E+02  0.18463872066E+02  0.13180350401E+03  0.12508253732E+03 0.  0.
         23    2    1    2    0    0 -0.23979662899E+02 -0.28470752079E+02  0.49795808596E+02  0.10847207863E+03  0.88887351921E+02 0.  0.
          5    1    3    3  502    0 -0.19352745333E+02 -0.42235112585E+02  0.13780158880E+02  0.48638448430E+02  0.41800000000E+01 0. -1.
         -5    1    3    3    0  502  0.43332408232E+02  0.70705864663E+02  0.46837131864E+01  0.83165055583E+02  0.41800000000E+01 0. -1.
        -11    1    4    4    0    0  0.27951446351E+02  0.67659420296E+01  0.32454455692E+02  0.43363037473E+02  0.00000000000E+00 0. -1.
         11    1    4    4    0    0 -0.51931109250E+02 -0.35236694108E+02  0.17341352904E+02  0.65109041155E+02  0.00000000000E+00 0.  1.
</event>
<event>
 8    1  0.7262913E-009  0.6925391E+02  0.7561462E-02  0.1362649E+00
         -1   -1    0    0    0  501 -0.00000000000E+00  0.00000000000E+00  0.17713646076E+02  0.17713646076E+02  0.00000000000E+00 0.  1.
          1   -1    0    0  501    0  0.00000000000E+00 -0.00000000000E+00 -0.12528854304E+04  0.12528854304E+04  0.00000000000E+00 0. -1.
         25    2    1    2    0    0  0.21005854023E+01  0.51415253396E+01 -0.10652040870E+04  0.10725369940E+04  0.12508000926E+03 0.  0.
         23    2    1    2    0    0 -0.21005854023E+01 -0.51415253396E+01 -0.16996769726E+03  0.19806208245E+03  0.10153187997E+03 0.  0.
          5    1    3    3  502    0 -0.14265936908E+02 -0.71191143386E+01 -0.15500832504E+02  0.22626244786E+02  0.41800000000E+01 0. -1.
         -5    1    3    3    0  502  0.16366522310E+02  0.12260639678E+02 -0.10497032545E+04  0.10499107492E+04  0.41800000000E+01 0. -1.
        -11    1    4    4    0    0 -0.35055637647E+02  0.34783298651E+02 -0.72898768183E+02  0.88051155577E+02  0.00000000000E+00 0.  1.
         11    1    4    4    0    0  0.32955052245E+02 -0.39924823990E+02 -0.97068929080E+02  0.11001092688E+03  0.00000000000E+00 0. -1.
</event>
<event>
 8    1  0.7262913E-009  0.1285195E+03  0.7561462E-02  0.1229669E+00
          2   -1    0    0  501    0  0.00000000000E+00  0.00000000000E+00  0.58489335023E+03  0.58489335023E+03  0.00000000000E+00 0. -1.
         -2   -1    0    0    0  501 -0.00000000000E+00 -0.00000000000E+00 -0.37377166521E+02  0.37377166521E+02  0.00000000000E+00 0.  1.
         25    2    1    2    0    0 -0.83872087986E+02  0.14698445809E+02  0.41067066062E+03  0.43766215869E+03  0.12508877729E+03 0.  0.
         23    2    1    2    0    0  0.83872087986E+02 -0.14698445809E+02  0.13684552309E+03  0.18460835806E+03  0.90016538612E+02 0.  0.
          5    1    3    3  502    0 -0.10826113810E+03 -0.17998161656E+02  0.31407819066E+03  0.33272659962E+03  0.41800000000E+01 0.  1.
         -5    1    3    3    0  502  0.24389050112E+02  0.32696607465E+02  0.96592469956E+02  0.10493555907E+03  0.41800000000E+01 0.  1.
        -11    1    4    4    0    0  0.45949840867E+02 -0.39750705563E+02  0.12284805676E+03  0.13705163814E+03  0.00000000000E+00 0.  1.
         11    1    4    4    0    0  0.37922247119E+02  0.25052259753E+02  0.13997466326E+02  0.47556719913E+02  0.00000000000E+00 0. -1.
</event>
<event>
 8    1  0.7262913E-009  0.7528546E+02  0.7561462E-02  0.1342989E+00
          2   -1    0    0  501    0  0.00000000000E+00  0.00000000000E+00  0.50492661146E+02  0.50492661146E+02  0.00000000000E+00 0. -1.
         -2   -1    0    0    0  501 -0.00000000000E+00 -0.00000000000E+00 -0.27296790865E+03  0.27296790865E+03  0.00000000000E+00 0.  1.
         25    2    1    2    0    0  0.56641128897E+01  0.42100196862E+02 -0.10015449391E+03  0.16578105717E+03  0.12509167644E+03 0.  0.
         23    2    1    2    0    0 -0.56641128897E+01 -0.42100196862E+02 -0.12232075359E+03  0.15767951263E+03  0.89977514924E+02 0.  0.
          5    1    3    3  502    0 -0.10657527270E+02  0.12016537939E+02  0.28284521378E+02  0.32794307755E+02  0.41800000000E+01 0.  1.
         -5    1    3    3    0  502  0.16321640160E+02  0.30083658923E+02 -0.12843901529E+03  0.13298674942E+03  0.41800000000E+01 0.  1.
        -11    1    4    4    0    0  0.35618521897E+02 -0.45829266551E+02 -0.72297157787E+02  0.92713967658E+02  0.00000000000E+00 0.  1.
         11    1    4    4    0    0 -0.41282634787E+02  0.37290696894E+01 -0.50023595808E+02  0.64965544970E+02  0.00000000000E+00 0. -1.
</event>
<event>
 8    1  0.7262913E-009  0.1030690E+03  0.7561462E-02  0.1273972E+00
          2   -1    0    0  501    0  0.00000000000E+00  0.00000000000E+00  0.69751384321E+03  0.69751384321E+03  0.00000000000E+00 0. -1.
         -2   -1    0    0    0  501 -0.00000000000E+00 -0.00000000000E+00 -0.22465947263E+02  0.22465947263E+02  0.00000000000E+00 0.  1.
         25    2    1    2    0    0  0.28386694737E+02  0.56086875942E+02  0.43668122531E+03  0.45857389717E+03  0.12509190437E+03 0.  0.
         23    2    1    2    0    0 -0.28386694737E+02 -0.56086875942E+02  0.23836667064E+03  0.26140589330E+03  0.86964528920E+02 0.  0.
          5    1    3    3  502    0  0.29755883611E+02 -0.14440305651E+02  0.32302864481E+03  0.32474438071E+03  0.41800000000E+01 0.  1.
         -5    1    3    3    0  502 -0.13691888740E+01  0.70527181593E+02  0.11365258050E+03  0.13382951646E+03  0.41800000000E+01 0.  1.
        -11    1    4    4    0    0 -0.23328670180E+02 -0.77084733201E+02  0.21498410317E+03  0.22957449240E+03  0.00000000000E+00 0. -1.
         11    1    4    4    0    0 -0.50580245566E+01  0.20997857259E+02  0.23382567469E+02  0.31831400901E+02  0.00000000000E+00 0.  1.
</event>
<event>
 8    1  0.7262913E-009  0.1186742E+03  0.7561462E-02  0.1245300E+00
          2   -1    0    0  501    0  0.00000000000E+00  0.00000000000E+00  0.77010508194E+03  0.77010508194E+03  0.00000000000E+00 0.  1.
         -2   -1    0    0    0  501 -0.00000000000E+00 -0.00000000000E+00 -0.25934562608E+02  0.25934562608E+02  0.00000000000E+00 0. -1.
         25    2    1    2    0    0  0.54263956278E+01 -0.77614076510E+02  0.54254976946E+03  0.56219101329E+03  0.12508034395E+03 0.  0.
         23    2    1    2    0    0 -0.54263956278E+01  0.77614076510E+02  0.20162074987E+03  0.23384863126E+03  0.89335686710E+02 0.  0.
          5    1    3    3  502    0 -0.25171279016E+02  0.27141320809E+02  0.11336068185E+03  0.11932460422E+03  0.41800000000E+01 0.  1.
         -5    1    3    3    0  502  0.30597674644E+02 -0.10475539732E+03  0.42918908760E+03  0.44286640906E+03  0.41800000000E+01 0.  1.
        -11    1    4    4    0    0 -0.25561356035E+02  0.31506901593E+02  0.16919825307E+03  0.17399458788E+03  0.00000000000E+00 0.  1.
         11    1    4    4    0    0  0.20134960407E+02  0.46107174916E+02  0.32422496800E+02  0.59854043373E+02  0.00000000000E+00 0. -1.
</event>
<event>
 8    1  0.7262913E-009  0.1119917E+03  0.7561462E-02  0.1256925E+00
          2   -1    0    0  501    0  0.00000000000E+00  0.00000000000E+00  0.97909594083E+03  0.97909594083E+03  0.00000000000E+00 0.  1.
         -2   -1    0    0    0  501 -0.00000000000E+00 -0.00000000000E+00 -0.16736982775E+02  0.16736982775E+02  0.00000000000E+00 0. -1.
         25    2    1    2    0    0  0.13566280854E+02  0.66319461250E+02  0.52851004551E+03  0.54731336022E+03  0.12508689443E+03 0.  0.
         23    2    1    2    0    0 -0.13566280854E+02 -0.66319461250E+02  0.43384891254E+03  0.44851956338E+03  0.91447279355E+02 0.  0.
          5    1    3    3  502    0 -0.18435470026E+02 -0.14084196460E+02  0.18416678529E+02  0.29914504727E+02  0.41800000000E+01 0.  1.
         -5    1    3    3    0  502  0.32001750880E+02  0.80403657710E+02  0.51009336698E+03  0.51739885550E+03  0.41800000000E+01 0.  1.
        -11    1    4    4    0    0 -0.15405828951E+02  0.21214180862E+02  0.98249363159E+02  0.10168735613E+03  0.00000000000E+00 0. -1.
         11    1    4    4    0    0  0.18395480971E+01 -0.87533642112E+02  0.33559954938E+03  0.34683220725E+03  0.00000000000E+00 0.  1.
</event>
<event>
 8    1  0.7262913E-009  0.1044755E+03  0.7561462E-02  0.1271156E+00
         -2   -1    0    0    0  501 -0.00000000000E+00  0.00000000000E+00  0.13833617516E+03  0.13833617516E+03  0.00000000000E+00 0.  1.
          2   -1    0    0  501    0  0.00000000000E+00 -0.00000000000E+00 -0.16491230003E+03  0.16491230003E+03  0.00000000000E+00 0. -1.
         25    2    1    2    0    0  0.22359799623E+02 -0.49652028033E+02 -0.10433091163E+03  0.17174604764E+03  0.12508589541E+03 0.  0.
         23    2    1    2    0    0 -0.22359799623E+02  0.49652028033E+02  0.77754786769E+02  0.13150242754E+03  0.91004379332E+02 0.  0.
          5    1    3    3  502    0  0.20868180236E+02 -0.91681339745E+02 -0.69999067157E+02  0.11729574079E+03  0.41800000000E+01 0. -1.
         -5    1    3    3    0  502  0.14916193867E+01  0.42029311712E+02 -0.34331844477E+02  0.54450306855E+02  0.41800000000E+01 0. -1.
        -11    1    4    4    0    0  0.10097497561E+02 -0.31598231130E+01 -0.15955658407E+02  0.19144894210E+02  0.00000000000E+00 0. -1.
         11    1    4    4    0    0 -0.32457297185E+02  0.52811851146E+02  0.93710445176E+02  0.11235753333E+03  0.00000000000E+00 0.  1.
</event>
<event>
 8    1  0.7262913E-009  0.2290206E+03  0.7561462E-02  0.1127331E+00
          2   -1    0    0  501    0  0.00000000000E+00  0.00000000000E+00  0.95579112211E+03  0.95579112211E+03  0.00000000000E+00 0. -1.
         -2   -1    0    0    0  501 -0.00000000000E+00 -0.00000000000E+00 -0.60044602968E+02  0.60044602968E+02  0.00000000000E+00 0.  1.
         25    2    1    2    0    0 -0.16407904148E+03  0.13359918289E+03  0.40372889247E+03  0.47266896234E+03  0.12509298871E+03 0.  0.
         23    2    1    2    0    0  0.16407904148E+03 -0.13359918289E+03  0.49201762667E+03  0.54316676273E+03  0.90432923552E+02 0.  0.
          5    1    3    3  502    0 -0.40831528199E+01 -0.20044934137E+02  0.60271324949E+02  0.63785394352E+02  0.41800000000E+01 0.  1.
         -5    1    3    3    0  502 -0.15999588866E+03  0.15364411703E+03  0.34345756752E+03  0.40888356799E+03  0.41800000000E+01 0.  1.
        -11    1    4    4    0    0  0.59135066868E+02 -0.73606464445E+02  0.31474648183E+03  0.32860343207E+03  0.00000000000E+00 0. -1.
         11    1    4    4    0    0  0.10494397461E+03 -0.59992718444E+02  0.17727114484E+03  0.21456333067E+03  0.00000000000E+00 0.  1.
</event>
<event>
 8    1  0.7262913E-009  0.1368698E+03  0.7561462E-02  0.1217604E+00
         -1   -1    0    0    0  501 -0.00000000000E+00  0.00000000000E+00  0.10176210618E+03  0.10176210618E+03  0.00000000000E+00 0.  1.
          1   -1    0    0  501    0  0.00000000000E+00 -0.00000000000E+00 -0.23935517119E+03  0.23935517119E+03  0.00000000000E+00 0. -1.
         25    2    1    2    0    0  0.57933005610E+01 -0.10652151132E+03 -0.11287483632E+03  0.19942043445E+03  0.12508951313E+03 0.  0.
         23    2    1    2    0    0 -0.57933005610E+01  0.10652151132E+03 -0.24718228700E+02  0.14169684293E+03  0.89925579008E+02 0.  0.
          5    1    3    3  502    0 -0.57174414750E+02 -0.73356993199E+02 -0.62782859487E+02  0.11229123741E+03  0.41800000000E+01 0. -1.
         -5    1    3    3    0  502  0.62967715311E+02 -0.33164518120E+02 -0.50091976832E+02  0.87129197038E+02  0.41800000000E+01 0. -1.
        -11    1    4    4    0    0 -0.93264417868E+01  0.14377817845E+02  0.29943858630E+02  0.34501287396E+02  0.00000000000E+00 0.  1.
         11    1    4    4    0    0  0.35331412257E+01  0.92143693474E+02 -0.54662087330E+02  0.10719555553E+03  0.00000000000E+00 0. -1.
</event>
<event>
 8    1  0.7262913E-009  0.1648527E+03  0.7561462E-02  0.1183325E+00
         -1   -1    0    0    0  501 -0.00000000000E+00  0.00000000000E+00  0.11289523816E+03  0.11289523816E+03  0.00000000000E+00 0.  1.
          1   -1    0    0  501    0  0.00000000000E+00 -0.00000000000E+00 -0.27958854386E+03  0.27958854386E+03  0.00000000000E+00 0. -1.
         25    2    1    2    0    0 -0.13867540678E+03  0.21635012698E+02 -0.92486764449E+02  0.20952449244E+03  0.12509104329E+03 0.  0.
         23    2    1    2    0    0  0.13867540678E+03 -0.21635012698E+02 -0.74206541253E+02  0.18295928958E+03  0.90931560290E+02 0.  0.
          5    1    3    3  502    0 -0.82357147979E+02 -0.28420740214E+02  0.36590438716E+01  0.87300053262E+02  0.41800000000E+01 0. -1.
         -5    1    3    3    0  502 -0.56318258804E+02  0.50055752912E+02 -0.96145808320E+02  0.12222443918E+03  0.41800000000E+01 0. -1.
        -11    1    4    4    0    0  0.14432351999E+03 -0.38385545269E+02 -0.69147291240E+02  0.16457240471E+03  0.00000000000E+00 0.  1.
         11    1    4    4    0    0 -0.56481132071E+01  0.16750532571E+02 -0.50592500131E+01  0.18386884862E+02  0.00000000000E+00 0. -1.
</event>
<event>
 8    1  0.7262913E-009  0.9204732E+02  0.7561462E-02  0.1297968E+00
          1   -1    0    0  501    0  0.00000000000E+00  0.00000000000E+00  0.16121574133E+03  0.16121574133E+03  0.00000000000E+00 0. -1.
         -1   -1    0    0    0  501 -0.00000000000E+00 -0.00000000000E+00 -0.10131524162E+03  0.10131524162E+03  0.00000000000E+00 0.  1.
         25    2    1    2    0    0 -0.41649284403E+02  0.21920753537E+00 -0.21642913704E+02  0.13360453644E+03  0.12508815092E+03 0.  0.
         23    2    1    2    0    0  0.41649284403E+02 -0.21920753537E+00  0.81543413413E+02  0.12892644651E+03  0.90763370344E+02 0.  0.
          5    1    3    3  502    0 -0.24341993879E+01 -0.57002174568E+02  0.85343018068E+01  0.57840123958E+02  0.41800000000E+01 0.  1.
         -5    1    3    3    0  502 -0.39215085015E+02  0.57221382103E+02 -0.30177215510E+02  0.75764412480E+02  0.41800000000E+01 0.  1.
        -11    1    4    4    0    0  0.32310325544E+02 -0.18234335420E+02  0.96717011097E+02  0.10358874630E+03  0.00000000000E+00 0. -1.
         11    1    4    4    0    0  0.93389588590E+01  0.18015127885E+02 -0.15173597684E+02  0.25337700210E+02  0.00000000000E+00 0.  1.
</event>
<event>
 8    1  0.7262913E-009  0.1142146E+03  0.7561462E-02  0.1252958E+00
         -2   -1    0    0    0  501 -0.00000000000E+00  0.00000000000E+00  0.67883297180E+02  0.67883297180E+02  0.00000000000E+00 0. -1.
          2   -1    0    0  501    0  0.00000000000E+00 -0.00000000000E+00 -0.33823649443E+03  0.33823649443E+03  0.00000000000E+00 0.  1.
         25    2    1    2    0    0  0.76381792261E+01 -0.10478873094E+03 -0.12367678114E+03  0.20489520895E+03  0.12508829100E+03 0.  0.
         23    2    1    2    0    0 -0.76381792261E+01  0.10478873094E+03 -0.14667641612E+03  0.20122458266E+03  0.89097372064E+02 0.  0.
          5    1    3    3  502    0 -0.10650782131E+02 -0.38761950323E+02  0.20422988758E+02  0.45282433930E+02  0.41800000000E+01 0.  1.
         -5    1    3    3    0  502  0.18288961357E+02 -0.66026780620E+02 -0.14409976989E+03  0.15961277502E+03  0.41800000000E+01 0.  1.
        -11    1    4    4    0    0  0.20369379829E+02  0.14940469983E+02  0.19182713890E+01  0.25333950403E+02  0.00000000000E+00 0. -1.
         11    1    4    4    0    0 -0.28007559055E+02  0.89848260960E+02 -0.14859468751E+03  0.17589063226E+03  0.00000000000E+00 0.  1.
</event>
<event>
 8    1  0.7262913E-009  0.1136412E+03  0.7561462E-02  0.1253972E+00
         -1   -1    0    0    0  501 -0.00000000000E+00  0.00000000000E+00  0.50677617497E+02  0.50677617497E+02  0.00000000000E+00 0.  1.
          1   -1    0    0  501    0  0.00000000000E+00 -0.00000000000E+00 -0.38770765074E+03  0.38770765074E+03  0.00000000000E+00 0. -1.
         25    2    1    2    0    0 -0.25212933551E+02 -0.51587288564E+02 -0.79158653526E+02  0.15878014258E+03  0.12509236943E+03 0.  0.
         23    2    1    2    0    0  0.25212933551E+02  0.51587288564E+02 -0.25787137972E+03  0.27960512566E+03  0.91566573921E+02 0.  0.
          5    1    3    3  502    0 -0.60089516392E+02 -0.66321304538E+02 -0.25823400748E+02  0.93239400695E+02  0.41800000000E+01 0. -1.
         -5    1    3    3    0  502  0.34876582841E+02  0.14734015974E+02 -0.53335252778E+02  0.65540741881E+02  0.41800000000E+01 0. -1.
        -11    1    4    4    0    0 -0.28604046639E+02  0.30455591164E+02 -0.57621182221E+02  0.71175383089E+02  0.00000000000E+00 0.  1.
         11    1    4    4    0    0  0.53816980190E+02  0.21131697400E+02 -0.20025019750E+03  0.20842974257E+03  0.00000000000E+00 0. -1.
</event>
<event>
 8    1  0.7262913E-009  0.1034505E+03  0.7561462E-02  0.1273203E+00
         -3   -1    0    0    0  501 -0.00000000000E+00  0.00000000000E+00  0.44701896148E+02  0.44701896148E+02  0.00000000000E+00 0.  1.
          3   -1    0    0  501    0  0.00000000000E+00 -0.00000000000E+00 -0.28189400334E+03  0.28189400334E+03  0.00000000000E+00 0. -1.
         25    2    1    2    0    0  0.77411192574E+01 -0.15442378911E+02 -0.10163086220E+03  0.16209189277E+03  0.12508620050E+03 0.  0.
         23    2    1    2    0    0 -0.77411192574E+01  0.15442378911E+02 -0.13556124499E+03  0.16450400671E+03  0.91576880754E+02 0.  0.
          5    1    3    3  502    0  0.41422579848E+02  0.42260429836E+02 -0.46968988481E+02  0.75665925820E+02  0.41800000000E+01 0. -1.
         -5    1    3    3    0  502 -0.33681460590E+02 -0.57702808748E+02 -0.54661873720E+02  0.86425966951E+02  0.41800000000E+01 0. -1.
        -11    1    4    4    0    0  0.27460074405E+02 -0.17385130661E+02 -0.17290186391E+02  0.36813706685E+02  0.00000000000E+00 0.  1.
         11    1    4    4    0    0 -0.35201193663E+02  0.32827509573E+02 -0.11827105860E+03  0.12769030003E+03  0.00000000000E+00 0. -1.
</event>
<event>
 8    1  0.7262913E-009  0.1697362E+03  0.7561462E-02  0.1178123E+00
         -2   -1    0    0    0  501 -0.00000000000E+00  0.00000000000E+00  0.11672515098E+02  0.11672515098E+02  0.00000000000E+00 0.  1.
          2   -1    0    0  501    0  0.00000000000E+00 -0.00000000000E+00 -0.37507057594E+04  0.37507057594E+04  0.00000000000E+00 0. -1.
         25    2    1    2    0    0  0.62232480918E+02 -0.12409298681E+03 -0.29487954297E+04  0.29547111148E+04  0.12510529538E+03 0.  0.
         23    2    1    2    0    0 -0.62232480918E+02  0.12409298681E+03 -0.79023781470E+03  0.80766715974E+03  0.92620117118E+02 0.  0.
          5    1    3    3  502    0 -0.12840148311E+02  0.11512990991E+02 -0.91100096157E+02  0.92812274458E+02  0.41800000000E+01 0.  1.
         -5    1    3    3    0  502  0.75072629230E+02 -0.13560597780E+03 -0.28576953335E+04  0.28618988403E+04  0.41800000000E+01 0.  1.
        -11    1    4    4    0    0 -0.59827366989E+02  0.20784560028E+02 -0.28072176052E+03  0.28777772430E+03  0.00000000000E+00 0.  1.
         11    1    4    4    0    0 -0.24051139295E+01  0.10330842679E+03 -0.50951605418E+03  0.51988943544E+03  0.00000000000E+00 0. -1.
</event>
<event>
 8    1  0.7262913E-009  0.1234220E+03  0.7561462E-02  0.1237556E+00
         -3   -1    0    0    0  501 -0.00000000000E+00  0.00000000000E+00  0.33728848616E+03  0.33728848616E+03  0.00000000000E+00 0.  1.
          3   -1    0    0  501    0  0.00000000000E+00 -0.00000000000E+00 -0.69595826985E+02  0.69595826985E+02  0.00000000000E+00 0. -1.
         25    2    1    2    0    0 -0.71681890199E+02  0.70840443857E+02  0.95471398408E+02  0.18685957124E+03  0.12508017261E+03 0.  0.
         23    2    1    2    0    0  0.71681890199E+02 -0.70840443857E+02  0.17222126077E+03  0.22002474191E+03  0.92704166703E+02 0.  0.
          5    1    3    3  502    0 -0.51590792793E+02  0.79043583539E+02  0.59711737964E+01  0.94671142996E+02  0.41800000000E+01 0. -1.
         -5    1    3    3    0  502 -0.20091097405E+02 -0.82031396816E+01  0.89500224612E+02  0.92188428239E+02  0.41800000000E+01 0. -1.
        -11    1    4    4    0    0  0.62531053941E+02 -0.89673416034E+02  0.16489236237E+03  0.19784070718E+03  0.00000000000E+00 0.  1.
         11    1    4    4    0    0  0.91508362574E+01  0.18832972177E+02  0.73288984009E+01  0.22184034732E+02  0.00000000000E+00 0. -1.
</event>
<event>
 8    1  0.7262913E-009  0.1043796E+03  0.7561462E-02  0.1271347E+00
          1   -1    0    0  501    0  0.00000000000E+00  0.00000000000E+00  0.65350339016E+02  0.65350339016E+02  0.00000000000E+00 0. -1.
         -1   -1    0    0    0  501 -0.00000000000E+00 -0.00000000000E+00 -0.19546234375E+03  0.19546234375E+03  0.00000000000E+00 0.  1.
         25    2    1    2    0    0  0.62955168855E+01 -0.10230380733E+02 -0.48695061358E+02  0.13476941284E+03  0.12508913388E+03 0.  0.
         23    2    1    2    0    0 -0.62955168855E+01  0.10230380733E+02 -0.81416943375E+02  0.12604326992E+03  0.95466711486E+02 0.  0.
          5    1    3    3  502    0  0.47646225063E+02 -0.42930451078E+02 -0.50681021749E+02  0.81848792038E+02  0.41800000000E+01 0. -1.
         -5    1    3    3    0  502 -0.41350708177E+02  0.32700070345E+02  0.19859603917E+01  0.52920620801E+02  0.41800000000E+01 0. -1.
        -11    1    4    4    0    0  0.82059004017E-01 -0.40487887133E+02 -0.17263710750E+02  0.44014900284E+02  0.00000000000E+00 0. -1.
         11    1    4    4    0    0 -0.63775758895E+01  0.50718267866E+02 -0.64153232625E+02  0.82028369641E+02  0.00000000000E+00 0.  1.
</event>
<event>
 8    1  0.7262913E-009  0.5690046E+02  0.7561462E-02  0.1411319E+00
         -1   -1    0    0    0  501 -0.00000000000E+00  0.00000000000E+00  0.15226286970E+03  0.15226286970E+03  0.00000000000E+00 0.  1.
          1   -1    0    0  501    0  0.00000000000E+00 -0.00000000000E+00 -0.84853907259E+02  0.84853907259E+02  0.00000000000E+00 0. -1.
         25    2    1    2    0    0  0.20813816291E+02  0.13661366088E+02  0.14559839926E+01  0.12755135206E+03  0.12508948657E+03 0.  0.
         23    2    1    2    0    0 -0.20813816291E+02 -0.13661366088E+02  0.65952978449E+02  0.10956542490E+03  0.83874543783E+02 0.  0.
          5    1    3    3  502    0  0.62629786916E+01  0.44713008101E+01  0.62950829288E+02  0.63557035339E+02  0.41800000000E+01 0.  1.
         -5    1    3    3    0  502  0.14550837599E+02  0.91900652781E+01 -0.61494845296E+02  0.63994316721E+02  0.41800000000E+01 0.  1.
        -11    1    4    4    0    0 -0.38443077369E+02  0.24299232396E+02  0.31048544858E+02  0.55066641721E+02  0.00000000000E+00 0.  1.
         11    1    4    4    0    0  0.17629261078E+02 -0.37960598484E+02  0.34904433591E+02  0.54498783177E+02  0.00000000000E+00 0. -1.
</event>
<event>
 8    1  0.7262913E-009  0.1179024E+03  0.7561462E-02  0.1246598E+00
         -2   -1    0    0    0  501 -0.00000000000E+00  0.00000000000E+00  0.36751868100E+02  0.36751868100E+02  0.00000000000E+00 0.  1.
          2   -1    0    0  501    0  0.00000000000E+00 -0.00000000000E+00 -0.50960959578E+03  0.50960959578E+03  0.00000000000E+00 0. -1.
         25    2    1    2    0    0 -0.59423735760E+02  0.23006255815E+02 -0.15445796535E+03  0.20872094221E+03  0.12508677181E+03 0.  0.
         23    2    1    2    0    0  0.59423735760E+02 -0.23006255815E+02 -0.31839976233E+03  0.33764052166E+03  0.92532399937E+02 0.  0.
          5    1    3    3  502    0 -0.41723144199E+02  0.72562718503E+02 -0.70353057209E+02  0.10942209072E+03  0.41800000000E+01 0.  1.
         -5    1    3    3    0  502 -0.17700591561E+02 -0.49556462688E+02 -0.84104908137E+02  0.99298851496E+02  0.41800000000E+01 0.  1.
        -11    1    4    4    0    0  0.29101202228E+02  0.27668442638E+02 -0.57451059875E+02  0.70093130690E+02  0.00000000000E+00 0.  1.
         11    1    4    4    0    0  0.30322533532E+02 -0.50674698453E+02 -0.26094870245E+03  0.26754739097E+03  0.00000000000E+00 0. -1.
</event>
<event>
 8    1  0.7262913E-009  0.1275822E+03  0.7561462E-02  0.1231088E+00
          1   -1    0    0  501    0  0.00000000000E+00  0.00000000000E+00  0.13197747848E+03  0.13197747848E+03  0.00000000000E+00 0. -1.
         -1   -1    0    0    0  501 -0.00000000000E+00 -0.00000000000E+00 -0.16434372663E+03  0.16434372663E+03  0.00000000000E+00 0.  1.
         25    2    1    2    0    0 -0.83553280548E+02 -0.46759005585E+02 -0.36137453609E+02  0.16161984368E+03  0.12508997971E+03 0.  0.
         23    2    1    2    0    0  0.83553280548E+02  0.46759005585E+02  0.37712054567E+01  0.13470136143E+03  0.94671429092E+02 0.  0.
          5    1    3    3  502    0 -0.54129955334E+02  0.23110481707E+02  0.25053988324E+02  0.64103987084E+02  0.41800000000E+01 0. -1.
         -5    1    3    3    0  502 -0.29423325214E+02 -0.69869487292E+02 -0.61191441933E+02  0.97515856592E+02  0.41800000000E+01 0. -1.
        -11    1    4    4    0    0  0.69942481716E+02  0.66330132012E+02  0.28335365022E+02  0.10047153862E+03  0.00000000000E+00 0. -1.
         11    1    4    4    0    0  0.13610798832E+02 -0.19571126427E+02 -0.24564159565E+02  0.34229822810E+02  0.00000000000E+00 0.  1.
</event>
<event>
 8    1  0.7262913E-009  0.2016378E+03  0.7561462E-02  0.1148365E+00
          1   -1    0    0  501    0  0.00000000000E+00  0.00000000000E+00  0.54137377447E+03  0.54137377447E+03  0.00000000000E+00 0. -1.
         -1   -1    0    0    0  501 -0.00000000000E+00 -0.00000000000E+00 -0.80842536564E+02  0.80842536564E+02  0.00000000000E+00 0.  1.
         25    2    1    2    0    0  0.20597492079E+02  0.17122549661E+03  0.17087406525E+03  0.27310723511E+03  0.12508872183E+03 0.  0.
         23    2    1    2    0    0 -0.20597492079E+02 -0.17122549661E+03  0.28965717266E+03  0.34910907592E+03  0.90738315219E+02 0.  0.
          5    1    3    3  502    0 -0.43755348904E+02  0.30067657911E+02  0.20652115899E+02  0.57118971463E+02  0.41800000000E+01 0. -1.
         -5    1    3    3    0  502  0.64352840983E+02  0.14115783870E+03  0.15022194935E+03  0.21598826365E+03  0.41800000000E+01 0. -1.
        -11    1    4    4    0    0  0.33852234952E+02 -0.97266122822E+02  0.15682822863E+03  0.18762133609E+03  0.00000000000E+00 0. -1.
         11    1    4    4    0    0 -0.54449727031E+02 -0.73959373787E+02  0.13282894402E+03  0.16148773983E+03  0.00000000000E+00 0.  1.
</event>
<event>
 8    1  0.7262913E-009  0.1658170E+03  0.7561462E-02  0.1182282E+00
         -2   -1    0    0    0  501 -0.00000000000E+00  0.00000000000E+00  0.34137478412E+02  0.34137478412E+02  0.00000000000E+00 0.  1.
          2   -1    0    0  501    0  0.00000000000E+00 -0.00000000000E+00 -0.96505245351E+03  0.96505245351E+03  0.00000000000E+00 0. -1.
         25    2    1    2    0    0 -0.98270130795E+02 -0.10616406133E+03 -0.57611116292E+03  0.60702506551E+03  0.12509009391E+03 0.  0.
         23    2    1    2    0    0  0.98270130795E+02  0.10616406133E+03 -0.35480381217E+03  0.39216486641E+03  0.83544663429E+02 0.  0.
          5    1    3    3  502    0  0.20623476751E+02 -0.26673187958E+02 -0.41681069149E+02  0.53773326795E+02  0.41800000000E+01 0.  1.
         -5    1    3    3    0  502 -0.11889360755E+03 -0.79490873369E+02 -0.53443009377E+03  0.55325173872E+03  0.41800000000E+01 0.  1.
        -11    1    4    4    0    0  0.91275824066E+02  0.63129572349E+02 -0.17557585379E+03  0.20771013311E+03  0.00000000000E+00 0.  1.
         11    1    4    4    0    0  0.69943067297E+01  0.43034488978E+02 -0.17922795838E+03  0.18445473330E+03  0.00000000000E+00 0. -1.
</event>
<event>
 8    1  0.7262913E-009  0.1113812E+03  0.7561462E-02  0.1258033E+00
          1   -1    0    0  501    0  0.00000000000E+00  0.00000000000E+00  0.33798063390E+03  0.33798063390E+03  0.00000000000E+00 0. -1.
         -1   -1    0    0    0  501 -0.00000000000E+00 -0.00000000000E+00 -0.82037141142E+02  0.82037141142E+02  0.00000000000E+00 0.  1.
         25    2    1    2    0    0 -0.81497273775E+02  0.59737856760E+02  0.23406360123E+03  0.28397566921E+03  0.12508394830E+03 0.  0.
         23    2    1    2    0    0  0.81497273775E+02 -0.59737856760E+02  0.21879891530E+02  0.13604210583E+03  0.88421195093E+02 0.  0.
          5    1    3    3  502    0 -0.23004570889E+02 -0.95333507913E+01 -0.71577189160E+01  0.26245007129E+02  0.41800000000E+01 0.  1.
         -5    1    3    3    0  502 -0.58492702886E+02  0.69271207552E+02  0.24122132014E+03  0.25773066209E+03  0.41800000000E+01 0.  1.
        -11    1    4    4    0    0  0.36180162751E+02 -0.63647207317E+01 -0.31186128069E+02  0.48188052779E+02  0.00000000000E+00 0.  1.
         11    1    4    4    0    0  0.45317111024E+02 -0.53373136029E+02  0.53066019599E+02  0.87854053050E+02  0.00000000000E+00 0. -1.
</event>
<event>
 8    1  0.7262913E-009  0.1416662E+03  0.7561462E-02  0.1211104E+00
          2   -1    0    0  501    0  0.00000000000E+00  0.00000000000E+00  0.11665482246E+04  0.11665482246E+04  0.00000000000E+00 0. -1.
         -2   -1    0    0    0  501 -0.00000000000E+00 -0.00000000000E+00 -0.22319186149E+02  0.22319186149E+02  0.00000000000E+00 0.  1.
         25    2    1    2    0    0  0.91762951724E+01 -0.11019200029E+03  0.75233462569E+03  0.77063729833E+03  0.12509186719E+03 0.  0.
         23    2    1    2    0    0 -0.91762951724E+01  0.11019200029E+03  0.39189441272E+03  0.41823011238E+03  0.95439587505E+02 0.  0.
          5    1    3    3  502    0 -0.50813648890E+02 -0.30691986327E+02  0.40258963165E+03  0.40696425992E+03  0.41800000000E+01 0.  1.
         -5    1    3    3    0  502  0.59989944062E+02 -0.79500013959E+02  0.34974499405E+03  0.36367303841E+03  0.41800000000E+01 0.  1.
        -11    1    4    4    0    0 -0.30704177106E+02  0.38268089211E+02  0.27472225722E+03  0.27906900894E+03  0.00000000000E+00 0. -1.
         11    1    4    4    0    0  0.21527881934E+02  0.71923911075E+02  0.11717215550E+03  0.13916110344E+03  0.00000000000E+00 0.  1.
</event>
<event>
 8    1  0.7262913E-009  0.2399099E+03  0.7561462E-02  0.1119853E+00
          2   -1    0    0  501    0  0.00000000000E+00  0.00000000000E+00  0.10469190865E+04  0.10469190865E+04  0.00000000000E+00 0. -1.
         -2   -1    0    0    0  501 -0.00000000000E+00 -0.00000000000E+00 -0.61190606522E+02  0.61190606522E+02  0.00000000000E+00 0.  1.
         25    2    1    2    0    0 -0.22082521084E+03 -0.58380923156E+02  0.54695027805E+03  0.60578741316E+03  0.12510666393E+03 0.  0.
         23    2    1    2    0    0  0.22082521084E+03  0.58380923156E+02  0.43877820192E+03  0.50232227985E+03  0.87345614798E+02 0.  0.
          5    1    3    3  502    0 -0.14044660273E+03  0.13586480836E+02  0.39433941842E+03  0.41884470869E+03  0.41800000000E+01 0. -1.
         -5    1    3    3    0  502 -0.80378608101E+02 -0.71967403992E+02  0.15261085963E+03  0.18694270447E+03  0.41800000000E+01 0. -1.
        -11    1    4    4    0    0  0.17275782630E+03  0.31478966787E+02  0.24886244896E+03  0.30457956333E+03  0.00000000000E+00 0.  1.
         11    1    4    4    0    0  0.48067384534E+02  0.26901956369E+02  0.18991575297E+03  0.19774271652E+03  0.00000000000E+00 0. -1.
</event>
<event>
 8    1  0.7262913E-009  0.9971599E+02  0.7561462E-02  0.1280894E+00
          2   -1    0    0  501    0  0.00000000000E+00  0.00000000000E+00  0.25671497525E+02  0.25671497525E+02  0.00000000000E+00 0. -1.
         -2   -1    0    0    0  501 -0.00000000000E+00 -0.00000000000E+00 -0.82554737932E+03  0.82554737932E+03  0.00000000000E+00 0.  1.
         25    2    1    2    0    0  0.47935055994E+02  0.22300761901E+02 -0.67390288295E+03  0.68744981099E+03  0.12508818252E+03 0.  0.
         23    2    1    2    0    0 -0.47935055994E+02 -0.22300761901E+02 -0.12597299884E+03  0.16376906585E+03  0.90310668906E+02 0.  0.
          5    1    3    3  502    0  0.79208575627E+02 -0.18296552999E+01 -0.26499967325E+03  0.27662184533E+03  0.41800000000E+01 0.  1.
         -5    1    3    3    0  502 -0.31273519633E+02  0.24130417201E+02 -0.40890320970E+03  0.41082796566E+03  0.41800000000E+01 0.  1.
        -11    1    4    4    0    0 -0.60891327500E+02 -0.85686299487E+01 -0.13058134800E+03  0.14433524736E+03  0.00000000000E+00 0.  1.
         11    1    4    4    0    0  0.12956271506E+02 -0.13732131952E+02  0.46083491601E+01  0.19433818494E+02  0.00000000000E+00 0. -1.
</event>
<event>
 8    1  0.7262913E-009  0.1020193E+03  0.7561462E-02  0.1276106E+00
         -2   -1    0    0    0  501 -0.00000000000E+00  0.00000000000E+00  0.37302876923E+02  0.37302876923E+02  0.00000000000E+00 0.  1.
          2   -1    0    0  501    0  0.00000000000E+00 -0.00000000000E+00 -0.50530046512E+03  0.50530046512E+03  0.00000000000E+00 0. -1.
         25    2    1    2    0    0  0.43616453779E+02 -0.70046684653E+02 -0.29156457115E+03  0.32782236693E+03  0.12509465233E+03 0.  0.
         23    2    1    2    0    0 -0.43616453779E+02  0.70046684653E+02 -0.17643301705E+03  0.21478097511E+03  0.90516985665E+02 0.  0.
          5    1    3    3  502    0 -0.38384648566E+01 -0.58404856287E+01 -0.22110766985E+03  0.22125758553E+03  0.41800000000E+01 0.  1.
         -5    1    3    3    0  502  0.47454918635E+02 -0.64206199024E+02 -0.70456901294E+02  0.10656478140E+03  0.41800000000E+01 0.  1.
        -11    1    4    4    0    0 -0.10031945502E+02  0.80227318340E+02 -0.87303525500E+02  0.11899146231E+03  0.00000000000E+00 0.  1.
         11    1    4    4    0    0 -0.33584508277E+02 -0.10180633687E+02 -0.89129491549E+02  0.95789512799E+02  0.00000000000E+00 0. -1.
</event>
<event>
 8    1  0.7262913E-009  0.1787065E+03  0.7561462E-02  0.1169061E+00
         -3   -1    0    0    0  501 -0.00000000000E+00  0.00000000000E+00  0.60160474666E+02  0.60160474666E+02  0.00000000000E+00 0.  1.
          3   -1    0    0  501    0  0.00000000000E+00 -0.00000000000E+00 -0.80761825716E+03  0.80761825716E+03  0.00000000000E+00 0. -1.
         25    2    1    2    0    0 -0.92956355441E+02  0.11080594210E+03 -0.14043316984E+03  0.23724713372E+03  0.12508351788E+03 0.  0.
         23    2    1    2    0    0  0.92956355441E+02 -0.11080594210E+03 -0.60702461265E+03  0.63053159810E+03  0.90401189266E+02 0.  0.
          5    1    3    3  502    0  0.14098967696E+02  0.74805762310E+02 -0.73462713994E+02  0.10587221407E+03  0.41800000000E+01 0. -1.
         -5    1    3    3    0  502 -0.10705532314E+03  0.36000179794E+02 -0.66970455850E+02  0.13137491965E+03  0.41800000000E+01 0. -1.
        -11    1    4    4    0    0  0.88366358623E+02 -0.39660344591E+02 -0.40057101865E+03  0.41211490783E+03  0.00000000000E+00 0. -1.
         11    1    4    4    0    0  0.45899968178E+01 -0.71145597514E+02 -0.20645359400E+03  0.21841669028E+03  0.00000000000E+00 0.  1.
</event>
<event>
 8    1  0.7262913E-009  0.9567452E+02  0.7561462E-02  0.1289664E+00
         -1   -1    0    0    0  501 -0.00000000000E+00  0.00000000000E+00  0.42041355272E+02  0.42041355272E+02  0.00000000000E+00 0.  1.
          1   -1    0    0  501    0  0.00000000000E+00 -0.00000000000E+00 -0.45086538654E+03  0.45086538654E+03  0.00000000000E+00 0. -1.
         25    2    1    2    0    0  0.66463201102E+02  0.46888263212E+02 -0.25647316016E+03  0.29671775663E+03  0.12508828438E+03 0.  0.
         23    2    1    2    0    0 -0.66463201102E+02 -0.46888263212E+02 -0.15235087111E+03  0.19618898519E+03  0.93077729090E+02 0.  0.
          5    1    3    3  502    0  0.42734845702E+02  0.47630554417E+02 -0.33322497221E+02  0.72268928125E+02  0.41800000000E+01 0. -1.
         -5    1    3    3    0  502  0.23728355399E+02 -0.74229120569E+00 -0.22315066294E+03  0.22444882850E+03  0.41800000000E+01 0. -1.
        -11    1    4    4    0    0 -0.23411476979E+01  0.14296054241E+02 -0.81342779481E+02  0.82622671907E+02  0.00000000000E+00 0. -1.
         11    1    4    4    0    0 -0.64122053404E+02 -0.61184317453E+02 -0.71008091630E+02  0.11356631328E+03  0.00000000000E+00 0.  1.
</event>
<event>
 8    1  0.7262913E-009  0.1240687E+03  0.7561462E-02  0.1236532E+00
          1   -1    0    0  501    0  0.00000000000E+00  0.00000000000E+00  0.25443479221E+03  0.25443479221E+03  0.00000000000E+00 0. -1.
         -1   -1    0    0    0  501 -0.00000000000E+00 -0.00000000000E+00 -0.87287411642E+02  0.87287411642E+02  0.00000000000E+00 0.  1.
         25    2    1    2    0    0  0.75622167923E+02  0.11458356639E+02  0.18270770466E+02  0.14775390211E+03  0.12508952121E+03 0.  0.
         23    2    1    2    0    0 -0.75622167923E+02 -0.11458356639E+02  0.14887661010E+03  0.19396830174E+03  0.98027806399E+02 0.  0.
          5    1    3    3  502    0  0.35692726801E+02 -0.48301240719E+02  0.40322101785E+02  0.72459125677E+02  0.41800000000E+01 0. -1.
         -5    1    3    3    0  502  0.39929441122E+02  0.59759597359E+02 -0.22051331318E+02  0.75294776431E+02  0.41800000000E+01 0. -1.
        -11    1    4    4    0    0 -0.90176469367E+02  0.92279092776E+01  0.14072638276E+03  0.16739433904E+03  0.00000000000E+00 0. -1.
         11    1    4    4    0    0  0.14554301444E+02 -0.20686265917E+02  0.81502273398E+01  0.26573962704E+02  0.00000000000E+00 0.  1.
</event>
<event>
 8    1  0.7262913E-009  0.1119118E+03  0.7561462E-02  0.1257070E+00
         -3   -1    0    0    0  501 -0.00000000000E+00  0.00000000000E+00  0.51468591210E+02  0.51468591210E+02  0.00000000000E+00 0.  1.
          3   -1    0    0  501    0  0.00000000000E+00 -0.00000000000E+00 -0.25806725004E+03  0.25806725004E+03  0.00000000000E+00 0. -1.
         25    2    1    2    0    0  0.21463469942E+02 -0.20520550297E+02 -0.82250849360E+02  0.15261136366E+03  0.12507298897E+03 0.  0.
         23    2    1    2    0    0 -0.21463469942E+02  0.20520550297E+02 -0.12434780947E+03  0.15692447759E+03  0.91000771543E+02 0.  0.
          5    1    3    3  502    0  0.95807151952E+01  0.52743562444E+02 -0.40802703307E+02  0.67498196125E+02  0.41800000000E+01 0. -1.
         -5    1    3    3    0  502  0.11882754747E+02 -0.73264112741E+02 -0.41448146053E+02  0.85113167532E+02  0.41800000000E+01 0. -1.
        -11    1    4    4    0    0  0.28398229287E+02  0.33769776468E+02 -0.58330632459E+02  0.73139045061E+02  0.00000000000E+00 0. -1.
         11    1    4    4    0    0 -0.49861699229E+02 -0.13249226171E+02 -0.66017177008E+02  0.83785432530E+02  0.00000000000E+00 0.  1.
</event>
<event>
 8    1  0.7262913E-009  0.1242954E+03  0.7561462E-02  0.1236175E+00
          1   -1    0    0  501    0  0.00000000000E+00  0.00000000000E+00  0.73735684484E+02  0.73735684484E+02  0.00000000000E+00 0. -1.
         -1   -1    0    0    0  501 -0.00000000000E+00 -0.00000000000E+00 -0.21755097901E+03  0.21755097901E+03  0.00000000000E+00 0.  1.
         25    2    1    2    0    0  0.41351984294E+02  0.49323618670E+02 -0.83195625379E+02  0.16343378667E+03  0.12508510935E+03 0.  0.
         23    2    1    2    0    0 -0.41351984294E+02 -0.49323618670E+02 -0.60619669148E+02  0.12785287682E+03  0.92351544979E+02 0.  0.
          5    1    3    3  502    0  0.58417660495E+02  0.81284961670E+02 -0.42619401076E+02  0.10887494569E+03  0.41800000000E+01 0.  1.
         -5    1    3    3    0  502 -0.17065676201E+02 -0.31961343000E+02 -0.40576224303E+02  0.54558840982E+02  0.41800000000E+01 0.  1.
        -11    1    4    4    0    0 -0.37232357604E+02  0.20150686208E+02 -0.16425397095E+02  0.45410266208E+02  0.00000000000E+00 0. -1.
         11    1    4    4    0    0 -0.41196266897E+01 -0.69474304878E+02 -0.44194272053E+02  0.82442610612E+02  0.00000000000E+00 0.  1.
</event>
<event>
 8    1  0.7262913E-009  0.1013785E+03  0.7561462E-02  0.1277424E+00
          2   -1    0    0  501    0  0.00000000000E+00  0.00000000000E+00  0.32102910156E+02  0.32102910156E+02  0.00000000000E+00 0. -1.
         -2   -1    0    0    0  501 -0.00000000000E+00 -0.00000000000E+00 -0.45177103055E+03  0.45177103055E+03  0.00000000000E+00 0.  1.
         25    2    1    2    0    0 -0.37650426754E+02  0.25354809548E+02 -0.29038984932E+03  0.31942403619E+03  0.12508009156E+03 0.  0.
         23    2    1    2    0    0  0.37650426754E+02 -0.25354809548E+02 -0.12927827107E+03  0.16444990451E+03  0.90942172404E+02 0.  0.
          5    1    3    3  502    0  0.38564840344E+02  0.12616326149E+02 -0.18030232136E+03  0.18485891400E+03  0.41800000000E+01 0.  1.
         -5    1    3    3    0  502 -0.76215267099E+02  0.12738483399E+02 -0.11008752796E+03  0.13456512220E+03  0.41800000000E+01 0.  1.
        -11    1    4    4    0    0 -0.83917027019E+01 -0.36298517157E+02 -0.10468391457E+03  0.11111581792E+03  0.00000000000E+00 0.  1.
         11    1    4    4    0    0  0.46042129456E+02  0.10943707609E+02 -0.24594356497E+02  0.53334086592E+02  0.00000000000E+00 0. -1.
</event>
<event>
 8    1  0.7262913E-009  0.1322101E+03  0.7561462E-02  0.1224213E+00
          2   -1    0    0  501    0  0.00000000000E+00  0.00000000000E+00  0.40792232175E+03  0.40792232175E+03  0.00000000000E+00 0.  1.
         -2   -1    0    0    0  501 -0.00000000000E+00 -0.00000000000E+00 -0.66291687015E+02  0.66291687015E+02  0.00000000000E+00 0. -1.
         25    2    1    2    0    0 -0.20123866691E+02 -0.98916210785E+02  0.79357693407E+02  0.17926027246E+03  0.12508882849E+03 0.  0.
         23    2    1    2    0    0  0.20123866691E+02  0.98916210785E+02  0.26227294133E+03  0.29495373630E+03  0.89561286503E+02 0.  0.
          5    1    3    3  502    0 -0.47150847467E+02 -0.29876417410E+02  0.88214060985E+02  0.10447485673E+03  0.41800000000E+01 0. -1.
         -5    1    3    3    0  502  0.27026980775E+02 -0.69039793375E+02 -0.88563675774E+01  0.74785415729E+02  0.41800000000E+01 0. -1.
        -11    1    4    4    0    0  0.52193561535E+02  0.83815997053E+02  0.20611007157E+03  0.22854026085E+03  0.00000000000E+00 0.  1.
         11    1    4    4    0    0 -0.32069694844E+02  0.15100213732E+02  0.56162869753E+02  0.66413475447E+02  0.00000000000E+00 0. -1.
</event>
<event>
 8    1  0.7262913E-009  0.6584235E+02  0.7561462E-02  0.1374831E+00
          2   -1    0    0  501    0  0.00000000000E+00  0.00000000000E+00  0.22972980800E+03  0.22972980800E+03  0.00000000000E+00 0. -1.
         -2   -1    0    0    0  501 -0.00000000000E+00 -0.00000000000E+00 -0.74118505019E+02  0.74118505019E+02  0.00000000000E+00 0.  1.
         25    2    1    2    0    0 -0.20718856144E+02  0.11261372586E+02  0.66945320533E+01  0.12746883451E+03  0.12508955792E+03 0.  0.
         23    2    1    2    0    0  0.20718856144E+02 -0.11261372586E+02  0.14891677093E+03  0.17637947851E+03  0.91528281215E+02 0.  0.
          5    1    3    3  502    0  0.13491847761E+02  0.15898867979E+01  0.60885378345E+02  0.62522471098E+02  0.41800000000E+01 0. -1.
         -5    1    3    3    0  502 -0.34210703905E+02  0.96714857881E+01 -0.54190846291E+02  0.64946363415E+02  0.41800000000E+01 0. -1.
        -11    1    4    4    0    0 -0.20518063240E+02  0.20968190289E+02  0.15751089607E+02  0.33297939079E+02  0.00000000000E+00 0.  1.
         11    1    4    4    0    0  0.41236919383E+02 -0.32229562875E+02  0.13316568132E+03  0.14308153943E+03  0.00000000000E+00 0. -1.
</event>
<event>
 8    1  0.7262913E-009  0.9832358E+02  0.7561462E-02  0.1283861E+00
         -1   -1    0    0    0  501 -0.00000000000E+00  0.00000000000E+00  0.19027766515E+02  0.19027766515E+02  0.00000000000E+00 0.  1.
          1   -1    0    0  501    0  0.00000000000E+00 -0.00000000000E+00 -0.84128884856E+03  0.84128884856E+03  0.00000000000E+00 0. -1.
         25    2    1    2    0    0  0.44029897214E+02  0.46699192797E+02 -0.41781713197E+03  0.44083802234E+03  0.12509020635E+03 0.  0.
         23    2    1    2    0    0 -0.44029897214E+02 -0.46699192797E+02 -0.40444395008E+03  0.41947859273E+03  0.90928183455E+02 0.  0.
          5    1    3    3  502    0 -0.12581847442E+02 -0.70235016105E+01 -0.29422326249E+03  0.29460555502E+03  0.41800000000E+01 0.  1.
         -5    1    3    3    0  502  0.56611744656E+02  0.53722694407E+02 -0.12359386948E+03  0.14623246733E+03  0.41800000000E+01 0.  1.
        -11    1    4    4    0    0 -0.77256766004E+01 -0.63156008828E+02 -0.31778432386E+03  0.32409141307E+03  0.00000000000E+00 0. -1.
         11    1    4    4    0    0 -0.36304220614E+02  0.16456816031E+02 -0.86659626213E+02  0.95387179661E+02  0.00000000000E+00 0.  1.
</event>
<event>
 8    1  0.7262913E-009  0.5988534E+02  0.7561462E-02  0.1398314E+00
         -1   -1    0    0    0  501 -0.00000000000E+00  0.00000000000E+00  0.67452263537E+02  0.67452263537E+02  0.00000000000E+00 0.  1.
          1   -1    0    0  501    0  0.00000000000E+00 -0.00000000000E+00 -0.23142235742E+03  0.23142235742E+03  0.00000000000E+00 0. -1.
         25    2    1    2    0    0 -0.12330947912E+02 -0.13867137837E+02 -0.23909641150E+02  0.12871217404E+03  0.12510316949E+03 0.  0.
         23    2    1    2    0    0  0.12330947912E+02  0.13867137837E+02 -0.14006045273E+03  0.17016244692E+03  0.94836586472E+02 0.  0.
          5    1    3    3  502    0  0.82923142970E+01 -0.31266532144E+02 -0.68817201282E+02  0.76155355038E+02  0.41800000000E+01 0. -1.
         -5    1    3    3    0  502 -0.20623262209E+02  0.17399394307E+02  0.44907560132E+02  0.52556819000E+02  0.41800000000E+01 0. -1.
        -11    1    4    4    0    0 -0.32987904118E+01  0.34113404744E+02 -0.14046117138E+03  0.14458197352E+03  0.00000000000E+00 0. -1.
         11    1    4    4    0    0  0.15629738324E+02 -0.20246266907E+02  0.40071864978E+00  0.25580473397E+02  0.00000000000E+00 0.  1.
</event>
<event>
 8    1  0.7262913E-009  0.9154145E+02  0.7561462E-02  0.1299161E+00
          3   -1    0    0  501    0  0.00000000000E+00  0.00000000000E+00  0.99287891881E+03  0.99287891881E+03  0.00000000000E+00 0. -1.
         -3   -1    0    0    0  501 -0.00000000000E+00 -0.00000000000E+00 -0.14096508658E+02  0.14096508658E+02  0.00000000000E+00 0.  1.
         25    2    1    2    0    0 -0.31734272726E+02  0.28152589252E+02  0.46085928440E+03  0.47941439862E+03  0.12508898125E+03 0.  0.
         23    2    1    2    0    0  0.31734272726E+02 -0.28152589252E+02  0.51792312575E+03  0.52756102885E+03  0.90976055271E+02 0.  0.
          5    1    3    3  502    0 -0.14225793758E+02  0.51457457896E+02  0.73510145648E+02  0.90947551338E+02  0.41800000000E+01 0.  1.
         -5    1    3    3    0  502 -0.17508478968E+02 -0.23304868644E+02  0.38734913876E+03  0.38846684728E+03  0.41800000000E+01 0.  1.
        -11    1    4    4    0    0 -0.32070317166E+02 -0.12231569038E+02  0.19732233927E+03  0.20028535168E+03  0.00000000000E+00 0. -1.
         11    1    4    4    0    0  0.63804589892E+02 -0.15921020214E+02  0.32060078648E+03  0.32727567717E+03  0.00000000000E+00 0.  1.
</event>
<event>
 8    1  0.7262913E-009  0.1047878E+03  0.7561462E-02  0.1270538E+00
         -1   -1    0    0    0  501 -0.00000000000E+00  0.00000000000E+00  0.29055488962E+03  0.29055488962E+03  0.00000000000E+00 0.  1.
          1   -1    0    0  501    0  0.00000000000E+00 -0.00000000000E+00 -0.47594644342E+02  0.47594644342E+02  0.00000000000E+00 0. -1.
         25    2    1    2    0    0 -0.26838539136E+02 -0.16510276720E+01  0.18798933895E+03  0.22739926338E+03  0.12508956931E+03 0.  0.
         23    2    1    2    0    0  0.26838539136E+02  0.16510276720E+01  0.54970906332E+02  0.11075027059E+03  0.92308118912E+02 0.  0.
          5    1    3    3  502    0 -0.15078441302E+02 -0.63175040325E+02  0.91523869868E+02  0.11230554870E+03  0.41800000000E+01 0. -1.
         -5    1    3    3    0  502 -0.11760097834E+02  0.61524012653E+02  0.96465469084E+02  0.11509371468E+03  0.41800000000E+01 0. -1.
        -11    1    4    4    0    0  0.46559706424E+02 -0.21515472976E+02  0.61038607267E+02  0.79727243880E+02  0.00000000000E+00 0.  1.
         11    1    4    4    0    0 -0.19721167288E+02  0.23166500648E+02 -0.60677009350E+01  0.31023026708E+02  0.00000000000E+00 0. -1.
</event>
<event>
 8    1  0.7262913E-009  0.7420594E+02  0.7561462E-02  0.1346348E+00
          1   -1    0    0  501    0  0.00000000000E+00  0.00000000000E+00  0.49007185195E+03  0.49007185195E+03  0.00000000000E+00 0. -1.
         -1   -1    0    0    0  501 -0.00000000000E+00 -0.00000000000E+00 -0.33344614996E+02  0.33344614996E+02  0.00000000000E+00 0.  1.
         25    2    1    2    0    0  0.49227868829E+02  0.36184636795E+02  0.32715349147E+03  0.35554068837E+03  0.12508822125E+03 0.  0.
         23    2    1    2    0    0 -0.49227868829E+02 -0.36184636795E+02  0.12957374548E+03  0.16787577857E+03  0.87522628528E+02 0.  0.
          5    1    3    3  502    0  0.12219226456E+01 -0.12807733588E+02  0.25693665546E+03  0.25729253478E+03  0.41800000000E+01 0.  1.
         -5    1    3    3    0  502  0.48005946183E+02  0.48992370383E+02  0.70216836014E+02  0.98248153594E+02  0.41800000000E+01 0.  1.
        -11    1    4    4    0    0 -0.18218064577E+01 -0.13479641475E+02 -0.11193100897E+02  0.17615482416E+02  0.00000000000E+00 0.  1.
         11    1    4    4    0    0 -0.47406062371E+02 -0.22704995320E+02  0.14076684638E+03  0.15026029616E+03  0.00000000000E+00 0. -1.
</event>
<event>
 8    1  0.7262913E-009  0.7426753E+02  0.7561462E-02  0.1346154E+00
          1   -1    0    0  501    0  0.00000000000E+00  0.00000000000E+00  0.16228166140E+03  0.16228166140E+03  0.00000000000E+00 0. -1.
         -1   -1    0    0    0  501 -0.00000000000E+00 -0.00000000000E+00 -0.90068259869E+02  0.90068259869E+02  0.00000000000E+00 0.  1.
         25    2    1    2    0    0  0.60253552733E+01 -0.54368231388E+02  0.28832381310E+02  0.13953743993E+03  0.12508869430E+03 0.  0.
         23    2    1    2    0    0 -0.60253552733E+01  0.54368231388E+02  0.43381020219E+02  0.11281248133E+03  0.88614522167E+02 0.  0.
          5    1    3    3  502    0  0.10815515769E+02 -0.48033719453E+02  0.76478755751E+02  0.91053204595E+02  0.41800000000E+01 0. -1.
         -5    1    3    3    0  502 -0.47901604961E+01 -0.63345119354E+01 -0.47646374441E+02  0.48484235339E+02  0.41800000000E+01 0. -1.
        -11    1    4    4    0    0 -0.37642200913E+02  0.41454007154E+02 -0.19831386860E+01  0.56029481862E+02  0.00000000000E+00 0.  1.
         11    1    4    4    0    0  0.31616845639E+02  0.12914224234E+02  0.45364158905E+02  0.56782999471E+02  0.00000000000E+00 0. -1.
</event>
<event>
 8    1  0.7262913E-009  0.1718115E+03  0.7561462E-02  0.1175972E+00
          1   -1    0    0  501    0  0.00000000000E+00  0.00000000000E+00  0.83193269734E+03  0.83193269734E+03  0.00000000000E+00 0. -1.
         -1   -1    0    0    0  501 -0.00000000000E+00 -0.00000000000E+00 -0.43446279757E+02  0.43446279757E+02  0.00000000000E+00 0.  1.
         25    2    1    2    0    0 -0.14504841610E+03 -0.34195807847E+02  0.30377534922E+03  0.36074458899E+03  0.12509516138E+03 0.  0.
         23    2    1    2    0    0  0.14504841610E+03  0.34195807847E+02  0.48471106837E+03  0.51463438811E+03  0.87723071885E+02 0.  0.
          5    1    3    3  502    0 -0.88540876310E+02  0.22331138090E+02  0.24484923504E+03  0.26135567108E+03  0.41800000000E+01 0.  1.
         -5    1    3    3    0  502 -0.56507539794E+02 -0.56526945937E+02  0.58926114179E+02  0.99388917907E+02  0.41800000000E+01 0.  1.
        -11    1    4    4    0    0  0.10659116224E+03  0.63280514243E+02  0.32652944079E+03  0.34926719721E+03  0.00000000000E+00 0. -1.
         11    1    4    4    0    0  0.38457253867E+02 -0.29084706396E+02  0.15818162758E+03  0.16536719090E+03  0.00000000000E+00 0.  1.
</event>
<event>
 8    1  0.7262913E-009  0.1175448E+03  0.7561462E-02  0.1247203E+00
         -2   -1    0    0    0  501 -0.00000000000E+00  0.00000000000E+00  0.47564457068E+02  0.47564457068E+02  0.00000000000E+00 0.  1.
          2   -1    0    0  501    0  0.00000000000E+00 -0.00000000000E+00 -0.46736095183E+03  0.46736095183E+03  0.00000000000E+00 0. -1.
         25    2    1    2    0    0  0.71082580026E+02  0.61065051050E+02 -0.15704786768E+03  0.22157611379E+03  0.12510103045E+03 0.  0.
         23    2    1    2    0    0 -0.71082580026E+02 -0.61065051050E+02 -0.26274862708E+03  0.29334929510E+03  0.90748522083E+02 0.  0.
          5    1    3    3  502    0  0.51719074211E+01 -0.28702305533E+02 -0.82224041206E+02  0.87343209933E+02  0.41800000000E+01 0. -1.
         -5    1    3    3    0  502  0.65910672604E+02  0.89767356582E+02 -0.74823826473E+02  0.13423290386E+03  0.41800000000E+01 0. -1.
        -11    1    4    4    0    0 -0.43287464903E+02 -0.31033634195E+02 -0.39318674570E+02  0.66203090858E+02  0.00000000000E+00 0.  1.
         11    1    4    4    0    0 -0.27795115122E+02 -0.30031416854E+02 -0.22342995251E+03  0.22714620425E+03  0.00000000000E+00 0. -1.
</event>
<event>
 8    1  0.7262913E-009  0.1349025E+03  0.7561462E-02  0.1220357E+00
         -1   -1    0    0    0  501 -0.00000000000E+00  0.00000000000E+00  0.54190183645E+02  0.54190183645E+02  0.00000000000E+00 0.  1.
          1   -1    0    0  501    0  0.00000000000E+00 -0.00000000000E+00 -0.37593527780E+03  0.37593527780E+03  0.00000000000E+00 0. -1.
         25    2    1    2    0    0 -0.91565120639E+02 -0.36652880182E+00 -0.18775686299E+03  0.24349247514E+03  0.12510651536E+03 0.  0.
         23    2    1    2    0    0  0.91565120639E+02  0.36652880182E+00 -0.13398823116E+03  0.18663298631E+03  0.92166804372E+02 0.  0.
          5    1    3    3  502    0 -0.11577501188E+03 -0.22204218456E+02 -0.12046067936E+03  0.16859753368E+03  0.41800000000E+01 0.  1.
         -5    1    3    3    0  502  0.24209891239E+02  0.21837689654E+02 -0.67296183637E+02  0.74894941454E+02  0.41800000000E+01 0.  1.
        -11    1    4    4    0    0  0.55419729028E+02  0.37687524456E+02 -0.36874043682E+02  0.76494385170E+02  0.00000000000E+00 0.  1.
         11    1    4    4    0    0  0.36145391611E+02 -0.37320995654E+02 -0.97114187475E+02  0.11013860114E+03  0.00000000000E+00 0. -1.
</event>
<event>
 8    1  0.7262913E-009  0.1433970E+03  0.7561462E-02  0.1208830E+00
         -1   -1    0    0    0  501 -0.00000000000E+00  0.00000000000E+00  0.77861673617E+03  0.77861673617E+03  0.00000000000E+00 0.  1.
          1   -1    0    0  501    0  0.00000000000E+00 -0.00000000000E+00 -0.34761563282E+02  0.34761563282E+02  0.00000000000E+00 0. -1.
         25    2    1    2    0    0 -0.65349248702E+02  0.88590885246E+02  0.53758465666E+03  0.56281827282E+03  0.12509306893E+03 0.  0.
         23    2    1    2    0    0  0.65349248702E+02 -0.88590885246E+02  0.20627051623E+03  0.25056002663E+03  0.90077365769E+02 0.  0.
          5    1    3    3  502    0 -0.24761431326E+02 -0.30691397790E+02  0.15529669807E+03  0.16027984032E+03  0.41800000000E+01 0. -1.
         -5    1    3    3    0  502 -0.40587817376E+02  0.11928228304E+03  0.38228795858E+03  0.40253843250E+03  0.41800000000E+01 0. -1.
        -11    1    4    4    0    0  0.63281371603E+02 -0.45525971331E+02  0.60880423881E+02  0.98911940985E+02  0.00000000000E+00 0. -1.
         11    1    4    4    0    0  0.20678770995E+01 -0.43064913916E+02  0.14539009235E+03  0.15164808564E+03  0.00000000000E+00 0.  1.
</event>
<event>
 8    1  0.7262913E-009  0.7981706E+02  0.7561462E-02  0.1329571E+00
         -2   -1    0    0    0  501 -0.00000000000E+00  0.00000000000E+00  0.17912821919E+03  0.17912821919E+03  0.00000000000E+00 0.  1.
          2   -1    0    0  501    0  0.00000000000E+00 -0.00000000000E+00 -0.90673004926E+02  0.90673004926E+02  0.00000000000E+00 0. -1.
         25    2    1    2    0    0 -0.47494363644E+01 -0.56970696504E+02  0.12463895861E+02  0.13810888753E+03  0.12510195326E+03 0.  0.
         23    2    1    2    0    0  0.47494363644E+01  0.56970696504E+02  0.75991318398E+02  0.13169233658E+03  0.91104191100E+02 0.  0.
          5    1    3    3  502    0  0.45370332291E+01 -0.31147329188E+02 -0.55919826989E+02  0.64305833612E+02  0.41800000000E+01 0.  1.
         -5    1    3    3    0  502 -0.92864695934E+01 -0.25823367317E+02  0.68383722850E+02  0.73803053920E+02  0.41800000000E+01 0.  1.
        -11    1    4    4    0    0  0.35829652039E+02  0.58944683348E+02  0.27923171530E+02  0.74417357979E+02  0.00000000000E+00 0.  1.
         11    1    4    4    0    0 -0.31080215674E+02 -0.19739868436E+01  0.48068146868E+02  0.57274978601E+02  0.00000000000E+00 0. -1.
</event>
<event>
 8    1  0.7262913E-009  0.1444996E+03  0.7561462E-02  0.1207399E+00
          4   -1    0    0  501    0  0.00000000000E+00  0.00000000000E+00  0.47564594596E+03  0.47564594596E+03  0.00000000000E+00 0. -1.
         -4   -1    0    0    0  501 -0.00000000000E+00 -0.00000000000E+00 -0.50558173132E+02  0.50558173132E+02  0.00000000000E+00 0.  1.
         25    2    1    2    0    0 -0.25967682759E+02  0.10906324390E+03  0.21564063336E+03  0.27334545294E+03  0.12509093562E+03 0.  0.
         23    2    1    2    0    0  0.25967682759E+02 -0.10906324390E+03  0.20944713947E+03  0.25285866615E+03  0.86604209463E+02 0.  0.
          5    1    3    3  502    0  0.27367568658E+02  0.10273067454E+03  0.17886669147E+03  0.20811857443E+03  0.41800000000E+01 0.  1.
         -5    1    3    3    0  502 -0.53335251417E+02  0.63325693527E+01  0.36773941885E+02  0.65226878510E+02  0.41800000000E+01 0.  1.
        -11    1    4    4    0    0  0.32536356120E+02 -0.17521670378E+02  0.11656535599E+03  0.12228289177E+03  0.00000000000E+00 0. -1.
         11    1    4    4    0    0 -0.65686733608E+01 -0.91541573518E+02  0.92881783479E+02  0.13057577438E+03  0.00000000000E+00 0.  1.
</event>
<event>
 8    1  0.7262913E-009  0.2075996E+03  0.7561462E-02  0.1143481E+00
         -1   -1    0    0    0  501 -0.00000000000E+00  0.00000000000E+00  0.16241446054E+03  0.16241446054E+03  0.00000000000E+00 0.  1.
          1   -1    0    0  501    0  0.00000000000E+00 -0.00000000000E+00 -0.33696764211E+03  0.33696764211E+03  0.00000000000E+00 0. -1.
         25    2    1    2    0    0 -0.16010785998E+03  0.11066391279E+03 -0.16502711567E+02  0.23194685131E+03  0.12508386755E+03 0.  0.
         23    2    1    2    0    0  0.16010785998E+03 -0.11066391279E+03 -0.15805047000E+03  0.26743525134E+03  0.93062528295E+02 0.  0.
          5    1    3    3  502    0 -0.14267745882E+03  0.41195509348E+02 -0.44265494216E+02  0.15501881700E+03  0.41800000000E+01 0. -1.
         -5    1    3    3    0  502 -0.17430401157E+02  0.69468403442E+02  0.27762782649E+02  0.76928034303E+02  0.41800000000E+01 0. -1.
        -11    1    4    4    0    0  0.25179351942E+02 -0.13089446062E+02 -0.77361571743E+02  0.82402343079E+02  0.00000000000E+00 0.  1.
         11    1    4    4    0    0  0.13492850804E+03 -0.97574466728E+02 -0.80688898254E+02  0.18503290826E+03  0.00000000000E+00 0. -1.
</event>
<event>
 8    1  0.7262913E-009  0.2098894E+03  0.7561462E-02  0.1141654E+00
         -2   -1    0    0    0  501 -0.00000000000E+00  0.00000000000E+00  0.63439831290E+02  0.63439831290E+02  0.00000000000E+00 0. -1.
          2   -1    0    0  501    0  0.00000000000E+00 -0.00000000000E+00 -0.91636524382E+03  0.91636524382E+03  0.00000000000E+00 0.  1.
         25    2    1    2    0    0 -0.20009462616E+03 -0.23537324501E+02 -0.27739676230E+03  0.36495000955E+03  0.12509068979E+03 0.  0.
         23    2    1    2    0    0  0.20009462616E+03  0.23537324501E+02 -0.57552865023E+03  0.61485506556E+03  0.78877495839E+02 0.  0.
          5    1    3    3  502    0 -0.11331522233E+03 -0.49661053440E+02 -0.23323377268E+03  0.26404928510E+03  0.41800000000E+01 0. -1.
         -5    1    3    3    0  502 -0.86779403827E+02  0.26123728939E+02 -0.44162989615E+02  0.10090072445E+03  0.41800000000E+01 0. -1.
        -11    1    4    4    0    0  0.15469451777E+03  0.12714383919E+01 -0.33395830203E+03  0.36804912427E+03  0.00000000000E+00 0. -1.
         11    1    4    4    0    0  0.45400108388E+02  0.22265886109E+02 -0.24157034820E+03  0.24680594129E+03  0.00000000000E+00 0.  1.
</event>
<event>
 8    1  0.7262913E-009  0.1071853E+03  0.7561462E-02  0.1265873E+00
          2   -1    0    0  501    0  0.00000000000E+00  0.00000000000E+00  0.95770338595E+03  0.95770338595E+03  0.00000000000E+00 0. -1.
         -2   -1    0    0    0  501 -0.00000000000E+00 -0.00000000000E+00 -0.12358309501E+02  0.12358309501E+02  0.00000000000E+00 0.  1.
         25    2    1    2    0    0 -0.59493126876E+01  0.17251226068E+02  0.52648425064E+03  0.54144870147E+03  0.12509209018E+03 0.  0.
         23    2    1    2    0    0  0.59493126876E+01 -0.17251226068E+02  0.41886082580E+03  0.42861299398E+03  0.89060137504E+02 0.  0.
          5    1    3    3  502    0  0.53273086221E+02  0.34581617816E+02  0.23440295443E+03  0.24289118439E+03  0.41800000000E+01 0. -1.
         -5    1    3    3    0  502 -0.59222398909E+02 -0.17330391748E+02  0.29208129621E+03  0.29855751709E+03  0.41800000000E+01 0. -1.
        -11    1    4    4    0    0  0.44022460272E+02 -0.24101484257E+02  0.28009460243E+03  0.28455552158E+03  0.00000000000E+00 0. -1.
         11    1    4    4    0    0 -0.38073147585E+02  0.68502581889E+01  0.13876622338E+03  0.14405747240E+03  0.00000000000E+00 0.  1.
</event>
<event>
 8    1  0.7262913E-009  0.1925043E+03  0.7561462E-02  0.1156222E+00
          1   -1    0    0  501    0  0.00000000000E+00  0.00000000000E+00  0.58841594273E+03  0.58841594273E+03  0.00000000000E+00 0. -1.
         -1   -1    0    0    0  501 -0.00000000000E+00 -0.00000000000E+00 -0.78385263568E+02  0.78385263568E+02  0.00000000000E+00 0.  1.
         25    2    1    2    0    0  0.62669739930E+02  0.16607488161E+03  0.18648408642E+03  0.28623841548E+03  0.12509098050E+03 0.  0.
         23    2    1    2    0    0 -0.62669739930E+02 -0.16607488161E+03  0.32354659275E+03  0.38056279082E+03  0.92936954296E+02 0.  0.
          5    1    3    3  502    0 -0.14500829985E+02  0.10396538201E+02 -0.12387831997E+02  0.22119965154E+02  0.41800000000E+01 0. -1.
         -5    1    3    3    0  502  0.77170569915E+02  0.15567834341E+03  0.19887191842E+03  0.26411845033E+03  0.41800000000E+01 0. -1.
        -11    1    4    4    0    0  0.17605033572E+02 -0.34887940441E+02  0.30362195799E+02  0.49487054156E+02  0.00000000000E+00 0. -1.
         11    1    4    4    0    0 -0.80274773502E+02 -0.13118694117E+03  0.29318439695E+03  0.33107573666E+03  0.00000000000E+00 0.  1.
</event>
<event>
 8    1  0.7262913E-009  0.1384418E+03  0.7561462E-02  0.1215441E+00
         -1   -1    0    0    0  501 -0.00000000000E+00  0.00000000000E+00  0.18433101825E+03  0.18433101825E+03  0.00000000000E+00 0.  1.
          1   -1    0    0  501    0  0.00000000000E+00 -0.00000000000E+00 -0.15111044855E+03  0.15111044855E+03  0.00000000000E+00 0. -1.
         25    2    1    2    0    0 -0.19516553918E+02  0.10459028744E+03 -0.49466948652E+02  0.17149257485E+03  0.12507078043E+03 0.  0.
         23    2    1    2    0    0  0.19516553918E+02 -0.10459028744E+03  0.82687518356E+02  0.16394889194E+03  0.93391591562E+02 0.  0.
          5    1    3    3  502    0  0.25295865809E+01 -0.27730216602E+02  0.82521523914E+00  0.28169435586E+02  0.41800000000E+01 0.  1.
         -5    1    3    3    0  502 -0.22046140499E+02  0.13232050404E+03 -0.50292163892E+02  0.14332313927E+03  0.41800000000E+01 0.  1.
        -11    1    4    4    0    0 -0.91605496344E+00 -0.88511696365E+02  0.12869933028E+02  0.89447161644E+02  0.00000000000E+00 0. -1.
         11    1    4    4    0    0  0.20432608881E+02 -0.16078591074E+02  0.69817585329E+02  0.74501730300E+02  0.00000000000E+00 0.  1.
</event>
<event>
 8    1  0.7262913E-009  0.7000519E+02  0.7561462E-02  0.1360075E+00
          2   -1    0    0  501    0  0.00000000000E+00  0.00000000000E+00  0.11572185284E+04  0.11572185284E+04  0.00000000000E+00 0. -1.
         -2   -1    0    0    0  501 -0.00000000000E+00 -0.00000000000E+00 -0.11864506300E+02  0.11864506300E+02  0.00000000000E+00 0.  1.
         25    2    1    2    0    0 -0.25782097672E+02 -0.62860604307E+01  0.83201310177E+03  0.84178152905E+03  0.12508441154E+03 0.  0.
         23    2    1    2    0    0  0.25782097672E+02  0.62860604307E+01  0.31334092034E+03  0.32730150567E+03  0.90771758465E+02 0.  0.
          5    1    3    3  502    0 -0.10398343083E+02  0.16538865936E+02  0.16827963181E+02  0.26121109665E+02  0.41800000000E+01 0. -1.
         -5    1    3    3    0  502 -0.15383754589E+02 -0.22824926367E+02  0.81518513859E+03  0.81566041938E+03  0.41800000000E+01 0. -1.
        -11    1    4    4    0    0  0.58643916304E+02  0.84918167441E+01  0.23421763168E+03  0.24159701749E+03  0.00000000000E+00 0. -1.
         11    1    4    4    0    0 -0.32861818632E+02 -0.22057563134E+01  0.79123288668E+02  0.85704488181E+02  0.00000000000E+00 0.  1.
</event>
<event>
 8    1  0.7262913E-009  0.1872306E+03  0.7561462E-02  0.1160983E+00
          1   -1    0    0  501    0  0.00000000000E+00  0.00000000000E+00  0.18106251464E+03  0.18106251464E+03  0.00000000000E+00 0. -1.
         -1   -1    0    0    0  501 -0.00000000000E+00 -0.00000000000E+00 -0.25093332096E+03  0.25093332096E+03  0.00000000000E+00 0.  1.
         25    2    1    2    0    0  0.15950462822E+03  0.76462172730E+02  0.13126005047E+02  0.21703204528E+03  0.12506968611E+03 0.  0.
         23    2    1    2    0    0 -0.15950462822E+03 -0.76462172730E+02 -0.82996811369E+02  0.21496379032E+03  0.89625722692E+02 0.  0.
          5    1    3    3  502    0  0.80436604362E+02  0.81436722835E+02 -0.40257573636E+02  0.12140894441E+03  0.41800000000E+01 0. -1.
         -5    1    3    3    0  502  0.79068023863E+02 -0.49745501055E+01  0.53383578683E+02  0.95623100867E+02  0.41800000000E+01 0. -1.
        -11    1    4    4    0    0 -0.12704300167E+03 -0.76161840405E+02 -0.99605537927E+02  0.17849877700E+03  0.00000000000E+00 0.  1.
         11    1    4    4    0    0 -0.32461626558E+02 -0.30033232517E+00  0.16608726558E+02  0.36465013317E+02  0.00000000000E+00 0. -1.
</event>
<event>
 8    1  0.7262913E-009  0.2270681E+03  0.7561462E-02  0.1128721E+00
          2   -1    0    0  501    0  0.00000000000E+00  0.00000000000E+00  0.84990579486E+03  0.84990579486E+03  0.00000000000E+00 0. -1.
         -2   -1    0    0    0  501 -0.00000000000E+00 -0.00000000000E+00 -0.70985791655E+02  0.70985791655E+02  0.00000000000E+00 0.  1.
         25    2    1    2    0    0 -0.21391939100E+03  0.11240280234E+02  0.30771693179E+03  0.39525268208E+03  0.12508846002E+03 0.  0.
         23    2    1    2    0    0  0.21391939100E+03 -0.11240280234E+02  0.47120307142E+03  0.52563890444E+03  0.91520891640E+02 0.  0.
          5    1    3    3  502    0 -0.68487178431E+01 -0.20710517371E+02  0.91449064833E+02  0.94107567840E+02  0.41800000000E+01 0.  1.
         -5    1    3    3    0  502 -0.20707067316E+03  0.31950797605E+02  0.21626786696E+03  0.30114511424E+03  0.41800000000E+01 0.  1.
        -11    1    4    4    0    0  0.12569670268E+03  0.22898349247E+02  0.34514412803E+03  0.36803323841E+03  0.00000000000E+00 0.  1.
         11    1    4    4    0    0  0.88222688321E+02 -0.34138629481E+02  0.12605894339E+03  0.15760566603E+03  0.00000000000E+00 0. -1.
</event>
<event>
 8    1  0.7262913E-009  0.1613662E+03  0.7561462E-02  0.1187163E+00
          2   -1    0    0  501    0  0.00000000000E+00  0.00000000000E+00  0.31581615150E+02  0.31581615150E+02  0.00000000000E+00 0. -1.
         -2   -1    0    0    0  501 -0.00000000000E+00 -0.00000000000E+00 -0.17479386388E+04  0.17479386388E+04  0.00000000000E+00 0.  1.
         25    2    1    2    0    0 -0.11644885038E+03 -0.82118651372E+02 -0.14597564875E+04  0.14720189601E+04  0.12508800378E+03 0.  0.
         23    2    1    2    0    0  0.11644885038E+03  0.82118651372E+02 -0.25660053621E+03  0.30750129383E+03  0.91702796377E+02 0.  0.
          5    1    3    3  502    0 -0.12741808138E+03 -0.81866361141E+02 -0.94015361944E+03  0.95228344997E+03  0.41800000000E+01 0.  1.
         -5    1    3    3    0  502  0.10969231000E+02 -0.25229023135E+00 -0.51960286801E+03  0.51973551016E+03  0.41800000000E+01 0.  1.
        -11    1    4    4    0    0  0.11475058878E+02  0.47622665255E+02 -0.13287714419E+03  0.14161896296E+03  0.00000000000E+00 0.  1.
         11    1    4    4    0    0  0.10497379150E+03  0.34495986117E+02 -0.12372339202E+03  0.16588233087E+03  0.00000000000E+00 0. -1.
</event>
<event>
 8    1  0.7262913E-009  0.1051988E+03  0.7561462E-02  0.1269728E+00
          1   -1    0    0  501    0  0.00000000000E+00  0.00000000000E+00  0.50879167777E+02  0.50879167777E+02  0.00000000000E+00 0. -1.
         -1   -1    0    0    0  501 -0.00000000000E+00 -0.00000000000E+00 -0.26045748951E+03  0.26045748951E+03  0.00000000000E+00 0.  1.
         25    2    1    2    0    0 -0.24300479221E+02  0.30848670121E+02 -0.10426656755E+03  0.16751409915E+03  0.12508917845E+03 0.  0.
         23    2    1    2    0    0  0.24300479221E+02 -0.30848670121E+02 -0.10531175418E+03  0.14382255814E+03  0.89734101221E+02 0.  0.
          5    1    3    3  502    0  0.13404488996E+02 -0.37531826571E+02 -0.38732804699E+01  0.40259073916E+02  0.41800000000E+01 0. -1.
         -5    1    3    3    0  502 -0.37704968217E+02  0.68380496692E+02 -0.10039328708E+03  0.12725502523E+03  0.41800000000E+01 0. -1.
        -11    1    4    4    0    0  0.55317861738E+02 -0.24329112691E+02 -0.43833191694E+02  0.74654673301E+02  0.00000000000E+00 0. -1.
         11    1    4    4    0    0 -0.31017382517E+02 -0.65195574305E+01 -0.61478562489E+02  0.69167884838E+02  0.00000000000E+00 0.  1.
</event>
<event>
 8    1  0.7262913E-009  0.1317247E+03  0.7561462E-02  0.1224919E+00
         -1   -1    0    0    0  501 -0.00000000000E+00  0.00000000000E+00  0.36647931378E+03  0.36647931378E+03  0.00000000000E+00 0.  1.
          1   -1    0    0  501    0  0.00000000000E+00 -0.00000000000E+00 -0.75264528896E+02  0.75264528896E+02  0.00000000000E+00 0. -1.
         25    2    1    2    0    0  0.96746189954E+02  0.26301750811E+02  0.24224885758E+03  0.29048851327E+03  0.12508980765E+03 0.  0.
         23    2    1    2    0    0 -0.96746189954E+02 -0.26301750811E+02  0.48965927303E+02  0.15125532940E+03  0.10212201168E+03 0.  0.
          5    1    3    3  502    0  0.52212606234E+02  0.52122398693E+02  0.44838985560E+02  0.86434412830E+02  0.41800000000E+01 0.  1.
         -5    1    3    3    0  502  0.44533583720E+02 -0.25820647882E+02  0.19740987202E+03  0.20405410044E+03  0.41800000000E+01 0.  1.
        -11    1    4    4    0    0 -0.81549394046E+02  0.24284406438E+02  0.10117530815E+02  0.85687808323E+02  0.00000000000E+00 0. -1.
         11    1    4    4    0    0 -0.15196795907E+02 -0.50586157248E+02  0.38848396488E+02  0.65567521081E+02  0.00000000000E+00 0.  1.
</event>
<event>
 8    1  0.7262913E-009  0.9113477E+02  0.7561462E-02  0.1300127E+00
          2   -1    0    0  501    0  0.00000000000E+00  0.00000000000E+00  0.31832530674E+03  0.31832530674E+03  0.00000000000E+00 0.  1.
         -2   -1    0    0    0  501 -0.00000000000E+00 -0.00000000000E+00 -0.47968638637E+02  0.47968638637E+02  0.00000000000E+00 0. -1.
         25    2    1    2    0    0 -0.26491061594E+02 -0.41873409327E+02  0.22110751974E+03  0.25882703108E+03  0.12509091885E+03 0.  0.
         23    2    1    2    0    0  0.26491061594E+02  0.41873409327E+02  0.49249148356E+02  0.10746691429E+03  0.81660885988E+02 0.  0.
          5    1    3    3  502    0 -0.15880850907E+01  0.19751595198E+02 -0.68201824519E+01  0.21369015321E+02  0.41800000000E+01 0. -1.
         -5    1    3    3    0  502 -0.24902976503E+02 -0.61625004525E+02  0.22792770220E+03  0.23745801576E+03  0.41800000000E+01 0. -1.
        -11    1    4    4    0    0  0.31748383825E+02  0.64660655482E+02  0.39242845821E+02  0.82030245587E+02  0.00000000000E+00 0. -1.
         11    1    4    4    0    0 -0.52573222313E+01 -0.22787246155E+02  0.10006302535E+02  0.25436668704E+02  0.00000000000E+00 0.  1.
</event>
<event>
 8    1  0.7262913E-009  0.9272284E+02  0.7561462E-02  0.1296389E+00
          2   -1    0    0  501    0  0.00000000000E+00  0.00000000000E+00  0.20961151999E+03  0.20961151999E+03  0.00000000000E+00 0. -1.
         -2   -1    0    0    0  501 -0.00000000000E+00 -0.00000000000E+00 -0.64599150088E+02  0.64599150088E+02  0.00000000000E+00 0.  1.
         25    2    1    2    0    0 -0.18165001426E+02  0.13248275003E+02  0.39181587097E+02  0.13300066492E+03  0.12509394883E+03 0.  0.
         23    2    1    2    0    0  0.18165001426E+02 -0.13248275003E+02  0.10583078281E+03  0.14121000516E+03  0.90744845031E+02 0.  0.
          5    1    3    3  502    0  0.35334279468E+02 -0.35839052178E+02  0.32302878912E+02  0.59949123034E+02  0.41800000000E+01 0. -1.
         -5    1    3    3    0  502 -0.53499280894E+02  0.49087327182E+02  0.68787081849E+01  0.73051541888E+02  0.41800000000E+01 0. -1.
        -11    1    4    4    0    0 -0.78438283270E+01  0.19136167145E+02  0.96431257618E+02  0.98624063907E+02  0.00000000000E+00 0. -1.
         11    1    4    4    0    0  0.26008829753E+02 -0.32384442148E+02  0.93995251891E+01  0.42585941250E+02  0.00000000000E+00 0.  1.
</event>
<event>
 8    1  0.7262913E-009  0.1086745E+03  0.7561462E-02  0.1263044E+00
          1   -1    0    0  501    0  0.00000000000E+00  0.00000000000E+00  0.82266131569E+02  0.82266131569E+02  0.00000000000E+00 0. -1.
         -1   -1    0    0    0  501 -0.00000000000E+00 -0.00000000000E+00 -0.16607466075E+03  0.16607466075E+03  0.00000000000E+00 0.  1.
         25    2    1    2    0    0 -0.44134226216E+02 -0.61380191294E+01 -0.38924319727E+02  0.13838055983E+03  0.12509425035E+03 0.  0.
         23    2    1    2    0    0  0.44134226216E+02  0.61380191294E+01 -0.44884209454E+02  0.10996023249E+03  0.89950849178E+02 0.  0.
          5    1    3    3  502    0 -0.29586982702E+02  0.52856908420E+02 -0.47212181350E+02  0.76913618956E+02  0.41800000000E+01 0.  1.
         -5    1    3    3    0  502 -0.14547243514E+02 -0.58994927549E+02  0.82878616224E+01  0.61466940876E+02  0.41800000000E+01 0.  1.
        -11    1    4    4    0    0  0.46626354330E+02 -0.32609086069E+02 -0.42577047531E+02  0.71064579003E+02  0.00000000000E+00 0.  1.
         11    1    4    4    0    0 -0.24921281144E+01  0.38747105199E+02 -0.23071619233E+01  0.38895653484E+02  0.00000000000E+00 0. -1.
</event>
<event>
 8    1  0.7262913E-009  0.9087157E+02  0.7561462E-02  0.1300755E+00
          3   -1    0    0  501    0  0.00000000000E+00  0.00000000000E+00  0.12284070319E+03  0.12284070319E+03  0.00000000000E+00 0. -1.
         -3   -1    0    0    0  501 -0.00000000000E+00 -0.00000000000E+00 -0.14368577712E+03  0.14368577712E+03  0.00000000000E+00 0.  1.
         25    2    1    2    0    0  0.31386541397E+02 -0.94402783408E+01  0.57648302208E+02  0.14157316979E+03  0.12508158066E+03 0.  0.
         23    2    1    2    0    0 -0.31386541397E+02  0.94402783408E+01 -0.78493376131E+02  0.12495331052E+03  0.91530791961E+02 0.  0.
          5    1    3    3  502    0  0.70923848149E+02  0.15706955046E+02  0.60234034052E+02  0.94459048964E+02  0.41800000000E+01 0.  1.
         -5    1    3    3    0  502 -0.39537306751E+02 -0.25147233386E+02 -0.25857318444E+01  0.47114120827E+02  0.41800000000E+01 0.  1.
        -11    1    4    4    0    0 -0.92268502778E+01 -0.21779161499E+02 -0.83092556110E+02  0.86393515512E+02  0.00000000000E+00 0.  1.
         11    1    4    4    0    0 -0.22159691119E+02  0.31219439840E+02  0.45991799793E+01  0.38559795006E+02  0.00000000000E+00 0. -1.
</event>
<event>
 8    1  0.7262913E-009  0.2507610E+03  0.7561462E-02  0.1112825E+00
          2   -1    0    0  501    0  0.00000000000E+00  0.00000000000E+00  0.22718283341E+04  0.22718283341E+04  0.00000000000E+00 0. -1.
         -2   -1    0    0    0  501 -0.00000000000E+00 -0.00000000000E+00 -0.30866616696E+02  0.30866616696E+02  0.00000000000E+00 0.  1.
         25    2    1    2    0    0  0.23339777053E+03 -0.30475058652E+02  0.13705746310E+04  0.13962542746E+04  0.12509169231E+03 0.  0.
         23    2    1    2    0    0 -0.23339777053E+03  0.30475058652E+02  0.87038708640E+03  0.90644067627E+03  0.93047143659E+02 0.  0.
          5    1    3    3  502    0  0.11733870055E+03  0.41225699907E+02  0.79754165283E+03  0.80719148247E+03  0.41800000000E+01 0.  1.
         -5    1    3    3    0  502  0.11605906998E+03 -0.71700758559E+02  0.57303297822E+03  0.58906279209E+03  0.41800000000E+01 0.  1.
        -11    1    4    4    0    0 -0.66160065168E+02 -0.13829118343E+02  0.39081163909E+03  0.39661333309E+03  0.00000000000E+00 0.  1.
         11    1    4    4    0    0 -0.16723770536E+03  0.44304176995E+02  0.47957544730E+03  0.50982734318E+03  0.00000000000E+00 0. -1.
</event>
<event>
 8    1  0.7262913E-009  0.1024929E+03  0.7561462E-02  0.1275139E+00
         -2   -1    0    0    0  501 -0.00000000000E+00  0.00000000000E+00  0.16047179963E+03  0.16047179963E+03  0.00000000000E+00 0.  1.
          2   -1    0    0  501    0  0.00000000000E+00 -0.00000000000E+00 -0.93361179424E+02  0.93361179424E+02  0.00000000000E+00 0. -1.
         25    2    1    2    0    0  0.47822183449E+02  0.11064305545E+02  0.93416866095E+01  0.13470139337E+03  0.12509123942E+03 0.  0.
         23    2    1    2    0    0 -0.47822183449E+02 -0.11064305545E+02  0.57768933600E+02  0.11913158569E+03  0.91900516500E+02 0.  0.
          5    1    3    3  502    0 -0.11787768647E+00 -0.34590251818E+02  0.46936784271E+02  0.58455397815E+02  0.41800000000E+01 0. -1.
         -5    1    3    3    0  502  0.47940061136E+02  0.45654557363E+02 -0.37595097661E+02  0.76245995553E+02  0.41800000000E+01 0. -1.
        -11    1    4    4    0    0 -0.73430016917E+02 -0.20951240993E+02  0.46865669399E+02  0.89595272486E+02  0.00000000000E+00 0. -1.
         11    1    4    4    0    0  0.25607833468E+02  0.98869354483E+01  0.10903264201E+02  0.29536313205E+02  0.00000000000E+00 0.  1.
</event>
<event>
 8    1  0.7262913E-009  0.1764390E+03  0.7561462E-02  0.1171295E+00
          2   -1    0    0  501    0  0.00000000000E+00  0.00000000000E+00  0.75050621003E+03  0.75050621003E+03  0.00000000000E+00 0. -1.
         -2   -1    0    0    0  501 -0.00000000000E+00 -0.00000000000E+00 -0.60100145211E+02  0.60100145211E+02  0.00000000000E+00 0.  1.
         25    2    1    2    0    0  0.59126736081E+01 -0.14802871736E+03  0.15841404541E+03  0.25037625528E+03  0.12508316654E+03 0.  0.
         23    2    1    2    0    0 -0.59126736081E+01  0.14802871736E+03  0.53199201941E+03  0.56023009996E+03  0.94312222526E+02 0.  0.
          5    1    3    3  502    0 -0.47216715491E+02 -0.42632675293E+02  0.16707136566E+02  0.65905720819E+02  0.41800000000E+01 0. -1.
         -5    1    3    3    0  502  0.53129389099E+02 -0.10539604207E+03  0.14170690885E+03  0.18447053446E+03  0.41800000000E+01 0. -1.
        -11    1    4    4    0    0 -0.29574210723E+02  0.14401674730E+03  0.49289448648E+03  0.51435438391E+03  0.00000000000E+00 0. -1.
         11    1    4    4    0    0  0.23661537115E+02  0.40119700555E+01  0.39097532930E+02  0.45875716055E+02  0.00000000000E+00 0.  1.
</event>
<event>
 8    1  0.7262913E-009  0.9603507E+02  0.7561462E-02  0.1288862E+00
          2   -1    0    0  501    0  0.00000000000E+00  0.00000000000E+00  0.14782233883E+03  0.14782233883E+03  0.00000000000E+00 0. -1.
         -2   -1    0    0    0  501 -0.00000000000E+00 -0.00000000000E+00 -0.86374590824E+02  0.86374590824E+02  0.00000000000E+00 0.  1.
         25    2    1    2    0    0 -0.28378316425E+02 -0.12456178820E+02  0.49930004580E+02  0.13820924145E+03  0.12509318059E+03 0.  0.
         23    2    1    2    0    0  0.28378316425E+02  0.12456178820E+02  0.11517743423E+02  0.95987688200E+02  0.90113776076E+02 0.  0.
          5    1    3    3  502    0 -0.60788188147E+02  0.34136621277E+02  0.39855720989E+02  0.80414324756E+02  0.41800000000E+01 0.  1.
         -5    1    3    3    0  502  0.32409871722E+02 -0.46592800097E+02  0.10074283591E+02  0.57794916695E+02  0.41800000000E+01 0.  1.
        -11    1    4    4    0    0  0.28844810571E+02  0.33534874453E+02 -0.27181546211E+02  0.51917697906E+02  0.00000000000E+00 0.  1.
         11    1    4    4    0    0 -0.46649414643E+00 -0.21078695633E+02  0.38699289634E+02  0.44069990294E+02  0.00000000000E+00 0. -1.
</event>
<event>
 8    1  0.7262913E-009  0.9879529E+02  0.7561462E-02  0.1282850E+00
          2   -1    0    0  501    0  0.00000000000E+00  0.00000000000E+00  0.67717145838E+03  0.67717145838E+03  0.00000000000E+00 0. -1.
         -2   -1    0    0    0  501 -0.00000000000E+00 -0.00000000000E+00 -0.19482117341E+02  0.19482117341E+02  0.00000000000E+00 0.  1.
         25    2    1    2    0    0 -0.33908849336E+01 -0.17762057048E+02  0.48762623280E+03  0.50374001495E+03  0.12509065100E+03 0.  0.
         23    2    1    2    0    0  0.33908849336E+01  0.17762057048E+02  0.17006310824E+03  0.19291356078E+03  0.89259130497E+02 0.  0.
          5    1    3    3  502    0 -0.83681892793E+01 -0.71069450462E+02  0.30961914827E+03  0.31780872039E+03  0.41800000000E+01 0. -1.
         -5    1    3    3    0  502  0.49773043457E+01  0.53307393413E+02  0.17800708454E+03  0.18593129456E+03  0.41800000000E+01 0. -1.
        -11    1    4    4    0    0 -0.44982179269E+01 -0.26686402022E+02  0.14034207336E+02  0.30485357025E+02  0.00000000000E+00 0.  1.
         11    1    4    4    0    0  0.78891028605E+01  0.44448459070E+02  0.15602890090E+03  0.16242820375E+03  0.00000000000E+00 0. -1.
</event>
<event>
 8    1  0.7262913E-009  0.1240262E+03  0.7561462E-02  0.1236599E+00
          1   -1    0    0  501    0  0.00000000000E+00  0.00000000000E+00  0.89640341410E+02  0.89640341410E+02  0.00000000000E+00 0. -1.
         -1   -1    0    0    0  501 -0.00000000000E+00 -0.00000000000E+00 -0.25199350373E+03  0.25199350373E+03  0.00000000000E+00 0.  1.
         25    2    1    2    0    0  0.18218872514E+02  0.86586432096E+02 -0.24271935376E+02  0.15513121280E+03  0.12508968302E+03 0.  0.
         23    2    1    2    0    0 -0.18218872514E+02 -0.86586432096E+02 -0.13808122694E+03  0.18650263234E+03  0.88812550343E+02 0.  0.
          5    1    3    3  502    0 -0.27322840583E+02  0.70895117668E+02  0.30583499666E+02  0.82009012789E+02  0.41800000000E+01 0.  1.
         -5    1    3    3    0  502  0.45541713097E+02  0.15691314427E+02 -0.54855435041E+02  0.73122200007E+02  0.41800000000E+01 0.  1.
        -11    1    4    4    0    0 -0.47671636148E+02 -0.21754346026E+02 -0.74211052052E+02  0.90846665931E+02  0.00000000000E+00 0.  1.
         11    1    4    4    0    0  0.29452763634E+02 -0.64832086070E+02 -0.63870174890E+02  0.95655966413E+02  0.00000000000E+00 0. -1.
</event>
<event>
 8    1  0.7262913E-009  0.8587331E+02  0.7561462E-02  0.1313164E+00
         -2   -1    0    0    0  501 -0.00000000000E+00  0.00000000000E+00  0.52933384559E+02  0.52933384559E+02  0.00000000000E+00 0.  1.
          2   -1    0    0  501    0  0.00000000000E+00 -0.00000000000E+00 -0.29482086161E+03  0.29482086161E+03  0.00000000000E+00 0. -1.
         25    2    1    2    0    0  0.89291974448E+01 -0.47228015414E+02 -0.18984566032E+03  0.23237884019E+03  0.12509330365E+03 0.  0.
         23    2    1    2    0    0 -0.89291974448E+01  0.47228015414E+02 -0.52041816731E+02  0.11537540598E+03  0.91065457830E+02 0.  0.
          5    1    3    3  502    0  0.38808610644E+02 -0.33434833874E+02 -0.13773544681E+02  0.53208827363E+02  0.41800000000E+01 0.  1.
         -5    1    3    3    0  502 -0.29879413199E+02 -0.13793181540E+02 -0.17607211564E+03  0.17917001282E+03  0.41800000000E+01 0.  1.
        -11    1    4    4    0    0  0.30956933324E+02  0.31888900184E+02 -0.57083869358E+02  0.72345019294E+02  0.00000000000E+00 0. -1.
         11    1    4    4    0    0 -0.39886130769E+02  0.15339115230E+02  0.50420526276E+01  0.43030386687E+02  0.00000000000E+00 0.  1.
</event>
<event>
 8    1  0.7262913E-009  0.1388676E+03  0.7561462E-02  0.1214861E+00
         -1   -1    0    0    0  501 -0.00000000000E+00  0.00000000000E+00  0.39852132418E+02  0.39852132418E+02  0.00000000000E+00 0.  1.
          1   -1    0    0  501    0  0.00000000000E+00 -0.00000000000E+00 -0.60010416166E+03  0.60010416166E+03  0.00000000000E+00 0. -1.
         25    2    1    2    0    0 -0.87919613717E+02  0.64498124444E+02 -0.28943732103E+03  0.33363649788E+03  0.12509789519E+03 0.  0.
         23    2    1    2    0    0  0.87919613717E+02 -0.64498124444E+02 -0.27081470822E+03  0.30631979620E+03  0.92743435477E+02 0.  0.
          5    1    3    3  502    0 -0.92319884555E+02  0.96091421172E+02 -0.24251903805E+03  0.27674804159E+03  0.41800000000E+01 0.  1.
         -5    1    3    3    0  502  0.44002708374E+01 -0.31593296728E+02 -0.46918282981E+02  0.56888456294E+02  0.41800000000E+01 0.  1.
        -11    1    4    4    0    0  0.70569215908E+02 -0.36869099232E+02 -0.80480820669E+02  0.11321001373E+03  0.00000000000E+00 0.  1.
         11    1    4    4    0    0  0.17350397809E+02 -0.27629025212E+02 -0.19033388755E+03  0.19310978247E+03  0.00000000000E+00 0. -1.
</event>
<event>
 8    1  0.7262913E-009  0.1096163E+03  0.7561462E-02  0.1261282E+00
         -1   -1    0    0    0  501 -0.00000000000E+00  0.00000000000E+00  0.88008805255E+02  0.88008805255E+02  0.00000000000E+00 0. -1.
          1   -1    0    0  501    0  0.00000000000E+00 -0.00000000000E+00 -0.29689204134E+03  0.29689204134E+03  0.00000000000E+00 0.  1.
         25    2    1    2    0    0  0.94665627688E+02 -0.24663816802E+02 -0.31059949860E+02  0.16180837470E+03  0.12508934692E+03 0.  0.
         23    2    1    2    0    0 -0.94665627688E+02  0.24663816802E+02 -0.17782328623E+03  0.22309247190E+03  0.92624213729E+02 0.  0.
          5    1    3    3  502    0  0.32769012368E+02 -0.10597910635E+02 -0.76254754451E+02  0.83775795179E+02  0.41800000000E+01 0. -1.
         -5    1    3    3    0  502  0.61896615320E+02 -0.14065906167E+02  0.45194804591E+02  0.78032579519E+02  0.41800000000E+01 0. -1.
        -11    1    4    4    0    0 -0.83024816722E+02  0.47242427945E+02 -0.88473935635E+02  0.13020216771E+03  0.00000000000E+00 0. -1.
         11    1    4    4    0    0 -0.11640810966E+02 -0.22578611143E+02 -0.89349350591E+02  0.92890304188E+02  0.00000000000E+00 0.  1.
</event>
<event>
 8    1  0.7262913E-009  0.7998614E+02  0.7561462E-02  0.1329091E+00
          2   -1    0    0  501    0  0.00000000000E+00  0.00000000000E+00  0.28223175538E+03  0.28223175538E+03  0.00000000000E+00 0. -1.
         -2   -1    0    0    0  501 -0.00000000000E+00 -0.00000000000E+00 -0.65167051580E+02  0.65167051580E+02  0.00000000000E+00 0.  1.
         25    2    1    2    0    0  0.28613466917E+02 -0.53532343134E+02  0.48008033695E+02  0.14710226481E+03  0.12509941152E+03 0.  0.
         23    2    1    2    0    0 -0.28613466917E+02  0.53532343134E+02  0.16905667011E+03  0.20029654215E+03  0.88623387651E+02 0.  0.
          5    1    3    3  502    0  0.38212411580E+01 -0.34600619167E+02 -0.40262565458E+02  0.53388681459E+02  0.41800000000E+01 0. -1.
         -5    1    3    3    0  502  0.24792225759E+02 -0.18931723968E+02  0.88270599152E+02  0.93713583355E+02  0.41800000000E+01 0. -1.
        -11    1    4    4    0    0  0.15289135876E+02  0.46534272506E+02  0.38266614801E+02  0.62157300471E+02  0.00000000000E+00 0.  1.
         11    1    4    4    0    0 -0.43902602793E+02  0.69980706288E+01  0.13079005531E+03  0.13813924168E+03  0.00000000000E+00 0. -1.
</event>
<event>
 8    1  0.7262913E-009  0.3094557E+03  0.7561462E-02  0.1080607E+00
          2   -1    0    0  501    0  0.00000000000E+00  0.00000000000E+00  0.65982910546E+03  0.65982910546E+03  0.00000000000E+00 0. -1.
         -2   -1    0    0    0  501 -0.00000000000E+00 -0.00000000000E+00 -0.15372473639E+03  0.15372473639E+03  0.00000000000E+00 0.  1.
         25    2    1    2    0    0 -0.15561107165E+03 -0.25348446737E+03  0.23505210115E+03  0.39920529401E+03  0.12508475406E+03 0.  0.
         23    2    1    2    0    0  0.15561107165E+03  0.25348446737E+03  0.27105226792E+03  0.41434854783E+03  0.98722876443E+02 0.  0.
          5    1    3    3  502    0 -0.21543067690E+02 -0.10543189079E+03  0.14358755957E+03  0.17948494930E+03  0.41800000000E+01 0. -1.
         -5    1    3    3    0  502 -0.13406800396E+03 -0.14805257658E+03  0.91464541578E+02  0.21972034472E+03  0.41800000000E+01 0. -1.
        -11    1    4    4    0    0  0.59990574584E+02  0.18319162407E+03  0.18979542094E+03  0.27051865366E+03  0.00000000000E+00 0.  1.
         11    1    4    4    0    0  0.95620497061E+02  0.70292843297E+02  0.81256846978E+02  0.14382989417E+03  0.00000000000E+00 0. -1.
</event>
<event>
 8    1  0.7262913E-009  0.1062266E+03  0.7561462E-02  0.1267722E+00
         -2   -1    0    0    0  501 -0.00000000000E+00  0.00000000000E+00  0.92058424488E+02  0.92058424488E+02  0.00000000000E+00 0.  1.
          2   -1    0    0  501    0  0.00000000000E+00 -0.00000000000E+00 -0.22835220632E+03  0.22835220632E+03  0.00000000000E+00 0. -1.
         25    2    1    2    0    0 -0.49669161210E+02 -0.49758897224E+02 -0.41536068169E+01  0.14356093306E+03  0.12509802406E+03 0.  0.
         23    2    1    2    0    0  0.49669161210E+02  0.49758897224E+02 -0.13214017501E+03  0.17684969775E+03  0.94190319633E+02 0.  0.
          5    1    3    3  502    0  0.12435370544E+02 -0.71535473023E+02 -0.20613540566E+02  0.75593338303E+02  0.41800000000E+01 0.  1.
         -5    1    3    3    0  502 -0.62104531754E+02  0.21776575799E+02  0.16459933749E+02  0.67967594756E+02  0.41800000000E+01 0.  1.
        -11    1    4    4    0    0  0.42379780455E+02  0.27902704778E+02 -0.89504163406E+01  0.51523942765E+02  0.00000000000E+00 0.  1.
         11    1    4    4    0    0  0.72893807543E+01  0.21856192446E+02 -0.12318975867E+03  0.12532575498E+03  0.00000000000E+00 0. -1.
</event>
<event>
 8    1  0.7262913E-009  0.1824684E+03  0.7561462E-02  0.1165435E+00
         -2   -1    0    0    0  501 -0.00000000000E+00  0.00000000000E+00  0.10687843766E+03  0.10687843766E+03  0.00000000000E+00 0.  1.
          2   -1    0    0  501    0  0.00000000000E+00 -0.00000000000E+00 -0.40383513305E+03  0.40383513305E+03  0.00000000000E+00 0. -1.
         25    2    1    2    0    0  0.17126799031E+03  0.74153289309E+01 -0.21118133294E+03  0.29938629599E+03  0.12508751832E+03 0.  0.
         23    2    1    2    0    0 -0.17126799031E+03 -0.74153289309E+01 -0.85775362455E+02  0.21132727472E+03  0.88961186083E+02 0.  0.
          5    1    3    3  502    0  0.52659911711E+02  0.54240411721E+01  0.44023206187E+01  0.53285451588E+02  0.41800000000E+01 0.  1.
         -5    1    3    3    0  502  0.11860807860E+03  0.19912877588E+01 -0.21558365356E+03  0.24610084440E+03  0.41800000000E+01 0.  1.
        -11    1    4    4    0    0 -0.70894576706E+02 -0.47194348606E+02 -0.37386267375E+02  0.93011184999E+02  0.00000000000E+00 0. -1.
         11    1    4    4    0    0 -0.10037341360E+03  0.39779019675E+02 -0.48389095081E+02  0.11831608972E+03  0.00000000000E+00 0.  1.
</event>
<event>
 8    1  0.7262913E-009  0.2726697E+03  0.7561462E-02  0.1099761E+00
         -2   -1    0    0    0  501 -0.00000000000E+00  0.00000000000E+00  0.45079746367E+02  0.45079746367E+02  0.00000000000E+00 0. -1.
          2   -1    0    0  501    0  0.00000000000E+00 -0.00000000000E+00 -0.18883473914E+04  0.18883473914E+04  0.00000000000E+00 0.  1.
         25    2    1    2    0    0  0.24455751548E+03  0.11469823984E+03 -0.85949493744E+03  0.90958385545E+03  0.12508868055E+03 0.  0.
         23    2    1    2    0    0 -0.24455751548E+03 -0.11469823984E+03 -0.98377270760E+03  0.10238432823E+04  0.86500069071E+02 0.  0.
          5    1    3    3  502    0  0.21310652695E+03  0.79426060207E+02 -0.53083243911E+03  0.57751488438E+03  0.41800000000E+01 0.  1.
         -5    1    3    3    0  502  0.31450988527E+02  0.35272179635E+02 -0.32866249833E+03  0.33206897107E+03  0.41800000000E+01 0.  1.
        -11    1    4    4    0    0 -0.16258160994E+03 -0.82983722779E+02 -0.79387527092E+03  0.81459009564E+03  0.00000000000E+00 0.  1.
         11    1    4    4    0    0 -0.81975905536E+02 -0.31714517062E+02 -0.18989743668E+03  0.20925318669E+03  0.00000000000E+00 0. -1.
</event>
<event>
 8    1  0.7262913E-009  0.2570143E+03  0.7561462E-02  0.1108950E+00
          1   -1    0    0  501    0  0.00000000000E+00  0.00000000000E+00  0.36235680938E+03  0.36235680938E+03  0.00000000000E+00 0. -1.
         -1   -1    0    0    0  501 -0.00000000000E+00 -0.00000000000E+00 -0.18834120181E+03  0.18834120181E+03  0.00000000000E+00 0.  1.
         25    2    1    2    0    0 -0.20575240983E+03 -0.11403767165E+03  0.56176932455E+02  0.27228827792E+03  0.12508562606E+03 0.  0.
         23    2    1    2    0    0  0.20575240983E+03  0.11403767165E+03  0.11783867511E+03  0.27840973327E+03  0.91035056528E+02 0.  0.
          5    1    3    3  502    0 -0.38337664470E+02 -0.89105579325E+02  0.22253813070E+02  0.99610669007E+02  0.41800000000E+01 0.  1.
         -5    1    3    3    0  502 -0.16741474536E+03 -0.24932092326E+02  0.33923119384E+02  0.17267760892E+03  0.41800000000E+01 0.  1.
        -11    1    4    4    0    0  0.11075656228E+03  0.10428774447E+03  0.46064704360E+02  0.15894938415E+03  0.00000000000E+00 0.  1.
         11    1    4    4    0    0  0.94995847555E+02  0.97499271804E+01  0.71773970754E+02  0.11946034911E+03  0.00000000000E+00 0. -1.
</event>
<event>
 8    1  0.7262913E-009  0.1048288E+03  0.7561462E-02  0.1270457E+00
          1   -1    0    0  501    0  0.00000000000E+00  0.00000000000E+00  0.24916932590E+03  0.24916932590E+03  0.00000000000E+00 0. -1.
         -1   -1    0    0    0  501 -0.00000000000E+00 -0.00000000000E+00 -0.54652260089E+02  0.54652260089E+02  0.00000000000E+00 0.  1.
         25    2    1    2    0    0  0.33866154815E+02  0.18253283852E+02  0.86938348078E+02  0.15711877691E+03  0.12509170587E+03 0.  0.
         23    2    1    2    0    0 -0.33866154815E+02 -0.18253283852E+02  0.10757871773E+03  0.14670280908E+03  0.92024099391E+02 0.  0.
          5    1    3    3  502    0 -0.26673340606E+02  0.45739835977E+02  0.70915302839E+02  0.88600520715E+02  0.41800000000E+01 0. -1.
         -5    1    3    3    0  502  0.60539495420E+02 -0.27486552125E+02  0.16023045239E+02  0.68518256196E+02  0.41800000000E+01 0. -1.
        -11    1    4    4    0    0 -0.51189962629E+02 -0.37928592441E+02  0.42613913252E+02  0.76648131100E+02  0.00000000000E+00 0. -1.
         11    1    4    4    0    0  0.17323807814E+02  0.19675308589E+02  0.64964804480E+02  0.70054677977E+02  0.00000000000E+00 0.  1.
</event>
<event>
 8    1  0.7262913E-009  0.1455638E+03  0.7561462E-02  0.1206033E+00
          2   -1    0    0  501    0  0.00000000000E+00  0.00000000000E+00  0.23517530426E+03  0.23517530426E+03  0.00000000000E+00 0. -1.
         -2   -1    0    0    0  501 -0.00000000000E+00 -0.00000000000E+00 -0.99091841599E+02  0.99091841599E+02  0.00000000000E+00 0.  1.
         25    2    1    2    0    0 -0.91063685231E+02 -0.48659590660E+02  0.40831313825E+02  0.16725737595E+03  0.12508990004E+03 0.  0.
         23    2    1    2    0    0  0.91063685231E+02  0.48659590660E+02  0.95252148834E+02  0.16700976991E+03  0.90326855671E+02 0.  0.
          5    1    3    3  502    0 -0.11235619186E+03 -0.10225653230E+02  0.98376423597E+01  0.11332576689E+03  0.41800000000E+01 0. -1.
         -5    1    3    3    0  502  0.21292506634E+02 -0.38433937430E+02  0.30993671466E+02  0.53931609062E+02  0.41800000000E+01 0. -1.
        -11    1    4    4    0    0  0.32012667516E+02 -0.24329126308E+02  0.13192100098E+02  0.42317239671E+02  0.00000000000E+00 0. -1.
         11    1    4    4    0    0  0.59051017715E+02  0.72988716967E+02  0.82060048736E+02  0.12469253023E+03  0.00000000000E+00 0.  1.
</event>
<event>
 8    1  0.7262913E-009  0.1322845E+03  0.7561462E-02  0.1224105E+00
          3   -1    0    0  501    0  0.00000000000E+00  0.00000000000E+00  0.16928912638E+03  0.16928912638E+03  0.00000000000E+00 0. -1.
         -3   -1    0    0    0  501 -0.00000000000E+00 -0.00000000000E+00 -0.18368883765E+03  0.18368883765E+03  0.00000000000E+00 0.  1.
         25    2    1    2    0    0  0.11159133020E+03 -0.35667517499E+02  0.67074558607E+02  0.18404025812E+03  0.12508806264E+03 0.  0.
         23    2    1    2    0    0 -0.11159133020E+03  0.35667517499E+02 -0.81474269877E+02  0.16893770592E+03  0.90427291501E+02 0.  0.
          5    1    3    3  502    0  0.77777183756E+02 -0.65580235096E+02 -0.15004935721E+01  0.10183212376E+03  0.41800000000E+01 0. -1.
         -5    1    3    3    0  502  0.33814146444E+02  0.29912717597E+02  0.68575052179E+02  0.82208134361E+02  0.41800000000E+01 0. -1.
        -11    1    4    4    0    0 -0.85332014099E+02  0.23775855575E+02 -0.10083102571E+03  0.13421527366E+03  0.00000000000E+00 0.  1.
         11    1    4    4    0    0 -0.26259316101E+02  0.11891661924E+02  0.19356755832E+02  0.34722432255E+02  0.00000000000E+00 0. -1.
</event>
<event>
 8    1  0.7262913E-009  0.1767254E+03  0.7561462E-02  0.1171010E+00
          2   -1    0    0  501    0  0.00000000000E+00  0.00000000000E+00  0.83129202277E+02  0.83129202277E+02  0.00000000000E+00 0. -1.
         -2   -1    0    0    0  501 -0.00000000000E+00 -0.00000000000E+00 -0.43270095307E+03  0.43270095307E+03  0.00000000000E+00 0.  1.
         25    2    1    2    0    0  0.10826398133E+03 -0.10421034020E+03 -0.24080473902E+03  0.31018719953E+03  0.12509313235E+03 0.  0.
         23    2    1    2    0    0 -0.10826398133E+03  0.10421034020E+03 -0.10876701177E+03  0.20564295582E+03  0.88757409657E+02 0.  0.
          5    1    3    3  502    0  0.10761576852E+03 -0.12624047716E+03 -0.17730817622E+03  0.24284454588E+03  0.41800000000E+01 0. -1.
         -5    1    3    3    0  502  0.64821280293E+00  0.22030136954E+02 -0.63496562803E+02  0.67342653659E+02  0.41800000000E+01 0. -1.
        -11    1    4    4    0    0 -0.97694504386E+02  0.49803837656E+02 -0.10208163787E+03  0.14981755312E+03  0.00000000000E+00 0.  1.
         11    1    4    4    0    0 -0.10569476940E+02  0.54406502545E+02 -0.66853739040E+01  0.55825402696E+02  0.00000000000E+00 0. -1.
</event>
<event>
 8    1  0.7262913E-009  0.3283827E+03  0.7561462E-02  0.1071855E+00
          1   -1    0    0  501    0  0.00000000000E+00  0.00000000000E+00  0.66660382277E+03  0.66660382277E+03  0.00000000000E+00 0. -1.
         -1   -1    0    0    0  501 -0.00000000000E+00 -0.00000000000E+00 -0.29204063171E+03  0.29204063171E+03  0.00000000000E+00 0.  1.
         25    2    1    2    0    0  0.24388867639E+03  0.21170243862E+03 -0.11583886630E+03  0.36519328188E+03  0.12509149131E+03 0.  0.
         23    2    1    2    0    0 -0.24388867639E+03 -0.21170243862E+03  0.49040205735E+03  0.59345117260E+03  0.85968060408E+02 0.  0.
          5    1    3    3  502    0  0.84699028691E+02  0.50238778303E+02 -0.95927316178E+02  0.13754047657E+03  0.41800000000E+01 0.  1.
         -5    1    3    3    0  502  0.15918964770E+03  0.16146366031E+03 -0.19911550124E+02  0.22765280531E+03  0.41800000000E+01 0.  1.
        -11    1    4    4    0    0 -0.67211115552E+02 -0.18707365449E+02  0.13686905871E+03  0.15362434315E+03  0.00000000000E+00 0. -1.
         11    1    4    4    0    0 -0.17667756084E+03 -0.19299507317E+03  0.35353299864E+03  0.43982682945E+03  0.00000000000E+00 0.  1.
</event>
<event>
 8    1  0.7262913E-009  0.1032887E+03  0.7561462E-02  0.1273528E+00
          1   -1    0    0  501    0  0.00000000000E+00  0.00000000000E+00  0.24427112481E+02  0.24427112481E+02  0.00000000000E+00 0. -1.
         -1   -1    0    0    0  501 -0.00000000000E+00 -0.00000000000E+00 -0.77973652456E+03  0.77973652456E+03  0.00000000000E+00 0.  1.
         25    2    1    2    0    0 -0.82402938643E+02 -0.31678367648E+01 -0.48049200308E+03  0.50330957698E+03  0.12509071018E+03 0.  0.
         23    2    1    2    0    0  0.82402938643E+02  0.31678367648E+01 -0.27481740900E+03  0.30085406005E+03  0.90489102525E+02 0.  0.
          5    1    3    3  502    0 -0.40049751202E+02 -0.91073606374E+01 -0.44680370113E+03  0.44870697156E+03  0.41800000000E+01 0.  1.
         -5    1    3    3    0  502 -0.42353187441E+02  0.59395238726E+01 -0.33688301951E+02  0.54602605419E+02  0.41800000000E+01 0.  1.
        -11    1    4    4    0    0  0.78529746834E+02  0.38023955123E+02 -0.19025981019E+03  0.20931205812E+03  0.00000000000E+00 0. -1.
         11    1    4    4    0    0  0.38731918087E+01 -0.34856118359E+02 -0.84557598805E+02  0.91542001931E+02  0.00000000000E+00 0.  1.
</event>
<event>
 8    1  0.7262913E-009  0.9864919E+02  0.7561462E-02  0.1283162E+00
         -1   -1    0    0    0  501 -0.00000000000E+00  0.00000000000E+00  0.44300097067E+02  0.44300097067E+02  0.00000000000E+00 0.  1.
          1   -1    0    0  501    0  0.00000000000E+00 -0.00000000000E+00 -0.47008266792E+03  0.47008266792E+03  0.00000000000E+00 0. -1.
         25    2    1    2    0    0 -0.51764005148E+01  0.23636544944E+02 -0.39218876478E+03  0.41236609640E+03  0.12509312075E+03 0.  0.
         23    2    1    2    0    0  0.51764005148E+01 -0.23636544944E+02 -0.33593806068E+02  0.10201666859E+03  0.93238272635E+02 0.  0.
          5    1    3    3  502    0  0.23840152921E+02 -0.42347432720E+02 -0.98278808265E+02  0.10971715683E+03  0.41800000000E+01 0. -1.
         -5    1    3    3    0  502 -0.29016553436E+02  0.65983977664E+02 -0.29390995652E+03  0.30264893957E+03  0.41800000000E+01 0. -1.
        -11    1    4    4    0    0  0.19847103249E+02 -0.45699601020E+02  0.10176309198E+02  0.50851925329E+02  0.00000000000E+00 0.  1.
         11    1    4    4    0    0 -0.14670702735E+02  0.22063056076E+02 -0.43770115266E+02  0.51164743257E+02  0.00000000000E+00 0. -1.
</event>
<event>
 8    1  0.7262913E-009  0.1304484E+03  0.7561462E-02  0.1226792E+00
         -1   -1    0    0    0  501 -0.00000000000E+00  0.00000000000E+00  0.18044988713E+02  0.18044988713E+02  0.00000000000E+00 0.  1.
          1   -1    0    0  501    0  0.00000000000E+00 -0.00000000000E+00 -0.10124722950E+04  0.10124722950E+04  0.00000000000E+00 0. -1.
         25    2    1    2    0    0  0.53063075752E+02 -0.59271094671E+02 -0.53026830271E+03  0.55060018858E+03  0.12508933663E+03 0.  0.
         23    2    1    2    0    0 -0.53063075752E+02  0.59271094671E+02 -0.46415900355E+03  0.47991709510E+03  0.92455853907E+02 0.  0.
          5    1    3    3  502    0  0.65870908675E+02 -0.87094976445E+02 -0.32172022528E+03  0.33977328807E+03  0.41800000000E+01 0. -1.
         -5    1    3    3    0  502 -0.12807832922E+02  0.27823881774E+02 -0.20854807743E+03  0.21082690052E+03  0.41800000000E+01 0. -1.
        -11    1    4    4    0    0 -0.50105304816E+02  0.82913210597E+02 -0.39726072373E+03  0.40890246353E+03  0.00000000000E+00 0. -1.
         11    1    4    4    0    0 -0.29577709364E+01 -0.23642115925E+02 -0.66898279825E+02  0.71014631576E+02  0.00000000000E+00 0.  1.
</event>
<event>
 8    1  0.7262913E-009  0.1501047E+03  0.7561462E-02  0.1200344E+00
          2   -1    0    0  501    0  0.00000000000E+00  0.00000000000E+00  0.87330699781E+03  0.87330699781E+03  0.00000000000E+00 0. -1.
         -2   -1    0    0    0  501 -0.00000000000E+00 -0.00000000000E+00 -0.32424928217E+02  0.32424928217E+02  0.00000000000E+00 0.  1.
         25    2    1    2    0    0  0.77082312469E+02 -0.93400808491E+02  0.33196620985E+03  0.37485271971E+03  0.12509037963E+03 0.  0.
         23    2    1    2    0    0 -0.77082312469E+02  0.93400808491E+02  0.50891585975E+03  0.53087920631E+03  0.90399034685E+02 0.  0.
          5    1    3    3  502    0  0.54539461418E+01 -0.98848279802E+02  0.15681949981E+03  0.18550082444E+03  0.41800000000E+01 0. -1.
         -5    1    3    3    0  502  0.71628366327E+02  0.54474713108E+01  0.17514671004E+03  0.18935189527E+03  0.41800000000E+01 0. -1.
        -11    1    4    4    0    0 -0.12496897578E+02  0.49547592983E+02  0.80072195364E+02  0.94987856539E+02  0.00000000000E+00 0.  1.
         11    1    4    4    0    0 -0.64585414891E+02  0.43853215509E+02  0.42884366438E+03  0.43589134977E+03  0.00000000000E+00 0. -1.
</event>
<event>
 8    1  0.7262913E-009  0.8444247E+02  0.7561462E-02  0.1316897E+00
          1   -1    0    0  501    0  0.00000000000E+00  0.00000000000E+00  0.16426451318E+03  0.16426451318E+03  0.00000000000E+00 0. -1.
         -1   -1    0    0    0  501 -0.00000000000E+00 -0.00000000000E+00 -0.18509836024E+03  0.18509836024E+03  0.00000000000E+00 0.  1.
         25    2    1    2    0    0 -0.27684473335E+02  0.71997244387E+01 -0.14453510346E+03  0.19327628905E+03  0.12508821560E+03 0.  0.
         23    2    1    2    0    0  0.27684473335E+02 -0.71997244387E+01  0.12370125640E+03  0.15608658436E+03  0.90789618818E+02 0.  0.
          5    1    3    3  502    0  0.15372745971E+02  0.54466694176E+02 -0.10087121102E+03  0.11573856620E+03  0.41800000000E+01 0. -1.
         -5    1    3    3    0  502 -0.43057219306E+02 -0.47266969737E+02 -0.43663892442E+02  0.77537722856E+02  0.41800000000E+01 0. -1.
        -11    1    4    4    0    0  0.23519723909E+01 -0.19681132032E+02 -0.80124721314E+01  0.21379392925E+02  0.00000000000E+00 0.  1.
         11    1    4    4    0    0  0.25332500944E+02  0.12481407593E+02  0.13171372853E+03  0.13470719143E+03  0.00000000000E+00 0. -1.
</event>
<event>
 8    1  0.7262913E-009  0.1124624E+03  0.7561462E-02  0.1256077E+00
          1   -1    0    0  501    0  0.00000000000E+00  0.00000000000E+00  0.89472852831E+02  0.89472852831E+02  0.00000000000E+00 0. -1.
         -1   -1    0    0    0  501 -0.00000000000E+00 -0.00000000000E+00 -0.17054608867E+03  0.17054608867E+03  0.00000000000E+00 0.  1.
         25    2    1    2    0    0  0.35457596941E+02 -0.50315461138E+01  0.41143765152E+01  0.13017994472E+03  0.12508929721E+03 0.  0.
         23    2    1    2    0    0 -0.35457596941E+02  0.50315461138E+01 -0.85187612351E+02  0.12983899678E+03  0.91206787842E+02 0.  0.
          5    1    3    3  502    0  0.72281223306E+02 -0.36584576981E+02  0.70001810254E+01  0.81421627655E+02  0.41800000000E+01 0. -1.
         -5    1    3    3    0  502 -0.36823626366E+02  0.31553030868E+02 -0.28858045102E+01  0.48758317068E+02  0.41800000000E+01 0. -1.
        -11    1    4    4    0    0  0.85900256100E+01 -0.34739635625E+02 -0.17552609045E+02  0.39858812170E+02  0.00000000000E+00 0. -1.
         11    1    4    4    0    0 -0.44047622551E+02  0.39771181739E+02 -0.67635003306E+02  0.89980184605E+02  0.00000000000E+00 0.  1.
</event>
<event>
 8    1  0.7262913E-009  0.1084584E+03  0.7561462E-02  0.1263452E+00
          3   -1    0    0  501    0  0.00000000000E+00  0.00000000000E+00  0.15800060167E+03  0.15800060167E+03  0.00000000000E+00 0. -1.
         -3   -1    0    0    0  501 -0.00000000000E+00 -0.00000000000E+00 -0.87387840981E+02  0.87387840981E+02  0.00000000000E+00 0.  1.
         25    2    1    2    0    0  0.31368484095E+02 -0.32891268532E+02  0.47053765147E+02  0.14116234174E+03  0.12508769952E+03 0.  0.
         23    2    1    2    0    0 -0.31368484095E+02  0.32891268532E+02  0.23558995538E+02  0.10422610091E+03  0.90786763899E+02 0.  0.
          5    1    3    3  502    0  0.46739206382E+02  0.33164867319E+02  0.45331905843E+02  0.73190955212E+02  0.41800000000E+01 0.  1.
         -5    1    3    3    0  502 -0.15370722287E+02 -0.66056135852E+02  0.17218593035E+01  0.67971386529E+02  0.41800000000E+01 0.  1.
        -11    1    4    4    0    0 -0.40799950018E+02 -0.14411824230E+02 -0.11290920471E+02  0.44719363639E+02  0.00000000000E+00 0.  1.
         11    1    4    4    0    0  0.94314659239E+01  0.47303092762E+02  0.34849916009E+02  0.59506737268E+02  0.00000000000E+00 0. -1.
</event>
<event>
 8    1  0.7262913E-009  0.9353741E+02  0.7561462E-02  0.1294505E+00
         -1   -1    0    0    0  501 -0.00000000000E+00  0.00000000000E+00  0.21679206334E+03  0.21679206334E+03  0.00000000000E+00 0.  1.
          1   -1    0    0  501    0  0.00000000000E+00 -0.00000000000E+00 -0.10394626839E+03  0.10394626839E+03  0.00000000000E+00 0. -1.
         25    2    1    2    0    0 -0.29784713522E+02  0.87522880436E+00  0.16800486722E+03  0.21156831473E+03  0.12509045209E+03 0.  0.
         23    2    1    2    0    0  0.29784713522E+02 -0.87522880436E+00 -0.55159072269E+02  0.10917001699E+03  0.89373789066E+02 0.  0.
          5    1    3    3  502    0  0.34175645627E+02  0.74651208259E+01  0.13431332732E+03  0.13885692305E+03  0.41800000000E+01 0. -1.
         -5    1    3    3    0  502 -0.63960359150E+02 -0.65898920216E+01  0.33691539902E+02  0.72711391682E+02  0.41800000000E+01 0. -1.
        -11    1    4    4    0    0  0.52676051062E+02  0.20081853562E+02 -0.54073698887E+02  0.78115376907E+02  0.00000000000E+00 0.  1.
         11    1    4    4    0    0 -0.22891337539E+02 -0.20957082366E+02 -0.10853733818E+01  0.31054640088E+02  0.00000000000E+00 0. -1.
</event>
<event>
 8    1  0.7262913E-009  0.5600337E+03  0.7561462E-02  0.9991978E-01
          2   -1    0    0  501    0  0.00000000000E+00  0.00000000000E+00  0.57706263769E+03  0.57706263769E+03  0.00000000000E+00 0.  1.
         -2   -1    0    0    0  501 -0.00000000000E+00 -0.00000000000E+00 -0.54709183798E+03  0.54709183798E+03  0.00000000000E+00 0. -1.
         25    2    1    2    0    0 -0.41850918829E+03  0.35750957848E+03 -0.15717950771E+02  0.56467348606E+03  0.12508418160E+03 0.  0.
         23    2    1    2    0    0  0.41850918829E+03 -0.35750957848E+03  0.45688750479E+02  0.55948098962E+03  0.89266323076E+02 0.  0.
          5    1    3    3  502    0 -0.25872580259E+03  0.13906645584E+03 -0.10350295978E+02  0.29394407817E+03  0.41800000000E+01 0.  1.
         -5    1    3    3    0  502 -0.15978338571E+03  0.21844312264E+03 -0.53676547935E+01  0.27072940789E+03  0.41800000000E+01 0.  1.
        -11    1    4    4    0    0  0.36123133456E+03 -0.26976671321E+03  0.55453391753E+02  0.45424358584E+03  0.00000000000E+00 0.  1.
         11    1    4    4    0    0  0.57277853733E+02 -0.87742865273E+02 -0.97646412741E+01  0.10523740378E+03  0.00000000000E+00 0. -1.
</event>
<event>
 8    1  0.7262913E-009  0.1100364E+03  0.7561462E-02  0.1260503E+00
         -1   -1    0    0    0  501 -0.00000000000E+00  0.00000000000E+00  0.22713050456E+03  0.22713050456E+03  0.00000000000E+00 0.  1.
          1   -1    0    0  501    0  0.00000000000E+00 -0.00000000000E+00 -0.57157195798E+02  0.57157195798E+02  0.00000000000E+00 0. -1.
         25    2    1    2    0    0 -0.11684067958E+02  0.24115390611E+02  0.83405406882E+02  0.15271037403E+03  0.12508367971E+03 0.  0.
         23    2    1    2    0    0  0.11684067958E+02 -0.24115390611E+02  0.86567901876E+02  0.13157732633E+03  0.95396654345E+02 0.  0.
          5    1    3    3  502    0  0.41953066964E+01  0.74117314643E+02  0.39631439856E+02  0.84256159141E+02  0.41800000000E+01 0.  1.
         -5    1    3    3    0  502 -0.15879374654E+02 -0.50001924032E+02  0.43773967026E+02  0.68454214884E+02  0.41800000000E+01 0.  1.
        -11    1    4    4    0    0 -0.12904661368E+02  0.30542112315E+02  0.10591238263E+02  0.34806971107E+02  0.00000000000E+00 0. -1.
         11    1    4    4    0    0  0.24588729325E+02 -0.54657502927E+02  0.75976663613E+02  0.96770355222E+02  0.00000000000E+00 0.  1.
</event>
<event>
 8    1  0.7262913E-009  0.1019019E+03  0.7561462E-02  0.1276347E+00
         -2   -1    0    0    0  501 -0.00000000000E+00  0.00000000000E+00  0.50264036221E+02  0.50264036221E+02  0.00000000000E+00 0. -1.
          2   -1    0    0  501    0  0.00000000000E+00 -0.00000000000E+00 -0.35947950236E+03  0.35947950236E+03  0.00000000000E+00 0.  1.
         25    2    1    2    0    0  0.66603144609E+01  0.47963058501E+02 -0.75711112163E+02  0.15402784001E+03  0.12509032027E+03 0.  0.
         23    2    1    2    0    0 -0.66603144609E+01 -0.47963058501E+02 -0.23350435398E+03  0.25571569857E+03  0.92311539899E+02 0.  0.
          5    1    3    3  502    0  0.36875188236E+01  0.74821614123E+02 -0.16139473983E+01  0.75046312109E+02  0.41800000000E+01 0.  1.
         -5    1    3    3    0  502  0.29727956373E+01 -0.26858555622E+02 -0.74097164764E+02  0.78981527904E+02  0.41800000000E+01 0.  1.
        -11    1    4    4    0    0 -0.47774851386E+02 -0.31019940307E+02 -0.15964400131E+03  0.16950185921E+03  0.00000000000E+00 0.  1.
         11    1    4    4    0    0  0.41114536925E+02 -0.16943118194E+02 -0.73860352669E+02  0.86213839360E+02  0.00000000000E+00 0. -1.
</event>
<event>
 8    1  0.7262913E-009  0.1143641E+03  0.7561462E-02  0.1252695E+00
          1   -1    0    0  501    0  0.00000000000E+00  0.00000000000E+00  0.76655485987E+02  0.76655485987E+02  0.00000000000E+00 0. -1.
         -1   -1    0    0    0  501 -0.00000000000E+00 -0.00000000000E+00 -0.18552113096E+03  0.18552113096E+03  0.00000000000E+00 0.  1.
         25    2    1    2    0    0 -0.20678723336E+02 -0.51069506374E+02 -0.65248301551E+02  0.15146323000E+03  0.12509222641E+03 0.  0.
         23    2    1    2    0    0  0.20678723336E+02  0.51069506374E+02 -0.43617343424E+02  0.11071338695E+03  0.85552775067E+02 0.  0.
          5    1    3    3  502    0  0.15977587843E+02 -0.79221785095E+02 -0.13655068028E+02  0.82068921218E+02  0.41800000000E+01 0.  1.
         -5    1    3    3    0  502 -0.36656311179E+02  0.28152278722E+02 -0.51593233524E+02  0.69394308786E+02  0.41800000000E+01 0.  1.
        -11    1    4    4    0    0  0.25814156777E+02 -0.18422479026E+02 -0.93590062869E+01  0.33065834667E+02  0.00000000000E+00 0. -1.
         11    1    4    4    0    0 -0.51354334409E+01  0.69491985400E+02 -0.34258337137E+02  0.77647552279E+02  0.00000000000E+00 0.  1.
</event>
<event>
 8    1  0.7262913E-009  0.1037892E+03  0.7561462E-02  0.1272524E+00
          2   -1    0    0  501    0  0.00000000000E+00  0.00000000000E+00  0.45086583363E+03  0.45086583363E+03  0.00000000000E+00 0. -1.
         -2   -1    0    0    0  501 -0.00000000000E+00 -0.00000000000E+00 -0.28128531318E+02  0.28128531318E+02  0.00000000000E+00 0.  1.
         25    2    1    2    0    0  0.18368108228E+02 -0.73553249534E+01  0.18686463651E+03  0.22573792753E+03  0.12509089233E+03 0.  0.
         23    2    1    2    0    0 -0.18368108228E+02  0.73553249534E+01  0.23587266581E+03  0.25325643742E+03  0.90063424403E+02 0.  0.
          5    1    3    3  502    0 -0.24062614059E+02 -0.52683413742E+02  0.12578308767E+03  0.13854027942E+03  0.41800000000E+01 0.  1.
         -5    1    3    3    0  502  0.42430722287E+02  0.45328088788E+02  0.61081548842E+02  0.87197648111E+02  0.41800000000E+01 0.  1.
        -11    1    4    4    0    0 -0.21876143147E+02  0.44702585915E+02  0.17326662684E+03  0.18027260136E+03  0.00000000000E+00 0. -1.
         11    1    4    4    0    0  0.35080349191E+01 -0.37347260962E+02  0.62606038971E+02  0.72983836059E+02  0.00000000000E+00 0.  1.
</event>
<event>
 8    1  0.7262913E-009  0.1030665E+03  0.7561462E-02  0.1273977E+00
         -2   -1    0    0    0  501 -0.00000000000E+00  0.00000000000E+00  0.42478706373E+02  0.42478706373E+02  0.00000000000E+00 0. -1.
          2   -1    0    0  501    0  0.00000000000E+00 -0.00000000000E+00 -0.83407024826E+03  0.83407024826E+03  0.00000000000E+00 0.  1.
         25    2    1    2    0    0  0.15879241287E+02 -0.42513479066E+02 -0.74835406653E+03  0.76009307066E+03  0.12509244967E+03 0.  0.
         23    2    1    2    0    0 -0.15879241287E+02  0.42513479066E+02 -0.43237475349E+02  0.11645588397E+03  0.98147579849E+02 0.  0.
          5    1    3    3  502    0  0.52551888331E+02 -0.22191999143E+02 -0.65706033715E+03  0.65954525611E+03  0.41800000000E+01 0.  1.
         -5    1    3    3    0  502 -0.36672647044E+02 -0.20321479923E+02 -0.91293729381E+02  0.10054781455E+03  0.41800000000E+01 0.  1.
        -11    1    4    4    0    0 -0.23083859641E+02  0.72434555496E+02 -0.38828024961E+02  0.85365361407E+02  0.00000000000E+00 0.  1.
         11    1    4    4    0    0  0.72046183544E+01 -0.29921076430E+02 -0.44094503873E+01  0.31090522561E+02  0.00000000000E+00 0. -1.
</event>
<event>
 8    1  0.7262913E-009  0.1037375E+03  0.7561462E-02  0.1272627E+00
          1   -1    0    0  501    0  0.00000000000E+00  0.00000000000E+00  0.47295278630E+02  0.47295278630E+02  0.00000000000E+00 0. -1.
         -1   -1    0    0    0  501 -0.00000000000E+00 -0.00000000000E+00 -0.30564319167E+03  0.30564319167E+03  0.00000000000E+00 0.  1.
         25    2    1    2    0    0 -0.47107069188E+02 -0.13329978443E+02 -0.11876054718E+03  0.17929558658E+03  0.12508427363E+03 0.  0.
         23    2    1    2    0    0  0.47107069188E+02  0.13329978443E+02 -0.13958736585E+03  0.17364288371E+03  0.90942036844E+02 0.  0.
          5    1    3    3  502    0 -0.65005136670E+02  0.40708929334E+02 -0.75172794798E+02  0.10747700312E+03  0.41800000000E+01 0. -1.
         -5    1    3    3    0  502  0.17898067482E+02 -0.54038907777E+02 -0.43587752384E+02  0.71818583467E+02  0.41800000000E+01 0. -1.
        -11    1    4    4    0    0  0.48745908387E+02  0.29732419678E+02 -0.14536410198E+03  0.15617587044E+03  0.00000000000E+00 0.  1.
         11    1    4    4    0    0 -0.16388391992E+01 -0.16402441235E+02  0.57767361241E+01  0.17467013271E+02  0.00000000000E+00 0. -1.
</event>
<event>
 8    1  0.7262913E-009  0.8041429E+02  0.7561462E-02  0.1327880E+00
         -3   -1    0    0    0  501 -0.00000000000E+00  0.00000000000E+00  0.18542940929E+03  0.18542940929E+03  0.00000000000E+00 0.  1.
          3   -1    0    0  501    0  0.00000000000E+00 -0.00000000000E+00 -0.14387751873E+03  0.14387751873E+03  0.00000000000E+00 0. -1.
         25    2    1    2    0    0  0.17929984008E+02 -0.68990344989E+02  0.12195156837E+03  0.18867744330E+03  0.12508333444E+03 0.  0.
         23    2    1    2    0    0 -0.17929984008E+02  0.68990344989E+02 -0.80399677810E+02  0.14062948472E+03  0.90727017766E+02 0.  0.
          5    1    3    3  502    0  0.33819938340E+02 -0.63560068619E+02  0.14376119150E+03  0.16083663492E+03  0.41800000000E+01 0.  1.
         -5    1    3    3    0  502 -0.15889954333E+02 -0.54302763695E+01 -0.21809623128E+02  0.27840808378E+02  0.41800000000E+01 0.  1.
        -11    1    4    4    0    0 -0.23156328652E+01  0.15845421155E+02  0.20206537595E+02  0.25782623775E+02  0.00000000000E+00 0.  1.
         11    1    4    4    0    0 -0.15614351142E+02  0.53144923834E+02 -0.10060621541E+03  0.11484686095E+03  0.00000000000E+00 0. -1.
</event>
<event>
 8    1  0.7262913E-009  0.1257551E+03  0.7561462E-02  0.1233894E+00
          2   -1    0    0  501    0  0.00000000000E+00  0.00000000000E+00  0.43001247630E+03  0.43001247630E+03  0.00000000000E+00 0. -1.
         -2   -1    0    0    0  501 -0.00000000000E+00 -0.00000000000E+00 -0.52433132957E+02  0.52433132957E+02  0.00000000000E+00 0.  1.
         25    2    1    2    0    0 -0.88964371927E+02 -0.21592142178E+02  0.28130940884E+03  0.32119005836E+03  0.12508872854E+03 0.  0.
         23    2    1    2    0    0  0.88964371927E+02  0.21592142178E+02  0.96269934495E+02  0.16125555090E+03  0.91403349669E+02 0.  0.
          5    1    3    3  502    0 -0.98290020356E+02  0.28761623621E+02  0.20499240294E+03  0.22918882337E+03  0.41800000000E+01 0.  1.
         -5    1    3    3    0  502  0.93256484288E+01 -0.50353765800E+02  0.76317005900E+02  0.92001234983E+02  0.41800000000E+01 0.  1.
        -11    1    4    4    0    0  0.24304631124E+02  0.22277069173E+02  0.90519830010E+02  0.96337025748E+02  0.00000000000E+00 0. -1.
         11    1    4    4    0    0  0.64659740803E+02 -0.68492699490E+00  0.57501044855E+01  0.64918525148E+02  0.00000000000E+00 0.  1.
</event>
<event>
 8    1  0.7262913E-009  0.8665278E+02  0.7561462E-02  0.1311166E+00
          4   -1    0    0  501    0  0.00000000000E+00  0.00000000000E+00  0.40857938067E+02  0.40857938067E+02  0.00000000000E+00 0. -1.
         -4   -1    0    0    0  501 -0.00000000000E+00 -0.00000000000E+00 -0.33839633150E+03  0.33839633150E+03  0.00000000000E+00 0.  1.
         25    2    1    2    0    0 -0.32600661005E+02 -0.28350466142E+02 -0.19297716533E+03  0.23399702987E+03  0.12509145304E+03 0.  0.
         23    2    1    2    0    0  0.32600661005E+02  0.28350466142E+02 -0.10456122810E+03  0.14525723969E+03  0.91104682824E+02 0.  0.
          5    1    3    3  502    0  0.45216833765E+02 -0.14125163481E+02 -0.41768708818E+02  0.63294389447E+02  0.41800000000E+01 0. -1.
         -5    1    3    3    0  502 -0.77817494770E+02 -0.14225302661E+02 -0.15120845651E+03  0.17070264042E+03  0.41800000000E+01 0. -1.
        -11    1    4    4    0    0  0.52894352101E+01  0.15444759244E+02  0.14859485339E+02  0.22075393937E+02  0.00000000000E+00 0. -1.
         11    1    4    4    0    0  0.27311225795E+02  0.12905706898E+02 -0.11942071344E+03  0.12318184576E+03  0.00000000000E+00 0.  1.
</event>
<event>
 8    1  0.7262913E-009  0.1258785E+03  0.7561462E-02  0.1233703E+00
          1   -1    0    0  501    0  0.00000000000E+00  0.00000000000E+00  0.22516152481E+03  0.22516152481E+03  0.00000000000E+00 0. -1.
         -1   -1    0    0    0  501 -0.00000000000E+00 -0.00000000000E+00 -0.10730751475E+03  0.10730751475E+03  0.00000000000E+00 0.  1.
         25    2    1    2    0    0  0.10221380438E+03  0.11224426721E+02  0.10766576002E+03  0.19445814016E+03  0.12509357630E+03 0.  0.
         23    2    1    2    0    0 -0.10221380438E+03 -0.11224426721E+02  0.10188250030E+02  0.13801089940E+03  0.91485290371E+02 0.  0.
          5    1    3    3  502    0  0.15341674619E+02 -0.41408841014E+02  0.75972473762E+02  0.87973565710E+02  0.41800000000E+01 0. -1.
         -5    1    3    3    0  502  0.86872129758E+02  0.52633267735E+02  0.31693286261E+02  0.10648457445E+03  0.41800000000E+01 0. -1.
        -11    1    4    4    0    0 -0.20692900382E+02 -0.12565868691E+02 -0.36694117737E+02  0.43960840059E+02  0.00000000000E+00 0.  1.
         11    1    4    4    0    0 -0.81520903994E+02  0.13414419701E+01  0.46882367767E+02  0.94050059341E+02  0.00000000000E+00 0. -1.
</event>
<event>
 8    1  0.7262913E-009  0.8003759E+02  0.7561462E-02  0.1328945E+00
          1   -1    0    0  501    0  0.00000000000E+00  0.00000000000E+00  0.70168547297E+03  0.70168547297E+03  0.00000000000E+00 0. -1.
         -1   -1    0    0    0  501 -0.00000000000E+00 -0.00000000000E+00 -0.25887850092E+02  0.25887850092E+02  0.00000000000E+00 0.  1.
         25    2    1    2    0    0 -0.57686372562E+01 -0.62776688244E+02  0.50574327112E+03  0.52478432312E+03  0.12509252475E+03 0.  0.
         23    2    1    2    0    0  0.57686372562E+01  0.62776688244E+02  0.17005435176E+03  0.20278899994E+03  0.90723239483E+02 0.  0.
          5    1    3    3  502    0 -0.27121388566E+01  0.16678025437E+02  0.55157628458E+01  0.18259470678E+02  0.41800000000E+01 0.  1.
         -5    1    3    3    0  502 -0.30564983996E+01 -0.79454713681E+02  0.50022750827E+03  0.50652485244E+03  0.41800000000E+01 0.  1.
        -11    1    4    4    0    0  0.40512404600E+01  0.47528190000E+02  0.17885016718E+03  0.18510192785E+03  0.00000000000E+00 0. -1.
         11    1    4    4    0    0  0.17173967962E+01  0.15248498244E+02 -0.87958154162E+01  0.17687072095E+02  0.00000000000E+00 0.  1.
</event>
<event>
 8    1  0.7262913E-009  0.1505810E+03  0.7561462E-02  0.1199761E+00
         -2   -1    0    0    0  501 -0.00000000000E+00  0.00000000000E+00  0.88335580061E+02  0.88335580061E+02  0.00000000000E+00 0.  1.
          2   -1    0    0  501    0  0.00000000000E+00 -0.00000000000E+00 -0.28132681669E+03  0.28132681669E+03  0.00000000000E+00 0. -1.
         25    2    1    2    0    0 -0.13253939176E+02 -0.11294446274E+03 -0.10073282813E+03  0.19678865239E+03  0.12508618020E+03 0.  0.
         23    2    1    2    0    0  0.13253939176E+02  0.11294446274E+03 -0.92258408492E+02  0.17287374436E+03  0.91878174684E+02 0.  0.
          5    1    3    3  502    0  0.48360118554E+02 -0.23702623294E+02 -0.60346085176E+02  0.80991591006E+02  0.41800000000E+01 0.  1.
         -5    1    3    3    0  502 -0.61614057730E+02 -0.89241839449E+02 -0.40386742957E+02  0.11579706138E+03  0.41800000000E+01 0.  1.
        -11    1    4    4    0    0 -0.17809588730E+02  0.10507401368E+03 -0.44792163027E+02  0.11560306082E+03  0.00000000000E+00 0.  1.
         11    1    4    4    0    0  0.31063527906E+02  0.78704490582E+01 -0.47466245465E+02  0.57270683538E+02  0.00000000000E+00 0. -1.
</event>
<event>
 8    1  0.7262913E-009  0.1346186E+03  0.7561462E-02  0.1220759E+00
         -1   -1    0    0    0  501 -0.00000000000E+00  0.00000000000E+00  0.69131743067E+02  0.69131743067E+02  0.00000000000E+00 0.  1.
          1   -1    0    0  501    0  0.00000000000E+00 -0.00000000000E+00 -0.42579598269E+03  0.42579598269E+03  0.00000000000E+00 0. -1.
         25    2    1    2    0    0 -0.10409434925E+03  0.26291160513E+02 -0.30067729145E+03  0.34289997448E+03  0.12508677085E+03 0.  0.
         23    2    1    2    0    0  0.10409434925E+03 -0.26291160513E+02 -0.55986948175E+02  0.15202775127E+03  0.91929538906E+02 0.  0.
          5    1    3    3  502    0 -0.17334617750E+02 -0.44927968455E+02 -0.58097343091E+02  0.75576352097E+02  0.41800000000E+01 0. -1.
         -5    1    3    3    0  502 -0.86759731504E+02  0.71219128967E+02 -0.24257994836E+03  0.26732362239E+03  0.41800000000E+01 0. -1.
        -11    1    4    4    0    0  0.41273238834E+02 -0.23281231291E+01  0.23790492538E+02  0.47695785310E+02  0.00000000000E+00 0.  1.
         11    1    4    4    0    0  0.62821110420E+02 -0.23963037384E+02 -0.79777440713E+02  0.10433196596E+03  0.00000000000E+00 0. -1.
</event>
<event>
 8    1  0.7262913E-009  0.1260176E+03  0.7561462E-02  0.1233487E+00
         -3   -1    0    0    0  501 -0.00000000000E+00  0.00000000000E+00  0.12390956882E+03  0.12390956882E+03  0.00000000000E+00 0.  1.
          3   -1    0    0  501    0  0.00000000000E+00 -0.00000000000E+00 -0.13577199952E+03  0.13577199952E+03  0.00000000000E+00 0. -1.
         25    2    1    2    0    0 -0.54816514704E+02  0.28963898603E+02 -0.34862385000E+02  0.14389707762E+03  0.12508886982E+03 0.  0.
         23    2    1    2    0    0  0.54816514704E+02 -0.28963898603E+02  0.22999954300E+02  0.11578449072E+03  0.95043635697E+02 0.  0.
          5    1    3    3  502    0 -0.25997755659E+02 -0.49011441106E+02 -0.67631790143E+01  0.56046566791E+02  0.41800000000E+01 0. -1.
         -5    1    3    3    0  502 -0.28818759045E+02  0.77975339710E+02 -0.28099205986E+02  0.87850510828E+02  0.41800000000E+01 0. -1.
        -11    1    4    4    0    0  0.73768976096E+02  0.53500002298E+01  0.10913866602E+02  0.74763606260E+02  0.00000000000E+00 0. -1.
         11    1    4    4    0    0 -0.18952461392E+02 -0.34313898833E+02  0.12086087698E+02  0.41020884459E+02  0.00000000000E+00 0.  1.
</event>
<event>
 8    1  0.7262913E-009  0.2041548E+03  0.7561462E-02  0.1146280E+00
         -2   -1    0    0    0  501 -0.00000000000E+00  0.00000000000E+00  0.45157613444E+03  0.45157613444E+03  0.00000000000E+00 0.  1.
          2   -1    0    0  501    0  0.00000000000E+00 -0.00000000000E+00 -0.12316199765E+03  0.12316199765E+03  0.00000000000E+00 0. -1.
         25    2    1    2    0    0 -0.69664808986E+02  0.18860954153E+03  0.95856352423E+02  0.25546567249E+03  0.12509006658E+03 0.  0.
         23    2    1    2    0    0  0.69664808986E+02 -0.18860954153E+03  0.23255778437E+03  0.31927245959E+03  0.86168646365E+02 0.  0.
          5    1    3    3  502    0  0.37930488425E+01  0.10685772114E+02  0.57996117800E+02  0.59241835092E+02  0.41800000000E+01 0.  1.
         -5    1    3    3    0  502 -0.73457857828E+02  0.17792376941E+03  0.37860234623E+02  0.19622383740E+03  0.41800000000E+01 0.  1.
        -11    1    4    4    0    0  0.10797232016E+01 -0.40009302123E+02  0.10310397310E+03  0.11059990654E+03  0.00000000000E+00 0.  1.
         11    1    4    4    0    0  0.68585085784E+02 -0.14860023940E+03  0.12945381127E+03  0.20867255305E+03  0.00000000000E+00 0. -1.
</event>
<event>
 8    1  0.7262913E-009  0.7127320E+02  0.7561462E-02  0.1355816E+00
          1   -1    0    0  501    0  0.00000000000E+00  0.00000000000E+00  0.46144943707E+03  0.46144943707E+03  0.00000000000E+00 0. -1.
         -1   -1    0    0    0  501 -0.00000000000E+00 -0.00000000000E+00 -0.40099275151E+02  0.40099275151E+02  0.00000000000E+00 0.  1.
         25    2    1    2    0    0  0.47861890542E+02  0.42518910780E+02  0.33347634746E+03  0.36187298972E+03  0.12508784127E+03 0.  0.
         23    2    1    2    0    0 -0.47861890542E+02 -0.42518910780E+02  0.87873814460E+02  0.13967572250E+03  0.87686269439E+02 0.  0.
          5    1    3    3  502    0  0.49804580958E+02  0.23873756657E+02  0.33769614289E+03  0.34220843044E+03  0.41800000000E+01 0. -1.
         -5    1    3    3    0  502 -0.19426904161E+01  0.18645154123E+02 -0.42197954288E+01  0.19664559282E+02  0.41800000000E+01 0. -1.
        -11    1    4    4    0    0 -0.13630201264E+01 -0.12566543357E+02 -0.16955989691E+02  0.21149028872E+02  0.00000000000E+00 0.  1.
         11    1    4    4    0    0 -0.46498870416E+02 -0.29952367423E+02  0.10482980415E+03  0.11852669363E+03  0.00000000000E+00 0. -1.
</event>
<event>
 8    1  0.7262913E-009  0.2124212E+03  0.7561462E-02  0.1139663E+00
         -1   -1    0    0    0  501 -0.00000000000E+00  0.00000000000E+00  0.12962352971E+04  0.12962352971E+04  0.00000000000E+00 0.  1.
          1   -1    0    0  501    0  0.00000000000E+00 -0.00000000000E+00 -0.52101142388E+02  0.52101142388E+02  0.00000000000E+00 0. -1.
         25    2    1    2    0    0  0.15770981383E+03 -0.97844076875E+02  0.26134380725E+03  0.34408492909E+03  0.12509198249E+03 0.  0.
         23    2    1    2    0    0 -0.15770981383E+03  0.97844076875E+02  0.98279034749E+03  0.10042515104E+04  0.90544907719E+02 0.  0.
          5    1    3    3  502    0 -0.60419734871E+01  0.17922112081E+02  0.45377698518E+02  0.49338782594E+02  0.41800000000E+01 0. -1.
         -5    1    3    3    0  502  0.16375178731E+03 -0.11576618896E+03  0.21596610873E+03  0.29474614650E+03  0.41800000000E+01 0. -1.
        -11    1    4    4    0    0 -0.13767834877E+03  0.39546029116E+02  0.74164589942E+03  0.75535280251E+03  0.00000000000E+00 0.  1.
         11    1    4    4    0    0 -0.20031465057E+02  0.58298047758E+02  0.24114444808E+03  0.24889870792E+03  0.00000000000E+00 0. -1.
</event>
<event>
 8    1  0.7262913E-009  0.9231761E+02  0.7561462E-02  0.1297334E+00
          1   -1    0    0  501    0  0.00000000000E+00  0.00000000000E+00  0.24546123557E+03  0.24546123557E+03  0.00000000000E+00 0. -1.
         -1   -1    0    0    0  501 -0.00000000000E+00 -0.00000000000E+00 -0.52270294199E+02  0.52270294199E+02  0.00000000000E+00 0.  1.
         25    2    1    2    0    0  0.76118763231E+01  0.24373144040E+02  0.13735705756E+03  0.18753634292E+03  0.12510366839E+03 0.  0.
         23    2    1    2    0    0 -0.76118763231E+01 -0.24373144040E+02  0.55833883807E+02  0.11019518684E+03  0.91507189937E+02 0.  0.
          5    1    3    3  502    0  0.60825949177E+02  0.51735409738E+01  0.34946694239E+02  0.70464923598E+02  0.41800000000E+01 0.  1.
         -5    1    3    3    0  502 -0.53214072854E+02  0.19199603066E+02  0.10241036332E+03  0.11707141933E+03  0.41800000000E+01 0.  1.
        -11    1    4    4    0    0 -0.29935925766E+02  0.44484539726E+01 -0.12500258997E+02  0.32744539533E+02  0.00000000000E+00 0.  1.
         11    1    4    4    0    0  0.22324049443E+02 -0.28821598013E+02  0.68334142804E+02  0.77450647307E+02  0.00000000000E+00 0. -1.
</event>
<event>
 8    1  0.7262913E-009  0.2113975E+03  0.7561462E-02  0.1140464E+00
         -2   -1    0    0    0  501 -0.00000000000E+00  0.00000000000E+00  0.88381658597E+02  0.88381658597E+02  0.00000000000E+00 0. -1.
          2   -1    0    0  501    0  0.00000000000E+00 -0.00000000000E+00 -0.60145206763E+03  0.60145206763E+03  0.00000000000E+00 0.  1.
         25    2    1    2    0    0  0.78683494810E+02 -0.16962590267E+03 -0.38398317045E+03  0.44503510120E+03  0.12509647038E+03 0.  0.
         23    2    1    2    0    0 -0.78683494810E+02  0.16962590267E+03 -0.12908723858E+03  0.24479862503E+03  0.91097817965E+02 0.  0.
          5    1    3    3  502    0  0.86397446792E+02 -0.18664806675E+03 -0.35495631577E+03  0.41026025659E+03  0.41800000000E+01 0. -1.
         -5    1    3    3    0  502 -0.77139519822E+01  0.17022164079E+02 -0.29026854686E+02  0.34774844616E+02  0.41800000000E+01 0. -1.
        -11    1    4    4    0    0 -0.14249064568E+02  0.10743555755E+03 -0.10757071739E+03  0.15269870369E+03  0.00000000000E+00 0.  1.
         11    1    4    4    0    0 -0.64434430242E+02  0.62190345117E+02 -0.21516521190E+02  0.92099921338E+02  0.00000000000E+00 0. -1.
</event>
<event>
 8    1  0.7262913E-009  0.8618881E+02  0.7561462E-02  0.1312353E+00
         -2   -1    0    0    0  501 -0.00000000000E+00  0.00000000000E+00  0.68501966112E+02  0.68501966112E+02  0.00000000000E+00 0.  1.
          2   -1    0    0  501    0  0.00000000000E+00 -0.00000000000E+00 -0.29430711694E+03  0.29430711694E+03  0.00000000000E+00 0. -1.
         25    2    1    2    0    0 -0.15596901504E+02  0.32053471578E+02 -0.16550529205E+02  0.13111913984E+03  0.12509044904E+03 0.  0.
         23    2    1    2    0    0  0.15596901504E+02 -0.32053471578E+02 -0.20925462163E+03  0.23168994321E+03  0.92854966139E+02 0.  0.
          5    1    3    3  502    0 -0.25929612094E+02 -0.16488027158E+02  0.43298136325E+02  0.53257871081E+02  0.41800000000E+01 0.  1.
         -5    1    3    3    0  502  0.10332710590E+02  0.48541498736E+02 -0.59848665530E+02  0.77861268763E+02  0.41800000000E+01 0.  1.
        -11    1    4    4    0    0 -0.34611267167E+02 -0.64672103821E+01 -0.39942160204E+02  0.53246040105E+02  0.00000000000E+00 0.  1.
         11    1    4    4    0    0  0.50208168671E+02 -0.25586261196E+02 -0.16931246142E+03  0.17844390311E+03  0.00000000000E+00 0. -1.
</event>
<event>
 8    1  0.7262913E-009  0.1151327E+03  0.7561462E-02  0.1251350E+00
         -2   -1    0    0    0  501 -0.00000000000E+00  0.00000000000E+00  0.25717946420E+03  0.25717946420E+03  0.00000000000E+00 0.  1.
          2   -1    0    0  501    0  0.00000000000E+00 -0.00000000000E+00 -0.65454333262E+02  0.65454333262E+02  0.00000000000E+00 0. -1.
         25    2    1    2    0    0  0.53112482807E+02 -0.36758972736E+02  0.13212088140E+03  0.19307041429E+03  0.12509236454E+03 0.  0.
         23    2    1    2    0    0 -0.53112482807E+02  0.36758972736E+02  0.59604249540E+02  0.12956338317E+03  0.95193727681E+02 0.  0.
          5    1    3    3  502    0  0.38917820860E+02 -0.70452027786E+02  0.13383801791E+03  0.15623115067E+03  0.41800000000E+01 0. -1.
         -5    1    3    3    0  502  0.14194661947E+02  0.33693055050E+02 -0.17171365144E+01  0.36839263622E+02  0.41800000000E+01 0. -1.
        -11    1    4    4    0    0 -0.46748092743E+02 -0.23468564202E+02  0.40189159099E+02  0.65964582845E+02  0.00000000000E+00 0.  1.
         11    1    4    4    0    0 -0.63643900641E+01  0.60227536938E+02  0.19415090441E+02  0.63598800329E+02  0.00000000000E+00 0. -1.
</event>
<event>
 8    1  0.7262913E-009  0.1390727E+03  0.7561462E-02  0.1214582E+00
         -2   -1    0    0    0  501 -0.00000000000E+00  0.00000000000E+00  0.72348875936E+02  0.72348875936E+02  0.00000000000E+00 0.  1.
          2   -1    0    0  501    0  0.00000000000E+00 -0.00000000000E+00 -0.35315267463E+03  0.35315267463E+03  0.00000000000E+00 0. -1.
         25    2    1    2    0    0 -0.78329278175E+02  0.58580969874E+02 -0.64807476577E+02  0.17150706460E+03  0.12508980109E+03 0.  0.
         23    2    1    2    0    0  0.78329278175E+02 -0.58580969874E+02 -0.21599632212E+03  0.25399448597E+03  0.91058123652E+02 0.  0.
          5    1    3    3  502    0  0.28376209401E+02 -0.61907062145E+01 -0.29746744032E+02  0.41783672457E+02  0.41800000000E+01 0. -1.
         -5    1    3    3    0  502 -0.10670548758E+03  0.64771676089E+02 -0.35060732545E+02  0.12972339214E+03  0.41800000000E+01 0. -1.
        -11    1    4    4    0    0  0.75968712242E+02 -0.11579363703E+02 -0.83941745592E+02  0.11380484856E+03  0.00000000000E+00 0.  1.
         11    1    4    4    0    0  0.23605659326E+01 -0.47001606171E+02 -0.13205457653E+03  0.14018963741E+03  0.00000000000E+00 0. -1.
</event>
<event>
 8    1  0.7262913E-009  0.8550382E+02  0.7561462E-02  0.1314120E+00
         -1   -1    0    0    0  501 -0.00000000000E+00  0.00000000000E+00  0.11167267964E+03  0.11167267964E+03  0.00000000000E+00 0.  1.
          1   -1    0    0  501    0  0.00000000000E+00 -0.00000000000E+00 -0.16855468673E+03  0.16855468673E+03  0.00000000000E+00 0. -1.
         25    2    1    2    0    0 -0.39123891686E+02  0.40679491810E+02 -0.97957543140E+02  0.16860979673E+03  0.12509229928E+03 0.  0.
         23    2    1    2    0    0  0.39123891686E+02 -0.40679491810E+02  0.41075536056E+02  0.11161756964E+03  0.87096396230E+02 0.  0.
          5    1    3    3  502    0  0.21580105039E+02  0.47096615103E+02  0.13220264609E+01  0.51990501456E+02  0.41800000000E+01 0. -1.
         -5    1    3    3    0  502 -0.60703996725E+02 -0.64171232933E+01 -0.99279569601E+02  0.11661929527E+03  0.41800000000E+01 0. -1.
        -11    1    4    4    0    0  0.13020691632E+02 -0.57264111001E+01  0.61732102370E+02  0.63349685538E+02  0.00000000000E+00 0.  1.
         11    1    4    4    0    0  0.26103200054E+02 -0.34953080710E+02 -0.20656566315E+02  0.48267884106E+02  0.00000000000E+00 0. -1.
</event>
<event>
 8    1  0.7262913E-009  0.2604189E+03  0.7561462E-02  0.1106892E+00
         -1   -1    0    0    0  501 -0.00000000000E+00  0.00000000000E+00  0.25092921310E+03  0.25092921310E+03  0.00000000000E+00 0.  1.
          1   -1    0    0  501    0  0.00000000000E+00 -0.00000000000E+00 -0.29256774821E+03  0.29256774821E+03  0.00000000000E+00 0. -1.
         25    2    1    2    0    0  0.56226234279E+02 -0.24079265392E+03 -0.42212327666E+02  0.28030658657E+03  0.12508960895E+03 0.  0.
         23    2    1    2    0    0 -0.56226234279E+02  0.24079265392E+03  0.57379256216E+00  0.26319037474E+03  0.90146283973E+02 0.  0.
          5    1    3    3  502    0 -0.30102060358E+02 -0.60675850885E+02 -0.43345399844E+02  0.80523220291E+02  0.41800000000E+01 0.  1.
         -5    1    3    3    0  502  0.86328294637E+02 -0.18011680303E+03  0.11330721779E+01  0.19978336628E+03  0.41800000000E+01 0.  1.
        -11    1    4    4    0    0 -0.65123991562E+02  0.23081995372E+03 -0.17776287762E+02  0.24048904698E+03  0.00000000000E+00 0. -1.
         11    1    4    4    0    0  0.88977572822E+01  0.99727001977E+01  0.18350080324E+02  0.22701327754E+02  0.00000000000E+00 0.  1.
</event>
<event>
 8    1  0.7262913E-009  0.2643937E+03  0.7561462E-02  0.1104532E+00
         -1   -1    0    0    0  501 -0.00000000000E+00  0.00000000000E+00  0.62083838733E+03  0.62083838733E+03  0.00000000000E+00 0.  1.
          1   -1    0    0  501    0  0.00000000000E+00 -0.00000000000E+00 -0.12543693336E+03  0.12543693336E+03  0.00000000000E+00 0. -1.
         25    2    1    2    0    0 -0.58177886196E+02 -0.24958568526E+03  0.20887914670E+03  0.35349091671E+03  0.12509056536E+03 0.  0.
         23    2    1    2    0    0  0.58177886196E+02  0.24958568526E+03  0.28652230727E+03  0.39278440397E+03  0.80665201367E+02 0.  0.
          5    1    3    3  502    0  0.20730324129E+02 -0.24432261923E+02  0.70744887023E+02  0.77775273712E+02  0.41800000000E+01 0.  1.
         -5    1    3    3    0  502 -0.78908210325E+02 -0.22515342334E+03  0.13813425968E+03  0.27571564300E+03  0.41800000000E+01 0.  1.
        -11    1    4    4    0    0  0.13462116963E+02  0.21040884737E+02  0.71806985354E+02  0.76027564536E+02  0.00000000000E+00 0.  1.
         11    1    4    4    0    0  0.44715769234E+02  0.22854480052E+03  0.21471532192E+03  0.31675683944E+03  0.00000000000E+00 0. -1.
</event>
<event>
 8    1  0.7262913E-009  0.1094267E+03  0.7561462E-02  0.1261635E+00
          1   -1    0    0  501    0  0.00000000000E+00  0.00000000000E+00  0.90619254666E+02  0.90619254666E+02  0.00000000000E+00 0. -1.
         -1   -1    0    0    0  501 -0.00000000000E+00 -0.00000000000E+00 -0.15064238620E+03  0.15064238620E+03  0.00000000000E+00 0.  1.
         25    2    1    2    0    0  0.42009169890E+02  0.54251792037E+01 -0.30612994334E+02  0.13556988034E+03  0.12509130310E+03 0.  0.
         23    2    1    2    0    0 -0.42009169890E+02 -0.54251792037E+01 -0.29410137196E+02  0.10569176052E+03  0.92258274140E+02 0.  0.
          5    1    3    3  502    0  0.80241600369E+02  0.27696896052E+02 -0.32733863990E+02  0.91075851533E+02  0.41800000000E+01 0.  1.
         -5    1    3    3    0  502 -0.38232430480E+02 -0.22271716848E+02  0.21208696559E+01  0.44494028811E+02  0.41800000000E+01 0.  1.
        -11    1    4    4    0    0 -0.30074753315E+02  0.35652814203E+02  0.98019687229E+01  0.47662275841E+02  0.00000000000E+00 0. -1.
         11    1    4    4    0    0 -0.11934416575E+02 -0.41077993407E+02 -0.39212105919E+02  0.58029484677E+02  0.00000000000E+00 0.  1.
</event>
<event>
 8    1  0.7262913E-009  0.1391584E+03  0.7561462E-02  0.1214466E+00
          2   -1    0    0  501    0  0.00000000000E+00  0.00000000000E+00  0.10517215901E+04  0.10517215901E+04  0.00000000000E+00 0. -1.
         -2   -1    0    0    0  501 -0.00000000000E+00 -0.00000000000E+00 -0.29002030521E+02  0.29002030521E+02  0.00000000000E+00 0.  1.
         25    2    1    2    0    0  0.11139563238E+03  0.53858352490E+02  0.36272222029E+03  0.40314454242E+03  0.12509358078E+03 0.  0.
         23    2    1    2    0    0 -0.11139563238E+03 -0.53858352490E+02  0.65999733928E+03  0.67757907819E+03  0.90593654790E+02 0.  0.
          5    1    3    3  502    0  0.94951735722E+02  0.51493714891E+02  0.12689135612E+03  0.16669230171E+03  0.41800000000E+01 0.  1.
         -5    1    3    3    0  502  0.16443896656E+02  0.23646375986E+01  0.23583086416E+03  0.23645224072E+03  0.41800000000E+01 0.  1.
        -11    1    4    4    0    0 -0.12567941793E+03 -0.57708952054E+02  0.60706532276E+03  0.62261861949E+03  0.00000000000E+00 0. -1.
         11    1    4    4    0    0  0.14283785554E+02  0.38505995638E+01  0.52932016528E+02  0.54960458700E+02  0.00000000000E+00 0.  1.
</event>
<event>
 8    1  0.7262913E-009  0.1067352E+03  0.7561462E-02  0.1266738E+00
          1   -1    0    0  501    0  0.00000000000E+00  0.00000000000E+00  0.26770491481E+02  0.26770491481E+02  0.00000000000E+00 0. -1.
         -1   -1    0    0    0  501 -0.00000000000E+00 -0.00000000000E+00 -0.47792301840E+03  0.47792301840E+03  0.00000000000E+00 0.  1.
         25    2    1    2    0    0  0.29524033423E+02 -0.87770098248E+01 -0.23476025747E+03  0.26778401053E+03  0.12508874193E+03 0.  0.
         23    2    1    2    0    0 -0.29524033423E+02  0.87770098248E+01 -0.21639226946E+03  0.23690949936E+03  0.91388140112E+02 0.  0.
          5    1    3    3  502    0  0.14025122077E+02 -0.66890634448E+02 -0.12068006938E+03  0.13875234258E+03  0.41800000000E+01 0. -1.
         -5    1    3    3    0  502  0.15498911346E+02  0.58113624624E+02 -0.11408018809E+03  0.12903166795E+03  0.41800000000E+01 0. -1.
        -11    1    4    4    0    0  0.25154536216E+02 -0.97463653261E+01 -0.13155616264E+03  0.13429358234E+03  0.00000000000E+00 0.  1.
         11    1    4    4    0    0 -0.54678569640E+02  0.18523375151E+02 -0.84836106813E+02  0.10261591701E+03  0.00000000000E+00 0. -1.
</event>
<event>
 8    1  0.7262913E-009  0.2099273E+03  0.7561462E-02  0.1141624E+00
          2   -1    0    0  501    0  0.00000000000E+00  0.00000000000E+00  0.12471543021E+04  0.12471543021E+04  0.00000000000E+00 0. -1.
         -2   -1    0    0    0  501 -0.00000000000E+00 -0.00000000000E+00 -0.36388785160E+02  0.36388785160E+02  0.00000000000E+00 0.  1.
         25    2    1    2    0    0  0.17511030248E+01 -0.18303813451E+03  0.61216903194E+03  0.65107967661E+03  0.12509115307E+03 0.  0.
         23    2    1    2    0    0 -0.17511030248E+01  0.18303813451E+03  0.59859648499E+03  0.63246341064E+03  0.90477560279E+02 0.  0.
          5    1    3    3  502    0  0.38275210936E+02 -0.17377172932E+03  0.55178170845E+03  0.57977765727E+03  0.41800000000E+01 0.  1.
         -5    1    3    3    0  502 -0.36524107911E+02 -0.92664051850E+01  0.60387323494E+02  0.71302019344E+02  0.41800000000E+01 0.  1.
        -11    1    4    4    0    0  0.44004032517E+02  0.82722683163E+02  0.29003357323E+03  0.30479316066E+03  0.00000000000E+00 0.  1.
         11    1    4    4    0    0 -0.45755135542E+02  0.10031545135E+03  0.30856291176E+03  0.32767024998E+03  0.00000000000E+00 0. -1.
</event>
<event>
 8    1  0.7262913E-009  0.1496300E+03  0.7561462E-02  0.1200928E+00
         -1   -1    0    0    0  501 -0.00000000000E+00  0.00000000000E+00  0.54506032326E+02  0.54506032326E+02  0.00000000000E+00 0.  1.
          1   -1    0    0  501    0  0.00000000000E+00 -0.00000000000E+00 -0.81026466326E+03  0.81026466326E+03  0.00000000000E+00 0. -1.
         25    2    1    2    0    0 -0.60898022925E+02 -0.13519603064E+03 -0.60450143302E+03  0.63486710998E+03  0.12509088261E+03 0.  0.
         23    2    1    2    0    0  0.60898022925E+02  0.13519603064E+03 -0.15125719792E+03  0.22990358561E+03  0.89388941477E+02 0.  0.
          5    1    3    3  502    0 -0.33306383532E+02 -0.44639543248E+02 -0.45119786483E+03  0.45464160570E+03  0.41800000000E+01 0.  1.
         -5    1    3    3    0  502 -0.27591639393E+02 -0.90556487391E+02 -0.15330356819E+03  0.18022550428E+03  0.41800000000E+01 0.  1.
        -11    1    4    4    0    0  0.32191712572E+02  0.83945729766E+02 -0.14529176115E+03  0.17085926303E+03  0.00000000000E+00 0.  1.
         11    1    4    4    0    0  0.28706310353E+02  0.51250300873E+02 -0.59654367681E+01  0.59044322584E+02  0.00000000000E+00 0. -1.
</event>
<event>
 8    1  0.7262913E-009  0.9449286E+02  0.7561462E-02  0.1292322E+00
          1   -1    0    0  501    0  0.00000000000E+00  0.00000000000E+00  0.55007223520E+02  0.55007223520E+02  0.00000000000E+00 0. -1.
         -1   -1    0    0    0  501 -0.00000000000E+00 -0.00000000000E+00 -0.32465888676E+03  0.32465888676E+03  0.00000000000E+00 0.  1.
         25    2    1    2    0    0 -0.53308261192E+02  0.31487858081E+02 -0.21701171558E+03  0.25802162048E+03  0.12509123078E+03 0.  0.
         23    2    1    2    0    0  0.53308261192E+02 -0.31487858081E+02 -0.52639947662E+02  0.12164448980E+03  0.90516086370E+02 0.  0.
          5    1    3    3  502    0 -0.54023471294E+02  0.46250430370E+01 -0.22353477487E+03  0.23005476402E+03  0.41800000000E+01 0. -1.
         -5    1    3    3    0  502  0.71521010191E+00  0.26862815044E+02  0.65230592887E+01  0.27966856456E+02  0.41800000000E+01 0. -1.
        -11    1    4    4    0    0  0.92397606965E+00 -0.51369613733E+02 -0.37490878322E+02  0.63602334110E+02  0.00000000000E+00 0. -1.
         11    1    4    4    0    0  0.52384285123E+02  0.19881755652E+02 -0.15149069340E+02  0.58042155693E+02  0.00000000000E+00 0.  1.
</event>
<event>
 8    1  0.7262913E-009  0.1123283E+03  0.7561462E-02  0.1256318E+00
         -2   -1    0    0    0  501 -0.00000000000E+00  0.00000000000E+00  0.38809702521E+02  0.38809702521E+02  0.00000000000E+00 0. -1.
          2   -1    0    0  501    0  0.00000000000E+00 -0.00000000000E+00 -0.60258013920E+03  0.60258013920E+03  0.00000000000E+00 0.  1.
         25    2    1    2    0    0 -0.87198343690E+02  0.56480205300E+02 -0.25175718763E+03  0.29970536001E+03  0.12509219226E+03 0.  0.
         23    2    1    2    0    0  0.87198343690E+02 -0.56480205300E+02 -0.31201324905E+03  0.34168448171E+03  0.92749408218E+02 0.  0.
          5    1    3    3  502    0 -0.21384644239E+02 -0.28462961442E+01  0.93954835159E+01  0.23898784937E+02  0.41800000000E+01 0. -1.
         -5    1    3    3    0  502 -0.65813699451E+02  0.59326501444E+02 -0.26115267115E+03  0.27580657508E+03  0.41800000000E+01 0. -1.
        -11    1    4    4    0    0  0.44961807431E+02 -0.19514435915E+01 -0.23074384904E+03  0.23509167601E+03  0.00000000000E+00 0.  1.
         11    1    4    4    0    0  0.42236536258E+02 -0.54528761708E+02 -0.81269400008E+02  0.10659280570E+03  0.00000000000E+00 0. -1.
</event>
<event>
 8    1  0.7262913E-009  0.9689722E+02  0.7561462E-02  0.1286959E+00
         -1   -1    0    0    0  501 -0.00000000000E+00  0.00000000000E+00  0.36857514951E+03  0.36857514951E+03  0.00000000000E+00 0.  1.
          1   -1    0    0  501    0  0.00000000000E+00 -0.00000000000E+00 -0.42662809546E+02  0.42662809546E+02  0.00000000000E+00 0. -1.
         25    2    1    2    0    0  0.11070546614E+02 -0.43168136409E+02  0.25614901215E+03  0.28852602913E+03  0.12509559567E+03 0.  0.
         23    2    1    2    0    0 -0.11070546614E+02  0.43168136409E+02  0.69763327814E+02  0.12271192993E+03  0.90582839628E+02 0.  0.
          5    1    3    3  502    0 -0.29664166807E+02 -0.58219109289E+02  0.22651053003E+03  0.23578362983E+03  0.41800000000E+01 0.  1.
         -5    1    3    3    0  502  0.40734713422E+02  0.15050972880E+02  0.29638482122E+02  0.52742399307E+02  0.41800000000E+01 0.  1.
        -11    1    4    4    0    0  0.28672898048E+02  0.41032876453E+01  0.59320002024E+02  0.66013897719E+02  0.00000000000E+00 0.  1.
         11    1    4    4    0    0 -0.39743444662E+02  0.39064848764E+02  0.10443325790E+02  0.56698032207E+02  0.00000000000E+00 0. -1.
</event>
<event>
 8    1  0.7262913E-009  0.1360355E+03  0.7561462E-02  0.1218765E+00
         -1   -1    0    0    0  501 -0.00000000000E+00  0.00000000000E+00  0.38649391285E+03  0.38649391285E+03  0.00000000000E+00 0. -1.
          1   -1    0    0  501    0  0.00000000000E+00 -0.00000000000E+00 -0.74415534699E+02  0.74415534699E+02  0.00000000000E+00 0.  1.
         25    2    1    2    0    0  0.81245300562E+02 -0.40446059632E+02  0.38555882417E+02  0.15929276729E+03  0.12510374510E+03 0.  0.
         23    2    1    2    0    0 -0.81245300562E+02  0.40446059632E+02  0.27352249573E+03  0.30161668026E+03  0.89002154676E+02 0.  0.
          5    1    3    3  502    0  0.11403960648E+03 -0.24748708495E+02  0.20766789173E+02  0.11860127466E+03  0.41800000000E+01 0. -1.
         -5    1    3    3    0  502 -0.32794305921E+02 -0.15697351138E+02  0.17789093245E+02  0.40691492625E+02  0.41800000000E+01 0. -1.
        -11    1    4    4    0    0 -0.38212947326E+02  0.60240476385E+02  0.21381942410E+03  0.22540605684E+03  0.00000000000E+00 0. -1.
         11    1    4    4    0    0 -0.43032353235E+02 -0.19794416753E+02  0.59703071631E+02  0.76210623417E+02  0.00000000000E+00 0.  1.
</event>
<event>
 8    1  0.7262913E-009  0.1239197E+03  0.7561462E-02  0.1236767E+00
          1   -1    0    0  501    0  0.00000000000E+00  0.00000000000E+00  0.18929698391E+03  0.18929698391E+03  0.00000000000E+00 0. -1.
         -1   -1    0    0    0  501 -0.00000000000E+00 -0.00000000000E+00 -0.89919247323E+02  0.89919247323E+02  0.00000000000E+00 0.  1.
         25    2    1    2    0    0 -0.58781976773E+02  0.13219282970E+02  0.12010182308E+02  0.13936372099E+03  0.12509169442E+03 0.  0.
         23    2    1    2    0    0  0.58781976773E+02 -0.13219282970E+02  0.87367554279E+02  0.13985251024E+03  0.91079991463E+02 0.  0.
          5    1    3    3  502    0  0.37354243944E+02 -0.11824966912E+02  0.41235982449E+01  0.39618756235E+02  0.41800000000E+01 0.  1.
         -5    1    3    3    0  502 -0.96136220717E+02  0.25044249882E+02  0.78865840634E+01  0.99744964756E+02  0.41800000000E+01 0.  1.
        -11    1    4    4    0    0  0.62625245598E+02  0.27289299104E+02  0.50606463495E+02  0.85015536105E+02  0.00000000000E+00 0.  1.
         11    1    4    4    0    0 -0.38432688247E+01 -0.40508582074E+02  0.36761090783E+02  0.54836974137E+02  0.00000000000E+00 0. -1.
</event>
<event>
 8    1  0.7262913E-009  0.1132115E+03  0.7561462E-02  0.1254736E+00
         -1   -1    0    0    0  501 -0.00000000000E+00  0.00000000000E+00  0.17226502179E+03  0.17226502179E+03  0.00000000000E+00 0.  1.
          1   -1    0    0  501    0  0.00000000000E+00 -0.00000000000E+00 -0.11496479955E+03  0.11496479955E+03  0.00000000000E+00 0. -1.
         25    2    1    2    0    0  0.60540567916E+02 -0.65523205800E+01 -0.36191488401E+02  0.14375395216E+03  0.12508909489E+03 0.  0.
         23    2    1    2    0    0 -0.60540567916E+02  0.65523205800E+01  0.93491710647E+02  0.14347586918E+03  0.90202726173E+02 0.  0.
          5    1    3    3  502    0  0.79175806662E+02  0.27192425332E+02  0.88920760171E+01  0.84289843824E+02  0.41800000000E+01 0.  1.
         -5    1    3    3    0  502 -0.18635238746E+02 -0.33744745912E+02 -0.45083564418E+02  0.59464108338E+02  0.41800000000E+01 0.  1.
        -11    1    4    4    0    0 -0.51937487732E+02  0.42348153777E+02  0.38462307409E+02  0.77267184829E+02  0.00000000000E+00 0. -1.
         11    1    4    4    0    0 -0.86030801845E+01 -0.35795833197E+02  0.55029403239E+02  0.66208684353E+02  0.00000000000E+00 0.  1.
</event>
<event>
 8    1  0.7262913E-009  0.8705039E+02  0.7561462E-02  0.1310156E+00
          1   -1    0    0  501    0  0.00000000000E+00  0.00000000000E+00  0.41826247057E+03  0.41826247057E+03  0.00000000000E+00 0. -1.
         -1   -1    0    0    0  501 -0.00000000000E+00 -0.00000000000E+00 -0.32974861859E+02  0.32974861859E+02  0.00000000000E+00 0.  1.
         25    2    1    2    0    0  0.73311726162E+01 -0.36714670994E+02  0.27263065923E+03  0.30228524844E+03  0.12508869620E+03 0.  0.
         23    2    1    2    0    0 -0.73311726162E+01  0.36714670994E+02  0.11265694948E+03  0.14895208399E+03  0.89963447573E+02 0.  0.
          5    1    3    3  502    0 -0.37303782478E+02  0.27293365854E+02  0.14869501538E+03  0.15576963762E+03  0.41800000000E+01 0.  1.
         -5    1    3    3    0  502  0.44634955095E+02 -0.64008036848E+02  0.12393564385E+03  0.14651561082E+03  0.41800000000E+01 0.  1.
        -11    1    4    4    0    0  0.10923084615E+02  0.26415234179E+02 -0.53648310200E+01  0.29083668719E+02  0.00000000000E+00 0.  1.
         11    1    4    4    0    0 -0.18254257232E+02  0.10299436815E+02  0.11802178050E+03  0.11986841527E+03  0.00000000000E+00 0. -1.
</event>
<event>
 8    1  0.7262913E-009  0.2120846E+03  0.7561462E-02  0.1139926E+00
          1   -1    0    0  501    0  0.00000000000E+00  0.00000000000E+00  0.15166631697E+03  0.15166631697E+03  0.00000000000E+00 0. -1.
         -1   -1    0    0    0  501 -0.00000000000E+00 -0.00000000000E+00 -0.31669614360E+03  0.31669614360E+03  0.00000000000E+00 0.  1.
         25    2    1    2    0    0 -0.18991817651E+03  0.11847877390E+01 -0.94384784384E+02  0.24622457879E+03  0.12509091969E+03 0.  0.
         23    2    1    2    0    0  0.18991817651E+03 -0.11847877390E+01 -0.70645042245E+02  0.22213788177E+03  0.91017575414E+02 0.  0.
          5    1    3    3  502    0  0.65162788667E+01 -0.22210056405E+02 -0.30052070123E+02  0.38162125392E+02  0.41800000000E+01 0. -1.
         -5    1    3    3    0  502 -0.19643445537E+03  0.23394844144E+02 -0.64332714261E+02  0.20806245340E+03  0.41800000000E+01 0. -1.
        -11    1    4    4    0    0  0.10058165920E+03 -0.36101129378E+02 -0.67041390351E+02  0.12615272383E+03  0.00000000000E+00 0.  1.
         11    1    4    4    0    0  0.89336517303E+02  0.34916341639E+02 -0.36036518942E+01  0.95985157938E+02  0.00000000000E+00 0. -1.
</event>
<event>
 8    1  0.7262913E-009  0.1126693E+03  0.7561462E-02  0.1255705E+00
          2   -1    0    0  501    0  0.00000000000E+00  0.00000000000E+00  0.12102956289E+03  0.12102956289E+03  0.00000000000E+00 0. -1.
         -2   -1    0    0    0  501 -0.00000000000E+00 -0.00000000000E+00 -0.18212932624E+03  0.18212932624E+03  0.00000000000E+00 0.  1.
         25    2    1    2    0    0  0.74280928370E+02 -0.64495698772E+02 -0.73658823797E+01  0.15931181753E+03  0.12509455425E+03 0.  0.
         23    2    1    2    0    0 -0.74280928370E+02  0.64495698772E+02 -0.53733880970E+02  0.14384707160E+03  0.90151531127E+02 0.  0.
          5    1    3    3  502    0  0.78853613555E+01 -0.11200240954E+02 -0.58285433341E+02  0.60019067477E+02  0.41800000000E+01 0.  1.
         -5    1    3    3    0  502  0.66395567014E+02 -0.53295457818E+02  0.50919550961E+02  0.99292750054E+02  0.41800000000E+01 0.  1.
        -11    1    4    4    0    0 -0.62934420774E+02  0.82943542948E+02 -0.23635123827E+02  0.10676606068E+03  0.00000000000E+00 0. -1.
         11    1    4    4    0    0 -0.11346507596E+02 -0.18447844176E+02 -0.30098757143E+02  0.37081010921E+02  0.00000000000E+00 0.  1.
</event>
<event>
 8    1  0.7262913E-009  0.1085637E+03  0.7561462E-02  0.1263253E+00
         -2   -1    0    0    0  501 -0.00000000000E+00  0.00000000000E+00  0.23474255713E+02  0.23474255713E+02  0.00000000000E+00 0.  1.
          2   -1    0    0  501    0  0.00000000000E+00 -0.00000000000E+00 -0.63662521485E+03  0.63662521485E+03  0.00000000000E+00 0. -1.
         25    2    1    2    0    0 -0.18144124010E+02 -0.36623214750E+02 -0.41573267692E+03  0.43606345840E+03  0.12508881646E+03 0.  0.
         23    2    1    2    0    0  0.18144124010E+02  0.36623214750E+02 -0.19741828222E+03  0.22403601216E+03  0.97712268906E+02 0.  0.
          5    1    3    3  502    0  0.13116966882E+02  0.39512265823E+02 -0.79037916080E+02  0.89430076311E+02  0.41800000000E+01 0. -1.
         -5    1    3    3    0  502 -0.31261090892E+02 -0.76135480573E+02 -0.33669476084E+03  0.34663338209E+03  0.41800000000E+01 0. -1.
        -11    1    4    4    0    0 -0.28223509024E+02  0.36963891498E+02 -0.44974644782E+02  0.64696324545E+02  0.00000000000E+00 0.  1.
         11    1    4    4    0    0  0.46367633035E+02 -0.34067674805E+00 -0.15244363743E+03  0.15933968761E+03  0.00000000000E+00 0. -1.
</event>
<event>
 8    1  0.7262913E-009  0.1144336E+03  0.7561462E-02  0.1252573E+00
         -2   -1    0    0    0  501 -0.00000000000E+00  0.00000000000E+00  0.85287901549E+03  0.85287901549E+03  0.00000000000E+00 0.  1.
          2   -1    0    0  501    0  0.00000000000E+00 -0.00000000000E+00 -0.34558755125E+02  0.34558755125E+02  0.00000000000E+00 0. -1.
         25    2    1    2    0    0 -0.60825482855E+02  0.23519395893E+01  0.72852020584E+03  0.74168295893E+03  0.12508657112E+03 0.  0.
         23    2    1    2    0    0  0.60825482855E+02 -0.23519395893E+01  0.89800054528E+02  0.14575481168E+03  0.97340353147E+02 0.  0.
          5    1    3    3  502    0 -0.82113697293E+02 -0.18222230148E+02  0.67618564634E+03  0.68140972232E+03  0.41800000000E+01 0.  1.
         -5    1    3    3    0  502  0.21288214438E+02  0.20574169737E+02  0.52334559500E+02  0.60273236618E+02  0.41800000000E+01 0.  1.
        -11    1    4    4    0    0  0.76687267309E+02 -0.30430296822E+02  0.66534961564E+02  0.10598981575E+03  0.00000000000E+00 0. -1.
         11    1    4    4    0    0 -0.15861784454E+02  0.28078357233E+02  0.23265092965E+02  0.39764995934E+02  0.00000000000E+00 0.  1.
</event>
<event>
 8    1  0.7262913E-009  0.8767767E+02  0.7561462E-02  0.1308575E+00
         -1   -1    0    0    0  501 -0.00000000000E+00  0.00000000000E+00  0.79427795094E+01  0.79427795094E+01  0.00000000000E+00 0.  1.
          1   -1    0    0  501    0  0.00000000000E+00 -0.00000000000E+00 -0.23352804371E+04  0.23352804371E+04  0.00000000000E+00 0. -1.
         25    2    1    2    0    0 -0.32115593211E+00  0.41245436074E+02 -0.18435214800E+04  0.18482207550E+04  0.12508885954E+03 0.  0.
         23    2    1    2    0    0  0.32115593211E+00 -0.41245436074E+02 -0.48381617754E+03  0.49500246158E+03  0.96166803948E+02 0.  0.
          5    1    3    3  502    0 -0.19477219118E+02  0.47612413523E+02 -0.17917893740E+04  0.17925325484E+04  0.41800000000E+01 0. -1.
         -5    1    3    3    0  502  0.19156063186E+02 -0.63669774493E+01 -0.51732106073E+02  0.55688206627E+02  0.41800000000E+01 0. -1.
        -11    1    4    4    0    0  0.26787204368E+02 -0.63263797901E+02 -0.28041231782E+03  0.28870561205E+03  0.00000000000E+00 0. -1.
         11    1    4    4    0    0 -0.26466048436E+02  0.22018361828E+02 -0.20340385972E+03  0.20629684953E+03  0.00000000000E+00 0.  1.
</event>
<event>
 8    1  0.7262913E-009  0.1198906E+03  0.7561462E-02  0.1243278E+00
          2   -1    0    0  501    0  0.00000000000E+00  0.00000000000E+00  0.56109322364E+03  0.56109322364E+03  0.00000000000E+00 0.  1.
         -2   -1    0    0    0  501 -0.00000000000E+00 -0.00000000000E+00 -0.33745457236E+02  0.33745457236E+02  0.00000000000E+00 0. -1.
         25    2    1    2    0    0 -0.28190492424E+02  0.46317683002E+02  0.41500014923E+03  0.43682190004E+03  0.12509283302E+03 0.  0.
         23    2    1    2    0    0  0.28190492424E+02 -0.46317683002E+02  0.11234761718E+03  0.15801678084E+03  0.96991155883E+02 0.  0.
          5    1    3    3  502    0  0.41700891739E+02  0.40872178839E+02  0.11919610663E+03  0.13279564606E+03  0.41800000000E+01 0. -1.
         -5    1    3    3    0  502 -0.69891384163E+02  0.54455041631E+01  0.29580404259E+03  0.30402625398E+03  0.41800000000E+01 0. -1.
        -11    1    4    4    0    0 -0.36300480364E+02 -0.19037886257E+02  0.44829313284E+02  0.60743998200E+02  0.00000000000E+00 0.  1.
         11    1    4    4    0    0  0.64490972788E+02 -0.27279796745E+02  0.67518303896E+02  0.97272782640E+02  0.00000000000E+00 0. -1.
</event>
<event>
 8    1  0.7262913E-009  0.1027772E+03  0.7561462E-02  0.1274562E+00
         -2   -1    0    0    0  501 -0.00000000000E+00  0.00000000000E+00  0.96543304568E+02  0.96543304568E+02  0.00000000000E+00 0.  1.
          2   -1    0    0  501    0  0.00000000000E+00 -0.00000000000E+00 -0.17261850146E+03  0.17261850146E+03  0.00000000000E+00 0. -1.
         25    2    1    2    0    0  0.61683865066E+02 -0.31981560924E+02 -0.50911137962E+02  0.15187727923E+03  0.12508814703E+03 0.  0.
         23    2    1    2    0    0 -0.61683865066E+02  0.31981560924E+02 -0.25164058934E+02  0.11728452680E+03  0.91075303551E+02 0.  0.
          5    1    3    3  502    0  0.36383452913E+02 -0.54272925088E+02  0.23909856468E+02  0.69702651885E+02  0.41800000000E+01 0.  1.
         -5    1    3    3    0  502  0.25300412154E+02  0.22291364164E+02 -0.74820994430E+02  0.82174627343E+02  0.41800000000E+01 0.  1.
        -11    1    4    4    0    0 -0.28256420075E+02  0.57487333722E+02  0.68719301330E+01  0.64423925973E+02  0.00000000000E+00 0. -1.
         11    1    4    4    0    0 -0.33427444991E+02 -0.25505772799E+02 -0.32035989067E+02  0.52860600831E+02  0.00000000000E+00 0.  1.
</event>
<event>
 8    1  0.7262913E-009  0.4247414E+03  0.7561462E-02  0.1035534E+00
         -1   -1    0    0    0  501 -0.00000000000E+00  0.00000000000E+00  0.64798041677E+03  0.64798041677E+03  0.00000000000E+00 0.  1.
          1   -1    0    0  501    0  0.00000000000E+00 -0.00000000000E+00 -0.31487473942E+03  0.31487473942E+03  0.00000000000E+00 0. -1.
         25    2    1    2    0    0  0.40877597401E+03  0.93671568926E+02  0.30355908570E+03  0.53260626033E+03  0.12509656382E+03 0.  0.
         23    2    1    2    0    0 -0.40877597401E+03 -0.93671568926E+02  0.29546591648E+02  0.43024889585E+03  0.91481973919E+02 0.  0.
          5    1    3    3  502    0  0.13820951314E+03  0.44841020034E+02  0.37795703666E+02  0.15019512048E+03  0.41800000000E+01 0. -1.
         -5    1    3    3    0  502  0.27056646087E+03  0.48830548892E+02  0.26576338204E+03  0.38241113985E+03  0.41800000000E+01 0. -1.
        -11    1    4    4    0    0 -0.19732765547E+03  0.13538780261E+01  0.94086037396E+01  0.19755646895E+03  0.00000000000E+00 0.  1.
         11    1    4    4    0    0 -0.21144831854E+03 -0.95025446952E+02  0.20137987909E+02  0.23269242690E+03  0.00000000000E+00 0. -1.
</event>
<event>
 8    1  0.7262913E-009  0.1397756E+03  0.7561462E-02  0.1213631E+00
         -2   -1    0    0    0  501 -0.00000000000E+00  0.00000000000E+00  0.13643732572E+03  0.13643732572E+03  0.00000000000E+00 0.  1.
          2   -1    0    0  501    0  0.00000000000E+00 -0.00000000000E+00 -0.17834929396E+03  0.17834929396E+03  0.00000000000E+00 0. -1.
         25    2    1    2    0    0  0.78076517551E+02 -0.61647203801E+02  0.27453007281E+02  0.16216218199E+03  0.12508631152E+03 0.  0.
         23    2    1    2    0    0 -0.78076517551E+02  0.61647203801E+02 -0.69364975513E+02  0.15262443769E+03  0.92662823302E+02 0.  0.
          5    1    3    3  502    0  0.51286296226E+02  0.32168962202E+02  0.21295213458E+02  0.64312400250E+02  0.41800000000E+01 0. -1.
         -5    1    3    3    0  502  0.26790221325E+02 -0.93816166002E+02  0.61577938227E+01  0.97849781741E+02  0.41800000000E+01 0. -1.
        -11    1    4    4    0    0  0.47891525724E-01  0.40194717527E+02 -0.58362282508E+02  0.70864473682E+02  0.00000000000E+00 0. -1.
         11    1    4    4    0    0 -0.78124409077E+02  0.21452486273E+02 -0.11002693005E+02  0.81759964006E+02  0.00000000000E+00 0.  1.
</event>
<event>
 8    1  0.7262913E-009  0.1893041E+03  0.7561462E-02  0.1159090E+00
          2   -1    0    0  501    0  0.00000000000E+00  0.00000000000E+00  0.47138338204E+02  0.47138338204E+02  0.00000000000E+00 0. -1.
         -2   -1    0    0    0  501 -0.00000000000E+00 -0.00000000000E+00 -0.83782113649E+03  0.83782113649E+03  0.00000000000E+00 0.  1.
         25    2    1    2    0    0 -0.88304674947E+02  0.13688906183E+03 -0.35459291337E+03  0.40977893996E+03  0.12508522917E+03 0.  0.
         23    2    1    2    0    0  0.88304674947E+02 -0.13688906183E+03 -0.43608988491E+03  0.47518053473E+03  0.95319578237E+02 0.  0.
          5    1    3    3  502    0 -0.93246758739E+02  0.56243426646E+02 -0.27705883540E+03  0.29772025751E+03  0.41800000000E+01 0.  1.
         -5    1    3    3    0  502  0.49420837922E+01  0.80645635188E+02 -0.77534077971E+02  0.11205868246E+03  0.41800000000E+01 0.  1.
        -11    1    4    4    0    0  0.55920172125E+02 -0.88007121784E+01 -0.12845965130E+03  0.14037948638E+03  0.00000000000E+00 0. -1.
         11    1    4    4    0    0  0.32384502822E+02 -0.12808834966E+03 -0.30763023361E+03  0.33480104834E+03  0.00000000000E+00 0.  1.
</event>
<event>
 8    1  0.7262913E-009  0.1152776E+03  0.7561462E-02  0.1251097E+00
         -1   -1    0    0    0  501 -0.00000000000E+00  0.00000000000E+00  0.55719429922E+02  0.55719429922E+02  0.00000000000E+00 0.  1.
          1   -1    0    0  501    0  0.00000000000E+00 -0.00000000000E+00 -0.33232503308E+03  0.33232503308E+03  0.00000000000E+00 0. -1.
         25    2    1    2    0    0 -0.24721164333E+02  0.56598882377E+02 -0.23008631536E+03  0.26907654053E+03  0.12509157723E+03 0.  0.
         23    2    1    2    0    0  0.24721164333E+02 -0.56598882377E+02 -0.46519287795E+02  0.11896792247E+03  0.90414340608E+02 0.  0.
          5    1    3    3  502    0  0.40825321295E+02  0.60882231328E+02 -0.12960160225E+03  0.14895435763E+03  0.41800000000E+01 0. -1.
         -5    1    3    3    0  502 -0.65546485628E+02 -0.42833489508E+01 -0.10048471311E+03  0.12012218290E+03  0.41800000000E+01 0. -1.
        -11    1    4    4    0    0  0.30334143729E+02  0.38744811877E+01  0.13638512854E+02  0.33484039677E+02  0.00000000000E+00 0.  1.
         11    1    4    4    0    0 -0.56129793952E+01 -0.60473363565E+02 -0.60157800649E+02  0.85483882794E+02  0.00000000000E+00 0. -1.
</event>
<event>
 8    1  0.7262913E-009  0.1189012E+03  0.7561462E-02  0.1244921E+00
          4   -1    0    0  501    0  0.00000000000E+00  0.00000000000E+00  0.16001954902E+03  0.16001954902E+03  0.00000000000E+00 0.  1.
         -4   -1    0    0    0  501 -0.00000000000E+00 -0.00000000000E+00 -0.12309780295E+03  0.12309780295E+03  0.00000000000E+00 0. -1.
         25    2    1    2    0    0 -0.65877906187E+02 -0.56766140841E+02  0.42371351816E+02  0.15813434856E+03  0.12509535351E+03 0.  0.
         23    2    1    2    0    0  0.65877906187E+02  0.56766140841E+02 -0.54496057491E+01  0.12498300341E+03  0.89603346298E+02 0.  0.
          5    1    3    3  502    0 -0.15459285493E+02 -0.65040865197E+02 -0.26707817540E+02  0.72111604969E+02  0.41800000000E+01 0.  1.
         -5    1    3    3    0  502 -0.50418620694E+02  0.82747243552E+01  0.69079169356E+02  0.86022743590E+02  0.41800000000E+01 0.  1.
        -11    1    4    4    0    0  0.55046000085E+02 -0.64455155232E+01  0.15441759426E+02  0.57533075095E+02  0.00000000000E+00 0.  1.
         11    1    4    4    0    0  0.10831906101E+02  0.63211656365E+02 -0.20891365175E+02  0.67449928310E+02  0.00000000000E+00 0. -1.
</event>
<event>
 8    1  0.7262913E-009  0.6513313E+02  0.7561462E-02  0.1377471E+00
          1   -1    0    0  501    0  0.00000000000E+00  0.00000000000E+00  0.33570890400E+03  0.33570890400E+03  0.00000000000E+00 0. -1.
         -1   -1    0    0    0  501 -0.00000000000E+00 -0.00000000000E+00 -0.35088979856E+02  0.35088979856E+02  0.00000000000E+00 0.  1.
         25    2    1    2    0    0  0.58620488163E+01  0.21370397210E+02  0.15463599551E+03  0.20012817001E+03  0.12509170969E+03 0.  0.
         23    2    1    2    0    0 -0.58620488163E+01 -0.21370397210E+02  0.14598392863E+03  0.17066971384E+03  0.85590807395E+02 0.  0.
          5    1    3    3  502    0 -0.19380787712E+02  0.97670888583E+01 -0.15942490152E+02  0.27251538477E+02  0.41800000000E+01 0. -1.
         -5    1    3    3    0  502  0.25242836529E+02  0.11603308352E+02  0.17057848566E+03  0.17287663154E+03  0.41800000000E+01 0. -1.
        -11    1    4    4    0    0  0.22596750689E+02 -0.40080545192E+02  0.11778355281E+03  0.12645168468E+03  0.00000000000E+00 0.  1.
         11    1    4    4    0    0 -0.28458799505E+02  0.18710147982E+02  0.28200375819E+02  0.44218029163E+02  0.00000000000E+00 0. -1.
</event>
<event>
 8    1  0.7262913E-009  0.2758453E+03  0.7561462E-02  0.1097980E+00
         -2   -1    0    0    0  501 -0.00000000000E+00  0.00000000000E+00  0.19134259441E+03  0.19134259441E+03  0.00000000000E+00 0.  1.
          2   -1    0    0  501    0  0.00000000000E+00 -0.00000000000E+00 -0.68515834548E+03  0.68515834548E+03  0.00000000000E+00 0. -1.
         25    2    1    2    0    0  0.16875237680E+03 -0.21432027867E+03 -0.50683300502E+03  0.58901424814E+03  0.12509013950E+03 0.  0.
         23    2    1    2    0    0 -0.16875237680E+03  0.21432027867E+03  0.13017253961E+02  0.28748669175E+03  0.89825400145E+02 0.  0.
          5    1    3    3  502    0  0.19979884845E+02 -0.59510024611E+02 -0.23115835245E+03  0.23956689074E+03  0.41800000000E+01 0.  1.
         -5    1    3    3    0  502  0.14877249196E+03 -0.15481025405E+03 -0.27567465257E+03  0.34944735740E+03  0.41800000000E+01 0.  1.
        -11    1    4    4    0    0 -0.66854523385E+02  0.10592214279E+03 -0.36874789035E+02  0.13057096804E+03  0.00000000000E+00 0. -1.
         11    1    4    4    0    0 -0.10189785342E+03  0.10839813588E+03  0.49892042997E+02  0.15691572371E+03  0.00000000000E+00 0.  1.
</event>
<event>
 8    1  0.7262913E-009  0.1260403E+03  0.7561462E-02  0.1233452E+00
          1   -1    0    0  501    0  0.00000000000E+00  0.00000000000E+00  0.11982075823E+04  0.11982075823E+04  0.00000000000E+00 0. -1.
         -1   -1    0    0    0  501 -0.00000000000E+00 -0.00000000000E+00 -0.30081242953E+02  0.30081242953E+02  0.00000000000E+00 0.  1.
         25    2    1    2    0    0 -0.88265530437E+02 -0.57609334193E+02  0.98319986645E+03  0.99671460127E+03  0.12509348408E+03 0.  0.
         23    2    1    2    0    0  0.88265530437E+02  0.57609334193E+02  0.18492647289E+03  0.23157422397E+03  0.91209547648E+02 0.  0.
          5    1    3    3  502    0 -0.44094793253E+02 -0.51629137665E+02  0.89705934087E+03  0.89963484375E+03  0.41800000000E+01 0. -1.
         -5    1    3    3    0  502 -0.44170737184E+02 -0.59801965281E+01  0.86140525579E+02  0.97079757523E+02  0.41800000000E+01 0. -1.
        -11    1    4    4    0    0 -0.17277296800E+02  0.21838457349E+02  0.33524485592E+02  0.43581123647E+02  0.00000000000E+00 0.  1.
         11    1    4    4    0    0  0.10554282724E+03  0.35770876845E+02  0.15140198730E+03  0.18799310032E+03  0.00000000000E+00 0. -1.
</event>
<event>
 8    1  0.7262913E-009  0.1029026E+03  0.7561462E-02  0.1274308E+00
          2   -1    0    0  501    0  0.00000000000E+00  0.00000000000E+00  0.47061395687E+03  0.47061395687E+03  0.00000000000E+00 0. -1.
         -2   -1    0    0    0  501 -0.00000000000E+00 -0.00000000000E+00 -0.38215935254E+02  0.38215935254E+02  0.00000000000E+00 0.  1.
         25    2    1    2    0    0  0.39268537435E+02 -0.25483431377E+02  0.35751975424E+03  0.38165186133E+03  0.12508535199E+03 0.  0.
         23    2    1    2    0    0 -0.39268537435E+02  0.25483431377E+02  0.74878267381E+02  0.12717803079E+03  0.91520889877E+02 0.  0.
          5    1    3    3  502    0 -0.37750231854E+02  0.54759759014E+01  0.49593700456E+02  0.62706250422E+02  0.41800000000E+01 0.  1.
         -5    1    3    3    0  502  0.77018769288E+02 -0.30959407278E+02  0.30792605378E+03  0.31894561091E+03  0.41800000000E+01 0.  1.
        -11    1    4    4    0    0  0.14080894773E+02 -0.12499665971E+02 -0.89118902579E+01  0.20831107387E+02  0.00000000000E+00 0.  1.
         11    1    4    4    0    0 -0.53349432208E+02  0.37983097348E+02  0.83790157639E+02  0.10634692341E+03  0.00000000000E+00 0. -1.
</event>
<event>
 8    1  0.7262913E-009  0.1061948E+03  0.7561462E-02  0.1267783E+00
          1   -1    0    0  501    0  0.00000000000E+00  0.00000000000E+00  0.17211866156E+03  0.17211866156E+03  0.00000000000E+00 0. -1.
         -1   -1    0    0    0  501 -0.00000000000E+00 -0.00000000000E+00 -0.89226689951E+02  0.89226689951E+02  0.00000000000E+00 0.  1.
         25    2    1    2    0    0  0.54599128752E+02 -0.12124599786E+02  0.67626776241E+02  0.15280446216E+03  0.12509097493E+03 0.  0.
         23    2    1    2    0    0 -0.54599128752E+02  0.12124599786E+02  0.15265195370E+02  0.10854088936E+03  0.91760708871E+02 0.  0.
          5    1    3    3  502    0 -0.27540770854E+02  0.27199249320E+02 -0.60000757720E+00  0.38937457954E+02  0.41800000000E+01 0. -1.
         -5    1    3    3    0  502  0.82139899606E+02 -0.39323849106E+02  0.68226783818E+02  0.11386700420E+03  0.41800000000E+01 0. -1.
        -11    1    4    4    0    0 -0.23297622156E+02  0.36030784349E+02  0.42706241483E+02  0.60537754175E+02  0.00000000000E+00 0. -1.
         11    1    4    4    0    0 -0.31301506595E+02 -0.23906184563E+02 -0.27441046114E+02  0.48003135182E+02  0.00000000000E+00 0.  1.
</event>
<event>
 8    1  0.7262913E-009  0.1779139E+03  0.7561462E-02  0.1169837E+00
         -1   -1    0    0    0  501 -0.00000000000E+00  0.00000000000E+00  0.82825939787E+03  0.82825939787E+03  0.00000000000E+00 0.  1.
          1   -1    0    0  501    0  0.00000000000E+00 -0.00000000000E+00 -0.47002605075E+02  0.47002605075E+02  0.00000000000E+00 0. -1.
         25    2    1    2    0    0  0.12952299440E+03 -0.92881161681E+02  0.32928263325E+03  0.38662182774E+03  0.12508504649E+03 0.  0.
         23    2    1    2    0    0 -0.12952299440E+03  0.92881161681E+02  0.45197415955E+03  0.48864017520E+03  0.95317698509E+02 0.  0.
          5    1    3    3  502    0  0.99719862516E+02 -0.29830018289E+01  0.22219621979E+03  0.24360127621E+03  0.41800000000E+01 0.  1.
         -5    1    3    3    0  502  0.29803131882E+02 -0.89898159852E+02  0.10708641345E+03  0.14302055153E+03  0.41800000000E+01 0.  1.
        -11    1    4    4    0    0 -0.47838312652E+02  0.20541622406E+02  0.28124215802E+03  0.28602030323E+03  0.00000000000E+00 0.  1.
         11    1    4    4    0    0 -0.81684681746E+02  0.72339539274E+02  0.17073200152E+03  0.20261987197E+03  0.00000000000E+00 0. -1.
</event>
<event>
 8    1  0.7262913E-009  0.1154343E+03  0.7561462E-02  0.1250825E+00
          2   -1    0    0  501    0  0.00000000000E+00  0.00000000000E+00  0.33127672391E+03  0.33127672391E+03  0.00000000000E+00 0. -1.
         -2   -1    0    0    0  501 -0.00000000000E+00 -0.00000000000E+00 -0.52149533103E+02  0.52149533103E+02  0.00000000000E+00 0.  1.
         25    2    1    2    0    0  0.54036024193E+02  0.44230809306E+02  0.12746996703E+03  0.19176259721E+03  0.12509214521E+03 0.  0.
         23    2    1    2    0    0 -0.54036024193E+02 -0.44230809306E+02  0.15165722378E+03  0.19166365980E+03  0.94121137698E+02 0.  0.
          5    1    3    3  502    0  0.69505534127E+02 -0.22654112359E+02  0.53004461517E+02  0.90394543097E+02  0.41800000000E+01 0.  1.
         -5    1    3    3    0  502 -0.15469509933E+02  0.66884921665E+02  0.74465505512E+02  0.10136805411E+03  0.41800000000E+01 0.  1.
        -11    1    4    4    0    0  0.10058675230E+02 -0.15845126239E+02  0.10680948552E+03  0.10844589052E+03  0.00000000000E+00 0. -1.
         11    1    4    4    0    0 -0.64094699424E+02 -0.28385683066E+02  0.44847738253E+02  0.83217769279E+02  0.00000000000E+00 0.  1.
</event>
<event>
 8    1  0.7262913E-009  0.1736873E+03  0.7561462E-02  0.1174056E+00
          2   -1    0    0  501    0  0.00000000000E+00  0.00000000000E+00  0.36047586851E+02  0.36047586851E+02  0.00000000000E+00 0. -1.
         -2   -1    0    0    0  501 -0.00000000000E+00 -0.00000000000E+00 -0.11197842162E+04  0.11197842162E+04  0.00000000000E+00 0.  1.
         25    2    1    2    0    0 -0.73906017351E+02 -0.14473079801E+03 -0.43271860349E+03  0.47885498784E+03  0.12509039244E+03 0.  0.
         23    2    1    2    0    0  0.73906017351E+02  0.14473079801E+03 -0.65101802582E+03  0.67697681517E+03  0.89799972379E+02 0.  0.
          5    1    3    3  502    0 -0.53832159932E+02 -0.12535041340E+03 -0.42925295394E+03  0.45042890499E+03  0.41800000000E+01 0.  1.
         -5    1    3    3    0  502 -0.20073857420E+02 -0.19380384612E+02 -0.34656495444E+01  0.28426082849E+02  0.41800000000E+01 0.  1.
        -11    1    4    4    0    0  0.90354723879E+02  0.13790078959E+03 -0.61612183644E+03  0.63779833900E+03  0.00000000000E+00 0.  1.
         11    1    4    4    0    0 -0.16448706528E+02  0.68300084243E+01 -0.34896189389E+02  0.39178476175E+02  0.00000000000E+00 0. -1.
</event>
<event>
 8    1  0.7262913E-009  0.1048023E+03  0.7561462E-02  0.1270510E+00
         -1   -1    0    0    0  501 -0.00000000000E+00  0.00000000000E+00  0.71862527338E+02  0.71862527338E+02  0.00000000000E+00 0.  1.
          1   -1    0    0  501    0  0.00000000000E+00 -0.00000000000E+00 -0.31195182159E+03  0.31195182159E+03  0.00000000000E+00 0. -1.
         25    2    1    2    0    0  0.82579651059E+02  0.51591174684E+02 -0.17205669364E+03  0.23394942413E+03  0.12509108341E+03 0.  0.
         23    2    1    2    0    0 -0.82579651059E+02 -0.51591174684E+02 -0.68032600610E+02  0.14986492480E+03  0.91378404806E+02 0.  0.
          5    1    3    3  502    0  0.90455604804E+02  0.44815976673E+02 -0.52484949484E+02  0.11385442691E+03  0.41800000000E+01 0. -1.
         -5    1    3    3    0  502 -0.78759537447E+01  0.67751980116E+01 -0.11957174416E+03  0.12009499722E+03  0.41800000000E+01 0. -1.
        -11    1    4    4    0    0 -0.45293799533E+02 -0.28291701229E+02  0.15379892247E+02  0.55574182136E+02  0.00000000000E+00 0.  1.
         11    1    4    4    0    0 -0.37285851526E+02 -0.23299473456E+02 -0.83412492857E+02  0.94290742663E+02  0.00000000000E+00 0. -1.
</event>
<event>
 8    1  0.7262913E-009  0.1033789E+03  0.7561462E-02  0.1273347E+00
         -2   -1    0    0    0  501 -0.00000000000E+00  0.00000000000E+00  0.13712403622E+02  0.13712403622E+02  0.00000000000E+00 0.  1.
          2   -1    0    0  501    0  0.00000000000E+00 -0.00000000000E+00 -0.14424743508E+04  0.14424743508E+04  0.00000000000E+00 0. -1.
         25    2    1    2    0    0  0.35340369849E+01 -0.31780259900E+02 -0.12078347069E+04  0.12147141987E+04  0.12507370192E+03 0.  0.
         23    2    1    2    0    0 -0.35340369849E+01  0.31780259900E+02 -0.22092724021E+03  0.24147255569E+03  0.92074292542E+02 0.  0.
          5    1    3    3  502    0  0.53938608360E+02 -0.19585990950E+02 -0.94672099893E+03  0.94846776789E+03  0.41800000000E+01 0. -1.
         -5    1    3    3    0  502 -0.50404571375E+02 -0.12194268950E+02 -0.26111370802E+03  0.26624643082E+03  0.41800000000E+01 0. -1.
        -11    1    4    4    0    0  0.35723142408E+02 -0.12657982430E+02 -0.77451640043E+02  0.86227164908E+02  0.00000000000E+00 0.  1.
         11    1    4    4    0    0 -0.39257179393E+02  0.44438242331E+02 -0.14347560016E+03  0.15524539078E+03  0.00000000000E+00 0. -1.
</event>
<event>
 8    1  0.7262913E-009  0.1370719E+03  0.7561462E-02  0.1217324E+00
         -2   -1    0    0    0  501 -0.00000000000E+00  0.00000000000E+00  0.27501641199E+02  0.27501641199E+02  0.00000000000E+00 0.  1.
          2   -1    0    0  501    0  0.00000000000E+00 -0.00000000000E+00 -0.98845619234E+03  0.98845619234E+03  0.00000000000E+00 0. -1.
         25    2    1    2    0    0  0.11140840614E+03 -0.31207258986E+02 -0.64710521962E+03  0.66916242468E+03  0.12508980521E+03 0.  0.
         23    2    1    2    0    0 -0.11140840614E+03  0.31207258986E+02 -0.31384933152E+03  0.34679540886E+03  0.91541939788E+02 0.  0.
          5    1    3    3  502    0  0.64455627463E+02 -0.50689076745E+02 -0.57504685682E+03  0.58087887752E+03  0.41800000000E+01 0.  1.
         -5    1    3    3    0  502  0.46952778678E+02  0.19481817759E+02 -0.72058362803E+02  0.88283547156E+02  0.41800000000E+01 0.  1.
        -11    1    4    4    0    0 -0.81930692022E+02  0.58648607656E+02 -0.26485241663E+03  0.28337095841E+03  0.00000000000E+00 0. -1.
         11    1    4    4    0    0 -0.29477714119E+02 -0.27441348669E+02 -0.48996914888E+02  0.63424450451E+02  0.00000000000E+00 0.  1.
</event>
<event>
 8    1  0.7262913E-009  0.3058719E+03  0.7561462E-02  0.1082342E+00
         -2   -1    0    0    0  501 -0.00000000000E+00  0.00000000000E+00  0.17734550650E+03  0.17734550650E+03  0.00000000000E+00 0.  1.
          2   -1    0    0  501    0  0.00000000000E+00 -0.00000000000E+00 -0.77584751084E+03  0.77584751084E+03  0.00000000000E+00 0. -1.
         25    2    1    2    0    0  0.28524419003E+03 -0.10011373728E+03 -0.64590941349E+02  0.33347630151E+03  0.12508975028E+03 0.  0.
         23    2    1    2    0    0 -0.28524419003E+03  0.10011373728E+03 -0.53391106300E+03  0.61971671584E+03  0.87182431487E+02 0.  0.
          5    1    3    3  502    0  0.92409300513E+02 -0.49117368792E+02 -0.82274588353E+02  0.13318624188E+03  0.41800000000E+01 0. -1.
         -5    1    3    3    0  502  0.19283488951E+03 -0.50996368485E+02  0.17683647004E+02  0.20029005962E+03  0.41800000000E+01 0. -1.
        -11    1    4    4    0    0 -0.74884673604E+02  0.83164149680E+00 -0.79433244042E+02  0.10916980456E+03  0.00000000000E+00 0.  1.
         11    1    4    4    0    0 -0.21035951642E+03  0.99282095780E+02 -0.45447781896E+03  0.51054691128E+03  0.00000000000E+00 0. -1.
</event>
<event>
 8    1  0.7262913E-009  0.1315015E+03  0.7561462E-02  0.1225245E+00
          1   -1    0    0  501    0  0.00000000000E+00  0.00000000000E+00  0.81577919971E+02  0.81577919971E+02  0.00000000000E+00 0. -1.
         -1   -1    0    0    0  501 -0.00000000000E+00 -0.00000000000E+00 -0.29148827074E+03  0.29148827074E+03  0.00000000000E+00 0.  1.
         25    2    1    2    0    0 -0.10672903414E+03 -0.39317375304E+01 -0.13746113394E+03  0.21435686806E+03  0.12508700273E+03 0.  0.
         23    2    1    2    0    0  0.10672903414E+03  0.39317375304E+01 -0.72449216829E+02  0.15870932266E+03  0.92375401438E+02 0.  0.
          5    1    3    3  502    0 -0.11538353013E+03 -0.36770212034E+02 -0.13288381792E+03  0.17983600581E+03  0.41800000000E+01 0. -1.
         -5    1    3    3    0  502  0.86544959922E+01  0.32838474504E+02 -0.45773160163E+01  0.34520862250E+02  0.41800000000E+01 0. -1.
        -11    1    4    4    0    0  0.50665886152E+02 -0.47280531041E+01 -0.86417898855E+02  0.10028678751E+03  0.00000000000E+00 0.  1.
         11    1    4    4    0    0  0.56063147985E+02  0.86597906345E+01  0.13968682025E+02  0.58422535150E+02  0.00000000000E+00 0. -1.
</event>
<event>
 8    1  0.7262913E-009  0.2565542E+03  0.7561462E-02  0.1109231E+00
          3   -1    0    0  501    0  0.00000000000E+00  0.00000000000E+00  0.61758672483E+03  0.61758672483E+03  0.00000000000E+00 0. -1.
         -3   -1    0    0    0  501 -0.00000000000E+00 -0.00000000000E+00 -0.13062412013E+03  0.13062412013E+03  0.00000000000E+00 0.  1.
         25    2    1    2    0    0  0.15712012360E+03 -0.17426341990E+03  0.95435714500E+02  0.28250542078E+03  0.12508742708E+03 0.  0.
         23    2    1    2    0    0 -0.15712012360E+03  0.17426341990E+03  0.39152689020E+03  0.46570542417E+03  0.92378371919E+02 0.  0.
          5    1    3    3  502    0  0.17179062270E+03 -0.13089586646E+03  0.59235101010E+02  0.22399110584E+03  0.41800000000E+01 0.  1.
         -5    1    3    3    0  502 -0.14670499107E+02 -0.43367553444E+02  0.36200613490E+02  0.58514314939E+02  0.41800000000E+01 0.  1.
        -11    1    4    4    0    0  0.37195074406E+01  0.43971040272E+02  0.86040532619E+02  0.96696744369E+02  0.00000000000E+00 0.  1.
         11    1    4    4    0    0 -0.16083963104E+03  0.13029237963E+03  0.30548635759E+03  0.36900867981E+03  0.00000000000E+00 0. -1.
</event>
<event>
 8    1  0.7262913E-009  0.1379464E+03  0.7561462E-02  0.1216119E+00
          1   -1    0    0  501    0  0.00000000000E+00  0.00000000000E+00  0.96846851172E+02  0.96846851172E+02  0.00000000000E+00 0. -1.
         -1   -1    0    0    0  501 -0.00000000000E+00 -0.00000000000E+00 -0.27679986486E+03  0.27679986486E+03  0.00000000000E+00 0.  1.
         25    2    1    2    0    0 -0.88441039010E+02 -0.84503283670E+02 -0.95233732589E+02  0.19919111208E+03  0.12508002630E+03 0.  0.
         23    2    1    2    0    0  0.88441039010E+02  0.84503283670E+02 -0.84719281099E+02  0.17445560395E+03  0.91075676373E+02 0.  0.
          5    1    3    3  502    0  0.15391710323E+02  0.46893753401E+01 -0.53506615731E+02  0.56029682444E+02  0.41800000000E+01 0.  1.
         -5    1    3    3    0  502 -0.10383274933E+03 -0.89192659010E+02 -0.41727116857E+02  0.14316142964E+03  0.41800000000E+01 0.  1.
        -11    1    4    4    0    0  0.44652583954E+02  0.42277453579E+02 -0.94597993778E+02  0.11282737594E+03  0.00000000000E+00 0.  1.
         11    1    4    4    0    0  0.43788455056E+02  0.42225830091E+02  0.98787126793E+01  0.61628228007E+02  0.00000000000E+00 0. -1.
</event>
<event>
 8    1  0.7262913E-009  0.1106199E+03  0.7561462E-02  0.1259426E+00
          2   -1    0    0  501    0  0.00000000000E+00  0.00000000000E+00  0.97539622637E+02  0.97539622637E+02  0.00000000000E+00 0. -1.
         -2   -1    0    0    0  501 -0.00000000000E+00 -0.00000000000E+00 -0.16439407426E+03  0.16439407426E+03  0.00000000000E+00 0.  1.
         25    2    1    2    0    0 -0.14161273884E+02 -0.42885602971E+02 -0.88084490544E+02  0.15951166461E+03  0.12508148165E+03 0.  0.
         23    2    1    2    0    0  0.14161273884E+02  0.42885602971E+02  0.21230038919E+02  0.10242203229E+03  0.89441833198E+02 0.  0.
          5    1    3    3  502    0  0.37308935357E+02 -0.58179612606E+02 -0.18782653524E+02  0.71743184024E+02  0.41800000000E+01 0.  1.
         -5    1    3    3    0  502 -0.51470209241E+02  0.15294009635E+02 -0.69301837019E+02  0.87768480585E+02  0.41800000000E+01 0.  1.
        -11    1    4    4    0    0  0.51025298182E+02  0.20337494212E+02  0.22079673434E+02  0.59200563379E+02  0.00000000000E+00 0.  1.
         11    1    4    4    0    0 -0.36864024298E+02  0.22548108759E+02 -0.84963451547E+00  0.43221468912E+02  0.00000000000E+00 0. -1.
</event>
<event>
 8    1  0.7262913E-009  0.1309147E+03  0.7561462E-02  0.1226105E+00
          3   -1    0    0  501    0  0.00000000000E+00  0.00000000000E+00  0.74295730814E+03  0.74295730814E+03  0.00000000000E+00 0. -1.
         -3   -1    0    0    0  501 -0.00000000000E+00 -0.00000000000E+00 -0.31017180581E+02  0.31017180581E+02  0.00000000000E+00 0.  1.
         25    2    1    2    0    0 -0.34647158124E+02  0.71998141774E+02  0.20988212318E+03  0.25706362663E+03  0.12508814700E+03 0.  0.
         23    2    1    2    0    0  0.34647158124E+02 -0.71998141774E+02  0.50205800438E+03  0.51691086209E+03  0.93543795115E+02 0.  0.
          5    1    3    3  502    0  0.21091404376E+02  0.80252858818E+02  0.79616318274E+02  0.11507214790E+03  0.41800000000E+01 0.  1.
         -5    1    3    3    0  502 -0.55738562500E+02 -0.82547170442E+01  0.13026580491E+03  0.14199147873E+03  0.41800000000E+01 0.  1.
        -11    1    4    4    0    0 -0.15802102762E+02 -0.69994151648E+02  0.26556622476E+03  0.27508963530E+03  0.00000000000E+00 0.  1.
         11    1    4    4    0    0  0.50449260885E+02 -0.20039901256E+01  0.23649177962E+03  0.24182122679E+03  0.00000000000E+00 0. -1.
</event>
<event>
 8    1  0.7262913E-009  0.1329584E+03  0.7561462E-02  0.1223131E+00
          1   -1    0    0  501    0  0.00000000000E+00  0.00000000000E+00  0.25974490545E+04  0.25974490545E+04  0.00000000000E+00 0. -1.
         -1   -1    0    0    0  501 -0.00000000000E+00 -0.00000000000E+00 -0.10524094744E+02  0.10524094744E+02  0.00000000000E+00 0.  1.
         25    2    1    2    0    0  0.79088451208E+02 -0.67926188120E+02  0.19316574220E+04  0.19385088843E+04  0.12508936078E+03 0.  0.
         23    2    1    2    0    0 -0.79088451208E+02  0.67926188120E+02  0.65526753778E+03  0.66946426503E+03  0.89094926505E+02 0.  0.
          5    1    3    3  502    0  0.75932316281E+02 -0.14661948527E+02  0.51025135670E+03  0.51609554232E+03  0.41800000000E+01 0.  1.
         -5    1    3    3    0  502  0.31561349271E+01 -0.53264239593E+02  0.14214060653E+04  0.14224133419E+04  0.41800000000E+01 0.  1.
        -11    1    4    4    0    0 -0.20269339239E+02 -0.20446277927E+02  0.96553165893E+02  0.10075420705E+03  0.00000000000E+00 0. -1.
         11    1    4    4    0    0 -0.58819111970E+02  0.88372466047E+02  0.55871437189E+03  0.56871005798E+03  0.00000000000E+00 0.  1.
</event>
<event>
 8    1  0.7262913E-009  0.1242867E+03  0.7561462E-02  0.1236188E+00
         -2   -1    0    0    0  501 -0.00000000000E+00  0.00000000000E+00  0.24730367643E+02  0.24730367643E+02  0.00000000000E+00 0.  1.
          2   -1    0    0  501    0  0.00000000000E+00 -0.00000000000E+00 -0.81540559360E+03  0.81540559360E+03  0.00000000000E+00 0. -1.
         25    2    1    2    0    0 -0.63350139844E+02  0.44166341626E+02 -0.57625501425E+03  0.59471171290E+03  0.12509306162E+03 0.  0.
         23    2    1    2    0    0  0.63350139844E+02 -0.44166341626E+02 -0.21442021171E+03  0.24542424834E+03  0.91066615911E+02 0.  0.
          5    1    3    3  502    0 -0.98547717439E+02  0.33492136495E+02 -0.48825034243E+03  0.49923866547E+03  0.41800000000E+01 0.  1.
         -5    1    3    3    0  502  0.35197577594E+02  0.10674205131E+02 -0.88004671814E+02  0.95473047426E+02  0.41800000000E+01 0.  1.
        -11    1    4    4    0    0  0.99434995671E+01  0.20939478255E+02 -0.11818625701E+02  0.26019508963E+02  0.00000000000E+00 0.  1.
         11    1    4    4    0    0  0.53406640277E+02 -0.65105819881E+02 -0.20260158601E+03  0.21940473938E+03  0.00000000000E+00 0. -1.
</event>
<event>
 8    1  0.7262913E-009  0.1094176E+03  0.7561462E-02  0.1261652E+00
         -2   -1    0    0    0  501 -0.00000000000E+00  0.00000000000E+00  0.64938045691E+02  0.64938045691E+02  0.00000000000E+00 0.  1.
          2   -1    0    0  501    0  0.00000000000E+00 -0.00000000000E+00 -0.24359474546E+03  0.24359474546E+03  0.00000000000E+00 0. -1.
         25    2    1    2    0    0  0.50267318002E+01  0.59360790092E+02 -0.55358465508E+02  0.14919335919E+03  0.12508048325E+03 0.  0.
         23    2    1    2    0    0 -0.50267318002E+01 -0.59360790092E+02 -0.12329823426E+03  0.15933943196E+03  0.81471642747E+02 0.  0.
          5    1    3    3  502    0 -0.28062393466E+02 -0.19582444621E+02 -0.53290388424E+02  0.63468952747E+02  0.41800000000E+01 0.  1.
         -5    1    3    3    0  502  0.33089125267E+02  0.78943234713E+02 -0.20680770839E+01  0.85724406447E+02  0.41800000000E+01 0.  1.
        -11    1    4    4    0    0 -0.38774148553E+02 -0.12156886647E+02 -0.34725887092E+02  0.53451957151E+02  0.00000000000E+00 0.  1.
         11    1    4    4    0    0  0.33747416753E+02 -0.47203903445E+02 -0.88572347171E+02  0.10588747481E+03  0.00000000000E+00 0. -1.
</event>
<event>
 8    1  0.7262913E-009  0.1813304E+03  0.7561462E-02  0.1166522E+00
          1   -1    0    0  501    0  0.00000000000E+00  0.00000000000E+00  0.51192811617E+03  0.51192811617E+03  0.00000000000E+00 0. -1.
         -1   -1    0    0    0  501 -0.00000000000E+00 -0.00000000000E+00 -0.82171672390E+02  0.82171672390E+02  0.00000000000E+00 0.  1.
         25    2    1    2    0    0  0.16559332770E+03 -0.38372609981E+02  0.17752038117E+03  0.27577974288E+03  0.12508946189E+03 0.  0.
         23    2    1    2    0    0 -0.16559332770E+03  0.38372609981E+02  0.25223606261E+03  0.31832004568E+03  0.93866995410E+02 0.  0.
          5    1    3    3  502    0  0.26074760191E+02  0.23575256231E+02  0.96753844341E+02  0.10302652387E+03  0.41800000000E+01 0. -1.
         -5    1    3    3    0  502  0.13951856751E+03 -0.61947866213E+02  0.80766536832E+02  0.17275321901E+03  0.41800000000E+01 0. -1.
        -11    1    4    4    0    0 -0.96398101261E+02  0.20920646000E+01  0.20621537289E+03  0.22764391201E+03  0.00000000000E+00 0. -1.
         11    1    4    4    0    0 -0.69195226437E+02  0.36280545381E+02  0.46020689723E+02  0.90676133671E+02  0.00000000000E+00 0.  1.
</event>
<event>
 8    1  0.7262913E-009  0.1899910E+03  0.7561462E-02  0.1158469E+00
          1   -1    0    0  501    0  0.00000000000E+00  0.00000000000E+00  0.97323587541E+03  0.97323587541E+03  0.00000000000E+00 0. -1.
         -1   -1    0    0    0  501 -0.00000000000E+00 -0.00000000000E+00 -0.73830632954E+02  0.73830632954E+02  0.00000000000E+00 0.  1.
         25    2    1    2    0    0  0.49897914064E+02  0.16216094776E+03  0.80663931011E+03  0.83372737402E+03  0.12509349606E+03 0.  0.
         23    2    1    2    0    0 -0.49897914064E+02 -0.16216094776E+03  0.92765932345E+02  0.21333913435E+03  0.90122656606E+02 0.  0.
          5    1    3    3  502    0  0.23909507846E+02  0.17584738538E+03  0.62658149917E+03  0.65124174851E+03  0.41800000000E+01 0.  1.
         -5    1    3    3    0  502  0.25988406219E+02 -0.13686437612E+02  0.18005781095E+03  0.18248562550E+03  0.41800000000E+01 0.  1.
        -11    1    4    4    0    0 -0.20055301436E+02 -0.23185308259E+02 -0.15790552348E+02  0.34483549385E+02  0.00000000000E+00 0.  1.
         11    1    4    4    0    0 -0.29842612628E+02 -0.13897563951E+03  0.10855648469E+03  0.17885558497E+03  0.00000000000E+00 0. -1.
</event>
<event>
 8    1  0.7262913E-009  0.1323671E+03  0.7561462E-02  0.1223985E+00
         -1   -1    0    0    0  501 -0.00000000000E+00  0.00000000000E+00  0.47371555429E+02  0.47371555429E+02  0.00000000000E+00 0.  1.
          1   -1    0    0  501    0  0.00000000000E+00 -0.00000000000E+00 -0.54808508679E+03  0.54808508679E+03  0.00000000000E+00 0. -1.
         25    2    1    2    0    0 -0.11814427587E+03 -0.67003592724E+01 -0.23023967656E+03  0.28750806768E+03  0.12509042963E+03 0.  0.
         23    2    1    2    0    0  0.11814427587E+03  0.67003592724E+01 -0.27047385480E+03  0.30794857454E+03  0.87597110084E+02 0.  0.
          5    1    3    3  502    0 -0.84029345984E+01  0.16645442970E+02  0.10550879622E+02  0.21828273921E+02  0.41800000000E+01 0. -1.
         -5    1    3    3    0  502 -0.10974134127E+03 -0.23345802243E+02 -0.24079055618E+03  0.26567979376E+03  0.41800000000E+01 0. -1.
        -11    1    4    4    0    0  0.87371675779E+02 -0.23246251171E+02 -0.11295725570E+03  0.14468427536E+03  0.00000000000E+00 0. -1.
         11    1    4    4    0    0  0.30772600087E+02  0.29946610443E+02 -0.15751659910E+03  0.16326429918E+03  0.00000000000E+00 0.  1.
</event>
<event>
 8    1  0.7262913E-009  0.2964806E+03  0.7561462E-02  0.1087013E+00
          2   -1    0    0  501    0  0.00000000000E+00  0.00000000000E+00  0.36348430160E+03  0.36348430160E+03  0.00000000000E+00 0. -1.
         -2   -1    0    0    0  501 -0.00000000000E+00 -0.00000000000E+00 -0.25880383209E+03  0.25880383209E+03  0.00000000000E+00 0.  1.
         25    2    1    2    0    0 -0.26667851582E+03  0.87305931234E+02  0.10496071394E+03  0.32465920190E+03  0.12508832671E+03 0.  0.
         23    2    1    2    0    0  0.26667851582E+03 -0.87305931234E+02 -0.28024443491E+00  0.29762893179E+03  0.99212630606E+02 0.  0.
          5    1    3    3  502    0 -0.13552797316E+03  0.93726325434E+02  0.10081635061E+03  0.19321973124E+03  0.41800000000E+01 0.  1.
         -5    1    3    3    0  502 -0.13115054266E+03 -0.64203941998E+01  0.41443633360E+01  0.13143947067E+03  0.41800000000E+01 0.  1.
        -11    1    4    4    0    0  0.12818172105E+03  0.83203474171E+01 -0.11419987170E+02  0.12895812460E+03  0.00000000000E+00 0. -1.
         11    1    4    4    0    0  0.13849679477E+03 -0.95626278652E+02  0.11139742735E+02  0.16867080719E+03  0.00000000000E+00 0.  1.
</event>
<event>
 8    1  0.7262913E-009  0.1168332E+03  0.7561462E-02  0.1248415E+00
         -2   -1    0    0    0  501 -0.00000000000E+00  0.00000000000E+00  0.12680103654E+03  0.12680103654E+03  0.00000000000E+00 0. -1.
          2   -1    0    0  501    0  0.00000000000E+00 -0.00000000000E+00 -0.12625902642E+03  0.12625902642E+03  0.00000000000E+00 0.  1.
         25    2    1    2    0    0  0.55490521243E+02  0.31041807996E+01  0.37134529579E+02  0.14183333286E+03  0.12509551206E+03 0.  0.
         23    2    1    2    0    0 -0.55490521243E+02 -0.31041807996E+01 -0.36592519455E+02  0.11122673010E+03  0.89126534335E+02 0.  0.
          5    1    3    3  502    0 -0.92137788446E+01 -0.51213614556E+02  0.11573781529E+02  0.53471046888E+02  0.41800000000E+01 0. -1.
         -5    1    3    3    0  502  0.64704300088E+02  0.54317795355E+02  0.25560748050E+02  0.88362285977E+02  0.41800000000E+01 0. -1.
        -11    1    4    4    0    0 -0.10870016606E+02 -0.38448510173E+02  0.56350293702E+01  0.40350944865E+02  0.00000000000E+00 0. -1.
         11    1    4    4    0    0 -0.44620504637E+02  0.35344329373E+02 -0.42227548826E+02  0.70875785235E+02  0.00000000000E+00 0.  1.
</event>
<event>
 8    1  0.7262913E-009  0.9843243E+02  0.7561462E-02  0.1283627E+00
          2   -1    0    0  501    0  0.00000000000E+00  0.00000000000E+00  0.25310010397E+03  0.25310010397E+03  0.00000000000E+00 0. -1.
         -2   -1    0    0    0  501 -0.00000000000E+00 -0.00000000000E+00 -0.45620917122E+02  0.45620917122E+02  0.00000000000E+00 0.  1.
         25    2    1    2    0    0 -0.91253730844E+01 -0.86454456428E+01  0.13932614376E+03  0.18766233606E+03  0.12508941552E+03 0.  0.
         23    2    1    2    0    0  0.91253730844E+01  0.86454456428E+01  0.68153043088E+02  0.11105868503E+03  0.86782360387E+02 0.  0.
          5    1    3    3  502    0  0.48608399739E+02 -0.33186313850E+02  0.44576111807E+02  0.73950051359E+02  0.41800000000E+01 0.  1.
         -5    1    3    3    0  502 -0.57733772824E+02  0.24540868207E+02  0.94750031952E+02  0.11371228470E+03  0.41800000000E+01 0.  1.
        -11    1    4    4    0    0 -0.29656081585E+02  0.18526439813E+02  0.36610874309E+01  0.35158437228E+02  0.00000000000E+00 0.  1.
         11    1    4    4    0    0  0.38781454669E+02 -0.98809941707E+01  0.64491955657E+02  0.75900247803E+02  0.00000000000E+00 0. -1.
</event>
<event>
 8    1  0.7262913E-009  0.1879618E+03  0.7561462E-02  0.1160313E+00
          1   -1    0    0  501    0  0.00000000000E+00  0.00000000000E+00  0.12036985905E+04  0.12036985905E+04  0.00000000000E+00 0. -1.
         -1   -1    0    0    0  501 -0.00000000000E+00 -0.00000000000E+00 -0.36618766753E+02  0.36618766753E+02  0.00000000000E+00 0.  1.
         25    2    1    2    0    0  0.11319631708E+03  0.11570264337E+03  0.38121077408E+03  0.43263264886E+03  0.12509535044E+03 0.  0.
         23    2    1    2    0    0 -0.11319631708E+03 -0.11570264337E+03  0.78586904963E+03  0.80768470836E+03  0.92541434295E+02 0.  0.
          5    1    3    3  502    0  0.28606917410E+02  0.99079960299E+02  0.28635508925E+03  0.30438775238E+03  0.41800000000E+01 0.  1.
         -5    1    3    3    0  502  0.84589399673E+02  0.16622683069E+02  0.94855684822E+02  0.12824489648E+03  0.41800000000E+01 0.  1.
        -11    1    4    4    0    0 -0.73880538615E+02 -0.11168033372E+02  0.30600225523E+03  0.31499276049E+03  0.00000000000E+00 0. -1.
         11    1    4    4    0    0 -0.39315778468E+02 -0.10453460999E+03  0.47986679440E+03  0.49269194786E+03  0.00000000000E+00 0.  1.
</event>
<event>
 8    1  0.7262913E-009  0.1082311E+03  0.7561462E-02  0.1263881E+00
          1   -1    0    0  501    0  0.00000000000E+00  0.00000000000E+00  0.44151184410E+02  0.44151184410E+02  0.00000000000E+00 0. -1.
         -1   -1    0    0    0  501 -0.00000000000E+00 -0.00000000000E+00 -0.31650756576E+03  0.31650756576E+03  0.00000000000E+00 0.  1.
         25    2    1    2    0    0 -0.17594515585E+02  0.44069157276E+02 -0.14374304359E+03  0.19636847331E+03  0.12508739797E+03 0.  0.
         23    2    1    2    0    0  0.17594515585E+02 -0.44069157276E+02 -0.12861333776E+03  0.16429027686E+03  0.90544170537E+02 0.  0.
          5    1    3    3  502    0  0.53497286232E+02  0.28015675181E+02 -0.59210147287E+02  0.84676747881E+02  0.41800000000E+01 0. -1.
         -5    1    3    3    0  502 -0.71091801817E+02  0.16053482095E+02 -0.84532896304E+02  0.11169172543E+03  0.41800000000E+01 0. -1.
        -11    1    4    4    0    0  0.39089713564E+02 -0.64761346416E+01 -0.11042989592E+03  0.11732309210E+03  0.00000000000E+00 0.  1.
         11    1    4    4    0    0 -0.21495197980E+02 -0.37593022634E+02 -0.18183441840E+02  0.46967184758E+02  0.00000000000E+00 0. -1.
</event>
<event>
 8    1  0.7262913E-009  0.8067077E+02  0.7561462E-02  0.1327159E+00
         -1   -1    0    0    0  501 -0.00000000000E+00  0.00000000000E+00  0.25594130585E+03  0.25594130585E+03  0.00000000000E+00 0.  1.
          1   -1    0    0  501    0  0.00000000000E+00 -0.00000000000E+00 -0.48626759377E+02  0.48626759377E+02  0.00000000000E+00 0. -1.
         25    2    1    2    0    0  0.85064686897E+01  0.11504452310E+02  0.13127437291E+03  0.18189359019E+03  0.12509038627E+03 0.  0.
         23    2    1    2    0    0 -0.85064686897E+01 -0.11504452310E+02  0.76040173554E+02  0.12267447503E+03  0.95195621735E+02 0.  0.
          5    1    3    3  502    0  0.68836456370E+01 -0.30713662180E+02  0.13555378136E+03  0.13922289202E+03  0.41800000000E+01 0.  1.
         -5    1    3    3    0  502  0.16228230527E+01  0.42218114491E+02 -0.42794084452E+01  0.42670698171E+02  0.41800000000E+01 0.  1.
        -11    1    4    4    0    0  0.38887100500E+02 -0.32016640017E+01  0.88106699711E+01  0.40001064274E+02  0.00000000000E+00 0. -1.
         11    1    4    4    0    0 -0.47393569190E+02 -0.83027883086E+01  0.67229503583E+02  0.82673410758E+02  0.00000000000E+00 0.  1.
</event>
<event>
 8    1  0.7262913E-009  0.1737069E+03  0.7561462E-02  0.1174036E+00
          1   -1    0    0  501    0  0.00000000000E+00  0.00000000000E+00  0.11790193028E+04  0.11790193028E+04  0.00000000000E+00 0. -1.
         -1   -1    0    0    0  501 -0.00000000000E+00 -0.00000000000E+00 -0.34196224461E+02  0.34196224461E+02  0.00000000000E+00 0.  1.
         25    2    1    2    0    0  0.89714221306E+02 -0.11334548970E+03  0.86869020759E+03  0.88947512378E+03  0.12508987776E+03 0.  0.
         23    2    1    2    0    0 -0.89714221306E+02  0.11334548970E+03  0.27613287074E+03  0.32374040348E+03  0.87536535212E+02 0.  0.
          5    1    3    3  502    0  0.84001745539E+02 -0.68621077202E+01  0.37259568035E+03  0.38203192955E+03  0.41800000000E+01 0. -1.
         -5    1    3    3    0  502  0.57124757679E+01 -0.10648338198E+03  0.49609452724E+03  0.50744319423E+03  0.41800000000E+01 0. -1.
        -11    1    4    4    0    0 -0.15760864024E+02  0.67463471185E+02  0.18583626374E+03  0.19833013311E+03  0.00000000000E+00 0. -1.
         11    1    4    4    0    0 -0.73953357282E+02  0.45882018518E+02  0.90296607005E+02  0.12541027037E+03  0.00000000000E+00 0.  1.
</event>
<event>
 8    1  0.7262913E-009  0.1069753E+03  0.7561462E-02  0.1266276E+00
          2   -1    0    0  501    0  0.00000000000E+00  0.00000000000E+00  0.78206915906E+03  0.78206915906E+03  0.00000000000E+00 0. -1.
         -2   -1    0    0    0  501 -0.00000000000E+00 -0.00000000000E+00 -0.21251923046E+02  0.21251923046E+02  0.00000000000E+00 0.  1.
         25    2    1    2    0    0 -0.17717810182E+02  0.58426892203E+02  0.31764405980E+03  0.34680400088E+03  0.12509054229E+03 0.  0.
         23    2    1    2    0    0  0.17717810182E+02 -0.58426892203E+02  0.44317317621E+03  0.45651708123E+03  0.90982189499E+02 0.  0.
          5    1    3    3  502    0 -0.50453386624E+02  0.21902235975E+02  0.27850527457E+03  0.28391532633E+03  0.41800000000E+01 0. -1.
         -5    1    3    3    0  502  0.32735576441E+02  0.36524656228E+02  0.39138785237E+02  0.62888674556E+02  0.41800000000E+01 0. -1.
        -11    1    4    4    0    0  0.50467107870E+02 -0.10549722778E+02  0.21065907764E+03  0.21687662995E+03  0.00000000000E+00 0. -1.
         11    1    4    4    0    0 -0.32749297688E+02 -0.47877169425E+02  0.23251409857E+03  0.23964045127E+03  0.00000000000E+00 0.  1.
</event>
<event>
 8    1  0.7262913E-009  0.1071721E+03  0.7561462E-02  0.1265898E+00
          3   -1    0    0  501    0  0.00000000000E+00  0.00000000000E+00  0.18862673274E+03  0.18862673274E+03  0.00000000000E+00 0. -1.
         -3   -1    0    0    0  501 -0.00000000000E+00 -0.00000000000E+00 -0.85726112338E+02  0.85726112338E+02  0.00000000000E+00 0.  1.
         25    2    1    2    0    0  0.29852896036E+02  0.52397821207E+02  0.88889671270E+02  0.16486544601E+03  0.12507003862E+03 0.  0.
         23    2    1    2    0    0 -0.29852896036E+02 -0.52397821207E+02  0.14010949130E+02  0.10948739907E+03  0.90302030931E+02 0.  0.
          5    1    3    3  502    0 -0.46775711642E+02  0.36372084765E+02  0.28378520059E+02  0.65830908778E+02  0.41800000000E+01 0. -1.
         -5    1    3    3    0  502  0.76628607678E+02  0.16025736442E+02  0.60511151211E+02  0.99034537229E+02  0.41800000000E+01 0. -1.
        -11    1    4    4    0    0 -0.33380552437E+02 -0.11217492366E+02 -0.32039617690E+02  0.47609143215E+02  0.00000000000E+00 0.  1.
         11    1    4    4    0    0  0.35276564002E+01 -0.41180328841E+02  0.46050566819E+02  0.61878255854E+02  0.00000000000E+00 0. -1.
</event>
<event>
 8    1  0.7262913E-009  0.1077171E+03  0.7561462E-02  0.1264857E+00
          1   -1    0    0  501    0  0.00000000000E+00  0.00000000000E+00  0.62791903439E+03  0.62791903439E+03  0.00000000000E+00 0. -1.
         -1   -1    0    0    0  501 -0.00000000000E+00 -0.00000000000E+00 -0.21406773547E+02  0.21406773547E+02  0.00000000000E+00 0.  1.
         25    2    1    2    0    0 -0.25988118783E+02 -0.17119879158E+02  0.42541012285E+03  0.44451288173E+03  0.12509778904E+03 0.  0.
         23    2    1    2    0    0  0.25988118783E+02  0.17119879158E+02  0.18110213800E+03  0.20481292621E+03  0.90453732786E+02 0.  0.
          5    1    3    3  502    0 -0.67067209318E+02 -0.35708875723E+02  0.33326544875E+03  0.34184275055E+03  0.41800000000E+01 0. -1.
         -5    1    3    3    0  502  0.41079090535E+02  0.18588996565E+02  0.92144674095E+02  0.10267013118E+03  0.41800000000E+01 0. -1.
        -11    1    4    4    0    0 -0.17357138443E+02  0.41031952584E+02  0.67305220936E+02  0.80714832298E+02  0.00000000000E+00 0.  1.
         11    1    4    4    0    0  0.43345257226E+02 -0.23912073426E+02  0.11379691706E+03  0.12409809391E+03  0.00000000000E+00 0. -1.
</event>
<event>
 8    1  0.7262913E-009  0.1050193E+03  0.7561462E-02  0.1270082E+00
         -2   -1    0    0    0  501 -0.00000000000E+00  0.00000000000E+00  0.27244510572E+03  0.27244510572E+03  0.00000000000E+00 0.  1.
          2   -1    0    0  501    0  0.00000000000E+00 -0.00000000000E+00 -0.52646655722E+02  0.52646655722E+02  0.00000000000E+00 0. -1.
         25    2    1    2    0    0  0.25034522568E+02  0.42953109950E+02  0.13206179198E+03  0.18857725136E+03  0.12509742546E+03 0.  0.
         23    2    1    2    0    0 -0.25034522568E+02 -0.42953109950E+02  0.87736658012E+02  0.13651451007E+03  0.92015179872E+02 0.  0.
          5    1    3    3  502    0  0.31722978616E+02  0.77644692244E+02  0.46682350727E+02  0.96082047622E+02  0.41800000000E+01 0. -1.
         -5    1    3    3    0  502 -0.66884560482E+01 -0.34691582294E+02  0.85379441254E+02  0.92495203742E+02  0.41800000000E+01 0. -1.
        -11    1    4    4    0    0 -0.22722740909E+02  0.18306228465E+02 -0.36706632562E+00  0.29181769870E+02  0.00000000000E+00 0. -1.
         11    1    4    4    0    0 -0.23117816583E+01 -0.61259338415E+02  0.88103724338E+02  0.10733274020E+03  0.00000000000E+00 0.  1.
</event>
<event>
 8    1  0.7262913E-009  0.8892736E+02  0.7561462E-02  0.1305470E+00
         -2   -1    0    0    0  501 -0.00000000000E+00  0.00000000000E+00  0.61676253902E+02  0.61676253902E+02  0.00000000000E+00 0.  1.
          2   -1    0    0  501    0  0.00000000000E+00 -0.00000000000E+00 -0.20917485680E+03  0.20917485680E+03  0.00000000000E+00 0. -1.
         25    2    1    2    0    0 -0.77256030297E+01  0.21115995677E+02 -0.75111665110E+02  0.14763303532E+03  0.12509268830E+03 0.  0.
         23    2    1    2    0    0  0.77256030297E+01 -0.21115995677E+02 -0.72386937792E+02  0.12321807539E+03  0.97145535792E+02 0.  0.
          5    1    3    3  502    0  0.46812395312E+02  0.43434591653E+02 -0.20545997794E+02  0.67212904507E+02  0.41800000000E+01 0.  1.
         -5    1    3    3    0  502 -0.54537998342E+02 -0.22318595977E+02 -0.54565667317E+02  0.80420130808E+02  0.41800000000E+01 0.  1.
        -11    1    4    4    0    0 -0.13581221282E+02  0.10144577735E+02  0.18306991767E+02  0.24950109749E+02  0.00000000000E+00 0.  1.
         11    1    4    4    0    0  0.21306824311E+02 -0.31260573412E+02 -0.90693929559E+02  0.98267965641E+02  0.00000000000E+00 0. -1.
</event>
<event>
 8    1  0.7262913E-009  0.1165239E+03  0.7561462E-02  0.1248944E+00
          2   -1    0    0  501    0  0.00000000000E+00  0.00000000000E+00  0.56059334862E+03  0.56059334862E+03  0.00000000000E+00 0. -1.
         -2   -1    0    0    0  501 -0.00000000000E+00 -0.00000000000E+00 -0.45562217062E+02  0.45562217062E+02  0.00000000000E+00 0.  1.
         25    2    1    2    0    0 -0.74991057494E+02 -0.57596027059E+01  0.44629319281E+03  0.46955487914E+03  0.12508932347E+03 0.  0.
         23    2    1    2    0    0  0.74991057494E+02  0.57596027059E+01  0.68737938747E+02  0.13660068654E+03  0.90983578813E+02 0.  0.
          5    1    3    3  502    0 -0.57301745753E+01  0.52226836990E+02  0.21101438913E+03  0.21749717751E+03  0.41800000000E+01 0.  1.
         -5    1    3    3    0  502 -0.69260882919E+02 -0.57986439695E+02  0.23527880368E+03  0.25205770163E+03  0.41800000000E+01 0.  1.
        -11    1    4    4    0    0  0.42344474459E+02 -0.21402806884E+02  0.79687735487E+02  0.92743031257E+02  0.00000000000E+00 0. -1.
         11    1    4    4    0    0  0.32646583036E+02  0.27162409590E+02 -0.10949796740E+02  0.43857655287E+02  0.00000000000E+00 0.  1.
</event>
<event>
 8    1  0.7262913E-009  0.9362145E+02  0.7561462E-02  0.1294311E+00
          3   -1    0    0  501    0  0.00000000000E+00  0.00000000000E+00  0.14720174693E+03  0.14720174693E+03  0.00000000000E+00 0. -1.
         -3   -1    0    0    0  501 -0.00000000000E+00 -0.00000000000E+00 -0.98131481655E+02  0.98131481655E+02  0.00000000000E+00 0.  1.
         25    2    1    2    0    0  0.23620516252E+02 -0.44579785394E+02  0.40864567871E+02  0.14094686791E+03  0.12510323981E+03 0.  0.
         23    2    1    2    0    0 -0.23620516252E+02  0.44579785394E+02  0.82056974058E+01  0.10438636068E+03  0.91015892964E+02 0.  0.
          5    1    3    3  502    0  0.39639961705E+02  0.34544749457E+02  0.25797466182E+02  0.58716675148E+02  0.41800000000E+01 0.  1.
         -5    1    3    3    0  502 -0.16019445453E+02 -0.79124534851E+02  0.15067101689E+02  0.82230192760E+02  0.41800000000E+01 0.  1.
        -11    1    4    4    0    0 -0.66873650571E+01  0.31663266773E+02 -0.40138205241E+02  0.51559274958E+02  0.00000000000E+00 0.  1.
         11    1    4    4    0    0 -0.16933151195E+02  0.12916518621E+02  0.48343902647E+02  0.52827085722E+02  0.00000000000E+00 0. -1.
</event>
<event>
 8    1  0.7262913E-009  0.1104999E+03  0.7561462E-02  0.1259647E+00
         -1   -1    0    0    0  501 -0.00000000000E+00  0.00000000000E+00  0.95046910582E+02  0.95046910582E+02  0.00000000000E+00 0.  1.
          1   -1    0    0  501    0  0.00000000000E+00 -0.00000000000E+00 -0.17947630151E+03  0.17947630151E+03  0.00000000000E+00 0. -1.
         25    2    1    2    0    0  0.57893822269E+02  0.36954557264E+02 -0.70276046354E+02  0.15907207717E+03  0.12509144289E+03 0.  0.
         23    2    1    2    0    0 -0.57893822269E+02 -0.36954557264E+02 -0.14153344578E+02  0.11545113493E+03  0.91713212977E+02 0.  0.
          5    1    3    3  502    0  0.70040620284E+02  0.74760088505E+02 -0.54746734111E+02  0.11623010203E+03  0.41800000000E+01 0. -1.
         -5    1    3    3    0  502 -0.12146798015E+02 -0.37805531241E+02 -0.15529312243E+02  0.42841975132E+02  0.41800000000E+01 0. -1.
        -11    1    4    4    0    0 -0.16377417491E+02  0.72396249184E+01  0.33729983508E+02  0.38188267309E+02  0.00000000000E+00 0.  1.
         11    1    4    4    0    0 -0.41516404777E+02 -0.44194182182E+02 -0.47883328086E+02  0.77262867621E+02  0.00000000000E+00 0. -1.
</event>
<event>
 8    1  0.7262913E-009  0.6607517E+02  0.7561462E-02  0.1373972E+00
          2   -1    0    0  501    0  0.00000000000E+00  0.00000000000E+00  0.10698937327E+04  0.10698937327E+04  0.00000000000E+00 0. -1.
         -2   -1    0    0    0  501 -0.00000000000E+00 -0.00000000000E+00 -0.17120239113E+02  0.17120239113E+02  0.00000000000E+00 0.  1.
         25    2    1    2    0    0  0.34491672583E+02 -0.13293580751E+02  0.86291432223E+03  0.87271685038E+03  0.12508868316E+03 0.  0.
         23    2    1    2    0    0 -0.34491672583E+02  0.13293580751E+02  0.18985917137E+03  0.21429712145E+03  0.92251593705E+02 0.  0.
          5    1    3    3  502    0 -0.56253379090E+00 -0.14477598009E+02  0.80317210763E+03  0.80331365242E+03  0.41800000000E+01 0. -1.
         -5    1    3    3    0  502  0.35054206374E+02  0.11840172581E+01  0.59742214602E+02  0.69403197959E+02  0.41800000000E+01 0. -1.
        -11    1    4    4    0    0  0.20224586093E+02  0.17671577558E+02  0.14445778514E+02  0.30495885836E+02  0.00000000000E+00 0.  1.
         11    1    4    4    0    0 -0.54716258677E+02 -0.43779968069E+01  0.17541339285E+03  0.18380123561E+03  0.00000000000E+00 0. -1.
</event>
<event>
 8    1  0.7262913E-009  0.1256626E+03  0.7561462E-02  0.1234037E+00
          1   -1    0    0  501    0  0.00000000000E+00  0.00000000000E+00  0.12854940990E+03  0.12854940990E+03  0.00000000000E+00 0. -1.
         -1   -1    0    0    0  501 -0.00000000000E+00 -0.00000000000E+00 -0.16250411383E+03  0.16250411383E+03  0.00000000000E+00 0.  1.
         25    2    1    2    0    0 -0.34341904027E+02 -0.88227820175E+02 -0.13864948566E+02  0.15749166397E+03  0.12509145773E+03 0.  0.
         23    2    1    2    0    0  0.34341904027E+02  0.88227820175E+02 -0.20089755366E+02  0.13356185976E+03  0.92041607361E+02 0.  0.
          5    1    3    3  502    0 -0.61232323816E+02 -0.82344916438E+02  0.28694168301E+02  0.10663447115E+03  0.41800000000E+01 0.  1.
         -5    1    3    3    0  502  0.26890419790E+02 -0.58829037371E+01 -0.42559116867E+02  0.50857192819E+02  0.41800000000E+01 0.  1.
        -11    1    4    4    0    0 -0.21236894887E+02  0.47019244918E+02 -0.35564807024E+02  0.62663151818E+02  0.00000000000E+00 0.  1.
         11    1    4    4    0    0  0.55578798914E+02  0.41208575258E+02  0.15475051658E+02  0.70898707938E+02  0.00000000000E+00 0. -1.
</event>
<event>
 8    1  0.7262913E-009  0.1157488E+03  0.7561462E-02  0.1250280E+00
         -1   -1    0    0    0  501 -0.00000000000E+00  0.00000000000E+00  0.32425379262E+02  0.32425379262E+02  0.00000000000E+00 0.  1.
          1   -1    0    0  501    0  0.00000000000E+00 -0.00000000000E+00 -0.53868976981E+03  0.53868976981E+03  0.00000000000E+00 0. -1.
         25    2    1    2    0    0  0.14552547158E+02  0.74728566323E+02 -0.32490281608E+03  0.35637807751E+03  0.12508940396E+03 0.  0.
         23    2    1    2    0    0 -0.14552547158E+02 -0.74728566323E+02 -0.18136157448E+03  0.21473707156E+03  0.86161789408E+02 0.  0.
          5    1    3    3  502    0  0.51310375525E+02  0.72249886697E+02 -0.12629885793E+03  0.15434271826E+03  0.41800000000E+01 0.  1.
         -5    1    3    3    0  502 -0.36757828367E+02  0.24786796262E+01 -0.19860395814E+03  0.20203535925E+03  0.41800000000E+01 0.  1.
        -11    1    4    4    0    0 -0.24242437987E+02 -0.86859722884E+02 -0.11268208956E+03  0.14432449746E+03  0.00000000000E+00 0.  1.
         11    1    4    4    0    0  0.96898908292E+01  0.12131156561E+02 -0.68679484916E+02  0.70412574105E+02  0.00000000000E+00 0. -1.
</event>
<event>
 8    1  0.7262913E-009  0.1927397E+03  0.7561462E-02  0.1156013E+00
         -1   -1    0    0    0  501 -0.00000000000E+00  0.00000000000E+00  0.65567142044E+03  0.65567142044E+03  0.00000000000E+00 0.  1.
          1   -1    0    0  501    0  0.00000000000E+00 -0.00000000000E+00 -0.69392978605E+02  0.69392978605E+02  0.00000000000E+00 0. -1.
         25    2    1    2    0    0 -0.16051283555E+03 -0.87933085328E+02  0.32592193865E+03  0.39416981743E+03  0.12509251382E+03 0.  0.
         23    2    1    2    0    0  0.16051283555E+03  0.87933085328E+02  0.26035650319E+03  0.33089458161E+03  0.90604180459E+02 0.  0.
          5    1    3    3  502    0 -0.71490753886E+02 -0.25656513730E+02  0.25063370490E+03  0.26192348314E+03  0.41800000000E+01 0.  1.
         -5    1    3    3    0  502 -0.89022081661E+02 -0.62276571598E+02  0.75288233745E+02  0.13224633429E+03  0.41800000000E+01 0.  1.
        -11    1    4    4    0    0  0.13186452271E+03  0.28791616197E+02  0.14473221518E+03  0.19790053973E+03  0.00000000000E+00 0.  1.
         11    1    4    4    0    0  0.28648312835E+02  0.59141469132E+02  0.11562428801E+03  0.13299404188E+03  0.00000000000E+00 0. -1.
</event>
<event>
 8    1  0.7262913E-009  0.1134935E+03  0.7561462E-02  0.1254234E+00
         -2   -1    0    0    0  501 -0.00000000000E+00  0.00000000000E+00  0.45130425944E+02  0.45130425944E+02  0.00000000000E+00 0.  1.
          2   -1    0    0  501    0  0.00000000000E+00 -0.00000000000E+00 -0.38489340747E+03  0.38489340747E+03  0.00000000000E+00 0. -1.
         25    2    1    2    0    0  0.40986268660E+02 -0.15417277606E+02 -0.28476468239E+03  0.31409201766E+03  0.12508119184E+03 0.  0.
         23    2    1    2    0    0 -0.40986268660E+02  0.15417277606E+02 -0.54998299136E+02  0.11593181576E+03  0.92183546957E+02 0.  0.
          5    1    3    3  502    0 -0.62601685908E+01  0.50319638860E+02 -0.95763854357E+02  0.10844096997E+03  0.41800000000E+01 0. -1.
         -5    1    3    3    0  502  0.47246437251E+02 -0.65736916466E+02 -0.18900082803E+03  0.20565104769E+03  0.41800000000E+01 0. -1.
        -11    1    4    4    0    0 -0.47763026474E+02 -0.25106100250E+02 -0.51673711765E+02  0.74711414492E+02  0.00000000000E+00 0. -1.
         11    1    4    4    0    0  0.67767578138E+01  0.40523377857E+02 -0.33245873706E+01  0.41220401266E+02  0.00000000000E+00 0.  1.
</event>
<event>
 8    1  0.7262913E-009  0.1248771E+03  0.7561462E-02  0.1235261E+00
         -2   -1    0    0    0  501 -0.00000000000E+00  0.00000000000E+00  0.34027850598E+02  0.34027850598E+02  0.00000000000E+00 0.  1.
          2   -1    0    0  501    0  0.00000000000E+00 -0.00000000000E+00 -0.49898814876E+03  0.49898814876E+03  0.00000000000E+00 0. -1.
         25    2    1    2    0    0 -0.12110011293E+02 -0.70030953109E+02 -0.23280471496E+03  0.27367309762E+03  0.12509173549E+03 0.  0.
         23    2    1    2    0    0  0.12110011293E+02  0.70030953109E+02 -0.23215558320E+03  0.25934290173E+03  0.91167642838E+02 0.  0.
          5    1    3    3  502    0 -0.52425665874E+02 -0.81982482169E+02 -0.12935187916E+03  0.16192269411E+03  0.41800000000E+01 0.  1.
         -5    1    3    3    0  502  0.40315654582E+02  0.11951529059E+02 -0.10345283580E+03  0.11175040351E+03  0.41800000000E+01 0.  1.
        -11    1    4    4    0    0  0.57515092807E+01  0.89464064533E+02 -0.21392075717E+03  0.23194609082E+03  0.00000000000E+00 0. -1.
         11    1    4    4    0    0  0.63585020119E+01 -0.19433111424E+02 -0.18234826034E+02  0.27396810908E+02  0.00000000000E+00 0.  1.
</event>
<event>
 8    1  0.7262913E-009  0.1891787E+03  0.7561462E-02  0.1159204E+00
          1   -1    0    0  501    0  0.00000000000E+00  0.00000000000E+00  0.20069172051E+04  0.20069172051E+04  0.00000000000E+00 0. -1.
         -1   -1    0    0    0  501 -0.00000000000E+00 -0.00000000000E+00 -0.31402950579E+02  0.31402950579E+02  0.00000000000E+00 0.  1.
         25    2    1    2    0    0 -0.14358181162E+03  0.96134462750E+02  0.16236410355E+04  0.16375942192E+04  0.12508814067E+03 0.  0.
         23    2    1    2    0    0  0.14358181162E+03 -0.96134462750E+02  0.35187321897E+03  0.40072593646E+03  0.83120047917E+02 0.  0.
          5    1    3    3  502    0  0.97556065201E+01  0.39413099380E+02  0.17235269539E+03  0.17711998269E+03  0.41800000000E+01 0. -1.
         -5    1    3    3    0  502 -0.15333741814E+03  0.56721363370E+02  0.14512883401E+04  0.14604742365E+04  0.41800000000E+01 0. -1.
        -11    1    4    4    0    0  0.45470240655E+02 -0.42202551085E+02  0.53079850351E+02  0.81645995717E+02  0.00000000000E+00 0.  1.
         11    1    4    4    0    0  0.98111570969E+02 -0.53931911665E+02  0.29879336862E+03  0.31907994074E+03  0.00000000000E+00 0. -1.
</event>
<event>
 8    1  0.7262913E-009  0.1027548E+03  0.7561462E-02  0.1274607E+00
          1   -1    0    0  501    0  0.00000000000E+00  0.00000000000E+00  0.13922918035E+03  0.13922918035E+03  0.00000000000E+00 0. -1.
         -1   -1    0    0    0  501 -0.00000000000E+00 -0.00000000000E+00 -0.12040321228E+03  0.12040321228E+03  0.00000000000E+00 0.  1.
         25    2    1    2    0    0 -0.85602709064E+01 -0.63284534045E+02  0.40564564604E+02  0.14618908208E+03  0.12509018079E+03 0.  0.
         23    2    1    2    0    0  0.85602709064E+01  0.63284534045E+02 -0.21738596533E+02  0.11344331056E+03  0.91206401329E+02 0.  0.
          5    1    3    3  502    0 -0.37532653878E+02 -0.90985617811E+02  0.38711523608E+02  0.10584487336E+03  0.41800000000E+01 0. -1.
         -5    1    3    3    0  502  0.28972382972E+02  0.27701083766E+02  0.18530409950E+01  0.40344208727E+02  0.41800000000E+01 0. -1.
        -11    1    4    4    0    0 -0.16946458993E+01  0.49431167619E+02 -0.56228589409E+02  0.74886356727E+02  0.00000000000E+00 0.  1.
         11    1    4    4    0    0  0.10254916806E+02  0.13853366426E+02  0.34489992875E+02  0.38556953829E+02  0.00000000000E+00 0. -1.
</event>
<event>
 8    1  0.7262913E-009  0.1914094E+03  0.7561462E-02  0.1157196E+00
          1   -1    0    0  501    0  0.00000000000E+00  0.00000000000E+00  0.29321070574E+03  0.29321070574E+03  0.00000000000E+00 0. -1.
         -1   -1    0    0    0  501 -0.00000000000E+00 -0.00000000000E+00 -0.12810311418E+03  0.12810311418E+03  0.00000000000E+00 0.  1.
         25    2    1    2    0    0  0.64980049493E+02 -0.14574747017E+03  0.10166835005E+03  0.22682122500E+03  0.12508670118E+03 0.  0.
         23    2    1    2    0    0 -0.64980049493E+02  0.14574747017E+03  0.63439241505E+02  0.19449259492E+03  0.91313198506E+02 0.  0.
          5    1    3    3  502    0 -0.33399425558E+02 -0.11015355389E+02  0.12115189363E+02  0.37431402528E+02  0.41800000000E+01 0. -1.
         -5    1    3    3    0  502  0.98379475050E+02 -0.13473211478E+03  0.89553160688E+02  0.18938982247E+03  0.41800000000E+01 0. -1.
        -11    1    4    4    0    0 -0.74510509036E+01  0.11509770435E+03  0.57948054276E+02  0.12907740585E+03  0.00000000000E+00 0. -1.
         11    1    4    4    0    0 -0.57528998589E+02  0.30649765821E+02  0.54911872283E+01  0.65415189067E+02  0.00000000000E+00 0.  1.
</event>
<event>
 8    1  0.7262913E-009  0.9661724E+02  0.7561462E-02  0.1287575E+00
          2   -1    0    0  501    0  0.00000000000E+00  0.00000000000E+00  0.24786667953E+03  0.24786667953E+03  0.00000000000E+00 0.  1.
         -2   -1    0    0    0  501 -0.00000000000E+00 -0.00000000000E+00 -0.92512888974E+02  0.92512888974E+02  0.00000000000E+00 0. -1.
         25    2    1    2    0    0 -0.47408858437E+02 -0.77673122002E+02  0.14041553582E+03  0.20891441295E+03  0.12509194817E+03 0.  0.
         23    2    1    2    0    0  0.47408858437E+02  0.77673122002E+02  0.14938254737E+02  0.13146515556E+03  0.93697502270E+02 0.  0.
          5    1    3    3  502    0  0.29336555915E+01 -0.35849257857E+02  0.13865789609E+03  0.14330826973E+03  0.41800000000E+01 0.  1.
         -5    1    3    3    0  502 -0.50342514029E+02 -0.41823864145E+02  0.17576397294E+01  0.65606143220E+02  0.41800000000E+01 0.  1.
        -11    1    4    4    0    0  0.42799315281E+02  0.63834369600E+02 -0.31297785557E+02  0.82982886859E+02  0.00000000000E+00 0. -1.
         11    1    4    4    0    0  0.46095431563E+01  0.13838752402E+02  0.46236040294E+02  0.48482268699E+02  0.00000000000E+00 0.  1.
</event>
<event>
 8    1  0.7262913E-009  0.1043343E+03  0.7561462E-02  0.1271437E+00
         -1   -1    0    0    0  501 -0.00000000000E+00  0.00000000000E+00  0.22821553798E+02  0.22821553798E+02  0.00000000000E+00 0.  1.
          1   -1    0    0  501    0  0.00000000000E+00 -0.00000000000E+00 -0.56409660038E+03  0.56409660038E+03  0.00000000000E+00 0. -1.
         25    2    1    2    0    0  0.18022782758E+02  0.16466988029E+02 -0.37783325847E+03  0.39874963452E+03  0.12508923787E+03 0.  0.
         23    2    1    2    0    0 -0.18022782758E+02 -0.16466988029E+02 -0.16344178811E+03  0.18816851966E+03  0.89989951081E+02 0.  0.
          5    1    3    3  502    0 -0.48933790761E+02  0.95116313715E+01 -0.24172200015E+03  0.24684404949E+03  0.41800000000E+01 0. -1.
         -5    1    3    3    0  502  0.66956573519E+02  0.69553566571E+01 -0.13611125831E+03  0.15190558503E+03  0.41800000000E+01 0. -1.
        -11    1    4    4    0    0 -0.46993758879E+02  0.14118993063E+02 -0.68128039471E+02  0.83959449146E+02  0.00000000000E+00 0. -1.
         11    1    4    4    0    0  0.28970976121E+02 -0.30585981092E+02 -0.95313748644E+02  0.10420907051E+03  0.00000000000E+00 0.  1.
</event>
<event>
 8    1  0.7262913E-009  0.1679592E+03  0.7561462E-02  0.1179993E+00
         -1   -1    0    0    0  501 -0.00000000000E+00  0.00000000000E+00  0.10952858696E+03  0.10952858696E+03  0.00000000000E+00 0.  1.
          1   -1    0    0  501    0  0.00000000000E+00 -0.00000000000E+00 -0.31835722009E+03  0.31835722009E+03  0.00000000000E+00 0. -1.
         25    2    1    2    0    0 -0.96973344829E+02 -0.10742539519E+03 -0.16365300496E+03  0.25174200566E+03  0.12509071206E+03 0.  0.
         23    2    1    2    0    0  0.96973344829E+02  0.10742539519E+03 -0.45175628178E+02  0.17614380138E+03  0.89675839802E+02 0.  0.
          5    1    3    3  502    0 -0.11959400907E+03 -0.51649140977E+02 -0.12108721999E+03  0.17790432264E+03  0.41800000000E+01 0. -1.
         -5    1    3    3    0  502  0.22620664237E+02 -0.55776254215E+02 -0.42565784966E+02  0.73837683025E+02  0.41800000000E+01 0. -1.
        -11    1    4    4    0    0  0.30844861612E+02  0.25919194718E+02  0.27235096340E+02  0.48630860729E+02  0.00000000000E+00 0.  1.
         11    1    4    4    0    0  0.66128483218E+02  0.81506200474E+02 -0.72410724518E+02  0.12751294065E+03  0.00000000000E+00 0. -1.
</event>
<event>
 8    1  0.7262913E-009  0.8419064E+02  0.7561462E-02  0.1317563E+00
         -1   -1    0    0    0  501 -0.00000000000E+00  0.00000000000E+00  0.26395136556E+03  0.26395136556E+03  0.00000000000E+00 0.  1.
          1   -1    0    0  501    0  0.00000000000E+00 -0.00000000000E+00 -0.57570648096E+02  0.57570648096E+02  0.00000000000E+00 0. -1.
         25    2    1    2    0    0 -0.55952435665E+02  0.10006916892E+02  0.15270881929E+03  0.20542074123E+03  0.12508750536E+03 0.  0.
         23    2    1    2    0    0  0.55952435665E+02 -0.10006916892E+02  0.53671898181E+02  0.11610127243E+03  0.85837167728E+02 0.  0.
          5    1    3    3  502    0 -0.78722161712E+01 -0.29840698473E+02  0.13754116863E+03  0.14102299295E+03  0.41800000000E+01 0. -1.
         -5    1    3    3    0  502 -0.48080219494E+02  0.39847615365E+02  0.15167650659E+02  0.64397748279E+02  0.41800000000E+01 0. -1.
        -11    1    4    4    0    0  0.61530569077E+02 -0.18711977490E+02  0.71078538796E+02  0.95855660813E+02  0.00000000000E+00 0.  1.
         11    1    4    4    0    0 -0.55781334120E+01  0.87050605980E+01 -0.17406640615E+02  0.20245611620E+02  0.00000000000E+00 0. -1.
</event>
<event>
 8    1  0.7262913E-009  0.1084594E+03  0.7561462E-02  0.1263450E+00
          1   -1    0    0  501    0  0.00000000000E+00  0.00000000000E+00  0.12799906222E+03  0.12799906222E+03  0.00000000000E+00 0. -1.
         -1   -1    0    0    0  501 -0.00000000000E+00 -0.00000000000E+00 -0.12679254963E+03  0.12679254963E+03  0.00000000000E+00 0.  1.
         25    2    1    2    0    0  0.83441305089E+01 -0.15936571949E+02  0.64072560527E+02  0.14169175994E+03  0.12509061908E+03 0.  0.
         23    2    1    2    0    0 -0.83441305089E+01  0.15936571949E+02 -0.62866047935E+02  0.11309985191E+03  0.92281296477E+02 0.  0.
          5    1    3    3  502    0  0.65614904570E+02 -0.81216129963E+01  0.21036801483E+02  0.69507522730E+02  0.41800000000E+01 0. -1.
         -5    1    3    3    0  502 -0.57270774061E+02 -0.78149589530E+01  0.43035759044E+02  0.72184237210E+02  0.41800000000E+01 0. -1.
        -11    1    4    4    0    0 -0.29283126629E+02  0.46929097178E+02 -0.28140949829E+02  0.62062506591E+02  0.00000000000E+00 0. -1.
         11    1    4    4    0    0  0.20938996120E+02 -0.30992525229E+02 -0.34725098106E+02  0.51037345318E+02  0.00000000000E+00 0.  1.
</event>
<event>
 8    1  0.7262913E-009  0.1080785E+03  0.7561462E-02  0.1264170E+00
         -1   -1    0    0    0  501 -0.00000000000E+00  0.00000000000E+00  0.27872422160E+02  0.27872422160E+02  0.00000000000E+00 0.  1.
          1   -1    0    0  501    0  0.00000000000E+00 -0.00000000000E+00 -0.55242277501E+03  0.55242277501E+03  0.00000000000E+00 0. -1.
         25    2    1    2    0    0 -0.45758109751E+02 -0.16056958470E+02 -0.37511757458E+03  0.39838592587E+03  0.12508605296E+03 0.  0.
         23    2    1    2    0    0  0.45758109751E+02  0.16056958470E+02 -0.14943277827E+03  0.18190927131E+03  0.91701675244E+02 0.  0.
          5    1    3    3  502    0 -0.28739323879E+02 -0.70830764726E+02 -0.20675181634E+03  0.22046934464E+03  0.41800000000E+01 0.  1.
         -5    1    3    3    0  502 -0.17018785872E+02  0.54773806256E+02 -0.16836575825E+03  0.17791658122E+03  0.41800000000E+01 0.  1.
        -11    1    4    4    0    0  0.21374559786E+02  0.41607328163E+02 -0.25986801079E+02  0.53510329781E+02  0.00000000000E+00 0.  1.
         11    1    4    4    0    0  0.24383549964E+02 -0.25550369694E+02 -0.12344597719E+03  0.12839894152E+03  0.00000000000E+00 0. -1.
</event>
<event>
 8    1  0.7262913E-009  0.1197636E+03  0.7561462E-02  0.1243488E+00
          2   -1    0    0  501    0  0.00000000000E+00  0.00000000000E+00  0.51664310810E+03  0.51664310810E+03  0.00000000000E+00 0. -1.
         -2   -1    0    0    0  501 -0.00000000000E+00 -0.00000000000E+00 -0.30216431793E+02  0.30216431793E+02  0.00000000000E+00 0.  1.
         25    2    1    2    0    0  0.84397159583E+00  0.58876099190E+02  0.31255569496E+03  0.34177351149E+03  0.12510381032E+03 0.  0.
         23    2    1    2    0    0 -0.84397159583E+00 -0.58876099190E+02  0.17387098134E+03  0.20508602840E+03  0.91444264715E+02 0.  0.
          5    1    3    3  502    0  0.57856815274E+02  0.18858903364E+02  0.20226091664E+03  0.21125818353E+03  0.41800000000E+01 0.  1.
         -5    1    3    3    0  502 -0.57012843678E+02  0.40017195826E+02  0.11029477832E+03  0.13051532796E+03  0.41800000000E+01 0.  1.
        -11    1    4    4    0    0 -0.46139163922E+02 -0.29792676686E+02  0.89301623599E+02  0.10483895273E+03  0.00000000000E+00 0.  1.
         11    1    4    4    0    0  0.45295192326E+02 -0.29083422504E+02  0.84569357743E+02  0.10024707568E+03  0.00000000000E+00 0. -1.
</event>
<event>
 8    1  0.7262913E-009  0.6821569E+02  0.7561462E-02  0.1366268E+00
         -2   -1    0    0    0  501 -0.00000000000E+00  0.00000000000E+00  0.36340320890E+02  0.36340320890E+02  0.00000000000E+00 0.  1.
          2   -1    0    0  501    0  0.00000000000E+00 -0.00000000000E+00 -0.44781756857E+03  0.44781756857E+03  0.00000000000E+00 0. -1.
         25    2    1    2    0    0 -0.31749811780E+02 -0.16164433258E+02 -0.33473545967E+03  0.35911613473E+03  0.12508889165E+03 0.  0.
         23    2    1    2    0    0  0.31749811780E+02  0.16164433258E+02 -0.76741788011E+02  0.12504175473E+03  0.92069533221E+02 0.  0.
          5    1    3    3  502    0 -0.55503573093E+00 -0.31000400867E+01 -0.32304784892E+03  0.32309024034E+03  0.41800000000E+01 0. -1.
         -5    1    3    3    0  502 -0.31194776049E+02 -0.13064393172E+02 -0.11687610752E+02  0.36025894392E+02  0.41800000000E+01 0. -1.
        -11    1    4    4    0    0  0.63350357924E+02  0.47750215912E+01 -0.39129352494E+02  0.74613503516E+02  0.00000000000E+00 0.  1.
         11    1    4    4    0    0 -0.31600546144E+02  0.11389411667E+02 -0.37612435517E+02  0.50428251211E+02  0.00000000000E+00 0. -1.
</event>
<event>
 8    1  0.7262913E-009  0.1718677E+03  0.7561462E-02  0.1175914E+00
         -2   -1    0    0    0  501 -0.00000000000E+00  0.00000000000E+00  0.32776894137E+03  0.32776894137E+03  0.00000000000E+00 0.  1.
          2   -1    0    0  501    0  0.00000000000E+00 -0.00000000000E+00 -0.13561796688E+03  0.13561796688E+03  0.00000000000E+00 0. -1.
         25    2    1    2    0    0 -0.15880983618E+03  0.46399496724E+02  0.17761498408E+03  0.27307203480E+03  0.12509107186E+03 0.  0.
         23    2    1    2    0    0  0.15880983618E+03 -0.46399496724E+02  0.14535990416E+02  0.19031487345E+03  0.92924585967E+02 0.  0.
          5    1    3    3  502    0 -0.53626097885E+02  0.33048269494E+01 -0.88890524268E+01  0.54618384346E+02  0.41800000000E+01 0.  1.
         -5    1    3    3    0  502 -0.10518373829E+03  0.43094669775E+02  0.18650403650E+03  0.21845365045E+03  0.41800000000E+01 0.  1.
        -11    1    4    4    0    0  0.87474561747E+02  0.58581387723E+01  0.42691299146E+02  0.97512377499E+02  0.00000000000E+00 0.  1.
         11    1    4    4    0    0  0.71335274428E+02 -0.52257635496E+02 -0.28155308729E+02  0.92802495953E+02  0.00000000000E+00 0. -1.
</event>
<event>
 8    1  0.7262913E-009  0.1163110E+03  0.7561462E-02  0.1249310E+00
          1   -1    0    0  501    0  0.00000000000E+00  0.00000000000E+00  0.31311262504E+02  0.31311262504E+02  0.00000000000E+00 0. -1.
         -1   -1    0    0    0  501 -0.00000000000E+00 -0.00000000000E+00 -0.63633136099E+03  0.63633136099E+03  0.00000000000E+00 0.  1.
         25    2    1    2    0    0  0.63873723992E+02  0.21867231083E+02 -0.46409524064E+03  0.48537712655E+03  0.12509410128E+03 0.  0.
         23    2    1    2    0    0 -0.63873723992E+02 -0.21867231083E+02 -0.14092485784E+03  0.18226549694E+03  0.93823597283E+02 0.  0.
          5    1    3    3  502    0 -0.24184074690E+02  0.44768808250E+02 -0.16369241909E+03  0.17146951953E+03  0.41800000000E+01 0. -1.
         -5    1    3    3    0  502  0.88057798681E+02 -0.22901577167E+02 -0.30040282155E+03  0.31390760702E+03  0.41800000000E+01 0. -1.
        -11    1    4    4    0    0  0.56467266819E+01 -0.20167399117E+02  0.41812458264E+01  0.21356318175E+02  0.00000000000E+00 0. -1.
         11    1    4    4    0    0 -0.69520450674E+02 -0.16998319662E+01 -0.14510610367E+03  0.16090917877E+03  0.00000000000E+00 0.  1.
</event>
<event>
 8    1  0.7262913E-009  0.1223993E+03  0.7561462E-02  0.1239191E+00
         -1   -1    0    0    0  501 -0.00000000000E+00  0.00000000000E+00  0.23125559997E+02  0.23125559997E+02  0.00000000000E+00 0.  1.
          1   -1    0    0  501    0  0.00000000000E+00 -0.00000000000E+00 -0.10367377616E+04  0.10367377616E+04  0.00000000000E+00 0. -1.
         25    2    1    2    0    0 -0.38139009033E+02 -0.44600952860E+02 -0.85667082820E+03  0.86774151725E+03  0.12508638562E+03 0.  0.
         23    2    1    2    0    0  0.38139009033E+02  0.44600952860E+02 -0.15694137338E+03  0.19212180432E+03  0.94001936213E+02 0.  0.
          5    1    3    3  502    0  0.34858463892E+02 -0.49848611226E+02 -0.28933097068E+03  0.29568544019E+03  0.41800000000E+01 0.  1.
         -5    1    3    3    0  502 -0.72997472924E+02  0.52476583661E+01 -0.56733985752E+03  0.57205607706E+03  0.41800000000E+01 0.  1.
        -11    1    4    4    0    0 -0.25348890935E+02  0.39362803104E+02 -0.73452826987E+02  0.87105191190E+02  0.00000000000E+00 0.  1.
         11    1    4    4    0    0  0.63487899968E+02  0.52381497565E+01 -0.83488546395E+02  0.10501661313E+03  0.00000000000E+00 0. -1.
</event>
<event>
 8    1  0.7262913E-009  0.9950975E+02  0.7561462E-02  0.1281330E+00
          1   -1    0    0  501    0  0.00000000000E+00  0.00000000000E+00  0.89317163384E+03  0.89317163384E+03  0.00000000000E+00 0. -1.
         -1   -1    0    0    0  501 -0.00000000000E+00 -0.00000000000E+00 -0.15218548310E+02  0.15218548310E+02  0.00000000000E+00 0.  1.
         25    2    1    2    0    0 -0.26321412917E+02 -0.20975409252E-01  0.63823181007E+03  0.65090659806E+03  0.12508692497E+03 0.  0.
         23    2    1    2    0    0  0.26321412917E+02  0.20975409252E-01  0.23972127546E+03  0.25748358409E+03  0.90214682553E+02 0.  0.
          5    1    3    3  502    0 -0.25904633283E+02 -0.51133485040E+02  0.16145210080E+03  0.17137659283E+03  0.41800000000E+01 0. -1.
         -5    1    3    3    0  502 -0.41677963371E+00  0.51112509630E+02  0.47677970927E+03  0.47953000523E+03  0.41800000000E+01 0. -1.
        -11    1    4    4    0    0  0.46828988243E+02 -0.28734846642E+02  0.10885114116E+03  0.12193119570E+03  0.00000000000E+00 0.  1.
         11    1    4    4    0    0 -0.20507575326E+02  0.28755822051E+02  0.13087013429E+03  0.13555238839E+03  0.00000000000E+00 0. -1.
</event>
<event>
 8    1  0.7262913E-009  0.1304742E+03  0.7561462E-02  0.1226754E+00
          2   -1    0    0  501    0  0.00000000000E+00  0.00000000000E+00  0.84685584348E+03  0.84685584348E+03  0.00000000000E+00 0. -1.
         -2   -1    0    0    0  501 -0.00000000000E+00 -0.00000000000E+00 -0.23932062014E+02  0.23932062014E+02  0.00000000000E+00 0.  1.
         25    2    1    2    0    0 -0.84425536047E+02  0.32846119553E+02  0.38926356565E+03  0.41878381274E+03  0.12508884671E+03 0.  0.
         23    2    1    2    0    0  0.84425536047E+02 -0.32846119553E+02  0.43366021582E+03  0.45200409275E+03  0.89665926471E+02 0.  0.
          5    1    3    3  502    0  0.11463106796E+02  0.35970910056E+02  0.34706610878E+02  0.51452214979E+02  0.41800000000E+01 0. -1.
         -5    1    3    3    0  502 -0.95888642843E+02 -0.31247905037E+01  0.35455695477E+03  0.36733159776E+03  0.41800000000E+01 0. -1.
        -11    1    4    4    0    0  0.14959306233E+01 -0.43319655391E+02  0.16815327893E+03  0.17365009521E+03  0.00000000000E+00 0. -1.
         11    1    4    4    0    0  0.82929605424E+02  0.10473535839E+02  0.26550693689E+03  0.27835399753E+03  0.00000000000E+00 0.  1.
</event>
<event>
 8    1  0.7262913E-009  0.7626590E+02  0.7561462E-02  0.1339995E+00
         -4   -1    0    0    0  501 -0.00000000000E+00  0.00000000000E+00  0.25737067767E+02  0.25737067767E+02  0.00000000000E+00 0.  1.
          4   -1    0    0  501    0  0.00000000000E+00 -0.00000000000E+00 -0.64965984904E+03  0.64965984904E+03  0.00000000000E+00 0. -1.
         25    2    1    2    0    0 -0.58637759150E+02 -0.21042601055E+02 -0.26278151873E+03  0.29763004653E+03  0.12509332576E+03 0.  0.
         23    2    1    2    0    0  0.58637759150E+02  0.21042601055E+02 -0.36114126254E+03  0.37776687028E+03  0.91671254584E+02 0.  0.
          5    1    3    3  502    0 -0.14365773593E+02 -0.22360319641E+02  0.39688232849E+01  0.27195280907E+02  0.41800000000E+01 0. -1.
         -5    1    3    3    0  502 -0.44271985557E+02  0.13177185862E+01 -0.26675034202E+03  0.27043476562E+03  0.41800000000E+01 0. -1.
        -11    1    4    4    0    0  0.63742060891E+02  0.45832454148E+01 -0.35294556685E+03  0.35868458237E+03  0.00000000000E+00 0. -1.
         11    1    4    4    0    0 -0.51043017409E+01  0.16459355640E+02 -0.81956956847E+01  0.19082287916E+02  0.00000000000E+00 0.  1.
</event>
<event>
 8    1  0.7262913E-009  0.1161628E+03  0.7561462E-02  0.1249565E+00
         -1   -1    0    0    0  501 -0.00000000000E+00  0.00000000000E+00  0.16070510596E+02  0.16070510596E+02  0.00000000000E+00 0.  1.
          1   -1    0    0  501    0  0.00000000000E+00 -0.00000000000E+00 -0.89053204609E+03  0.89053204609E+03  0.00000000000E+00 0. -1.
         25    2    1    2    0    0 -0.12478197630E+02 -0.48379391114E+02 -0.51448919804E+03  0.53183103398E+03  0.12509533524E+03 0.  0.
         23    2    1    2    0    0  0.12478197630E+02  0.48379391114E+02 -0.35997233745E+03  0.37477152270E+03  0.91527807808E+02 0.  0.
          5    1    3    3  502    0  0.35111594527E+02 -0.68181517547E+02 -0.22470698816E+03  0.23747051676E+03  0.41800000000E+01 0.  1.
         -5    1    3    3    0  502 -0.47589792157E+02  0.19802126433E+02 -0.28978220989E+03  0.29436051721E+03  0.41800000000E+01 0.  1.
        -11    1    4    4    0    0 -0.39682134932E+02  0.21094370777E+02 -0.17367915345E+03  0.17939925489E+03  0.00000000000E+00 0. -1.
         11    1    4    4    0    0  0.52160332562E+02  0.27285020336E+02 -0.18629318400E+03  0.19537226781E+03  0.00000000000E+00 0.  1.
</event>
<event>
 8    1  0.7262913E-009  0.1244944E+03  0.7561462E-02  0.1235862E+00
          2   -1    0    0  501    0  0.00000000000E+00  0.00000000000E+00  0.58158223467E+03  0.58158223467E+03  0.00000000000E+00 0. -1.
         -2   -1    0    0    0  501 -0.00000000000E+00 -0.00000000000E+00 -0.33349398162E+02  0.33349398162E+02  0.00000000000E+00 0.  1.
         25    2    1    2    0    0 -0.22838618811E+01  0.78684708344E+02  0.21482983705E+03  0.26076218899E+03  0.12509420836E+03 0.  0.
         23    2    1    2    0    0  0.22838618811E+01 -0.78684708344E+02  0.33340299945E+03  0.35416944384E+03  0.89899585954E+02 0.  0.
          5    1    3    3  502    0 -0.19666233049E+02 -0.23047304215E+02  0.11452598957E+02  0.32658435002E+02  0.41800000000E+01 0.  1.
         -5    1    3    3    0  502  0.17382371168E+02  0.10173201256E+03  0.20337723809E+03  0.22810375398E+03  0.41800000000E+01 0.  1.
        -11    1    4    4    0    0  0.23600433015E+02 -0.88538165951E+02  0.29730536767E+03  0.31110523768E+03  0.00000000000E+00 0. -1.
         11    1    4    4    0    0 -0.21316571134E+02  0.98534576075E+01  0.36097631786E+02  0.43064206162E+02  0.00000000000E+00 0.  1.
</event>
<event>
 8    1  0.7262913E-009  0.1359128E+03  0.7561462E-02  0.1218937E+00
         -1   -1    0    0    0  501 -0.00000000000E+00  0.00000000000E+00  0.45738710676E+03  0.45738710676E+03  0.00000000000E+00 0.  1.
          1   -1    0    0  501    0  0.00000000000E+00 -0.00000000000E+00 -0.61963576891E+02  0.61963576891E+02  0.00000000000E+00 0. -1.
         25    2    1    2    0    0  0.12073381000E+03 -0.27532810610E+02  0.16369018459E+03  0.24036670544E+03  0.12508784121E+03 0.  0.
         23    2    1    2    0    0 -0.12073381000E+03  0.27532810610E+02  0.23173334528E+03  0.27898397821E+03  0.93792367733E+02 0.  0.
          5    1    3    3  502    0  0.67512190877E+02  0.11944785384E+02  0.15970614523E+03  0.17385079534E+03  0.41800000000E+01 0. -1.
         -5    1    3    3    0  502  0.53221619121E+02 -0.39477595994E+02  0.39840393528E+01  0.66515910103E+02  0.41800000000E+01 0. -1.
        -11    1    4    4    0    0 -0.59099891379E+02 -0.16066950356E+02  0.17242165534E+03  0.18297587624E+03  0.00000000000E+00 0.  1.
         11    1    4    4    0    0 -0.61633918619E+02  0.43599760966E+02  0.59311689947E+02  0.96008101975E+02  0.00000000000E+00 0. -1.
</event>
<event>
 8    1  0.7262913E-009  0.9143588E+02  0.7561462E-02  0.1299411E+00
         -2   -1    0    0    0  501 -0.00000000000E+00  0.00000000000E+00  0.11725845311E+02  0.11725845311E+02  0.00000000000E+00 0. -1.
          2   -1    0    0  501    0  0.00000000000E+00 -0.00000000000E+00 -0.11165740051E+04  0.11165740051E+04  0.00000000000E+00 0.  1.
         25    2    1    2    0    0 -0.28072090995E+02  0.11201897758E+02 -0.61780278904E+03  0.63106335473E+03  0.12508855554E+03 0.  0.
         23    2    1    2    0    0  0.28072090995E+02 -0.11201897758E+02 -0.48704537079E+03  0.49723649573E+03  0.95485154176E+02 0.  0.
          5    1    3    3  502    0  0.62380645328E+01  0.38219541464E+02 -0.59974651997E+02  0.71512782641E+02  0.41800000000E+01 0. -1.
         -5    1    3    3    0  502 -0.34310155528E+02 -0.27017643707E+02 -0.55782813705E+03  0.55955057209E+03  0.41800000000E+01 0. -1.
        -11    1    4    4    0    0  0.14585336625E+02  0.42368707250E+02 -0.20694547284E+03  0.21174104026E+03  0.00000000000E+00 0.  1.
         11    1    4    4    0    0  0.13486754371E+02 -0.53570605007E+02 -0.28009989795E+03  0.28549545547E+03  0.00000000000E+00 0. -1.
</event>
<event>
 8    1  0.7262913E-009  0.1254523E+03  0.7561462E-02  0.1234364E+00
         -2   -1    0    0    0  501 -0.00000000000E+00  0.00000000000E+00  0.36628750569E+02  0.36628750569E+02  0.00000000000E+00 0.  1.
          2   -1    0    0  501    0  0.00000000000E+00 -0.00000000000E+00 -0.61683024381E+03  0.61683024381E+03  0.00000000000E+00 0. -1.
         25    2    1    2    0    0  0.83435505480E+02 -0.17637532635E+02 -0.18592466391E+03  0.23976949934E+03  0.12509542770E+03 0.  0.
         23    2    1    2    0    0 -0.83435505480E+02  0.17637532635E+02 -0.39427682933E+03  0.41368949503E+03  0.91718122662E+02 0.  0.
          5    1    3    3  502    0  0.38491786840E+02 -0.54894398307E+02 -0.30662284954E+02  0.73842133895E+02  0.41800000000E+01 0. -1.
         -5    1    3    3    0  502  0.44943718640E+02  0.37256865672E+02 -0.15526237896E+03  0.16592736545E+03  0.41800000000E+01 0. -1.
        -11    1    4    4    0    0 -0.70228374928E+02  0.52655671846E+02 -0.28096738319E+03  0.29435915960E+03  0.00000000000E+00 0.  1.
         11    1    4    4    0    0 -0.13207130552E+02 -0.35018139211E+02 -0.11330944614E+03  0.11933033544E+03  0.00000000000E+00 0. -1.
</event>
<event>
 8    1  0.7262913E-009  0.1749620E+03  0.7561462E-02  0.1172770E+00
          2   -1    0    0  501    0  0.00000000000E+00  0.00000000000E+00  0.20129734214E+03  0.20129734214E+03  0.00000000000E+00 0. -1.
         -2   -1    0    0    0  501 -0.00000000000E+00 -0.00000000000E+00 -0.31503060219E+03  0.31503060219E+03  0.00000000000E+00 0.  1.
         25    2    1    2    0    0 -0.75706179993E+01  0.15571230681E+03  0.11057256636E+03  0.22842342170E+03  0.12508928972E+03 0.  0.
         23    2    1    2    0    0  0.75706179993E+01 -0.15571230681E+03 -0.22430582641E+03  0.28790452263E+03  0.90952040330E+02 0.  0.
          5    1    3    3  502    0  0.31897932445E+02  0.18325766587E+01  0.47609841330E+02  0.57489180051E+02  0.41800000000E+01 0. -1.
         -5    1    3    3    0  502 -0.39468550444E+02  0.15387973015E+03  0.62962725032E+02  0.17093424165E+03  0.41800000000E+01 0. -1.
        -11    1    4    4    0    0  0.19312926746E+02 -0.93202091765E+02 -0.62033259357E+02  0.11361225425E+03  0.00000000000E+00 0.  1.
         11    1    4    4    0    0 -0.11742308747E+02 -0.62510215046E+02 -0.16227256705E+03  0.17429226838E+03  0.00000000000E+00 0. -1.
</event>
<event>
 8    1  0.7262913E-009  0.1135960E+03  0.7561462E-02  0.1254052E+00
          2   -1    0    0  501    0  0.00000000000E+00  0.00000000000E+00  0.13280234821E+04  0.13280234821E+04  0.00000000000E+00 0. -1.
         -2   -1    0    0    0  501 -0.00000000000E+00 -0.00000000000E+00 -0.13149706985E+02  0.13149706985E+02  0.00000000000E+00 0.  1.
         25    2    1    2    0    0 -0.62255991117E+02 -0.31333582362E+02  0.80532544186E+03  0.81795667987E+03  0.12508581461E+03 0.  0.
         23    2    1    2    0    0  0.62255991117E+02  0.31333582362E+02  0.50954833327E+03  0.52321650924E+03  0.96220630754E+02 0.  0.
          5    1    3    3  502    0 -0.73602835839E+02  0.16091142959E+01  0.74118600647E+03  0.74484504112E+03  0.41800000000E+01 0. -1.
         -5    1    3    3    0  502  0.11346844722E+02 -0.32942696658E+02  0.64139435391E+02  0.73111638749E+02  0.41800000000E+01 0. -1.
        -11    1    4    4    0    0  0.54720528497E+02 -0.25965627362E+02  0.28343761756E+03  0.28983690774E+03  0.00000000000E+00 0.  1.
         11    1    4    4    0    0  0.75354626197E+01  0.57299209724E+02  0.22611071572E+03  0.23337960150E+03  0.00000000000E+00 0. -1.
</event>
<event>
 8    1  0.7262913E-009  0.1088329E+03  0.7561462E-02  0.1262747E+00
         -2   -1    0    0    0  501 -0.00000000000E+00  0.00000000000E+00  0.37396752449E+02  0.37396752449E+02  0.00000000000E+00 0.  1.
          2   -1    0    0  501    0  0.00000000000E+00 -0.00000000000E+00 -0.12665181441E+04  0.12665181441E+04  0.00000000000E+00 0. -1.
         25    2    1    2    0    0 -0.31919802590E+02 -0.43399602403E+02 -0.11823190567E+04  0.11901384080E+04  0.12509467980E+03 0.  0.
         23    2    1    2    0    0  0.31919802590E+02  0.43399602403E+02 -0.46802334912E+02  0.11377648858E+03  0.88612817999E+02 0.  0.
          5    1    3    3  502    0 -0.35239216595E+02 -0.77758317540E+02 -0.10448475297E+04  0.10483377275E+04  0.41800000000E+01 0. -1.
         -5    1    3    3    0  502  0.33194140049E+01  0.34358715137E+02 -0.13747152707E+03  0.14180068043E+03  0.41800000000E+01 0. -1.
        -11    1    4    4    0    0  0.22315193600E+02  0.67704951010E+02 -0.15418436728E+02  0.72935974991E+02  0.00000000000E+00 0.  1.
         11    1    4    4    0    0  0.96046089896E+01 -0.24305348608E+02 -0.31383898185E+02  0.40840513587E+02  0.00000000000E+00 0. -1.
</event>
<event>
 8    1  0.7262913E-009  0.1084871E+03  0.7561462E-02  0.1263397E+00
          1   -1    0    0  501    0  0.00000000000E+00  0.00000000000E+00  0.28864252275E+03  0.28864252275E+03  0.00000000000E+00 0. -1.
         -1   -1    0    0    0  501 -0.00000000000E+00 -0.00000000000E+00 -0.52968157618E+02  0.52968157618E+02  0.00000000000E+00 0.  1.
         25    2    1    2    0    0  0.34986684895E+02 -0.45689211503E+02  0.10122054626E+03  0.17089386565E+03  0.12509013616E+03 0.  0.
         23    2    1    2    0    0 -0.34986684895E+02  0.45689211503E+02  0.13445381887E+03  0.17071681471E+03  0.88061508335E+02 0.  0.
          5    1    3    3  502    0  0.75363128273E+01  0.41480759835E+02  0.51780173191E+02  0.66903723239E+02  0.41800000000E+01 0. -1.
         -5    1    3    3    0  502  0.27450372068E+02 -0.87169971338E+02  0.49440373070E+02  0.10399014241E+03  0.41800000000E+01 0. -1.
        -11    1    4    4    0    0 -0.12084849696E+02 -0.14410343635E+02 -0.29205567334E+01  0.19032373669E+02  0.00000000000E+00 0.  1.
         11    1    4    4    0    0 -0.22901835199E+02  0.60099555137E+02  0.13737437560E+03  0.15168444105E+03  0.00000000000E+00 0. -1.
</event>
<event>
 8    1  0.7262913E-009  0.3081012E+03  0.7561462E-02  0.1081260E+00
          1   -1    0    0  501    0  0.00000000000E+00  0.00000000000E+00  0.11077715202E+04  0.11077715202E+04  0.00000000000E+00 0. -1.
         -1   -1    0    0    0  501 -0.00000000000E+00 -0.00000000000E+00 -0.94470889918E+02  0.94470889918E+02  0.00000000000E+00 0.  1.
         25    2    1    2    0    0  0.17740964241E+03  0.24516512621E+03  0.59640036068E+03  0.68038291911E+03  0.12508959217E+03 0.  0.
         23    2    1    2    0    0 -0.17740964241E+03 -0.24516512621E+03  0.41690026962E+03  0.52185949102E+03  0.83374895685E+02 0.  0.
          5    1    3    3  502    0  0.86086216406E+02  0.90062932894E+02  0.37408802913E+03  0.39431141814E+03  0.41800000000E+01 0.  1.
         -5    1    3    3    0  502  0.91323426007E+02  0.15510219332E+03  0.22231233155E+03  0.28607150097E+03  0.41800000000E+01 0.  1.
        -11    1    4    4    0    0 -0.72269027708E+02 -0.44244532432E+02  0.14352385397E+03  0.16667179628E+03  0.00000000000E+00 0. -1.
         11    1    4    4    0    0 -0.10514061471E+03 -0.20092059378E+03  0.27337641565E+03  0.35518769474E+03  0.00000000000E+00 0.  1.
</event>
<event>
 8    1  0.7262913E-009  0.1618725E+03  0.7561462E-02  0.1186599E+00
         -2   -1    0    0    0  501 -0.00000000000E+00  0.00000000000E+00  0.28109223188E+02  0.28109223188E+02  0.00000000000E+00 0.  1.
          2   -1    0    0  501    0  0.00000000000E+00 -0.00000000000E+00 -0.13629265822E+04  0.13629265822E+04  0.00000000000E+00 0. -1.
         25    2    1    2    0    0 -0.25699195114E+01 -0.13527466622E+03 -0.10204030993E+04  0.10369069082E+04  0.12509041347E+03 0.  0.
         23    2    1    2    0    0  0.25699195114E+01  0.13527466622E+03 -0.31441425973E+03  0.35412889714E+03  0.90802583996E+02 0.  0.
          5    1    3    3  502    0  0.43335839502E+02 -0.35540148376E+02 -0.59114809416E+03  0.59381363975E+03  0.41800000000E+01 0. -1.
         -5    1    3    3    0  502 -0.45905759014E+02 -0.99734517845E+02 -0.42925500512E+03  0.44309326849E+03  0.41800000000E+01 0. -1.
        -11    1    4    4    0    0 -0.19622498426E+02 -0.95591061714E+00 -0.77391291190E+02  0.79845902597E+02  0.00000000000E+00 0.  1.
         11    1    4    4    0    0  0.22192417937E+02  0.13623057684E+03 -0.23702296854E+03  0.27428299454E+03  0.00000000000E+00 0. -1.
</event>
<event>
 8    1  0.7262913E-009  0.1001358E+03  0.7561462E-02  0.1280011E+00
         -1   -1    0    0    0  501 -0.00000000000E+00  0.00000000000E+00  0.56364036002E+02  0.56364036002E+02  0.00000000000E+00 0.  1.
          1   -1    0    0  501    0  0.00000000000E+00 -0.00000000000E+00 -0.23403940191E+03  0.23403940191E+03  0.00000000000E+00 0. -1.
         25    2    1    2    0    0 -0.71076874636E+01 -0.28608479416E+02 -0.13506909768E+03  0.18643887691E+03  0.12508728696E+03 0.  0.
         23    2    1    2    0    0  0.71076874636E+01  0.28608479416E+02 -0.42606268231E+02  0.10396456100E+03  0.90135295731E+02 0.  0.
          5    1    3    3  502    0  0.41237609878E+02  0.18409738834E+02 -0.13441657435E+02  0.47303377332E+02  0.41800000000E+01 0.  1.
         -5    1    3    3    0  502 -0.48345297341E+02 -0.47018218250E+02 -0.12162744024E+03  0.13913549958E+03  0.41800000000E+01 0.  1.
        -11    1    4    4    0    0 -0.82126337402E+01 -0.27753443078E+02  0.40307724613E+01  0.29222390085E+02  0.00000000000E+00 0. -1.
         11    1    4    4    0    0  0.15320321204E+02  0.56361922495E+02 -0.46637040692E+02  0.74742170919E+02  0.00000000000E+00 0.  1.
</event>
<event>
 8    1  0.7262913E-009  0.7755224E+02  0.7561462E-02  0.1336145E+00
         -2   -1    0    0    0  501 -0.00000000000E+00  0.00000000000E+00  0.39460109619E+02  0.39460109619E+02  0.00000000000E+00 0.  1.
          2   -1    0    0  501    0  0.00000000000E+00 -0.00000000000E+00 -0.36635221827E+03  0.36635221827E+03  0.00000000000E+00 0. -1.
         25    2    1    2    0    0 -0.16329514769E+02  0.47851583535E+02 -0.21508733660E+03  0.25390424513E+03  0.12509346997E+03 0.  0.
         23    2    1    2    0    0  0.16329514769E+02 -0.47851583535E+02 -0.11180477205E+03  0.15190808276E+03  0.89550720013E+02 0.  0.
          5    1    3    3  502    0 -0.15202690002E+02  0.59672675094E+02 -0.22779991558E+03  0.23601318580E+03  0.41800000000E+01 0.  1.
         -5    1    3    3    0  502 -0.11268247671E+01 -0.11821091559E+02  0.12712578974E+02  0.17891059328E+02  0.41800000000E+01 0.  1.
        -11    1    4    4    0    0  0.40056684364E+02 -0.21980813025E+02 -0.13683157829E+02  0.47696151959E+02  0.00000000000E+00 0.  1.
         11    1    4    4    0    0 -0.23727169595E+02 -0.25870770510E+02 -0.98121614220E+02  0.10421193080E+03  0.00000000000E+00 0. -1.
</event>
<event>
 8    1  0.7262913E-009  0.8690228E+02  0.7561462E-02  0.1310532E+00
         -3   -1    0    0    0  501 -0.00000000000E+00  0.00000000000E+00  0.30627343962E+03  0.30627343962E+03  0.00000000000E+00 0.  1.
          3   -1    0    0  501    0  0.00000000000E+00 -0.00000000000E+00 -0.53428206855E+02  0.53428206855E+02  0.00000000000E+00 0. -1.
         25    2    1    2    0    0  0.10710240491E+01 -0.67598002182E+02  0.15517747074E+03  0.21047156050E+03  0.12509034080E+03 0.  0.
         23    2    1    2    0    0 -0.10710240491E+01  0.67598002182E+02  0.97667762020E+02  0.14923008597E+03  0.90332662030E+02 0.  0.
          5    1    3    3  502    0  0.17021127429E+02 -0.22137665274E+01  0.14031379034E+03  0.14142153903E+03  0.41800000000E+01 0.  1.
         -5    1    3    3    0  502 -0.15950103380E+02 -0.65384235654E+02  0.14863680397E+02  0.69050021469E+02  0.41800000000E+01 0.  1.
        -11    1    4    4    0    0  0.95015507282E+01  0.75128452935E+02  0.31862864034E+02  0.82157203038E+02  0.00000000000E+00 0. -1.
         11    1    4    4    0    0 -0.10572574777E+02 -0.75304507529E+01  0.65804897986E+02  0.67072882933E+02  0.00000000000E+00 0.  1.
</event>
<event>
 8    1  0.7262913E-009  0.1083642E+03  0.7561462E-02  0.1263629E+00
          2   -1    0    0  501    0  0.00000000000E+00  0.00000000000E+00  0.37554877650E+03  0.37554877650E+03  0.00000000000E+00 0. -1.
         -2   -1    0    0    0  501 -0.00000000000E+00 -0.00000000000E+00 -0.36254497574E+02  0.36254497574E+02  0.00000000000E+00 0.  1.
         25    2    1    2    0    0 -0.17745081658E+02  0.11874743483E+02  0.25847592405E+03  0.28794463278E+03  0.12508561378E+03 0.  0.
         23    2    1    2    0    0  0.17745081658E+02 -0.11874743483E+02  0.80818354872E+02  0.12385864129E+03  0.91397259714E+02 0.  0.
          5    1    3    3  502    0 -0.27932828335E+02  0.65774825057E+02  0.15586589293E+03  0.17151740287E+03  0.41800000000E+01 0.  1.
         -5    1    3    3    0  502  0.10187746677E+02 -0.53900081574E+02  0.10261003112E+03  0.11642722991E+03  0.41800000000E+01 0.  1.
        -11    1    4    4    0    0  0.52860385201E+02  0.60980896508E+00  0.29821863375E+02  0.60695434142E+02  0.00000000000E+00 0.  1.
         11    1    4    4    0    0 -0.35115303543E+02 -0.12484552448E+02  0.50996491497E+02  0.63163207152E+02  0.00000000000E+00 0. -1.
</event>
<event>
 8    1  0.7262913E-009  0.1796423E+03  0.7561462E-02  0.1168150E+00
          1   -1    0    0  501    0  0.00000000000E+00  0.00000000000E+00  0.69353942136E+02  0.69353942136E+02  0.00000000000E+00 0. -1.
         -1   -1    0    0    0  501 -0.00000000000E+00 -0.00000000000E+00 -0.85727084256E+03  0.85727084256E+03  0.00000000000E+00 0.  1.
         25    2    1    2    0    0 -0.52204836313E+02  0.14836045693E+03 -0.11983725379E+03  0.23398514674E+03  0.12510759923E+03 0.  0.
         23    2    1    2    0    0  0.52204836313E+02 -0.14836045693E+03 -0.66807964664E+03  0.69263963796E+03  0.93183065540E+02 0.  0.
          5    1    3    3  502    0  0.13689908366E+02 -0.17336141247E+02 -0.10931530846E+02  0.24998522977E+02  0.41800000000E+01 0.  1.
         -5    1    3    3    0  502 -0.65894744679E+02  0.16569659818E+03 -0.10890572295E+03  0.20898662377E+03  0.41800000000E+01 0.  1.
        -11    1    4    4    0    0  0.29255885476E+02 -0.10915189406E+03 -0.60158728528E+03  0.61210889932E+03  0.00000000000E+00 0.  1.
         11    1    4    4    0    0  0.22948950838E+02 -0.39208562874E+02 -0.66492361355E+02  0.80530738639E+02  0.00000000000E+00 0. -1.
</event>
<event>
 8    1  0.7262913E-009  0.9981102E+02  0.7561462E-02  0.1280694E+00
         -2   -1    0    0    0  501 -0.00000000000E+00  0.00000000000E+00  0.38874808854E+02  0.38874808854E+02  0.00000000000E+00 0.  1.
          2   -1    0    0  501    0  0.00000000000E+00 -0.00000000000E+00 -0.31195511632E+03  0.31195511632E+03  0.00000000000E+00 0. -1.
         25    2    1    2    0    0 -0.11979389043E+02 -0.17058053648E+02 -0.19550411977E+03  0.23303452591E+03  0.12509494978E+03 0.  0.
         23    2    1    2    0    0  0.11979389043E+02  0.17058053648E+02 -0.77576187694E+02  0.11779539927E+03  0.86158042198E+02 0.  0.
          5    1    3    3  502    0  0.48978169560E+02  0.16751527915E+02 -0.11675286651E+03  0.12778176325E+03  0.41800000000E+01 0.  1.
         -5    1    3    3    0  502 -0.60957558604E+02 -0.33809581563E+02 -0.78751253260E+02  0.10525276265E+03  0.41800000000E+01 0.  1.
        -11    1    4    4    0    0  0.20607533188E+02 -0.26434893498E+02 -0.62573894624E+02  0.70985676772E+02  0.00000000000E+00 0. -1.
         11    1    4    4    0    0 -0.86281441441E+01  0.43492947146E+02 -0.15002293069E+02  0.46809722496E+02  0.00000000000E+00 0.  1.
</event>
<event>
 8    1  0.7262913E-009  0.1055237E+03  0.7561462E-02  0.1269091E+00
          2   -1    0    0  501    0  0.00000000000E+00  0.00000000000E+00  0.14189544385E+03  0.14189544385E+03  0.00000000000E+00 0. -1.
         -2   -1    0    0    0  501 -0.00000000000E+00 -0.00000000000E+00 -0.12786960564E+03  0.12786960564E+03  0.00000000000E+00 0.  1.
         25    2    1    2    0    0 -0.47622042389E+02 -0.13985534267E+01 -0.56538745110E+02  0.14529558386E+03  0.12507742450E+03 0.  0.
         23    2    1    2    0    0  0.47622042389E+02  0.13985534267E+01  0.70564583322E+02  0.12446946563E+03  0.90793571255E+02 0.  0.
          5    1    3    3  502    0  0.42677064721E+02 -0.47242688165E+01 -0.22413631672E+02  0.48615777828E+02  0.41800000000E+01 0. -1.
         -5    1    3    3    0  502 -0.90299107110E+02  0.33257153898E+01 -0.34125113437E+02  0.96679806034E+02  0.41800000000E+01 0. -1.
        -11    1    4    4    0    0  0.59473048745E+02 -0.10796137176E+02  0.83515727498E+02  0.10309450443E+03  0.00000000000E+00 0. -1.
         11    1    4    4    0    0 -0.11851006356E+02  0.12194690603E+02 -0.12951144176E+02  0.21374961193E+02  0.00000000000E+00 0.  1.
</event>
<event>
 8    1  0.7262913E-009  0.8829311E+02  0.7561462E-02  0.1307039E+00
         -2   -1    0    0    0  501 -0.00000000000E+00  0.00000000000E+00  0.34245769289E+03  0.34245769289E+03  0.00000000000E+00 0. -1.
          2   -1    0    0  501    0  0.00000000000E+00 -0.00000000000E+00 -0.67034253297E+02  0.67034253297E+02  0.00000000000E+00 0.  1.
         25    2    1    2    0    0  0.36488571375E+02  0.72975480184E+02  0.23865446804E+03  0.28152716805E+03  0.12507899378E+03 0.  0.
         23    2    1    2    0    0 -0.36488571375E+02 -0.72975480184E+02  0.36768971554E+02  0.12796477814E+03  0.91466882673E+02 0.  0.
          5    1    3    3  502    0  0.41535954792E+02  0.44605793284E+02  0.25184442606E+02  0.66080563590E+02  0.41800000000E+01 0.  1.
         -5    1    3    3    0  502 -0.50473834175E+01  0.28369686900E+02  0.21347002543E+03  0.21544660446E+03  0.41800000000E+01 0.  1.
        -11    1    4    4    0    0  0.46723064978E+01 -0.11292105193E+02  0.51010572446E+02  0.52453985444E+02  0.00000000000E+00 0. -1.
         11    1    4    4    0    0 -0.41160877872E+02 -0.61683374990E+02 -0.14241600891E+02  0.75510792695E+02  0.00000000000E+00 0.  1.
</event>
<event>
 8    1  0.7262913E-009  0.2146280E+03  0.7561462E-02  0.1137953E+00
          1   -1    0    0  501    0  0.00000000000E+00  0.00000000000E+00  0.63291242361E+03  0.63291242361E+03  0.00000000000E+00 0. -1.
         -1   -1    0    0    0  501 -0.00000000000E+00 -0.00000000000E+00 -0.75041612080E+02  0.75041612080E+02  0.00000000000E+00 0.  1.
         25    2    1    2    0    0  0.85577418803E+02  0.16553270012E+03  0.24549430162E+03  0.33262247243E+03  0.12508272311E+03 0.  0.
         23    2    1    2    0    0 -0.85577418803E+02 -0.16553270012E+03  0.31237650990E+03  0.37533156326E+03  0.92574991332E+02 0.  0.
          5    1    3    3  502    0  0.80002970469E+02  0.25329167911E+02  0.94801964326E+02  0.12667646534E+03  0.41800000000E+01 0.  1.
         -5    1    3    3    0  502  0.55744483338E+01  0.14020353220E+03  0.15069233730E+03  0.20594600709E+03  0.41800000000E+01 0.  1.
        -11    1    4    4    0    0 -0.75969723501E+02 -0.54707894620E+02  0.11041952140E+03  0.14476471714E+03  0.00000000000E+00 0.  1.
         11    1    4    4    0    0 -0.96076953025E+01 -0.11082480550E+03  0.20195698851E+03  0.23056684612E+03  0.00000000000E+00 0. -1.
</event>
<event>
 8    1  0.7262913E-009  0.1983225E+03  0.7561462E-02  0.1151162E+00
          2   -1    0    0  501    0  0.00000000000E+00  0.00000000000E+00  0.41035296233E+03  0.41035296233E+03  0.00000000000E+00 0. -1.
         -2   -1    0    0    0  501 -0.00000000000E+00 -0.00000000000E+00 -0.11861510541E+03  0.11861510541E+03  0.00000000000E+00 0.  1.
         25    2    1    2    0    0  0.14845700536E+03 -0.73915508992E+02  0.38157520708E+02  0.21120027900E+03  0.12508627643E+03 0.  0.
         23    2    1    2    0    0 -0.14845700536E+03  0.73915508992E+02  0.25358033621E+03  0.31776778874E+03  0.95762183234E+02 0.  0.
          5    1    3    3  502    0 -0.10319470516E+02 -0.42036054240E+02 -0.43908733240E+01  0.43706675650E+02  0.41800000000E+01 0. -1.
         -5    1    3    3    0  502  0.15877647588E+03 -0.31879454752E+02  0.42548394032E+02  0.16749360335E+03  0.41800000000E+01 0. -1.
        -11    1    4    4    0    0 -0.89877026409E+02 -0.82450309988E+01  0.12923834874E+03  0.15763378825E+03  0.00000000000E+00 0. -1.
         11    1    4    4    0    0 -0.58579978954E+02  0.82160539991E+02  0.12434198748E+03  0.16013400050E+03  0.00000000000E+00 0.  1.
</event>
<event>
 8    1  0.7262913E-009  0.1201790E+03  0.7561462E-02  0.1242802E+00
         -2   -1    0    0    0  501 -0.00000000000E+00  0.00000000000E+00  0.10686018590E+03  0.10686018590E+03  0.00000000000E+00 0.  1.
          2   -1    0    0  501    0  0.00000000000E+00 -0.00000000000E+00 -0.16019429808E+03  0.16019429808E+03  0.00000000000E+00 0. -1.
         25    2    1    2    0    0  0.71013243691E+02  0.29318982596E+02 -0.26903931018E+02  0.14924798245E+03  0.12509458518E+03 0.  0.
         23    2    1    2    0    0 -0.71013243691E+02 -0.29318982596E+02 -0.26430181161E+02  0.11780650154E+03  0.85307290473E+02 0.  0.
          5    1    3    3  502    0  0.79971367577E+02 -0.27256299682E+02 -0.34418652338E+02  0.91326017833E+02  0.41800000000E+01 0.  1.
         -5    1    3    3    0  502 -0.89581238857E+01  0.56575282279E+02  0.75147213196E+01  0.57921964616E+02  0.41800000000E+01 0.  1.
        -11    1    4    4    0    0 -0.24390782782E+02 -0.43268058486E+02  0.17083473421E+02  0.52525043874E+02  0.00000000000E+00 0.  1.
         11    1    4    4    0    0 -0.46622460909E+02  0.13949075890E+02 -0.43513654581E+02  0.65281457662E+02  0.00000000000E+00 0. -1.
</event>
<event>
 8    1  0.7262913E-009  0.1166913E+03  0.7561462E-02  0.1248657E+00
         -4   -1    0    0    0  501 -0.00000000000E+00  0.00000000000E+00  0.45928898122E+02  0.45928898122E+02  0.00000000000E+00 0.  1.
          4   -1    0    0  501    0  0.00000000000E+00 -0.00000000000E+00 -0.58787790713E+03  0.58787790713E+03  0.00000000000E+00 0. -1.
         25    2    1    2    0    0 -0.13074385925E+02 -0.38466388356E+02 -0.50978598380E+03  0.52647744769E+03  0.12508457557E+03 0.  0.
         23    2    1    2    0    0  0.13074385925E+02  0.38466388356E+02 -0.32163025207E+02  0.10732935756E+03  0.93992170971E+02 0.  0.
          5    1    3    3  502    0 -0.20781939444E+02 -0.83234098892E+02 -0.33021575571E+03  0.34120334398E+03  0.41800000000E+01 0. -1.
         -5    1    3    3    0  502  0.77075535194E+01  0.44767710535E+02 -0.17957022810E+03  0.18527410371E+03  0.41800000000E+01 0. -1.
        -11    1    4    4    0    0  0.53001975613E+02  0.13193804903E+02 -0.11825733724E+02  0.55885005904E+02  0.00000000000E+00 0. -1.
         11    1    4    4    0    0 -0.39927589689E+02  0.25272583454E+02 -0.20337291483E+02  0.51444351659E+02  0.00000000000E+00 0.  1.
</event>
<event>
 8    1  0.7262913E-009  0.3841152E+03  0.7561462E-02  0.1049423E+00
         -1   -1    0    0    0  501 -0.00000000000E+00  0.00000000000E+00  0.27885210536E+03  0.27885210536E+03  0.00000000000E+00 0.  1.
          1   -1    0    0  501    0  0.00000000000E+00 -0.00000000000E+00 -0.76599698654E+03  0.76599698654E+03  0.00000000000E+00 0. -1.
         25    2    1    2    0    0  0.15402935316E+03  0.34105915182E+03 -0.52628180460E+03  0.65777390818E+03  0.12509032636E+03 0.  0.
         23    2    1    2    0    0 -0.15402935316E+03 -0.34105915182E+03  0.39136923418E+02  0.38707518372E+03  0.90824624389E+02 0.  0.
          5    1    3    3  502    0 -0.84478978525E+01  0.10276438412E+03 -0.10514013548E+03  0.14732211684E+03  0.41800000000E+01 0. -1.
         -5    1    3    3    0  502  0.16247725101E+03  0.23829476771E+03 -0.42114166911E+03  0.51045179134E+03  0.41800000000E+01 0. -1.
        -11    1    4    4    0    0 -0.11486917702E+03 -0.29223845688E+03  0.14274208537E+01  0.31400681687E+03  0.00000000000E+00 0. -1.
         11    1    4    4    0    0 -0.39160176141E+02 -0.48820694945E+02  0.37709502564E+02  0.73068366848E+02  0.00000000000E+00 0.  1.
</event>
<event>
 8    1  0.7262913E-009  0.2220625E+03  0.7561462E-02  0.1132355E+00
         -1   -1    0    0    0  501 -0.00000000000E+00  0.00000000000E+00  0.50183641349E+02  0.50183641349E+02  0.00000000000E+00 0.  1.
          1   -1    0    0  501    0  0.00000000000E+00 -0.00000000000E+00 -0.11510258581E+04  0.11510258581E+04  0.00000000000E+00 0. -1.
         25    2    1    2    0    0  0.21024832330E+03  0.23941240376E+02 -0.67134872445E+03  0.71493545646E+03  0.12508419820E+03 0.  0.
         23    2    1    2    0    0 -0.21024832330E+03 -0.23941240376E+02 -0.42949349229E+03  0.48627404298E+03  0.84972021945E+02 0.  0.
          5    1    3    3  502    0  0.12564010409E+03  0.40997275668E+02 -0.55183344715E+03  0.56745382029E+03  0.41800000000E+01 0. -1.
         -5    1    3    3    0  502  0.84608219217E+02 -0.17056035293E+02 -0.11951527730E+03  0.14748163617E+03  0.41800000000E+01 0. -1.
        -11    1    4    4    0    0 -0.81695799089E+02 -0.47927410727E+02 -0.14542028692E+03  0.17354624783E+03  0.00000000000E+00 0.  1.
         11    1    4    4    0    0 -0.12855252422E+03  0.23986170352E+02 -0.28407320537E+03  0.31272779515E+03  0.00000000000E+00 0. -1.
</event>
<event>
 8    1  0.7262913E-009  0.1250122E+03  0.7561462E-02  0.1235050E+00
         -1   -1    0    0    0  501 -0.00000000000E+00  0.00000000000E+00  0.25936446215E+02  0.25936446215E+02  0.00000000000E+00 0.  1.
          1   -1    0    0  501    0  0.00000000000E+00 -0.00000000000E+00 -0.66865984756E+03  0.66865984756E+03  0.00000000000E+00 0. -1.
         25    2    1    2    0    0 -0.63783496630E+02 -0.21402675810E+01 -0.43724121998E+03  0.45923853529E+03  0.12508889904E+03 0.  0.
         23    2    1    2    0    0  0.63783496630E+02  0.21402675810E+01 -0.20548218137E+03  0.23535775848E+03  0.95380461474E+02 0.  0.
          5    1    3    3  502    0 -0.70354165941E+01  0.57425316852E+02 -0.17487142049E+03  0.18424073981E+03  0.41800000000E+01 0. -1.
         -5    1    3    3    0  502 -0.56748080036E+02 -0.59565584433E+02 -0.26236979949E+03  0.27499779548E+03  0.41800000000E+01 0. -1.
        -11    1    4    4    0    0 -0.32908892430E+01 -0.33517732983E+02 -0.34263173743E+02  0.48044078212E+02  0.00000000000E+00 0.  1.
         11    1    4    4    0    0  0.67074385873E+02  0.35658000565E+02 -0.17121900763E+03  0.18731368027E+03  0.00000000000E+00 0. -1.
</event>
<event>
 8    1  0.7262913E-009  0.1876814E+03  0.7561462E-02  0.1160569E+00
         -1   -1    0    0    0  501 -0.00000000000E+00  0.00000000000E+00  0.65766973421E+03  0.65766973421E+03  0.00000000000E+00 0.  1.
          1   -1    0    0  501    0  0.00000000000E+00 -0.00000000000E+00 -0.56413548649E+02  0.56413548649E+02  0.00000000000E+00 0. -1.
         25    2    1    2    0    0 -0.27428944121E+02 -0.15191733641E+03  0.24918741633E+03  0.31870508979E+03  0.12508933496E+03 0.  0.
         23    2    1    2    0    0  0.27428944121E+02  0.15191733641E+03  0.35206876922E+03  0.39537819307E+03  0.92413598635E+02 0.  0.
          5    1    3    3  502    0 -0.75534816160E+02 -0.99597362393E+02  0.18185251943E+03  0.22071011366E+03  0.41800000000E+01 0.  1.
         -5    1    3    3    0  502  0.48105872039E+02 -0.52319974016E+02  0.67334896899E+02  0.97994976127E+02  0.41800000000E+01 0.  1.
        -11    1    4    4    0    0 -0.23349432823E+02  0.11226910915E+03  0.24313426472E+03  0.26881930653E+03  0.00000000000E+00 0. -1.
         11    1    4    4    0    0  0.50778376944E+02  0.39648227262E+02  0.10893450450E+03  0.12655888653E+03  0.00000000000E+00 0.  1.
</event>
<event>
 8    1  0.7262913E-009  0.1358146E+03  0.7561462E-02  0.1219074E+00
         -1   -1    0    0    0  501 -0.00000000000E+00  0.00000000000E+00  0.11718655355E+03  0.11718655355E+03  0.00000000000E+00 0.  1.
          1   -1    0    0  501    0  0.00000000000E+00 -0.00000000000E+00 -0.22536814628E+03  0.22536814628E+03  0.00000000000E+00 0. -1.
         25    2    1    2    0    0  0.10787072655E+03 -0.24277680026E+02 -0.66401892341E+01  0.16708416061E+03  0.12509006842E+03 0.  0.
         23    2    1    2    0    0 -0.10787072655E+03  0.24277680026E+02 -0.10154140349E+03  0.17547053922E+03  0.90850174001E+02 0.  0.
          5    1    3    3  502    0  0.11846345882E+03 -0.92271599998E+01  0.32820347016E+02  0.12334252768E+03  0.41800000000E+01 0. -1.
         -5    1    3    3    0  502 -0.10592732263E+02 -0.15050520026E+02 -0.39460536250E+02  0.43741632925E+02  0.41800000000E+01 0. -1.
        -11    1    4    4    0    0 -0.49463188027E+02  0.49736712166E+02 -0.21912024932E+02  0.73487987750E+02  0.00000000000E+00 0.  1.
         11    1    4    4    0    0 -0.58407538528E+02 -0.25459032140E+02 -0.79629378559E+02  0.10198255147E+03  0.00000000000E+00 0. -1.
</event>
<event>
 8    1  0.7262913E-009  0.1210776E+03  0.7561462E-02  0.1241330E+00
          2   -1    0    0  501    0  0.00000000000E+00  0.00000000000E+00  0.17588633484E+04  0.17588633484E+04  0.00000000000E+00 0. -1.
         -2   -1    0    0    0  501 -0.00000000000E+00 -0.00000000000E+00 -0.12851080065E+02  0.12851080065E+02  0.00000000000E+00 0.  1.
         25    2    1    2    0    0 -0.29455552702E+02  0.50680535304E+02  0.14490089586E+04  0.14555790751E+04  0.12508931057E+03 0.  0.
         23    2    1    2    0    0  0.29455552702E+02 -0.50680535304E+02  0.29700330977E+03  0.31613535336E+03  0.91073867766E+02 0.  0.
          5    1    3    3  502    0 -0.76579300586E+02  0.43504867202E+02  0.81126338094E+03  0.81604093549E+03  0.41800000000E+01 0.  1.
         -5    1    3    3    0  502  0.47123747884E+02  0.71756681015E+01  0.63774557762E+03  0.63953813960E+03  0.41800000000E+01 0.  1.
        -11    1    4    4    0    0  0.38134214338E+02 -0.72903397451E+02  0.25353474355E+03  0.26655016385E+03  0.00000000000E+00 0. -1.
         11    1    4    4    0    0 -0.86786616361E+01  0.22222862147E+02  0.43468566220E+02  0.49585189513E+02  0.00000000000E+00 0.  1.
</event>
<event>
 8    1  0.7262913E-009  0.1030008E+03  0.7561462E-02  0.1274109E+00
         -1   -1    0    0    0  501 -0.00000000000E+00  0.00000000000E+00  0.25418182240E+03  0.25418182240E+03  0.00000000000E+00 0.  1.
          1   -1    0    0  501    0  0.00000000000E+00 -0.00000000000E+00 -0.74864298772E+02  0.74864298772E+02  0.00000000000E+00 0. -1.
         25    2    1    2    0    0  0.84707029497E+02 -0.24392274185E+02  0.75507388820E+02  0.17064216948E+03  0.12508845012E+03 0.  0.
         23    2    1    2    0    0 -0.84707029497E+02  0.24392274185E+02  0.10381013480E+03  0.15840395169E+03  0.80901198607E+02 0.  0.
          5    1    3    3  502    0  0.18932942863E+02 -0.30345262582E+02  0.95049127913E+02  0.10164202086E+03  0.41800000000E+01 0. -1.
         -5    1    3    3    0  502  0.65774086634E+02  0.59529883961E+01 -0.19541739094E+02  0.69000148625E+02  0.41800000000E+01 0. -1.
        -11    1    4    4    0    0 -0.35511639551E+02 -0.17141516975E+02  0.40066403073E+01  0.39635354348E+02  0.00000000000E+00 0. -1.
         11    1    4    4    0    0 -0.49195389947E+02  0.41533791160E+02  0.99803494497E+02  0.11876859734E+03  0.00000000000E+00 0.  1.
</event>
<event>
 8    1  0.7262913E-009  0.9122436E+02  0.7561462E-02  0.1299914E+00
          2   -1    0    0  501    0  0.00000000000E+00  0.00000000000E+00  0.49346039070E+03  0.49346039070E+03  0.00000000000E+00 0. -1.
         -2   -1    0    0    0  501 -0.00000000000E+00 -0.00000000000E+00 -0.27701570638E+02  0.27701570638E+02  0.00000000000E+00 0.  1.
         25    2    1    2    0    0 -0.37200222396E+02  0.61487942865E+01  0.30215088561E+03  0.32918792769E+03  0.12509144594E+03 0.  0.
         23    2    1    2    0    0  0.37200222396E+02 -0.61487942865E+01  0.16360793445E+03  0.19197403364E+03  0.93084956678E+02 0.  0.
          5    1    3    3  502    0 -0.61774230241E+02  0.38680640481E+02  0.10540230115E+03  0.12821608697E+03  0.41800000000E+01 0.  1.
         -5    1    3    3    0  502  0.24574007845E+02 -0.32531846194E+02  0.19674858446E+03  0.20097184072E+03  0.41800000000E+01 0.  1.
        -11    1    4    4    0    0  0.13157222730E+02 -0.31125105417E+02  0.15154555602E+03  0.15526731867E+03  0.00000000000E+00 0. -1.
         11    1    4    4    0    0  0.24042999666E+02  0.24976311131E+02  0.12062378430E+02  0.36706714972E+02  0.00000000000E+00 0.  1.
</event>
<event>
 8    1  0.7262913E-009  0.7415955E+02  0.7561462E-02  0.1346494E+00
         -1   -1    0    0    0  501 -0.00000000000E+00  0.00000000000E+00  0.16853059331E+03  0.16853059331E+03  0.00000000000E+00 0.  1.
          1   -1    0    0  501    0  0.00000000000E+00 -0.00000000000E+00 -0.83895714542E+02  0.83895714542E+02  0.00000000000E+00 0. -1.
         25    2    1    2    0    0 -0.12456723542E+02 -0.37493804356E+02  0.21831614553E+02  0.13298395590E+03  0.12508859983E+03 0.  0.
         23    2    1    2    0    0  0.12456723542E+02  0.37493804356E+02  0.62803264216E+02  0.11944235195E+03  0.93601656590E+02 0.  0.
          5    1    3    3  502    0 -0.32598084638E+02 -0.21791088688E+01  0.65413203027E+02  0.73237580297E+02  0.41800000000E+01 0. -1.
         -5    1    3    3    0  502  0.20141361096E+02 -0.35314695488E+02 -0.43581588474E+02  0.59746375606E+02  0.41800000000E+01 0. -1.
        -11    1    4    4    0    0 -0.20454060903E+02  0.36197358376E+02  0.73810973144E+02  0.84715270863E+02  0.00000000000E+00 0.  1.
         11    1    4    4    0    0  0.32910784445E+02  0.12964459804E+01 -0.11007708928E+02  0.34727081087E+02  0.00000000000E+00 0. -1.
</event>
<event>
 8    1  0.7262913E-009  0.6908053E+02  0.7561462E-02  0.1363248E+00
         -3   -1    0    0    0  501 -0.00000000000E+00  0.00000000000E+00  0.67626306968E+03  0.67626306968E+03  0.00000000000E+00 0.  1.
          3   -1    0    0  501    0  0.00000000000E+00 -0.00000000000E+00 -0.19521633885E+02  0.19521633885E+02  0.00000000000E+00 0. -1.
         25    2    1    2    0    0  0.26473028829E+02 -0.20197900545E+02  0.32993836457E+03  0.35442401365E+03  0.12509308771E+03 0.  0.
         23    2    1    2    0    0 -0.26473028829E+02  0.20197900545E+02  0.32680307122E+03  0.34136068991E+03  0.92833705175E+02 0.  0.
          5    1    3    3  502    0  0.10459388377E+02  0.13794247210E+02  0.31212139690E+03  0.31262904354E+03  0.41800000000E+01 0. -1.
         -5    1    3    3    0  502  0.16013640451E+02 -0.33992147756E+02  0.17816967672E+02  0.41794970111E+02  0.41800000000E+01 0. -1.
        -11    1    4    4    0    0 -0.33639101075E+02  0.45309158127E+02  0.29432645548E+03  0.29968745607E+03  0.00000000000E+00 0.  1.
         11    1    4    4    0    0  0.71660722459E+01 -0.25111257582E+02  0.32476615740E+02  0.41673233840E+02  0.00000000000E+00 0. -1.
</event>
<event>
 8    1  0.7262913E-009  0.1032051E+03  0.7561462E-02  0.1273697E+00
         -2   -1    0    0    0  501 -0.00000000000E+00  0.00000000000E+00  0.82106620529E+03  0.82106620529E+03  0.00000000000E+00 0.  1.
          2   -1    0    0  501    0  0.00000000000E+00 -0.00000000000E+00 -0.25273856445E+02  0.25273856445E+02  0.00000000000E+00 0. -1.
         25    2    1    2    0    0 -0.92535628343E+02 -0.23571989245E+02  0.46076383276E+03  0.48689691062E+03  0.12508721277E+03 0.  0.
         23    2    1    2    0    0  0.92535628343E+02  0.23571989245E+02  0.33502851608E+03  0.35944315112E+03  0.88525652247E+02 0.  0.
          5    1    3    3  502    0 -0.60831845133E+02 -0.34648333510E+02  0.87662982991E+02  0.11226438164E+03  0.41800000000E+01 0. -1.
         -5    1    3    3    0  502 -0.31703783209E+02  0.11076344265E+02  0.37310084977E+03  0.37463252898E+03  0.41800000000E+01 0. -1.
        -11    1    4    4    0    0  0.45579187541E+02  0.30682527357E+02  0.28582677727E+03  0.29105983307E+03  0.00000000000E+00 0.  1.
         11    1    4    4    0    0  0.46956440802E+02 -0.71105381116E+01  0.49201738818E+02  0.68383318052E+02  0.00000000000E+00 0. -1.
</event>
<event>
 8    1  0.7262913E-009  0.9258336E+02  0.7561462E-02  0.1296714E+00
         -2   -1    0    0    0  501 -0.00000000000E+00  0.00000000000E+00  0.12765822893E+03  0.12765822893E+03  0.00000000000E+00 0.  1.
          2   -1    0    0  501    0  0.00000000000E+00 -0.00000000000E+00 -0.18913254083E+03  0.18913254083E+03  0.00000000000E+00 0. -1.
         25    2    1    2    0    0  0.36571649291E+02  0.21917429331E+02  0.70630337310E+02  0.14984688985E+03  0.12509031380E+03 0.  0.
         23    2    1    2    0    0 -0.36571649291E+02 -0.21917429331E+02 -0.13210464921E+03  0.16694387991E+03  0.92740290355E+02 0.  0.
          5    1    3    3  502    0 -0.28819416469E+02  0.49568315049E+02  0.14619557808E+02  0.59319309613E+02  0.41800000000E+01 0.  1.
         -5    1    3    3    0  502  0.65391065760E+02 -0.27650885718E+02  0.56010779502E+02  0.90527580233E+02  0.41800000000E+01 0.  1.
        -11    1    4    4    0    0 -0.94283703133E+01 -0.27302825954E+02  0.29945546854E+01  0.29039728469E+02  0.00000000000E+00 0.  1.
         11    1    4    4    0    0 -0.27143278978E+02  0.53853966227E+01 -0.13509920390E+03  0.13790415144E+03  0.00000000000E+00 0. -1.
</event>
<event>
 8    1  0.7262913E-009  0.1449131E+03  0.7561462E-02  0.1206867E+00
          2   -1    0    0  501    0  0.00000000000E+00  0.00000000000E+00  0.90981686037E+03  0.90981686037E+03  0.00000000000E+00 0. -1.
         -2   -1    0    0    0  501 -0.00000000000E+00 -0.00000000000E+00 -0.24971780245E+02  0.24971780245E+02  0.00000000000E+00 0.  1.
         25    2    1    2    0    0 -0.99563041263E+02  0.20427600569E+02  0.41255358472E+03  0.44291840582E+03  0.12508464293E+03 0.  0.
         23    2    1    2    0    0  0.99563041263E+02 -0.20427600569E+02  0.47229149541E+03  0.49187023480E+03  0.92449906421E+02 0.  0.
          5    1    3    3  502    0 -0.10414175960E+03  0.59035967860E+02  0.34023761716E+03  0.36070744396E+03  0.41800000000E+01 0. -1.
         -5    1    3    3    0  502  0.45787183356E+01 -0.38608367291E+02  0.72315967561E+02  0.82210961865E+02  0.41800000000E+01 0. -1.
        -11    1    4    4    0    0  0.66235470773E+02  0.28198465756E+02  0.33165977273E+03  0.33938252151E+03  0.00000000000E+00 0. -1.
         11    1    4    4    0    0  0.33327570491E+02 -0.48626066325E+02  0.14063172268E+03  0.15248771329E+03  0.00000000000E+00 0.  1.
</event>
<event>
 8    1  0.7262913E-009  0.1312269E+03  0.7561462E-02  0.1225647E+00
         -1   -1    0    0    0  501 -0.00000000000E+00  0.00000000000E+00  0.18312005317E+02  0.18312005317E+02  0.00000000000E+00 0.  1.
          1   -1    0    0  501    0  0.00000000000E+00 -0.00000000000E+00 -0.11444167476E+04  0.11444167476E+04  0.00000000000E+00 0. -1.
         25    2    1    2    0    0 -0.69022536108E+02  0.66082479792E+02 -0.58278821700E+03  0.60367538467E+03  0.12510339545E+03 0.  0.
         23    2    1    2    0    0  0.69022536108E+02 -0.66082479792E+02 -0.54331652528E+03  0.55905336825E+03  0.90646661705E+02 0.  0.
          5    1    3    3  502    0 -0.79278542129E+02  0.66222872214E+01 -0.45945112704E+03  0.46630650056E+03  0.41800000000E+01 0.  1.
         -5    1    3    3    0  502  0.10256006021E+02  0.59460192571E+02 -0.12333708996E+03  0.13736888410E+03  0.41800000000E+01 0.  1.
        -11    1    4    4    0    0  0.80059401119E+02 -0.31547581321E+02 -0.46305982146E+03  0.47098742642E+03  0.00000000000E+00 0.  1.
         11    1    4    4    0    0 -0.11036865011E+02 -0.34534898471E+02 -0.80256703821E+02  0.88065941827E+02  0.00000000000E+00 0. -1.
</event>
<event>
 8    1  0.7262913E-009  0.9030798E+02  0.7561462E-02  0.1302108E+00
         -4   -1    0    0    0  501 -0.00000000000E+00  0.00000000000E+00  0.85849543927E+02  0.85849543927E+02  0.00000000000E+00 0.  1.
          4   -1    0    0  501    0  0.00000000000E+00 -0.00000000000E+00 -0.17062947297E+03  0.17062947297E+03  0.00000000000E+00 0. -1.
         25    2    1    2    0    0  0.20356850802E+02  0.43095812615E+02 -0.21625169118E+02  0.13559712605E+03  0.12508909711E+03 0.  0.
         23    2    1    2    0    0 -0.20356850802E+02 -0.43095812615E+02 -0.63154759929E+02  0.12088189085E+03  0.91390685486E+02 0.  0.
          5    1    3    3  502    0 -0.40595609753E+02 -0.19644503080E+02  0.41165539761E+00  0.45294060236E+02  0.41800000000E+01 0. -1.
         -5    1    3    3    0  502  0.60952460555E+02  0.62740315696E+02 -0.22036824516E+02  0.90303065818E+02  0.41800000000E+01 0. -1.
        -11    1    4    4    0    0 -0.66369109789E+01 -0.17376762241E+02 -0.83362625555E+02  0.85412691052E+02  0.00000000000E+00 0. -1.
         11    1    4    4    0    0 -0.13719939823E+02 -0.25719050375E+02  0.20207865626E+02  0.35469199795E+02  0.00000000000E+00 0.  1.
</event>
<event>
 8    1  0.7262913E-009  0.1363704E+03  0.7561462E-02  0.1218298E+00
         -2   -1    0    0    0  501 -0.00000000000E+00  0.00000000000E+00  0.12049259339E+02  0.12049259339E+02  0.00000000000E+00 0.  1.
          2   -1    0    0  501    0  0.00000000000E+00 -0.00000000000E+00 -0.22105616705E+04  0.22105616705E+04  0.00000000000E+00 0. -1.
         25    2    1    2    0    0  0.10637812166E+03 -0.33020393100E+02 -0.15062559103E+04  0.15155398136E+04  0.12508960021E+03 0.  0.
         23    2    1    2    0    0 -0.10637812166E+03  0.33020393100E+02 -0.69225650078E+03  0.70707111618E+03  0.91235132190E+02 0.  0.
          5    1    3    3  502    0  0.59982615358E+02 -0.51795202071E+02 -0.38169584651E+03  0.38985875486E+03  0.41800000000E+01 0.  1.
         -5    1    3    3    0  502  0.46395506301E+02  0.18774808972E+02 -0.11245600638E+04  0.11256810588E+04  0.41800000000E+01 0.  1.
        -11    1    4    4    0    0 -0.10113483892E+03 -0.83269554306E+01 -0.52344523592E+03  0.53319087468E+03  0.00000000000E+00 0. -1.
         11    1    4    4    0    0 -0.52432827385E+01  0.41347348530E+02 -0.16881126486E+03  0.17388024151E+03  0.00000000000E+00 0.  1.
</event>
<event>
 8    1  0.7262913E-009  0.1074021E+03  0.7561462E-02  0.1265458E+00
          1   -1    0    0  501    0  0.00000000000E+00  0.00000000000E+00  0.13554529340E+02  0.13554529340E+02  0.00000000000E+00 0. -1.
         -1   -1    0    0    0  501 -0.00000000000E+00 -0.00000000000E+00 -0.13279043655E+04  0.13279043655E+04  0.00000000000E+00 0.  1.
         25    2    1    2    0    0  0.35820938469E+01  0.35709735209E+02 -0.10932967644E+04  0.11010155085E+04  0.12509723575E+03 0.  0.
         23    2    1    2    0    0 -0.35820938469E+01 -0.35709735209E+02 -0.22105307179E+03  0.24044338634E+03  0.87524538854E+02 0.  0.
          5    1    3    3  502    0  0.47846691190E+02  0.60711851002E+02 -0.74348045618E+03  0.74749976310E+03  0.41800000000E+01 0. -1.
         -5    1    3    3    0  502 -0.44264597343E+02 -0.25002115793E+02 -0.34981630823E+03  0.35351574544E+03  0.41800000000E+01 0. -1.
        -11    1    4    4    0    0 -0.26780021489E+00  0.25290703957E+02 -0.11768889531E+03  0.12037594237E+03  0.00000000000E+00 0.  1.
         11    1    4    4    0    0 -0.33142936320E+01 -0.61000439166E+02 -0.10336417649E+03  0.12006744397E+03  0.00000000000E+00 0. -1.
</event>
<event>
 8    1  0.7262913E-009  0.1187689E+03  0.7561462E-02  0.1245142E+00
         -1   -1    0    0    0  501 -0.00000000000E+00  0.00000000000E+00  0.17175877080E+02  0.17175877080E+02  0.00000000000E+00 0.  1.
          1   -1    0    0  501    0  0.00000000000E+00 -0.00000000000E+00 -0.94011419489E+03  0.94011419489E+03  0.00000000000E+00 0. -1.
         25    2    1    2    0    0  0.30712790315E+02 -0.57942007067E+02 -0.58123727660E+03  0.59815540992E+03  0.12511023554E+03 0.  0.
         23    2    1    2    0    0 -0.30712790315E+02  0.57942007067E+02 -0.34170104121E+03  0.35913466204E+03  0.88980628501E+02 0.  0.
          5    1    3    3  502    0 -0.42446147102E+02  0.33872167283E+01 -0.12823252882E+03  0.13518210862E+03  0.41800000000E+01 0. -1.
         -5    1    3    3    0  502  0.73158937417E+02 -0.61329223795E+02 -0.45300474778E+03  0.46297330131E+03  0.41800000000E+01 0. -1.
        -11    1    4    4    0    0 -0.36639115435E+02  0.73730223462E+02 -0.32549433973E+03  0.33574564156E+03  0.00000000000E+00 0.  1.
         11    1    4    4    0    0  0.59263251201E+01 -0.15788216396E+02 -0.16206701476E+02  0.23389020482E+02  0.00000000000E+00 0. -1.
</event>
<event>
 8    1  0.7262913E-009  0.1333184E+03  0.7561462E-02  0.1222613E+00
         -3   -1    0    0    0  501 -0.00000000000E+00  0.00000000000E+00  0.14064688872E+03  0.14064688872E+03  0.00000000000E+00 0.  1.
          3   -1    0    0  501    0  0.00000000000E+00 -0.00000000000E+00 -0.12743699112E+03  0.12743699112E+03  0.00000000000E+00 0. -1.
         25    2    1    2    0    0 -0.50809589805E+02  0.59118910696E+02 -0.16009479386E+01  0.14739800068E+03  0.12508775940E+03 0.  0.
         23    2    1    2    0    0  0.50809589805E+02 -0.59118910696E+02  0.14810845533E+02  0.12068587915E+03  0.90934373389E+02 0.  0.
          5    1    3    3  502    0 -0.63818667532E+02 -0.20056547153E+02  0.38194159708E+00  0.67027648688E+02  0.41800000000E+01 0. -1.
         -5    1    3    3    0  502  0.13009077726E+02  0.79175457849E+02 -0.19828895357E+01  0.80370351995E+02  0.41800000000E+01 0. -1.
        -11    1    4    4    0    0  0.59319218465E+02  0.21878617434E+00  0.18085666998E+01  0.59347185781E+02  0.00000000000E+00 0. -1.
         11    1    4    4    0    0 -0.85096286592E+01 -0.59337696870E+02  0.13002278833E+02  0.61338693372E+02  0.00000000000E+00 0.  1.
</event>
<event>
 8    1  0.7262913E-009  0.1147851E+03  0.7561462E-02  0.1251957E+00
          3   -1    0    0  501    0  0.00000000000E+00  0.00000000000E+00  0.31771264599E+02  0.31771264599E+02  0.00000000000E+00 0. -1.
         -3   -1    0    0    0  501 -0.00000000000E+00 -0.00000000000E+00 -0.45682973702E+03  0.45682973702E+03  0.00000000000E+00 0.  1.
         25    2    1    2    0    0  0.17226700311E+02 -0.48853610723E+02 -0.24793147941E+03  0.28249113746E+03  0.12509112590E+03 0.  0.
         23    2    1    2    0    0 -0.17226700311E+02  0.48853610723E+02 -0.17712699301E+03  0.20610986415E+03  0.91781642856E+02 0.  0.
          5    1    3    3  502    0  0.52655688898E+01  0.40299810872E+02 -0.11401388910E+03  0.12111333650E+03  0.41800000000E+01 0.  1.
         -5    1    3    3    0  502  0.11961131421E+02 -0.89153421595E+02 -0.13391759032E+03  0.16137780096E+03  0.41800000000E+01 0.  1.
        -11    1    4    4    0    0 -0.41833866770E+02 -0.23027274078E+01 -0.11273178644E+03  0.12026566691E+03  0.00000000000E+00 0.  1.
         11    1    4    4    0    0  0.24607166459E+02  0.51156338131E+02 -0.64395206563E+02  0.85844197243E+02  0.00000000000E+00 0. -1.
</event>
<event>
 8    1  0.7262913E-009  0.2651212E+02  0.7561462E-02  0.1640187E+00
          2   -1    0    0  501    0  0.00000000000E+00  0.00000000000E+00  0.92382719841E+02  0.92382719841E+02  0.00000000000E+00 0.  1.
         -2   -1    0    0    0  501 -0.00000000000E+00 -0.00000000000E+00 -0.13637043213E+03  0.13637043213E+03  0.00000000000E+00 0. -1.
         25    2    1    2    0    0 -0.92392175866E+01  0.19079860195E+02 -0.27892663744E+02  0.12990346437E+03  0.12508998824E+03 0.  0.
         23    2    1    2    0    0  0.92392175866E+01 -0.19079860195E+02 -0.16095048544E+02  0.98849687601E+02  0.95198770709E+02 0.  0.
          5    1    3    3  502    0  0.48170215223E+00  0.12222224051E+02 -0.77575719405E+02  0.78645276011E+02  0.41800000000E+01 0.  1.
         -5    1    3    3    0  502 -0.97209197388E+01  0.68576361442E+01  0.49683055660E+02  0.51258188358E+02  0.41800000000E+01 0.  1.
        -11    1    4    4    0    0  0.12234350325E+02 -0.52072695159E+01  0.39392442107E+02  0.41575948321E+02  0.00000000000E+00 0.  1.
         11    1    4    4    0    0 -0.29951327382E+01 -0.13872590679E+02 -0.55487490651E+02  0.57273739279E+02  0.00000000000E+00 0. -1.
</event>
<event>
 8    1  0.7262913E-009  0.1292402E+03  0.7561462E-02  0.1228588E+00
          1   -1    0    0  501    0  0.00000000000E+00  0.00000000000E+00  0.23859867415E+03  0.23859867415E+03  0.00000000000E+00 0. -1.
         -1   -1    0    0    0  501 -0.00000000000E+00 -0.00000000000E+00 -0.85203480742E+02  0.85203480742E+02  0.00000000000E+00 0.  1.
         25    2    1    2    0    0 -0.76910627062E+02 -0.14672810968E+02  0.28136294520E+02  0.15023170983E+03  0.12508948650E+03 0.  0.
         23    2    1    2    0    0  0.76910627062E+02  0.14672810968E+02  0.12525889888E+03  0.17357044506E+03  0.91139298388E+02 0.  0.
          5    1    3    3  502    0 -0.90819974272E+02  0.29004924314E+02  0.38744460699E+02  0.10299591738E+03  0.41800000000E+01 0.  1.
         -5    1    3    3    0  502  0.13909347211E+02 -0.43677735281E+02 -0.10608166180E+02  0.47235792455E+02  0.41800000000E+01 0.  1.
        -11    1    4    4    0    0  0.19796822943E+01 -0.29813227345E+02  0.16250118256E+02  0.34011968629E+02  0.00000000000E+00 0.  1.
         11    1    4    4    0    0  0.74930944767E+02  0.44486038313E+02  0.10900878063E+03  0.13955847643E+03  0.00000000000E+00 0. -1.
</event>
<event>
 8    1  0.7262913E-009  0.1777338E+03  0.7561462E-02  0.1170014E+00
         -2   -1    0    0    0  501 -0.00000000000E+00  0.00000000000E+00  0.69420211648E+02  0.69420211648E+02  0.00000000000E+00 0. -1.
          2   -1    0    0  501    0  0.00000000000E+00 -0.00000000000E+00 -0.53961460185E+03  0.53961460185E+03  0.00000000000E+00 0.  1.
         25    2    1    2    0    0  0.15818134547E+03  0.44422129803E+01 -0.23401181748E+03  0.30894963659E+03  0.12508907193E+03 0.  0.
         23    2    1    2    0    0 -0.15818134547E+03 -0.44422129803E+01 -0.23618257271E+03  0.30008517691E+03  0.96061617911E+02 0.  0.
          5    1    3    3  502    0  0.15747839594E+03  0.26310123008E+02 -0.23769679140E+03  0.28637196931E+03  0.41800000000E+01 0.  1.
         -5    1    3    3    0  502  0.70294952153E+00 -0.21867910028E+02  0.36849739199E+01  0.22577667280E+02  0.41800000000E+01 0.  1.
        -11    1    4    4    0    0 -0.16125763849E+03 -0.15498477812E+02 -0.23855901348E+03  0.28836544817E+03  0.00000000000E+00 0. -1.
         11    1    4    4    0    0  0.30762930274E+01  0.11056264832E+02  0.23764407693E+01  0.11719728732E+02  0.00000000000E+00 0.  1.
</event>
<event>
 8    1  0.7262913E-009  0.6326679E+02  0.7561462E-02  0.1384612E+00
          1   -1    0    0  501    0  0.00000000000E+00  0.00000000000E+00  0.33635790244E+03  0.33635790244E+03  0.00000000000E+00 0. -1.
         -1   -1    0    0    0  501 -0.00000000000E+00 -0.00000000000E+00 -0.46034826009E+02  0.46034826009E+02  0.00000000000E+00 0.  1.
         25    2    1    2    0    0 -0.20136235606E+02 -0.11314122801E+02  0.78594621695E+02  0.14952590913E+03  0.12508959023E+03 0.  0.
         23    2    1    2    0    0  0.20136235606E+02  0.11314122801E+02  0.21172845473E+03  0.23286681931E+03  0.94151684182E+02 0.  0.
          5    1    3    3  502    0 -0.10481449937E+01 -0.29384740343E+02  0.10673672168E+03  0.11079152372E+03  0.41800000000E+01 0. -1.
         -5    1    3    3    0  502 -0.19088090612E+02  0.18070617542E+02 -0.28142099987E+02  0.38734385412E+02  0.41800000000E+01 0. -1.
        -11    1    4    4    0    0  0.14047199897E+02 -0.27526821372E+02  0.19238489532E+02  0.36402873503E+02  0.00000000000E+00 0.  1.
         11    1    4    4    0    0  0.60890357086E+01  0.38840944174E+02  0.19248996520E+03  0.19646394581E+03  0.00000000000E+00 0. -1.
</event>
<event>
 8    1  0.7262913E-009  0.7316573E+02  0.7561462E-02  0.1349647E+00
          3   -1    0    0  501    0  0.00000000000E+00  0.00000000000E+00  0.79101680546E+02  0.79101680546E+02  0.00000000000E+00 0. -1.
         -3   -1    0    0    0  501 -0.00000000000E+00 -0.00000000000E+00 -0.18669375595E+03  0.18669375595E+03  0.00000000000E+00 0.  1.
         25    2    1    2    0    0 -0.66494455722E+01  0.10832041033E+02 -0.11890758716E+03  0.17305703576E+03  0.12509266607E+03 0.  0.
         23    2    1    2    0    0  0.66494455722E+01 -0.10832041033E+02  0.11315511752E+02  0.92738400735E+02  0.91163709475E+02 0.  0.
          5    1    3    3  502    0  0.27822724777E+02 -0.35072174201E+02 -0.10444101808E+03  0.11370822343E+03  0.41800000000E+01 0.  1.
         -5    1    3    3    0  502 -0.34472170349E+02  0.45904215234E+02 -0.14466569077E+02  0.59348812336E+02  0.41800000000E+01 0.  1.
        -11    1    4    4    0    0  0.83777033361E+01 -0.26630658427E+02  0.46440185859E+02  0.54185503080E+02  0.00000000000E+00 0. -1.
         11    1    4    4    0    0 -0.17282577639E+01  0.15798617394E+02 -0.35124674107E+02  0.38552897654E+02  0.00000000000E+00 0.  1.
</event>
<event>
 8    1  0.7262913E-009  0.1136686E+03  0.7561462E-02  0.1253923E+00
         -2   -1    0    0    0  501 -0.00000000000E+00  0.00000000000E+00  0.16015779545E+03  0.16015779545E+03  0.00000000000E+00 0.  1.
          2   -1    0    0  501    0  0.00000000000E+00 -0.00000000000E+00 -0.96800344335E+02  0.96800344335E+02  0.00000000000E+00 0. -1.
         25    2    1    2    0    0 -0.20510438916E+01 -0.50584503416E+02  0.69284129748E+02  0.15169729191E+03  0.12509507973E+03 0.  0.
         23    2    1    2    0    0  0.20510438916E+01  0.50584503416E+02 -0.59266786289E+01  0.10526084788E+03  0.92096263816E+02 0.  0.
          5    1    3    3  502    0 -0.61876953929E+02 -0.22378286685E+02  0.49777592122E+02  0.82612506438E+02  0.41800000000E+01 0.  1.
         -5    1    3    3    0  502  0.59825910038E+02 -0.28206216731E+02  0.19506537626E+02  0.69084785476E+02  0.41800000000E+01 0.  1.
        -11    1    4    4    0    0  0.30722908514E+02 -0.63617573689E+01  0.19141423833E+02  0.36752730113E+02  0.00000000000E+00 0.  1.
         11    1    4    4    0    0 -0.28671864622E+02  0.56946260785E+02 -0.25068102462E+02  0.68508117762E+02  0.00000000000E+00 0. -1.
</event>
<event>
 8    1  0.7262913E-009  0.2535932E+03  0.7561462E-02  0.1111055E+00
          2   -1    0    0  501    0  0.00000000000E+00  0.00000000000E+00  0.13942059333E+04  0.13942059333E+04  0.00000000000E+00 0. -1.
         -2   -1    0    0    0  501 -0.00000000000E+00 -0.00000000000E+00 -0.47736522115E+02  0.47736522115E+02  0.00000000000E+00 0.  1.
         25    2    1    2    0    0 -0.19892466916E+03 -0.12086332729E+03  0.74487298693E+03  0.79035556343E+03  0.12508869694E+03 0.  0.
         23    2    1    2    0    0  0.19892466916E+03  0.12086332729E+03  0.60159642430E+03  0.65158689203E+03  0.92023107157E+02 0.  0.
          5    1    3    3  502    0 -0.47097643053E+02  0.21774615381E+02  0.20937419316E+03  0.21574834186E+03  0.41800000000E+01 0. -1.
         -5    1    3    3    0  502 -0.15182702611E+03 -0.14263794267E+03  0.53549879377E+03  0.57460722157E+03  0.41800000000E+01 0. -1.
        -11    1    4    4    0    0  0.91071143044E+02  0.10292885230E+03  0.38823392365E+03  0.41184205856E+03  0.00000000000E+00 0. -1.
         11    1    4    4    0    0  0.10785352612E+03  0.17934474985E+02  0.21336250065E+03  0.23974483346E+03  0.00000000000E+00 0.  1.
</event>
<event>
 8    1  0.7262913E-009  0.1457952E+03  0.7561462E-02  0.1205737E+00
          1   -1    0    0  501    0  0.00000000000E+00  0.00000000000E+00  0.31985615666E+03  0.31985615666E+03  0.00000000000E+00 0. -1.
         -1   -1    0    0    0  501 -0.00000000000E+00 -0.00000000000E+00 -0.70182069076E+02  0.70182069076E+02  0.00000000000E+00 0.  1.
         25    2    1    2    0    0  0.50507175434E+02 -0.84700694613E+02  0.17137346141E+03  0.23397035084E+03  0.12509228337E+03 0.  0.
         23    2    1    2    0    0 -0.50507175434E+02  0.84700694613E+02  0.78300626181E+02  0.15606787490E+03  0.92200927751E+02 0.  0.
          5    1    3    3  502    0  0.77219521095E+02 -0.10009115693E+03  0.15007269936E+03  0.19626609902E+03  0.41800000000E+01 0. -1.
         -5    1    3    3    0  502 -0.26712345661E+02  0.15390462315E+02  0.21300762048E+02  0.37704251813E+02  0.41800000000E+01 0. -1.
        -11    1    4    4    0    0 -0.32927551121E+01  0.86675729870E+02  0.59627119801E+02  0.10525643829E+03  0.00000000000E+00 0.  1.
         11    1    4    4    0    0 -0.47214420322E+02 -0.19750352575E+01  0.18673506380E+02  0.50811436617E+02  0.00000000000E+00 0. -1.
</event>
<event>
 8    1  0.7262913E-009  0.1510784E+03  0.7561462E-02  0.1199154E+00
          2   -1    0    0  501    0  0.00000000000E+00  0.00000000000E+00  0.73226153489E+03  0.73226153489E+03  0.00000000000E+00 0.  1.
         -2   -1    0    0    0  501 -0.00000000000E+00 -0.00000000000E+00 -0.41213574205E+02  0.41213574205E+02  0.00000000000E+00 0. -1.
         25    2    1    2    0    0 -0.87184019655E+02 -0.97007093983E+02  0.44535769311E+03  0.48062560882E+03  0.12508425748E+03 0.  0.
         23    2    1    2    0    0  0.87184019655E+02  0.97007093983E+02  0.24569026757E+03  0.29284950027E+03  0.91573427733E+02 0.  0.
          5    1    3    3  502    0  0.35540944963E+01 -0.54592091098E+02  0.29402270948E+03  0.29909823485E+03  0.41800000000E+01 0. -1.
         -5    1    3    3    0  502 -0.90738114152E+02 -0.42415002885E+02  0.15133498363E+03  0.18152737397E+03  0.41800000000E+01 0. -1.
        -11    1    4    4    0    0  0.23712296897E+02  0.76880240182E+02  0.18895547933E+03  0.20537043975E+03  0.00000000000E+00 0.  1.
         11    1    4    4    0    0  0.63471722759E+02  0.20126853801E+02  0.56734788243E+02  0.87479060528E+02  0.00000000000E+00 0. -1.
</event>
<event>
 8    1  0.7262913E-009  0.1174503E+03  0.7561462E-02  0.1247363E+00
          2   -1    0    0  501    0  0.00000000000E+00  0.00000000000E+00  0.18523178328E+03  0.18523178328E+03  0.00000000000E+00 0. -1.
         -2   -1    0    0    0  501 -0.00000000000E+00 -0.00000000000E+00 -0.83928080388E+02  0.83928080388E+02  0.00000000000E+00 0.  1.
         25    2    1    2    0    0 -0.40879287162E+02  0.40335053739E+02  0.76907612091E+02  0.15766275338E+03  0.12507889640E+03 0.  0.
         23    2    1    2    0    0  0.40879287162E+02 -0.40335053739E+02  0.24396090805E+02  0.11149711030E+03  0.92403483044E+02 0.  0.
          5    1    3    3  502    0  0.39199098311E+02  0.36036901657E+02  0.12835284411E+02  0.54931270833E+02  0.41800000000E+01 0.  1.
         -5    1    3    3    0  502 -0.80078385473E+02  0.42981520821E+01  0.64072327680E+02  0.10273148254E+03  0.41800000000E+01 0.  1.
        -11    1    4    4    0    0  0.46988421960E+02 -0.62501659076E+02  0.35603096763E+02  0.85918273287E+02  0.00000000000E+00 0. -1.
         11    1    4    4    0    0 -0.61091347976E+01  0.22166605337E+02 -0.11207005958E+02  0.25578837008E+02  0.00000000000E+00 0.  1.
</event>
<event>
 8    1  0.7262913E-009  0.1299023E+03  0.7561462E-02  0.1227601E+00
          1   -1    0    0  501    0  0.00000000000E+00  0.00000000000E+00  0.13048309851E+03  0.13048309851E+03  0.00000000000E+00 0. -1.
         -1   -1    0    0    0  501 -0.00000000000E+00 -0.00000000000E+00 -0.16643235196E+03  0.16643235196E+03  0.00000000000E+00 0.  1.
         25    2    1    2    0    0 -0.84354572356E+02  0.53753458106E+02 -0.24115951530E+02  0.16196798020E+03  0.12508764670E+03 0.  0.
         23    2    1    2    0    0  0.84354572356E+02 -0.53753458106E+02 -0.11833301919E+02  0.13494747027E+03  0.89809044985E+02 0.  0.
          5    1    3    3  502    0  0.23136467652E+02  0.46224848994E+02 -0.13644481309E+02  0.53625339814E+02  0.41800000000E+01 0.  1.
         -5    1    3    3    0  502 -0.10749104001E+03  0.75286091118E+01 -0.10471470221E+02  0.10834264039E+03  0.41800000000E+01 0.  1.
        -11    1    4    4    0    0  0.15743912038E+02 -0.81863317946E+01 -0.43286332366E+02  0.46782404429E+02  0.00000000000E+00 0.  1.
         11    1    4    4    0    0  0.68610660318E+02 -0.45567126312E+02  0.31453030447E+02  0.88165065836E+02  0.00000000000E+00 0. -1.
</event>
<event>
 8    1  0.7262913E-009  0.1216874E+03  0.7561462E-02  0.1240339E+00
         -2   -1    0    0    0  501 -0.00000000000E+00  0.00000000000E+00  0.14636928445E+03  0.14636928445E+03  0.00000000000E+00 0.  1.
          2   -1    0    0  501    0  0.00000000000E+00 -0.00000000000E+00 -0.19763016688E+03  0.19763016688E+03  0.00000000000E+00 0. -1.
         25    2    1    2    0    0  0.10277138537E+03  0.28223945474E+02 -0.10241485090E+03  0.19364483765E+03  0.12510384772E+03 0.  0.
         23    2    1    2    0    0 -0.10277138537E+03 -0.28223945474E+02  0.51153968475E+02  0.15035461368E+03  0.92904427324E+02 0.  0.
          5    1    3    3  502    0  0.79603321610E+02  0.33689622692E+02 -0.13050358689E+03  0.15658971256E+03  0.41800000000E+01 0. -1.
         -5    1    3    3    0  502  0.23168063759E+02 -0.54656772182E+01  0.28088735989E+02  0.37055125087E+02  0.41800000000E+01 0. -1.
        -11    1    4    4    0    0 -0.89159264461E+02 -0.53485162261E+02  0.60355790096E+02  0.12022004167E+03  0.00000000000E+00 0.  1.
         11    1    4    4    0    0 -0.13612120908E+02  0.25261216788E+02 -0.92018216207E+01  0.30134572012E+02  0.00000000000E+00 0. -1.
</event>
<event>
 8    1  0.7262913E-009  0.2683774E+03  0.7561462E-02  0.1102212E+00
          1   -1    0    0  501    0  0.00000000000E+00  0.00000000000E+00  0.25101715346E+03  0.25101715346E+03  0.00000000000E+00 0. -1.
         -1   -1    0    0    0  501 -0.00000000000E+00 -0.00000000000E+00 -0.33325000864E+03  0.33325000864E+03  0.00000000000E+00 0.  1.
         25    2    1    2    0    0  0.14210976826E+03  0.21659969704E+03  0.28275613045E+02  0.28906322450E+03  0.12508965773E+03 0.  0.
         23    2    1    2    0    0 -0.14210976826E+03 -0.21659969704E+03 -0.11050846822E+03  0.29520393760E+03  0.88445623046E+02 0.  0.
          5    1    3    3  502    0  0.60432775435E+02  0.15657079822E+03  0.66609664446E+02  0.18061244420E+03  0.41800000000E+01 0.  1.
         -5    1    3    3    0  502  0.81676992829E+02  0.60028898821E+02 -0.38334051401E+02  0.10845078030E+03  0.41800000000E+01 0.  1.
        -11    1    4    4    0    0 -0.14273032192E+03 -0.17502344171E+03 -0.11490084637E+03  0.25339170160E+03  0.00000000000E+00 0.  1.
         11    1    4    4    0    0  0.62055365432E+00 -0.41576255332E+02  0.43923781479E+01  0.41812236009E+02  0.00000000000E+00 0. -1.
</event>
<event>
 8    1  0.7262913E-009  0.1220187E+03  0.7561462E-02  0.1239803E+00
         -4   -1    0    0    0  501 -0.00000000000E+00  0.00000000000E+00  0.57793323700E+03  0.57793323700E+03  0.00000000000E+00 0.  1.
          4   -1    0    0  501    0  0.00000000000E+00 -0.00000000000E+00 -0.50092210277E+02  0.50092210277E+02  0.00000000000E+00 0. -1.
         25    2    1    2    0    0  0.51932190455E+02  0.55371435518E+02  0.84077836051E+02  0.16875766808E+03  0.12508844768E+03 0.  0.
         23    2    1    2    0    0 -0.51932190455E+02 -0.55371435518E+02  0.44376319068E+03  0.45926777920E+03  0.90764394665E+02 0.  0.
          5    1    3    3  502    0 -0.15266465119E+02  0.73372793177E+02  0.31254363867E+02  0.81307683503E+02  0.41800000000E+01 0.  1.
         -5    1    3    3    0  502  0.67198655574E+02 -0.18001357659E+02  0.52823472184E+02  0.87449984574E+02  0.41800000000E+01 0.  1.
        -11    1    4    4    0    0  0.14889501198E+02 -0.53825779106E+01  0.12971658292E+02  0.20467860409E+02  0.00000000000E+00 0. -1.
         11    1    4    4    0    0 -0.66821691653E+02 -0.49988857607E+02  0.43079153238E+03  0.43879991879E+03  0.00000000000E+00 0.  1.
</event>
<event>
 8    1  0.7262913E-009  0.1674665E+03  0.7561462E-02  0.1180516E+00
          1   -1    0    0  501    0  0.00000000000E+00  0.00000000000E+00  0.31148074152E+03  0.31148074152E+03  0.00000000000E+00 0.  1.
         -1   -1    0    0    0  501 -0.00000000000E+00 -0.00000000000E+00 -0.97335053682E+02  0.97335053682E+02  0.00000000000E+00 0. -1.
         25    2    1    2    0    0  0.11629793601E+03  0.64090260937E+02  0.76617281140E+02  0.19786271384E+03  0.12508666712E+03 0.  0.
         23    2    1    2    0    0 -0.11629793601E+03 -0.64090260937E+02  0.13752840670E+03  0.21095308137E+03  0.89187266034E+02 0.  0.
          5    1    3    3  502    0  0.11883862286E+03  0.55124024031E+01  0.71491566524E+02  0.13885791784E+03  0.41800000000E+01 0. -1.
         -5    1    3    3    0  502 -0.25406868510E+01  0.58577858533E+02  0.51257146161E+01  0.59004795995E+02  0.41800000000E+01 0. -1.
        -11    1    4    4    0    0 -0.78736093392E+02  0.45482140750E+01  0.88843595897E+02  0.11879917165E+03  0.00000000000E+00 0. -1.
         11    1    4    4    0    0 -0.37561842616E+02 -0.68638475012E+02  0.48684810804E+02  0.92153909714E+02  0.00000000000E+00 0.  1.
</event>
<event>
 8    1  0.7262913E-009  0.9398724E+02  0.7561462E-02  0.1293473E+00
          2   -1    0    0  501    0  0.00000000000E+00  0.00000000000E+00  0.66652985755E+03  0.66652985755E+03  0.00000000000E+00 0. -1.
         -2   -1    0    0    0  501 -0.00000000000E+00 -0.00000000000E+00 -0.18957955359E+02  0.18957955359E+02  0.00000000000E+00 0.  1.
         25    2    1    2    0    0  0.15367375038E+02  0.97159636780E+01  0.43918761634E+03  0.45701582903E+03  0.12508856654E+03 0.  0.
         23    2    1    2    0    0 -0.15367375038E+02 -0.97159636780E+01  0.20838428586E+03  0.22847198388E+03  0.91896031792E+02 0.  0.
          5    1    3    3  502    0  0.63717670140E+02  0.27223303982E+02  0.18384728148E+03  0.19651550848E+03  0.41800000000E+01 0.  1.
         -5    1    3    3    0  502 -0.48350295101E+02 -0.17507340304E+02  0.25534033486E+03  0.26050032055E+03  0.41800000000E+01 0.  1.
        -11    1    4    4    0    0 -0.12245640918E+02  0.27247047522E+02  0.17809244432E+03  0.18058038666E+03  0.00000000000E+00 0.  1.
         11    1    4    4    0    0 -0.31217341203E+01 -0.36963011200E+02  0.30291841536E+02  0.47891597223E+02  0.00000000000E+00 0. -1.
</event>
<event>
 8    1  0.7262913E-009  0.8897866E+02  0.7561462E-02  0.1305344E+00
         -1   -1    0    0    0  501 -0.00000000000E+00  0.00000000000E+00  0.36222664809E+02  0.36222664809E+02  0.00000000000E+00 0.  1.
          1   -1    0    0  501    0  0.00000000000E+00 -0.00000000000E+00 -0.36646837260E+03  0.36646837260E+03  0.00000000000E+00 0. -1.
         25    2    1    2    0    0  0.34357077248E+02 -0.66114056557E+01 -0.15931946131E+03  0.20555937175E+03  0.12509134710E+03 0.  0.
         23    2    1    2    0    0 -0.34357077248E+02  0.66114056557E+01 -0.17092624648E+03  0.19713166565E+03  0.91765965517E+02 0.  0.
          5    1    3    3  502    0 -0.10155822851E+02  0.32123127170E+02  0.17269690198E+01  0.33992511807E+02  0.41800000000E+01 0. -1.
         -5    1    3    3    0  502  0.44512900100E+02 -0.38734532825E+02 -0.16104643033E+03  0.17156685994E+03  0.41800000000E+01 0. -1.
        -11    1    4    4    0    0 -0.72462651546E+01  0.40677053587E+02 -0.13340644962E+03  0.13965819649E+03  0.00000000000E+00 0. -1.
         11    1    4    4    0    0 -0.27110812094E+02 -0.34065647931E+02 -0.37519796854E+02  0.57473469160E+02  0.00000000000E+00 0.  1.
</event>
<event>
 8    1  0.7262913E-009  0.1685614E+03  0.7561462E-02  0.1179356E+00
          2   -1    0    0  501    0  0.00000000000E+00  0.00000000000E+00  0.44001525024E+03  0.44001525024E+03  0.00000000000E+00 0. -1.
         -2   -1    0    0    0  501 -0.00000000000E+00 -0.00000000000E+00 -0.91651788025E+02  0.91651788025E+02  0.00000000000E+00 0.  1.
         25    2    1    2    0    0 -0.87427909559E+02 -0.12068044913E+03  0.77514388733E+02  0.20943701939E+03  0.12509186408E+03 0.  0.
         23    2    1    2    0    0  0.87427909559E+02  0.12068044913E+03  0.27084907349E+03  0.32223001888E+03  0.90915093820E+02 0.  0.
          5    1    3    3  502    0  0.16498632678E+02 -0.49716357428E+02 -0.13281901090E+02  0.54201497882E+02  0.41800000000E+01 0. -1.
         -5    1    3    3    0  502 -0.10392654224E+03 -0.70964091704E+02  0.90796289822E+02  0.15523552151E+03  0.41800000000E+01 0. -1.
        -11    1    4    4    0    0  0.46668825183E+02  0.10515342500E+03  0.12448083160E+03  0.16950132586E+03  0.00000000000E+00 0.  1.
         11    1    4    4    0    0  0.40759084376E+02  0.15527024134E+02  0.14636824188E+03  0.15272869301E+03  0.00000000000E+00 0. -1.
</event>
<event>
 8    1  0.7262913E-009  0.2279106E+03  0.7561462E-02  0.1128119E+00
         -1   -1    0    0    0  501 -0.00000000000E+00  0.00000000000E+00  0.54305621868E+02  0.54305621868E+02  0.00000000000E+00 0. -1.
          1   -1    0    0  501    0  0.00000000000E+00 -0.00000000000E+00 -0.11135510603E+04  0.11135510603E+04  0.00000000000E+00 0.  1.
         25    2    1    2    0    0 -0.11263765819E+03 -0.17251756825E+03 -0.35854071875E+03  0.43202809281E+03  0.12508905858E+03 0.  0.
         23    2    1    2    0    0  0.11263765819E+03  0.17251756825E+03 -0.70070471973E+03  0.73582858941E+03  0.89482150996E+02 0.  0.
          5    1    3    3  502    0 -0.13691251568E+03 -0.11904927939E+03 -0.25621665024E+03  0.31397804403E+03  0.41800000000E+01 0.  1.
         -5    1    3    3    0  502  0.24274857491E+02 -0.53468288862E+02 -0.10232406852E+03  0.11805004878E+03  0.41800000000E+01 0.  1.
        -11    1    4    4    0    0  0.21071461863E+02  0.89256839820E+02 -0.19950134750E+03  0.21957134971E+03  0.00000000000E+00 0. -1.
         11    1    4    4    0    0  0.91566196323E+02  0.83260728427E+02 -0.50120337223E+03  0.51625723970E+03  0.00000000000E+00 0.  1.
</event>
<event>
 8    1  0.7262913E-009  0.1217480E+03  0.7561462E-02  0.1240241E+00
         -2   -1    0    0    0  501 -0.00000000000E+00  0.00000000000E+00  0.11261626612E+03  0.11261626612E+03  0.00000000000E+00 0.  1.
          2   -1    0    0  501    0  0.00000000000E+00 -0.00000000000E+00 -0.15793940386E+03  0.15793940386E+03  0.00000000000E+00 0. -1.
         25    2    1    2    0    0  0.69560746239E+02  0.18400285213E+02  0.37444294341E+01  0.14436849822E+03  0.12510385531E+03 0.  0.
         23    2    1    2    0    0 -0.69560746239E+02 -0.18400285213E+02 -0.49067567176E+02  0.12618717176E+03  0.91314337618E+02 0.  0.
          5    1    3    3  502    0  0.65820269002E+02  0.58602432371E+02 -0.28297732580E+02  0.92654125437E+02  0.41800000000E+01 0. -1.
         -5    1    3    3    0  502  0.37404772368E+01 -0.40202147159E+02  0.32042162014E+02  0.51714372786E+02  0.41800000000E+01 0. -1.
        -11    1    4    4    0    0 -0.13800399001E+02 -0.49115097579E+02 -0.32204723681E+02  0.60331484733E+02  0.00000000000E+00 0. -1.
         11    1    4    4    0    0 -0.55760347238E+02  0.30714812366E+02 -0.16862843495E+02  0.65855687025E+02  0.00000000000E+00 0.  1.
</event>
<event>
 8    1  0.7262913E-009  0.3769261E+03  0.7561462E-02  0.1052076E+00
          2   -1    0    0  501    0  0.00000000000E+00  0.00000000000E+00  0.51672999645E+03  0.51672999645E+03  0.00000000000E+00 0. -1.
         -2   -1    0    0    0  501 -0.00000000000E+00 -0.00000000000E+00 -0.29854852411E+03  0.29854852411E+03  0.00000000000E+00 0.  1.
         25    2    1    2    0    0 -0.34474487215E+03  0.13603699753E+03  0.37170198681E+02  0.39291543535E+03  0.12508326864E+03 0.  0.
         23    2    1    2    0    0  0.34474487215E+03 -0.13603699753E+03  0.18101127366E+03  0.42236308522E+03  0.90941756055E+02 0.  0.
          5    1    3    3  502    0 -0.51471926593E+02  0.51443995245E+02  0.48320341745E+02  0.87453826104E+02  0.41800000000E+01 0. -1.
         -5    1    3    3    0  502 -0.29327294555E+03  0.84593002289E+02 -0.11150143064E+02  0.30546160924E+03  0.41800000000E+01 0. -1.
        -11    1    4    4    0    0  0.74329096170E+02 -0.57912529968E+02  0.79036132166E+02  0.12298530747E+03  0.00000000000E+00 0. -1.
         11    1    4    4    0    0  0.27041577598E+03 -0.78124467565E+02  0.10197514149E+03  0.29937777775E+03  0.00000000000E+00 0.  1.
</event>
<event>
 8    1  0.7262913E-009  0.1516803E+03  0.7561462E-02  0.1198423E+00
          2   -1    0    0  501    0  0.00000000000E+00  0.00000000000E+00  0.28767440619E+04  0.28767440619E+04  0.00000000000E+00 0. -1.
         -2   -1    0    0    0  501 -0.00000000000E+00 -0.00000000000E+00 -0.12542609088E+02  0.12542609088E+02  0.00000000000E+00 0.  1.
         25    2    1    2    0    0  0.36707603931E+02  0.13771096292E+03  0.19620582686E+04  0.19712009959E+04  0.12509580133E+03 0.  0.
         23    2    1    2    0    0 -0.36707603931E+02 -0.13771096292E+03  0.90214318423E+03  0.91808567506E+03  0.93312509442E+02 0.  0.
          5    1    3    3  502    0  0.31195031041E+01  0.36343773143E+02  0.10810053560E+03  0.11416566622E+03  0.41800000000E+01 0.  1.
         -5    1    3    3    0  502  0.33588100827E+02  0.10136718978E+03  0.18539577330E+04  0.18570353297E+04  0.41800000000E+01 0.  1.
        -11    1    4    4    0    0  0.10709581129E+02  0.31376383093E+01  0.15649699992E+02  0.19221160526E+02  0.00000000000E+00 0.  1.
         11    1    4    4    0    0 -0.47417185060E+02 -0.14084860123E+03  0.88649348423E+03  0.89886451454E+03  0.00000000000E+00 0. -1.
</event>
<event>
 8    1  0.7262913E-009  0.1071687E+03  0.7561462E-02  0.1265905E+00
          1   -1    0    0  501    0  0.00000000000E+00  0.00000000000E+00  0.63746700373E+02  0.63746700373E+02  0.00000000000E+00 0. -1.
         -1   -1    0    0    0  501 -0.00000000000E+00 -0.00000000000E+00 -0.24986684972E+03  0.24986684972E+03  0.00000000000E+00 0.  1.
         25    2    1    2    0    0 -0.49636948786E+02  0.32990811197E+02 -0.73634948899E+02  0.15691507956E+03  0.12509203086E+03 0.  0.
         23    2    1    2    0    0  0.49636948786E+02 -0.32990811197E+02 -0.11248520045E+03  0.15669847054E+03  0.91374340165E+02 0.  0.
          5    1    3    3  502    0 -0.75785210670E+02  0.38203957913E+01 -0.30235098969E+01  0.76056607815E+02  0.41800000000E+01 0. -1.
         -5    1    3    3    0  502  0.26148261883E+02  0.29170415405E+02 -0.70611439003E+02  0.80858471742E+02  0.41800000000E+01 0. -1.
        -11    1    4    4    0    0  0.34636772168E+02  0.22604750989E+02 -0.16022126727E+02  0.44355262352E+02  0.00000000000E+00 0. -1.
         11    1    4    4    0    0  0.15000176618E+02 -0.55595562185E+02 -0.96463073725E+02  0.11234320819E+03  0.00000000000E+00 0.  1.
</event>
<event>
 8    1  0.7262913E-009  0.8538671E+02  0.7561462E-02  0.1314424E+00
         -2   -1    0    0    0  501 -0.00000000000E+00  0.00000000000E+00  0.87347136127E+02  0.87347136127E+02  0.00000000000E+00 0. -1.
          2   -1    0    0  501    0  0.00000000000E+00 -0.00000000000E+00 -0.19887147217E+03  0.19887147217E+03  0.00000000000E+00 0.  1.
         25    2    1    2    0    0  0.39572242647E+02 -0.12870225717E+02  0.43218163457E+01  0.13189960301E+03  0.12508885674E+03 0.  0.
         23    2    1    2    0    0 -0.39572242647E+02  0.12870225717E+02 -0.11584615238E+03  0.15431900528E+03  0.93072118656E+02 0.  0.
          5    1    3    3  502    0 -0.20126451237E+02 -0.36545931710E+01 -0.47701212438E+02  0.52070223340E+02  0.41800000000E+01 0.  1.
         -5    1    3    3    0  502  0.59698693884E+02 -0.92156325458E+01  0.52023028783E+02  0.79829379669E+02  0.41800000000E+01 0.  1.
        -11    1    4    4    0    0 -0.58767105730E+02 -0.98660513148E+01 -0.10831615992E+03  0.12362565342E+03  0.00000000000E+00 0.  1.
         11    1    4    4    0    0  0.19194863083E+02  0.22736277032E+02 -0.75299924683E+01  0.30693351863E+02  0.00000000000E+00 0. -1.
</event>
<event>
 8    1  0.7262913E-009  0.5505191E+02  0.7561462E-02  0.1419854E+00
         -2   -1    0    0    0  501 -0.00000000000E+00  0.00000000000E+00  0.49789094705E+02  0.49789094705E+02  0.00000000000E+00 0. -1.
          2   -1    0    0  501    0  0.00000000000E+00 -0.00000000000E+00 -0.26512788165E+03  0.26512788165E+03  0.00000000000E+00 0.  1.
         25    2    1    2    0    0 -0.21166656071E+02 -0.34219043797E+02 -0.12629493412E+03  0.18225167087E+03  0.12508513445E+03 0.  0.
         23    2    1    2    0    0  0.21166656071E+02  0.34219043797E+02 -0.89043852826E+02  0.13266530549E+03  0.89734638057E+02 0.  0.
          5    1    3    3  502    0  0.39821391544E+01 -0.38660200675E+01 -0.14010410009E+03  0.14027628027E+03  0.41800000000E+01 0. -1.
         -5    1    3    3    0  502 -0.25148795226E+02 -0.30353023730E+02  0.13809165973E+02  0.41975390596E+02  0.41800000000E+01 0. -1.
        -11    1    4    4    0    0  0.73788907183E+01 -0.12659355157E+02  0.12959722990E+02  0.19561741262E+02  0.00000000000E+00 0. -1.
         11    1    4    4    0    0  0.13787765353E+02  0.46878398954E+02 -0.10200357582E+03  0.11310356423E+03  0.00000000000E+00 0.  1.
</event>
<event>
 8    1  0.7262913E-009  0.1129872E+03  0.7561462E-02  0.1255136E+00
         -1   -1    0    0    0  501 -0.00000000000E+00  0.00000000000E+00  0.44047671026E+03  0.44047671026E+03  0.00000000000E+00 0.  1.
          1   -1    0    0  501    0  0.00000000000E+00 -0.00000000000E+00 -0.34902210501E+02  0.34902210501E+02  0.00000000000E+00 0. -1.
         25    2    1    2    0    0 -0.90207338193E+01 -0.41011353285E+02  0.30905772957E+03  0.33604201548E+03  0.12507698120E+03 0.  0.
         23    2    1    2    0    0  0.90207338193E+01  0.41011353285E+02  0.96516770191E+02  0.13933690528E+03  0.91301596415E+02 0.  0.
          5    1    3    3  502    0  0.72252712898E+00 -0.84657623699E+02  0.22991052256E+03  0.24503827472E+03  0.41800000000E+01 0. -1.
         -5    1    3    3    0  502 -0.97432609482E+01  0.43646270414E+02  0.79147207010E+02  0.91003740760E+02  0.41800000000E+01 0. -1.
        -11    1    4    4    0    0 -0.35125439769E+02 -0.12960518083E+01  0.17044149003E+02  0.39063784820E+02  0.00000000000E+00 0. -1.
         11    1    4    4    0    0  0.44146173588E+02  0.42307405094E+02  0.79472621188E+02  0.10027312046E+03  0.00000000000E+00 0.  1.
</event>
<event>
 8    1  0.7262913E-009  0.1196900E+03  0.7561462E-02  0.1243609E+00
          3   -1    0    0  501    0  0.00000000000E+00  0.00000000000E+00  0.59733408372E+02  0.59733408372E+02  0.00000000000E+00 0. -1.
         -3   -1    0    0    0  501 -0.00000000000E+00 -0.00000000000E+00 -0.41828075923E+03  0.41828075923E+03  0.00000000000E+00 0.  1.
         25    2    1    2    0    0  0.65642230439E+02 -0.74271902456E+02 -0.27989184238E+03  0.32219920680E+03  0.12509063723E+03 0.  0.
         23    2    1    2    0    0 -0.65642230439E+02  0.74271902456E+02 -0.78655508473E+02  0.15581496079E+03  0.90919717790E+02 0.  0.
          5    1    3    3  502    0  0.38981053418E+02 -0.67531197482E+02 -0.54803218625E+02  0.95398376981E+02  0.41800000000E+01 0. -1.
         -5    1    3    3    0  502  0.26661177021E+02 -0.67407049737E+01 -0.22508862376E+03  0.22680082982E+03  0.41800000000E+01 0. -1.
        -11    1    4    4    0    0  0.12813871584E+02  0.49607997638E+02 -0.20979612671E+02  0.55365087216E+02  0.00000000000E+00 0. -1.
         11    1    4    4    0    0 -0.78456102023E+02  0.24663904818E+02 -0.57675895802E+02  0.10044987358E+03  0.00000000000E+00 0.  1.
</event>
<event>
 8    1  0.7262913E-009  0.6409075E+02  0.7561462E-02  0.1381425E+00
          2   -1    0    0  501    0  0.00000000000E+00  0.00000000000E+00  0.50695952871E+03  0.50695952871E+03  0.00000000000E+00 0. -1.
         -2   -1    0    0    0  501 -0.00000000000E+00 -0.00000000000E+00 -0.31855772599E+02  0.31855772599E+02  0.00000000000E+00 0.  1.
         25    2    1    2    0    0  0.42258568196E+02  0.24568206811E+02  0.36304743674E+03  0.38709234947E+03  0.12509061643E+03 0.  0.
         23    2    1    2    0    0 -0.42258568196E+02 -0.24568206811E+02  0.11205631937E+03  0.15172295184E+03  0.89854616093E+02 0.  0.
          5    1    3    3  502    0  0.15589891491E+00 -0.38651139771E+01  0.32089525365E+03  0.32094578923E+03  0.41800000000E+01 0. -1.
         -5    1    3    3    0  502  0.42102669281E+02  0.28433320788E+02  0.42152183090E+02  0.66146560234E+02  0.41800000000E+01 0. -1.
        -11    1    4    4    0    0  0.96092990052E+01 -0.16393248120E+02 -0.80527203091E+01  0.20637914519E+02  0.00000000000E+00 0.  1.
         11    1    4    4    0    0 -0.51867867201E+02 -0.81749586904E+01  0.12010903968E+03  0.13108503733E+03  0.00000000000E+00 0. -1.
</event>
<event>
 8    1  0.7262913E-009  0.1531668E+03  0.7561462E-02  0.1196635E+00
          3   -1    0    0  501    0  0.00000000000E+00  0.00000000000E+00  0.99147154290E+02  0.99147154290E+02  0.00000000000E+00 0. -1.
         -3   -1    0    0    0  501 -0.00000000000E+00 -0.00000000000E+00 -0.28416926643E+03  0.28416926643E+03  0.00000000000E+00 0.  1.
         25    2    1    2    0    0 -0.50985833279E+02 -0.11676332674E+03 -0.84126886755E+02  0.19737657347E+03  0.12508776525E+03 0.  0.
         23    2    1    2    0    0  0.50985833279E+02  0.11676332674E+03 -0.10089522538E+03  0.18593984724E+03  0.90335766024E+02 0.  0.
          5    1    3    3  502    0  0.34144401301E+02 -0.66203791368E+02 -0.59061972331E+02  0.95155510126E+02  0.41800000000E+01 0. -1.
         -5    1    3    3    0  502 -0.85130234579E+02 -0.50559535368E+02 -0.25064914425E+02  0.10222106334E+03  0.41800000000E+01 0. -1.
        -11    1    4    4    0    0  0.82686686059E+01  0.64948750843E+02 -0.88869249939E+00  0.65479011072E+02  0.00000000000E+00 0. -1.
         11    1    4    4    0    0  0.42717164673E+02  0.51814575894E+02 -0.10000653288E+03  0.12046083617E+03  0.00000000000E+00 0.  1.
</event>
<event>
 8    1  0.7262913E-009  0.6456441E+02  0.7561462E-02  0.1379618E+00
         -2   -1    0    0    0  501 -0.00000000000E+00  0.00000000000E+00  0.37510761946E+02  0.37510761946E+02  0.00000000000E+00 0. -1.
          2   -1    0    0  501    0  0.00000000000E+00 -0.00000000000E+00 -0.33241564188E+03  0.33241564188E+03  0.00000000000E+00 0.  1.
         25    2    1    2    0    0  0.10950847192E+02 -0.18220076277E+02 -0.13835094866E+03  0.18772534943E+03  0.12509168474E+03 0.  0.
         23    2    1    2    0    0 -0.10950847192E+02  0.18220076277E+02 -0.15655393127E+03  0.18220105439E+03  0.90753504556E+02 0.  0.
          5    1    3    3  502    0 -0.20995471830E+02 -0.20387410829E+02  0.13485671896E+02  0.32492954685E+02  0.41800000000E+01 0. -1.
         -5    1    3    3    0  502  0.31946319022E+02  0.21673345517E+01 -0.15183662056E+03  0.15523239475E+03  0.41800000000E+01 0. -1.
        -11    1    4    4    0    0 -0.18463352098E+02 -0.20641422248E+02 -0.13361190917E+03  0.13645184482E+03  0.00000000000E+00 0.  1.
         11    1    4    4    0    0  0.75125049060E+01  0.38861498525E+02 -0.22942022098E+02  0.45749209561E+02  0.00000000000E+00 0. -1.
</event>
<event>
 8    1  0.7262913E-009  0.8715224E+02  0.7561462E-02  0.1309898E+00
         -1   -1    0    0    0  501 -0.00000000000E+00  0.00000000000E+00  0.15895971251E+03  0.15895971251E+03  0.00000000000E+00 0.  1.
          1   -1    0    0  501    0  0.00000000000E+00 -0.00000000000E+00 -0.15960219969E+03  0.15960219969E+03  0.00000000000E+00 0. -1.
         25    2    1    2    0    0  0.23778124161E+01 -0.20775264081E+02 -0.11510073561E+03  0.17126802284E+03  0.12508913111E+03 0.  0.
         23    2    1    2    0    0 -0.23778124161E+01  0.20775264081E+02  0.11445824844E+03  0.14729388935E+03  0.90319065628E+02 0.  0.
          5    1    3    3  502    0 -0.11380014022E+02  0.51384932184E+02 -0.41040179328E+02  0.66870656449E+02  0.41800000000E+01 0.  1.
         -5    1    3    3    0  502  0.13757826438E+02 -0.72160196264E+02 -0.74060556284E+02  0.10439736640E+03  0.41800000000E+01 0.  1.
        -11    1    4    4    0    0  0.18680049101E+02  0.48349420302E+00 -0.87708985410E+01  0.20642351181E+02  0.00000000000E+00 0. -1.
         11    1    4    4    0    0 -0.21057861517E+02  0.20291769878E+02  0.12322914698E+03  0.12665153817E+03  0.00000000000E+00 0.  1.
</event>
<event>
 8    1  0.7262913E-009  0.6291945E+02  0.7561462E-02  0.1385973E+00
          2   -1    0    0  501    0  0.00000000000E+00  0.00000000000E+00  0.18515843542E+03  0.18515843542E+03  0.00000000000E+00 0.  1.
         -2   -1    0    0    0  501 -0.00000000000E+00 -0.00000000000E+00 -0.12414416943E+03  0.12414416943E+03  0.00000000000E+00 0. -1.
         25    2    1    2    0    0 -0.48030237411E+02  0.96892363141E+01 -0.58604283445E+02  0.14657041560E+03  0.12509052596E+03 0.  0.
         23    2    1    2    0    0  0.48030237411E+02 -0.96892363141E+01  0.11961854943E+03  0.16273218925E+03  0.98855364262E+02 0.  0.
          5    1    3    3  502    0 -0.78190184977E+01 -0.15523071281E+02 -0.88523172781E+02  0.90310172801E+02  0.41800000000E+01 0.  1.
         -5    1    3    3    0  502 -0.40211218914E+02  0.25212307595E+02  0.29918889335E+02  0.56260242799E+02  0.41800000000E+01 0.  1.
        -11    1    4    4    0    0  0.36301026261E+02 -0.22688589623E+02  0.13362233598E+03  0.14031202827E+03  0.00000000000E+00 0.  1.
         11    1    4    4    0    0  0.11729211150E+02  0.12999353309E+02 -0.14003786543E+02  0.22420160976E+02  0.00000000000E+00 0. -1.
</event>
<event>
 8    1  0.7262913E-009  0.7504793E+02  0.7561462E-02  0.1343723E+00
         -1   -1    0    0    0  501 -0.00000000000E+00  0.00000000000E+00  0.17020526294E+03  0.17020526294E+03  0.00000000000E+00 0.  1.
          1   -1    0    0  501    0  0.00000000000E+00 -0.00000000000E+00 -0.83217329004E+02  0.83217329004E+02  0.00000000000E+00 0. -1.
         25    2    1    2    0    0  0.45703196820E+02 -0.14539784061E+02  0.50621336678E+02  0.14320568732E+03  0.12508062053E+03 0.  0.
         23    2    1    2    0    0 -0.45703196820E+02  0.14539784061E+02  0.36366597257E+02  0.11021690463E+03  0.92331192720E+02 0.  0.
          5    1    3    3  502    0  0.14973682427E+02  0.26855076377E+01  0.89322785712E+02  0.90705322688E+02  0.41800000000E+01 0.  1.
         -5    1    3    3    0  502  0.30729514393E+02 -0.17225291699E+02 -0.38701449033E+02  0.52500364629E+02  0.41800000000E+01 0.  1.
        -11    1    4    4    0    0 -0.71023307504E+02  0.31849325781E+01  0.41020041564E+02  0.82079825866E+02  0.00000000000E+00 0.  1.
         11    1    4    4    0    0  0.25320110684E+02  0.11354851483E+02 -0.46534443065E+01  0.28137078760E+02  0.00000000000E+00 0. -1.
</event>
<event>
 8    1  0.7262913E-009  0.1742578E+03  0.7561462E-02  0.1173479E+00
          3   -1    0    0  501    0  0.00000000000E+00  0.00000000000E+00  0.44529738763E+03  0.44529738763E+03  0.00000000000E+00 0. -1.
         -3   -1    0    0    0  501 -0.00000000000E+00 -0.00000000000E+00 -0.92068665291E+02  0.92068665291E+02  0.00000000000E+00 0.  1.
         25    2    1    2    0    0 -0.15628140360E+03 -0.35105564123E+02  0.26270367740E+03  0.33213994776E+03  0.12508974791E+03 0.  0.
         23    2    1    2    0    0  0.15628140360E+03  0.35105564123E+02  0.90525044935E+02  0.20522610516E+03  0.90921354677E+02 0.  0.
          5    1    3    3  502    0 -0.41499536744E+02 -0.40360647196E+02  0.16386754141E+02  0.60309132835E+02  0.41800000000E+01 0. -1.
         -5    1    3    3    0  502 -0.11478186685E+03  0.52550830727E+01  0.24631692326E+03  0.27183081492E+03  0.41800000000E+01 0. -1.
        -11    1    4    4    0    0  0.11284039086E+03  0.57475541331E+02  0.91699471111E+02  0.15634955920E+03  0.00000000000E+00 0.  1.
         11    1    4    4    0    0  0.43441012742E+02 -0.22369977207E+02 -0.11744261768E+01  0.48876545962E+02  0.00000000000E+00 0. -1.
</event>
<event>
 8    1  0.7262913E-009  0.8687175E+02  0.7561462E-02  0.1310609E+00
         -1   -1    0    0    0  501 -0.00000000000E+00  0.00000000000E+00  0.65817446251E+02  0.65817446251E+02  0.00000000000E+00 0.  1.
          1   -1    0    0  501    0  0.00000000000E+00 -0.00000000000E+00 -0.25978358013E+03  0.25978358013E+03  0.00000000000E+00 0. -1.
         25    2    1    2    0    0  0.46622208788E+02  0.50853686994E+01 -0.18100137967E+03  0.22496388036E+03  0.12509099366E+03 0.  0.
         23    2    1    2    0    0 -0.46622208788E+02 -0.50853686994E+01 -0.12964754210E+02  0.10063714603E+03  0.88092332137E+02 0.  0.
          5    1    3    3  502    0  0.92298088761E+01 -0.35307694664E+02 -0.10627571775E+01  0.36748122771E+02  0.41800000000E+01 0. -1.
         -5    1    3    3    0  502  0.37392399912E+02  0.40393063364E+02 -0.17993862249E+03  0.18821575759E+03  0.41800000000E+01 0. -1.
        -11    1    4    4    0    0 -0.63580573853E+02  0.15473575177E+01  0.16766873062E+02  0.65772423698E+02  0.00000000000E+00 0.  1.
         11    1    4    4    0    0  0.16958365065E+02 -0.66327262171E+01 -0.29731627272E+02  0.34864722328E+02  0.00000000000E+00 0. -1.
</event>
<event>
 8    1  0.7262913E-009  0.1177448E+03  0.7561462E-02  0.1246864E+00
         -1   -1    0    0    0  501 -0.00000000000E+00  0.00000000000E+00  0.24945997677E+02  0.24945997677E+02  0.00000000000E+00 0.  1.
          1   -1    0    0  501    0  0.00000000000E+00 -0.00000000000E+00 -0.90683660939E+03  0.90683660939E+03  0.00000000000E+00 0. -1.
         25    2    1    2    0    0  0.89514219135E+02 -0.42556010224E+02 -0.39230064897E+03  0.42352622767E+03  0.12510338489E+03 0.  0.
         23    2    1    2    0    0 -0.89514219135E+02  0.42556010224E+02 -0.48958996274E+03  0.50825637939E+03  0.93821139111E+02 0.  0.
          5    1    3    3  502    0  0.34456132725E+02 -0.14696435131E+02 -0.34126748912E+03  0.34334265948E+03  0.41800000000E+01 0.  1.
         -5    1    3    3    0  502  0.55058086410E+02 -0.27859575093E+02 -0.51033159844E+02  0.80183568187E+02  0.41800000000E+01 0.  1.
        -11    1    4    4    0    0  0.19546719438E+02  0.10939070612E+02 -0.65325386230E+02  0.69058986329E+02  0.00000000000E+00 0.  1.
         11    1    4    4    0    0 -0.10906093857E+03  0.31616939612E+02 -0.42426457651E+03  0.43919739307E+03  0.00000000000E+00 0. -1.
</event>
<event>
 8    1  0.7262913E-009  0.1349552E+03  0.7561462E-02  0.1220283E+00
         -1   -1    0    0    0  501 -0.00000000000E+00  0.00000000000E+00  0.63619866329E+03  0.63619866329E+03  0.00000000000E+00 0.  1.
          1   -1    0    0  501    0  0.00000000000E+00 -0.00000000000E+00 -0.36404627876E+02  0.36404627876E+02  0.00000000000E+00 0. -1.
         25    2    1    2    0    0 -0.92141934961E+02 -0.32960003916E+02  0.41402995801E+03  0.44344352675E+03  0.12507940378E+03 0.  0.
         23    2    1    2    0    0  0.92141934961E+02  0.32960003916E+02  0.18576407741E+03  0.22915976442E+03  0.91811802823E+02 0.  0.
          5    1    3    3  502    0  0.35940670137E+00 -0.43759474103E+02  0.45347535843E+02  0.63157676921E+02  0.41800000000E+01 0. -1.
         -5    1    3    3    0  502 -0.92501341663E+02  0.10799470187E+02  0.36868242216E+03  0.38028584983E+03  0.41800000000E+01 0. -1.
        -11    1    4    4    0    0  0.86483940335E+02  0.59898114042E+02  0.13232206039E+03  0.16904550768E+03  0.00000000000E+00 0. -1.
         11    1    4    4    0    0  0.56579946267E+01 -0.26938110126E+02  0.53442017016E+02  0.60114256737E+02  0.00000000000E+00 0.  1.
</event>
<event>
 8    1  0.7262913E-009  0.1181123E+03  0.7561462E-02  0.1246244E+00
         -2   -1    0    0    0  501 -0.00000000000E+00  0.00000000000E+00  0.62743821031E+02  0.62743821031E+02  0.00000000000E+00 0.  1.
          2   -1    0    0  501    0  0.00000000000E+00 -0.00000000000E+00 -0.27779581955E+03  0.27779581955E+03  0.00000000000E+00 0. -1.
         25    2    1    2    0    0 -0.12434849604E+02  0.68454871248E+02 -0.83265950985E+02  0.16558880747E+03  0.12508293122E+03 0.  0.
         23    2    1    2    0    0  0.12434849604E+02 -0.68454871248E+02 -0.13178604753E+03  0.17495083311E+03  0.91648986905E+02 0.  0.
          5    1    3    3  502    0  0.54787813398E+02  0.25858538868E+02 -0.20323889507E+02  0.64038280849E+02  0.41800000000E+01 0. -1.
         -5    1    3    3    0  502 -0.67222663002E+02  0.42596332380E+02 -0.62942061477E+02  0.10155052662E+03  0.41800000000E+01 0. -1.
        -11    1    4    4    0    0 -0.26358612399E+02 -0.39109179093E+02 -0.11363260023E+03  0.12303118374E+03  0.00000000000E+00 0. -1.
         11    1    4    4    0    0  0.38793462003E+02 -0.29345692155E+02 -0.18153447301E+02  0.51919649375E+02  0.00000000000E+00 0.  1.
</event>
<event>
 8    1  0.7262913E-009  0.9732048E+02  0.7561462E-02  0.1286034E+00
          1   -1    0    0  501    0  0.00000000000E+00  0.00000000000E+00  0.27151500747E+02  0.27151500747E+02  0.00000000000E+00 0. -1.
         -1   -1    0    0    0  501 -0.00000000000E+00 -0.00000000000E+00 -0.56123669018E+03  0.56123669018E+03  0.00000000000E+00 0.  1.
         25    2    1    2    0    0  0.17316413309E+02 -0.78955169911E+01 -0.16654754368E+03  0.20915957839E+03  0.12508975805E+03 0.  0.
         23    2    1    2    0    0 -0.17316413309E+02  0.78955169911E+01 -0.36753764575E+03  0.37922861253E+03  0.91477987308E+02 0.  0.
          5    1    3    3  502    0  0.38626022366E+02 -0.44972505706E+02 -0.31132679490E+02  0.67091072472E+02  0.41800000000E+01 0. -1.
         -5    1    3    3    0  502 -0.21309609057E+02  0.37076988715E+02 -0.13541486419E+03  0.14206850592E+03  0.41800000000E+01 0. -1.
        -11    1    4    4    0    0  0.36053355584E+02  0.13676764588E+02 -0.12458529851E+03  0.13041623727E+03  0.00000000000E+00 0. -1.
         11    1    4    4    0    0 -0.53369768892E+02 -0.57812475965E+01 -0.24295234724E+03  0.24881237527E+03  0.00000000000E+00 0.  1.
</event>
<event>
 8    1  0.7262913E-009  0.9471803E+02  0.7561462E-02  0.1291812E+00
          1   -1    0    0  501    0  0.00000000000E+00  0.00000000000E+00  0.35665193964E+03  0.35665193964E+03  0.00000000000E+00 0. -1.
         -1   -1    0    0    0  501 -0.00000000000E+00 -0.00000000000E+00 -0.47873100052E+02  0.47873100052E+02  0.00000000000E+00 0.  1.
         25    2    1    2    0    0  0.42170078192E+01  0.60519804887E+02  0.10628715624E+03  0.17500401145E+03  0.12509602113E+03 0.  0.
         23    2    1    2    0    0 -0.42170078192E+01 -0.60519804887E+02  0.20249168335E+03  0.22952102824E+03  0.89423658178E+02 0.  0.
          5    1    3    3  502    0  0.41506097383E+02  0.87282285609E+01  0.10241769245E+03  0.11093148435E+03  0.41800000000E+01 0.  1.
         -5    1    3    3    0  502 -0.37289089564E+02  0.51791576326E+02  0.38694637920E+01  0.64072527099E+02  0.41800000000E+01 0.  1.
        -11    1    4    4    0    0 -0.29518841732E+02 -0.22171718446E+02  0.21356729792E+02  0.42650404728E+02  0.00000000000E+00 0.  1.
         11    1    4    4    0    0  0.25301833913E+02 -0.38348086441E+02  0.18113495356E+03  0.18687062351E+03  0.00000000000E+00 0. -1.
</event>
<event>
 8    1  0.7262913E-009  0.9164585E+02  0.7561462E-02  0.1298914E+00
         -2   -1    0    0    0  501 -0.00000000000E+00  0.00000000000E+00  0.36105362735E+02  0.36105362735E+02  0.00000000000E+00 0. -1.
          2   -1    0    0  501    0  0.00000000000E+00 -0.00000000000E+00 -0.53575993251E+03  0.53575993251E+03  0.00000000000E+00 0.  1.
         25    2    1    2    0    0  0.34810613068E+02  0.74463845711E+02 -0.33057996979E+03  0.36288717989E+03  0.12508935127E+03 0.  0.
         23    2    1    2    0    0 -0.34810613068E+02 -0.74463845711E+02 -0.16907459999E+03  0.20897811536E+03  0.91263296223E+02 0.  0.
          5    1    3    3  502    0  0.16413314072E+01  0.38363457602E+01 -0.25199836367E+03  0.25206756873E+03  0.41800000000E+01 0.  1.
         -5    1    3    3    0  502  0.33169281660E+02  0.70627499951E+02 -0.78581606126E+02  0.11081961116E+03  0.41800000000E+01 0.  1.
        -11    1    4    4    0    0  0.15026698276E+02 -0.11376289794E+02  0.29655130315E+01  0.19079200667E+02  0.00000000000E+00 0. -1.
         11    1    4    4    0    0 -0.49837311343E+02 -0.63087555917E+02 -0.17204011302E+03  0.18989891469E+03  0.00000000000E+00 0.  1.
</event>
<event>
 8    1  0.7262913E-009  0.1080576E+03  0.7561462E-02  0.1264210E+00
         -1   -1    0    0    0  501 -0.00000000000E+00  0.00000000000E+00  0.95803789210E+02  0.95803789210E+02  0.00000000000E+00 0.  1.
          1   -1    0    0  501    0  0.00000000000E+00 -0.00000000000E+00 -0.23030715885E+03  0.23030715885E+03  0.00000000000E+00 0. -1.
         25    2    1    2    0    0  0.30811614407E+02  0.42895804647E+02 -0.16714920043E+03  0.21535044715E+03  0.12509018445E+03 0.  0.
         23    2    1    2    0    0 -0.30811614407E+02 -0.42895804647E+02  0.32645830798E+02  0.11076050090E+03  0.91720949911E+02 0.  0.
          5    1    3    3  502    0  0.57506253056E+02  0.71477593158E+02 -0.14046509474E+03  0.16782112711E+03  0.41800000000E+01 0.  1.
         -5    1    3    3    0  502 -0.26694638649E+02 -0.28581788512E+02 -0.26684105690E+02  0.47529320041E+02  0.41800000000E+01 0.  1.
        -11    1    4    4    0    0 -0.48614997033E+02 -0.13283372393E+02 -0.14377392573E+02  0.52407779344E+02  0.00000000000E+00 0. -1.
         11    1    4    4    0    0  0.17803382625E+02 -0.29612432254E+02  0.47023223370E+02  0.58352721556E+02  0.00000000000E+00 0.  1.
</event>
<event>
 8    1  0.7262913E-009  0.1085942E+03  0.7561462E-02  0.1263196E+00
         -2   -1    0    0    0  501 -0.00000000000E+00  0.00000000000E+00  0.27951324735E+02  0.27951324735E+02  0.00000000000E+00 0.  1.
          2   -1    0    0  501    0  0.00000000000E+00 -0.00000000000E+00 -0.56435245799E+03  0.56435245799E+03  0.00000000000E+00 0. -1.
         25    2    1    2    0    0 -0.18030462414E+02  0.59948236091E+02 -0.30764824866E+03  0.33795435607E+03  0.12508722276E+03 0.  0.
         23    2    1    2    0    0  0.18030462414E+02 -0.59948236091E+02 -0.22875288459E+03  0.25434942665E+03  0.91906800861E+02 0.  0.
          5    1    3    3  502    0 -0.71266347753E+02  0.24015685063E+02 -0.15699410607E+03  0.17412715811E+03  0.41800000000E+01 0. -1.
         -5    1    3    3    0  502  0.53235885338E+02  0.35932551028E+02 -0.15065414260E+03  0.16382719796E+03  0.41800000000E+01 0. -1.
        -11    1    4    4    0    0  0.33535412028E+02 -0.43060686330E+02 -0.22449153113E+03  0.23103093758E+03  0.00000000000E+00 0. -1.
         11    1    4    4    0    0 -0.15504949614E+02 -0.16887549761E+02 -0.42613534571E+01  0.23318489075E+02  0.00000000000E+00 0.  1.
</event>
<event>
 8    1  0.7262913E-009  0.1424671E+03  0.7561462E-02  0.1210047E+00
         -2   -1    0    0    0  501 -0.00000000000E+00  0.00000000000E+00  0.15347050799E+03  0.15347050799E+03  0.00000000000E+00 0. -1.
          2   -1    0    0  501    0  0.00000000000E+00 -0.00000000000E+00 -0.14959766349E+03  0.14959766349E+03  0.00000000000E+00 0.  1.
         25    2    1    2    0    0  0.88638501963E+02 -0.56282048457E+02 -0.11211220139E+02  0.16369493682E+03  0.12508352360E+03 0.  0.
         23    2    1    2    0    0 -0.88638501963E+02  0.56282048457E+02  0.15084064635E+02  0.13937323466E+03  0.90404184227E+02 0.  0.
          5    1    3    3  502    0 -0.72253866985E+01 -0.51585928748E+02  0.28752151015E+02  0.59644554201E+02  0.41800000000E+01 0. -1.
         -5    1    3    3    0  502  0.95863888661E+02 -0.46961197082E+01 -0.39963371154E+02  0.10405038262E+03  0.41800000000E+01 0. -1.
        -11    1    4    4    0    0 -0.23959676716E+01  0.50085335586E+02  0.16827198864E+02  0.52890794316E+02  0.00000000000E+00 0.  1.
         11    1    4    4    0    0 -0.86242534291E+02  0.61967128710E+01 -0.17431342290E+01  0.86482440347E+02  0.00000000000E+00 0. -1.
</event>
<event>
 8    1  0.7262913E-009  0.1547552E+03  0.7561462E-02  0.1194749E+00
         -1   -1    0    0    0  501 -0.00000000000E+00  0.00000000000E+00  0.28027680019E+02  0.28027680019E+02  0.00000000000E+00 0.  1.
          1   -1    0    0  501    0  0.00000000000E+00 -0.00000000000E+00 -0.11807937570E+04  0.11807937570E+04  0.00000000000E+00 0. -1.
         25    2    1    2    0    0 -0.49670658839E+02 -0.13576396266E+03 -0.67706514940E+03  0.70353602820E+03  0.12508676402E+03 0.  0.
         23    2    1    2    0    0  0.49670658839E+02  0.13576396266E+03 -0.47570092755E+03  0.50528540880E+03  0.90127376301E+02 0.  0.
          5    1    3    3  502    0 -0.13321338015E+01 -0.70874682138E+02 -0.11146780624E+03  0.13216481898E+03  0.41800000000E+01 0.  1.
         -5    1    3    3    0  502 -0.48338525038E+02 -0.64889280522E+02 -0.56559734316E+03  0.57137120922E+03  0.41800000000E+01 0.  1.
        -11    1    4    4    0    0  0.63420441061E+02  0.93072886602E+02 -0.41373911972E+03  0.42879455891E+03  0.00000000000E+00 0. -1.
         11    1    4    4    0    0 -0.13749782221E+02  0.42691076058E+02 -0.61961807840E+02  0.76490849890E+02  0.00000000000E+00 0.  1.
</event>
<event>
 8    1  0.7262913E-009  0.1196037E+03  0.7561462E-02  0.1243752E+00
         -1   -1    0    0    0  501 -0.00000000000E+00  0.00000000000E+00  0.32020920906E+02  0.32020920906E+02  0.00000000000E+00 0.  1.
          1   -1    0    0  501    0  0.00000000000E+00 -0.00000000000E+00 -0.71073283083E+03  0.71073283083E+03  0.00000000000E+00 0. -1.
         25    2    1    2    0    0 -0.83533981596E+02 -0.56599534439E+02 -0.37077428712E+03  0.40410765517E+03  0.12509193257E+03 0.  0.
         23    2    1    2    0    0  0.83533981596E+02  0.56599534439E+02 -0.30793762281E+03  0.33864609657E+03  0.98357337318E+02 0.  0.
          5    1    3    3  502    0 -0.22029770892E+02 -0.92875274352E+01  0.10078475563E+01  0.24291091538E+02  0.41800000000E+01 0. -1.
         -5    1    3    3    0  502 -0.61504210704E+02 -0.47312007003E+02 -0.37178213468E+03  0.37981656363E+03  0.41800000000E+01 0. -1.
        -11    1    4    4    0    0 -0.18212350323E+02  0.24521745806E+02 -0.40592522016E+02  0.50801166967E+02  0.00000000000E+00 0.  1.
         11    1    4    4    0    0  0.10174633192E+03  0.32077788633E+02 -0.26734510079E+03  0.28784492960E+03  0.00000000000E+00 0. -1.
</event>
<event>
 8    1  0.7262913E-009  0.1169506E+03  0.7561462E-02  0.1248214E+00
         -1   -1    0    0    0  501 -0.00000000000E+00  0.00000000000E+00  0.24601239999E+03  0.24601239999E+03  0.00000000000E+00 0.  1.
          1   -1    0    0  501    0  0.00000000000E+00 -0.00000000000E+00 -0.91988218947E+02  0.91988218947E+02  0.00000000000E+00 0. -1.
         25    2    1    2    0    0 -0.83466795789E+02 -0.59679969065E+02  0.62733146822E+02  0.17352277223E+03  0.12508517125E+03 0.  0.
         23    2    1    2    0    0  0.83466795789E+02  0.59679969065E+02  0.91291034222E+02  0.16447784670E+03  0.90501405626E+02 0.  0.
          5    1    3    3  502    0 -0.81316896085E+01 -0.54237005777E+02  0.78888491735E+02  0.96169868981E+02  0.41800000000E+01 0. -1.
         -5    1    3    3    0  502 -0.75335106180E+02 -0.54429632880E+01 -0.16155344913E+02  0.77352903254E+02  0.41800000000E+01 0. -1.
        -11    1    4    4    0    0  0.15642370053E+02  0.59945733713E+01  0.74503755808E+02  0.76363789064E+02  0.00000000000E+00 0.  1.
         11    1    4    4    0    0  0.67824425736E+02  0.53685395694E+02  0.16787278414E+02  0.88114057640E+02  0.00000000000E+00 0. -1.
</event>
<event>
 8    1  0.7262913E-009  0.1078336E+03  0.7561462E-02  0.1264635E+00
          1   -1    0    0  501    0  0.00000000000E+00  0.00000000000E+00  0.10155535109E+03  0.10155535109E+03  0.00000000000E+00 0. -1.
         -1   -1    0    0    0  501 -0.00000000000E+00 -0.00000000000E+00 -0.19851046250E+03  0.19851046250E+03  0.00000000000E+00 0.  1.
         25    2    1    2    0    0  0.81571780578E+02 -0.16692265408E+02 -0.93748636708E+02  0.17711182094E+03  0.12508878095E+03 0.  0.
         23    2    1    2    0    0 -0.81571780578E+02  0.16692265408E+02 -0.32064747087E+01  0.12295399266E+03  0.90414687518E+02 0.  0.
          5    1    3    3  502    0  0.41557392497E+02 -0.38422046803E+02 -0.11381331429E+03  0.12717788118E+03  0.41800000000E+01 0. -1.
         -5    1    3    3    0  502  0.40014388081E+02  0.21729781395E+02  0.20064677583E+02  0.49933939756E+02  0.41800000000E+01 0. -1.
        -11    1    4    4    0    0  0.65261412059E+01  0.23921992263E+02 -0.21345212833E+02  0.32718043092E+02  0.00000000000E+00 0.  1.
         11    1    4    4    0    0 -0.88097921784E+02 -0.72297268553E+01  0.18138738124E+02  0.90235949564E+02  0.00000000000E+00 0. -1.
</event>
<event>
 8    1  0.7262913E-009  0.7855983E+02  0.7561462E-02  0.1333189E+00
         -1   -1    0    0    0  501 -0.00000000000E+00  0.00000000000E+00  0.43368393956E+02  0.43368393956E+02  0.00000000000E+00 0. -1.
          1   -1    0    0  501    0  0.00000000000E+00 -0.00000000000E+00 -0.32827260912E+03  0.32827260912E+03  0.00000000000E+00 0.  1.
         25    2    1    2    0    0 -0.21962675998E+02  0.41035827505E+02 -0.20660480575E+03  0.24596573923E+03  0.12508917154E+03 0.  0.
         23    2    1    2    0    0  0.21962675998E+02 -0.41035827505E+02 -0.78299409407E+02  0.12567526384E+03  0.86586235354E+02 0.  0.
          5    1    3    3  502    0 -0.31914651200E+02  0.51078580518E+02 -0.27649830976E+02  0.66404456943E+02  0.41800000000E+01 0.  1.
         -5    1    3    3    0  502  0.99519752021E+01 -0.10042753012E+02 -0.17895497478E+03  0.17956128228E+03  0.41800000000E+01 0.  1.
        -11    1    4    4    0    0  0.39521807742E+02 -0.48805323252E+02 -0.84693991683E+02  0.10543720924E+03  0.00000000000E+00 0.  1.
         11    1    4    4    0    0 -0.17559131744E+02  0.77694957467E+01  0.63945822756E+01  0.20238054606E+02  0.00000000000E+00 0. -1.
</event>
<event>
 8    1  0.7262913E-009  0.2059759E+03  0.7561462E-02  0.1144793E+00
          1   -1    0    0  501    0  0.00000000000E+00  0.00000000000E+00  0.19313464245E+04  0.19313464245E+04  0.00000000000E+00 0. -1.
         -1   -1    0    0    0  501 -0.00000000000E+00 -0.00000000000E+00 -0.22703772954E+02  0.22703772954E+02  0.00000000000E+00 0.  1.
         25    2    1    2    0    0 -0.98425685449E+02  0.14353796735E+03  0.82602301744E+03  0.85337686281E+03  0.12508909231E+03 0.  0.
         23    2    1    2    0    0  0.98425685449E+02 -0.14353796735E+03  0.10826196341E+04  0.11006733347E+04  0.95528811449E+02 0.  0.
          5    1    3    3  502    0  0.27364021820E+02  0.85876668991E+01  0.14001375064E+03  0.14298202853E+03  0.41800000000E+01 0. -1.
         -5    1    3    3    0  502 -0.12578970727E+03  0.13495030045E+03  0.68600926680E+03  0.71039483429E+03  0.41800000000E+01 0. -1.
        -11    1    4    4    0    0  0.65121195347E+02 -0.15087906101E+03  0.88307304601E+03  0.89823341383E+03  0.00000000000E+00 0.  1.
         11    1    4    4    0    0  0.33304490102E+02  0.73410936663E+01  0.19954658811E+03  0.20243992082E+03  0.00000000000E+00 0. -1.
</event>
<event>
 8    1  0.7262913E-009  0.7295910E+02  0.7561462E-02  0.1350310E+00
          1   -1    0    0  501    0  0.00000000000E+00  0.00000000000E+00  0.65824188813E+02  0.65824188813E+02  0.00000000000E+00 0. -1.
         -1   -1    0    0    0  501 -0.00000000000E+00 -0.00000000000E+00 -0.18993253001E+03  0.18993253001E+03  0.00000000000E+00 0.  1.
         25    2    1    2    0    0  0.13051570826E+02  0.19733530607E+02 -0.48239861907E+02  0.13614267541E+03  0.12509191844E+03 0.  0.
         23    2    1    2    0    0 -0.13051570826E+02 -0.19733530607E+02 -0.75868479288E+02  0.11961404341E+03  0.89396518390E+02 0.  0.
          5    1    3    3  502    0  0.56179918397E+01  0.39411797840E+02  0.33150639613E+02  0.51973925655E+02  0.41800000000E+01 0.  1.
         -5    1    3    3    0  502  0.74335789867E+01 -0.19678267232E+02 -0.81390501519E+02  0.84168749756E+02  0.41800000000E+01 0.  1.
        -11    1    4    4    0    0 -0.40130607631E+02  0.12791906931E+02 -0.62237940904E+02  0.75150913764E+02  0.00000000000E+00 0.  1.
         11    1    4    4    0    0  0.27079036804E+02 -0.32525437538E+02 -0.13630538385E+02  0.44463129646E+02  0.00000000000E+00 0. -1.
</event>
<event>
 8    1  0.7262913E-009  0.1161419E+03  0.7561462E-02  0.1249601E+00
          1   -1    0    0  501    0  0.00000000000E+00  0.00000000000E+00  0.16172406012E+03  0.16172406012E+03  0.00000000000E+00 0. -1.
         -1   -1    0    0    0  501 -0.00000000000E+00 -0.00000000000E+00 -0.99930776933E+02  0.99930776933E+02  0.00000000000E+00 0.  1.
         25    2    1    2    0    0  0.61292745332E+02 -0.30836030476E+02  0.61481147460E+02  0.15535586498E+03  0.12509137414E+03 0.  0.
         23    2    1    2    0    0 -0.61292745332E+02  0.30836030476E+02  0.31213572449E+00  0.10629897207E+03  0.81189362784E+02 0.  0.
          5    1    3    3  502    0  0.13792367130E+02 -0.65719351423E+02 -0.37006833973E+01  0.67382712917E+02  0.41800000000E+01 0. -1.
         -5    1    3    3    0  502  0.47500378202E+02  0.34883320947E+02  0.65181830858E+02  0.87973152061E+02  0.41800000000E+01 0. -1.
        -11    1    4    4    0    0  0.14405522977E+02  0.26422903723E+02 -0.39483852891E+01  0.30352572870E+02  0.00000000000E+00 0.  1.
         11    1    4    4    0    0 -0.75698268309E+02  0.44131267525E+01  0.42605210136E+01  0.75946399204E+02  0.00000000000E+00 0. -1.
</event>
<event>
 8    1  0.7262913E-009  0.2038546E+03  0.7561462E-02  0.1146527E+00
          1   -1    0    0  501    0  0.00000000000E+00  0.00000000000E+00  0.12013202592E+04  0.12013202592E+04  0.00000000000E+00 0.  1.
         -1   -1    0    0    0  501 -0.00000000000E+00 -0.00000000000E+00 -0.47601196844E+02  0.47601196844E+02  0.00000000000E+00 0. -1.
         25    2    1    2    0    0 -0.17455546193E+03  0.73963763142E+02  0.34430075013E+03  0.41246794788E+03  0.12508618604E+03 0.  0.
         23    2    1    2    0    0  0.17455546193E+03 -0.73963763142E+02  0.80941831220E+03  0.83645350813E+03  0.92499835689E+02 0.  0.
          5    1    3    3  502    0 -0.52760961999E+02 -0.12705942583E+02  0.18979080676E+03  0.19744159344E+03  0.41800000000E+01 0. -1.
         -5    1    3    3    0  502 -0.12179449993E+03  0.86669705725E+02  0.15450994337E+03  0.21502635444E+03  0.41800000000E+01 0. -1.
        -11    1    4    4    0    0  0.14213772891E+03 -0.89312672612E+02  0.73384721053E+03  0.75280250788E+03  0.00000000000E+00 0.  1.
         11    1    4    4    0    0  0.32417733025E+02  0.15348909471E+02  0.75571101667E+02  0.83651000255E+02  0.00000000000E+00 0. -1.
</event>
<event>
 8    1  0.7262913E-009  0.1163596E+03  0.7561462E-02  0.1249226E+00
         -1   -1    0    0    0  501 -0.00000000000E+00  0.00000000000E+00  0.30330267705E+02  0.30330267705E+02  0.00000000000E+00 0.  1.
          1   -1    0    0  501    0  0.00000000000E+00 -0.00000000000E+00 -0.71020056105E+03  0.71020056105E+03  0.00000000000E+00 0. -1.
         25    2    1    2    0    0 -0.65814963750E+01 -0.51060121535E+02 -0.56900572951E+03  0.58486325473E+03  0.12508818656E+03 0.  0.
         23    2    1    2    0    0  0.65814963750E+01  0.51060121535E+02 -0.11086456384E+03  0.15566757402E+03  0.96389781522E+02 0.  0.
          5    1    3    3  502    0 -0.44627880485E+02  0.24087302854E+02 -0.22184027736E+03  0.22760146514E+03  0.41800000000E+01 0. -1.
         -5    1    3    3    0  502  0.38046384110E+02 -0.75147424388E+02 -0.34716545215E+03  0.35726178959E+03  0.41800000000E+01 0. -1.
        -11    1    4    4    0    0 -0.37857494512E+02  0.16946037554E+02 -0.14013633529E+02  0.43780589354E+02  0.00000000000E+00 0.  1.
         11    1    4    4    0    0  0.44438990887E+02  0.34114083981E+02 -0.96850930310E+02  0.11188698467E+03  0.00000000000E+00 0. -1.
</event>
<event>
 8    1  0.7262913E-009  0.8834709E+02  0.7561462E-02  0.1306905E+00
         -1   -1    0    0    0  501 -0.00000000000E+00  0.00000000000E+00  0.73061871128E+02  0.73061871128E+02  0.00000000000E+00 0.  1.
          1   -1    0    0  501    0  0.00000000000E+00 -0.00000000000E+00 -0.21668786624E+03  0.21668786624E+03  0.00000000000E+00 0. -1.
         25    2    1    2    0    0  0.11261576004E+02 -0.48841042077E+02 -0.34872598312E+02  0.13919596216E+03  0.12508855777E+03 0.  0.
         23    2    1    2    0    0 -0.11261576004E+02  0.48841042077E+02 -0.10875339680E+03  0.15055377520E+03  0.91251670821E+02 0.  0.
          5    1    3    3  502    0  0.17092963651E+02  0.29370201813E+02 -0.48616623553E+02  0.59462817345E+02  0.41800000000E+01 0.  1.
         -5    1    3    3    0  502 -0.58313876468E+01 -0.78211243890E+02  0.13744025241E+02  0.79733144817E+02  0.41800000000E+01 0.  1.
        -11    1    4    4    0    0 -0.22804453932E+02  0.12971910703E+02  0.83539082003E+01  0.27533640671E+02  0.00000000000E+00 0.  1.
         11    1    4    4    0    0  0.11542877928E+02  0.35869131374E+02 -0.11710730500E+03  0.12302013453E+03  0.00000000000E+00 0. -1.
</event>
<event>
 8    1  0.7262913E-009  0.2434301E+03  0.7561462E-02  0.1117529E+00
         -1   -1    0    0    0  501 -0.00000000000E+00  0.00000000000E+00  0.12037788924E+04  0.12037788924E+04  0.00000000000E+00 0.  1.
          1   -1    0    0  501    0  0.00000000000E+00 -0.00000000000E+00 -0.55227768929E+02  0.55227768929E+02  0.00000000000E+00 0. -1.
         25    2    1    2    0    0  0.21427878852E+03  0.88689314781E+02  0.52061034636E+03  0.58349352393E+03  0.12509342891E+03 0.  0.
         23    2    1    2    0    0 -0.21427878852E+03 -0.88689314781E+02  0.62794077706E+03  0.67551313736E+03  0.90703833885E+02 0.  0.
          5    1    3    3  502    0  0.14494630834E+03  0.91845010620E+02  0.46096646780E+03  0.49188666898E+03  0.41800000000E+01 0. -1.
         -5    1    3    3    0  502  0.69332480180E+02 -0.31556958386E+01  0.59643878560E+02  0.91606854950E+02  0.41800000000E+01 0. -1.
        -11    1    4    4    0    0 -0.11468137702E+03 -0.90470040352E+02  0.31767098133E+03  0.34964481809E+03  0.00000000000E+00 0.  1.
         11    1    4    4    0    0 -0.99597411498E+02  0.17807255710E+01  0.31026979573E+03  0.32586831927E+03  0.00000000000E+00 0. -1.
</event>
<event>
 8    1  0.7262913E-009  0.9958583E+02  0.7561462E-02  0.1281169E+00
          2   -1    0    0  501    0  0.00000000000E+00  0.00000000000E+00  0.21876274688E+03  0.21876274688E+03  0.00000000000E+00 0.  1.
         -2   -1    0    0    0  501 -0.00000000000E+00 -0.00000000000E+00 -0.95903261180E+02  0.95903261180E+02  0.00000000000E+00 0. -1.
         25    2    1    2    0    0 -0.54364276505E+02  0.24417194543E+02 -0.88649310933E+01  0.13884403828E+03  0.12508959195E+03 0.  0.
         23    2    1    2    0    0  0.54364276505E+02 -0.24417194543E+02  0.13172441680E+03  0.17582196978E+03  0.10005183221E+03 0.  0.
          5    1    3    3  502    0 -0.87870589639E+02  0.17845609232E+02 -0.34268833663E+02  0.96080859972E+02  0.41800000000E+01 0. -1.
         -5    1    3    3    0  502  0.33506313134E+02  0.65715853103E+01  0.25403902569E+02  0.42763178309E+02  0.41800000000E+01 0. -1.
        -11    1    4    4    0    0  0.16197340096E+02  0.13592641960E+02  0.11848037399E+03  0.12035245225E+03  0.00000000000E+00 0.  1.
         11    1    4    4    0    0  0.38166936409E+02 -0.38009836502E+02  0.13244042809E+02  0.55469517536E+02  0.00000000000E+00 0. -1.
</event>
<event>
 8    1  0.7262913E-009  0.1230479E+03  0.7561462E-02  0.1238152E+00
         -3   -1    0    0    0  501 -0.00000000000E+00  0.00000000000E+00  0.93485470847E+02  0.93485470847E+02  0.00000000000E+00 0.  1.
          3   -1    0    0  501    0  0.00000000000E+00 -0.00000000000E+00 -0.58459424126E+03  0.58459424126E+03  0.00000000000E+00 0. -1.
         25    2    1    2    0    0  0.23512716781E+02 -0.67060379472E+02  0.27986274723E+02  0.14656343084E+03  0.12509062851E+03 0.  0.
         23    2    1    2    0    0 -0.23512716781E+02  0.67060379472E+02 -0.51909504514E+03  0.53151628127E+03  0.89442434126E+02 0.  0.
          5    1    3    3  502    0  0.66550704568E+02 -0.57568021436E+02  0.45262631338E+02  0.99041665809E+02  0.41800000000E+01 0.  1.
         -5    1    3    3    0  502 -0.43037987786E+02 -0.94923580358E+01 -0.17276356615E+02  0.47521765031E+02  0.41800000000E+01 0.  1.
        -11    1    4    4    0    0  0.29780399964E+02  0.49226885711E+02 -0.28751394411E+03  0.29321396037E+03  0.00000000000E+00 0. -1.
         11    1    4    4    0    0 -0.53293116746E+02  0.17833493761E+02 -0.23158110103E+03  0.23830232090E+03  0.00000000000E+00 0.  1.
</event>
<event>
 8    1  0.7262913E-009  0.1421100E+03  0.7561462E-02  0.1210518E+00
          3   -1    0    0  501    0  0.00000000000E+00  0.00000000000E+00  0.11867464460E+03  0.11867464460E+03  0.00000000000E+00 0. -1.
         -3   -1    0    0    0  501 -0.00000000000E+00 -0.00000000000E+00 -0.25648632362E+03  0.25648632362E+03  0.00000000000E+00 0.  1.
         25    2    1    2    0    0 -0.81975719765E+02 -0.10796798972E+03 -0.60327345053E+02  0.19407191211E+03  0.12508962017E+03 0.  0.
         23    2    1    2    0    0  0.81975719765E+02  0.10796798972E+03 -0.77484333970E+02  0.18108905610E+03  0.91718693815E+02 0.  0.
          5    1    3    3  502    0 -0.28223622460E+02 -0.65392970439E+01  0.34410812270E+02  0.45176450411E+02  0.41800000000E+01 0. -1.
         -5    1    3    3    0  502 -0.53752097304E+02 -0.10142869267E+03 -0.94738157323E+02  0.14889546170E+03  0.41800000000E+01 0. -1.
        -11    1    4    4    0    0  0.19811778909E+01  0.24097246008E+02  0.18626321627E+02  0.30521176065E+02  0.00000000000E+00 0. -1.
         11    1    4    4    0    0  0.79994541874E+02  0.83870743708E+02 -0.96110655598E+02  0.15056788004E+03  0.00000000000E+00 0.  1.
</event>
<event>
 8    1  0.7262913E-009  0.1049703E+03  0.7561462E-02  0.1270178E+00
         -1   -1    0    0    0  501 -0.00000000000E+00  0.00000000000E+00  0.30210106023E+02  0.30210106023E+02  0.00000000000E+00 0.  1.
          1   -1    0    0  501    0  0.00000000000E+00 -0.00000000000E+00 -0.48981851053E+03  0.48981851053E+03  0.00000000000E+00 0. -1.
         25    2    1    2    0    0 -0.14477617859E+02 -0.48362381095E+02 -0.29712271030E+03  0.32631061050E+03  0.12509271852E+03 0.  0.
         23    2    1    2    0    0  0.14477617859E+02  0.48362381095E+02 -0.16248569421E+03  0.19371800606E+03  0.92609630833E+02 0.  0.
          5    1    3    3  502    0 -0.21120005791E+02 -0.89518801637E+02 -0.22115132677E+03  0.23955177358E+03  0.41800000000E+01 0. -1.
         -5    1    3    3    0  502  0.66423879325E+01  0.41156420542E+02 -0.75971383526E+02  0.86758836923E+02  0.41800000000E+01 0. -1.
        -11    1    4    4    0    0  0.20385344500E+02 -0.60303624178E+01 -0.12640363284E+03  0.12817880455E+03  0.00000000000E+00 0. -1.
         11    1    4    4    0    0 -0.59077266412E+01  0.54392743513E+02 -0.36082061371E+02  0.65539201504E+02  0.00000000000E+00 0.  1.
</event>
<event>
 8    1  0.7262913E-009  0.1361303E+03  0.7561462E-02  0.1218633E+00
         -1   -1    0    0    0  501 -0.00000000000E+00  0.00000000000E+00  0.11390017015E+03  0.11390017015E+03  0.00000000000E+00 0.  1.
          1   -1    0    0  501    0  0.00000000000E+00 -0.00000000000E+00 -0.24489891583E+03  0.24489891583E+03  0.00000000000E+00 0. -1.
         25    2    1    2    0    0  0.88310858416E+02 -0.31898413482E+01 -0.16747001812E+03  0.22693293871E+03  0.12507345403E+03 0.  0.
         23    2    1    2    0    0 -0.88310858416E+02  0.31898413482E+01  0.36471272441E+02  0.13186614726E+03  0.90827001922E+02 0.  0.
          5    1    3    3  502    0 -0.22848428315E+02 -0.26311985169E+02 -0.18786548666E+02  0.39809270915E+02  0.41800000000E+01 0.  1.
         -5    1    3    3    0  502  0.11115928673E+03  0.23122143821E+02 -0.14868346945E+03  0.18712366780E+03  0.41800000000E+01 0.  1.
        -11    1    4    4    0    0 -0.15862107320E+01  0.32093761957E+02 -0.30438057079E+01  0.32276777631E+02  0.00000000000E+00 0.  1.
         11    1    4    4    0    0 -0.86724647684E+02 -0.28903920609E+02  0.39515078149E+02  0.99589369631E+02  0.00000000000E+00 0. -1.
</event>
<event>
 8    1  0.7262913E-009  0.1041615E+03  0.7561462E-02  0.1271781E+00
         -1   -1    0    0    0  501 -0.00000000000E+00  0.00000000000E+00  0.21625751946E+02  0.21625751946E+02  0.00000000000E+00 0.  1.
          1   -1    0    0  501    0  0.00000000000E+00 -0.00000000000E+00 -0.56568383581E+03  0.56568383581E+03  0.00000000000E+00 0. -1.
         25    2    1    2    0    0  0.20140691362E+02  0.10120616078E+02 -0.29745423901E+03  0.32347184265E+03  0.12508770668E+03 0.  0.
         23    2    1    2    0    0 -0.20140691362E+02 -0.10120616078E+02 -0.24660384486E+03  0.26383774512E+03  0.91042985069E+02 0.  0.
          5    1    3    3  502    0 -0.31441808863E+02 -0.42224781512E+02 -0.10800780840E+03  0.12022761161E+03  0.41800000000E+01 0.  1.
         -5    1    3    3    0  502  0.51582500225E+02  0.52345397589E+02 -0.18944643061E+03  0.20324423104E+03  0.41800000000E+01 0.  1.
        -11    1    4    4    0    0  0.14900744157E+02  0.27010559960E+02 -0.37332182172E+02  0.48428239195E+02  0.00000000000E+00 0.  1.
         11    1    4    4    0    0 -0.35041435519E+02 -0.37131176038E+02 -0.20927166269E+03  0.21540950592E+03  0.00000000000E+00 0. -1.
</event>
<event>
 8    1  0.7262913E-009  0.2314656E+03  0.7561462E-02  0.1125612E+00
          1   -1    0    0  501    0  0.00000000000E+00  0.00000000000E+00  0.42260123808E+03  0.42260123808E+03  0.00000000000E+00 0. -1.
         -1   -1    0    0    0  501 -0.00000000000E+00 -0.00000000000E+00 -0.13256032246E+03  0.13256032246E+03  0.00000000000E+00 0.  1.
         25    2    1    2    0    0 -0.41600458879E+02 -0.20639373007E+03  0.16557649778E+03  0.29562160628E+03  0.12509031734E+03 0.  0.
         23    2    1    2    0    0  0.41600458879E+02  0.20639373007E+03  0.12446441784E+03  0.25953995426E+03  0.86836781142E+02 0.  0.
          5    1    3    3  502    0 -0.29812805140E+02 -0.21940279175E+03  0.13285118891E+03  0.25825045822E+03  0.41800000000E+01 0.  1.
         -5    1    3    3    0  502 -0.11787653739E+02  0.13009061680E+02  0.32725308868E+02  0.37371148055E+02  0.41800000000E+01 0.  1.
        -11    1    4    4    0    0 -0.52859288021E+00  0.16280697013E+03  0.11211203194E+03  0.19767523022E+03  0.00000000000E+00 0. -1.
         11    1    4    4    0    0  0.42129051759E+02  0.43586759935E+02  0.12352385893E+02  0.61864724044E+02  0.00000000000E+00 0.  1.
</event>
<event>
 8    1  0.7262913E-009  0.1192525E+03  0.7561462E-02  0.1244335E+00
         -2   -1    0    0    0  501 -0.00000000000E+00  0.00000000000E+00  0.72838996985E+02  0.72838996985E+02  0.00000000000E+00 0.  1.
          2   -1    0    0  501    0  0.00000000000E+00 -0.00000000000E+00 -0.21636547630E+03  0.21636547630E+03  0.00000000000E+00 0. -1.
         25    2    1    2    0    0 -0.42046772755E+02 -0.26514045388E+02 -0.12425130184E+03  0.18318777459E+03  0.12509376103E+03 0.  0.
         23    2    1    2    0    0  0.42046772755E+02  0.26514045388E+02 -0.19275177478E+02  0.10601669869E+03  0.91635594794E+02 0.  0.
          5    1    3    3  502    0 -0.63622803734E+02 -0.64302384756E+02 -0.89781194825E+02  0.12751781517E+03  0.41800000000E+01 0.  1.
         -5    1    3    3    0  502  0.21576030979E+02  0.37788339368E+02 -0.34470107016E+02  0.55669959428E+02  0.41800000000E+01 0.  1.
        -11    1    4    4    0    0 -0.67830954895E+01 -0.29301096086E+02 -0.63467980086E+01  0.30738354888E+02  0.00000000000E+00 0.  1.
         11    1    4    4    0    0  0.48829868245E+02  0.55815141474E+02 -0.12928379469E+02  0.75278343807E+02  0.00000000000E+00 0. -1.
</event>
<event>
 8    1  0.7262913E-009  0.1355451E+03  0.7561462E-02  0.1219452E+00
          1   -1    0    0  501    0  0.00000000000E+00  0.00000000000E+00  0.48019983354E+02  0.48019983354E+02  0.00000000000E+00 0. -1.
         -1   -1    0    0    0  501 -0.00000000000E+00 -0.00000000000E+00 -0.41486375593E+03  0.41486375593E+03  0.00000000000E+00 0.  1.
         25    2    1    2    0    0  0.74606438054E+02 -0.48741301463E+02 -0.20404602885E+03  0.25538977286E+03  0.12508924464E+03 0.  0.
         23    2    1    2    0    0 -0.74606438054E+02  0.48741301463E+02 -0.16279774372E+03  0.20749396642E+03  0.92783649818E+02 0.  0.
          5    1    3    3  502    0  0.86961797184E+02 -0.80923224095E+02 -0.15794282274E+03  0.19767227935E+03  0.41800000000E+01 0. -1.
         -5    1    3    3    0  502 -0.12355359131E+02  0.32181922631E+02 -0.46103206107E+02  0.57717493508E+02  0.41800000000E+01 0. -1.
        -11    1    4    4    0    0  0.14965661323E+02 -0.10844202350E+01  0.13185646726E+00  0.15005478073E+02  0.00000000000E+00 0. -1.
         11    1    4    4    0    0 -0.89572099377E+02  0.49825721698E+02 -0.16292960019E+03  0.19248848835E+03  0.00000000000E+00 0.  1.
</event>
<event>
 8    1  0.7262913E-009  0.8140230E+02  0.7561462E-02  0.1325118E+00
          2   -1    0    0  501    0  0.00000000000E+00  0.00000000000E+00  0.63295992795E+02  0.63295992795E+02  0.00000000000E+00 0. -1.
         -2   -1    0    0    0  501 -0.00000000000E+00 -0.00000000000E+00 -0.20108165703E+03  0.20108165703E+03  0.00000000000E+00 0.  1.
         25    2    1    2    0    0 -0.49692028051E+01  0.11335567383E+02 -0.45775659210E+02  0.13377528746E+03  0.12508888238E+03 0.  0.
         23    2    1    2    0    0  0.49692028051E+01 -0.11335567383E+02 -0.92010005027E+02  0.13060236237E+03  0.91858303739E+02 0.  0.
          5    1    3    3  502    0 -0.26520388288E+02 -0.29172079609E+02 -0.70947738370E+02  0.81273582445E+02  0.41800000000E+01 0.  1.
         -5    1    3    3    0  502  0.21551185483E+02  0.40507646992E+02  0.25172079160E+02  0.52501705017E+02  0.41800000000E+01 0.  1.
        -11    1    4    4    0    0  0.40201969692E+02 -0.11631048925E+02 -0.84905085887E+02  0.94659142589E+02  0.00000000000E+00 0.  1.
         11    1    4    4    0    0 -0.35232766887E+02  0.29548154202E+00 -0.71049191395E+01  0.35943219776E+02  0.00000000000E+00 0. -1.
</event>
<event>
 8    1  0.7262913E-009  0.1049330E+03  0.7561462E-02  0.1270252E+00
          2   -1    0    0  501    0  0.00000000000E+00  0.00000000000E+00  0.25791047667E+03  0.25791047667E+03  0.00000000000E+00 0.  1.
         -2   -1    0    0    0  501 -0.00000000000E+00 -0.00000000000E+00 -0.79132418298E+02  0.79132418298E+02  0.00000000000E+00 0. -1.
         25    2    1    2    0    0 -0.39276577175E+00  0.84900736813E+02  0.14085584319E+03  0.20663130881E+03  0.12509132602E+03 0.  0.
         23    2    1    2    0    0  0.39276577175E+00 -0.84900736813E+02  0.37922215189E+02  0.13041158616E+03  0.91437399480E+02 0.  0.
          5    1    3    3  502    0 -0.39530337547E+00  0.46515459517E+02 -0.12614562688E+02  0.48378133807E+02  0.41800000000E+01 0. -1.
         -5    1    3    3    0  502  0.25376037288E-02  0.38385277296E+02  0.15347040588E+03  0.15825317501E+03  0.41800000000E+01 0. -1.
        -11    1    4    4    0    0 -0.45312285430E+02 -0.45341031142E+02  0.15586544833E+02  0.65969331479E+02  0.00000000000E+00 0.  1.
         11    1    4    4    0    0  0.45705051202E+02 -0.39559705671E+02  0.22335670356E+02  0.64442254681E+02  0.00000000000E+00 0. -1.
</event>
<event>
 8    1  0.7262913E-009  0.1064428E+03  0.7561462E-02  0.1267303E+00
         -2   -1    0    0    0  501 -0.00000000000E+00  0.00000000000E+00  0.71984134876E+03  0.71984134876E+03  0.00000000000E+00 0.  1.
          2   -1    0    0  501    0  0.00000000000E+00 -0.00000000000E+00 -0.28492570289E+02  0.28492570289E+02  0.00000000000E+00 0. -1.
         25    2    1    2    0    0  0.53213378077E+02 -0.19303944525E+02  0.55765980955E+03  0.57431356406E+03  0.12508917135E+03 0.  0.
         23    2    1    2    0    0 -0.53213378077E+02  0.19303944525E+02  0.13368896892E+03  0.17402035499E+03  0.95948098787E+02 0.  0.
          5    1    3    3  502    0  0.76713865315E+02 -0.20799890056E+02  0.19161645791E+03  0.20748973927E+03  0.41800000000E+01 0.  1.
         -5    1    3    3    0  502 -0.23500487238E+02  0.14959455306E+01  0.36604335164E+03  0.36682382479E+03  0.41800000000E+01 0.  1.
        -11    1    4    4    0    0 -0.73131525664E+02 -0.10136303593E+02  0.10491125107E+03  0.12828614617E+03  0.00000000000E+00 0.  1.
         11    1    4    4    0    0  0.19918147587E+02  0.29440248119E+02  0.28777717844E+02  0.45734208825E+02  0.00000000000E+00 0. -1.
</event>
<event>
 8    1  0.7262913E-009  0.1165419E+03  0.7561462E-02  0.1248913E+00
         -1   -1    0    0    0  501 -0.00000000000E+00  0.00000000000E+00  0.32104705256E+03  0.32104705256E+03  0.00000000000E+00 0.  1.
          1   -1    0    0  501    0  0.00000000000E+00 -0.00000000000E+00 -0.10506806222E+03  0.10506806222E+03  0.00000000000E+00 0. -1.
         25    2    1    2    0    0  0.10504659820E+03 -0.37991762660E+02  0.40373106822E+01  0.16775673829E+03  0.12509141274E+03 0.  0.
         23    2    1    2    0    0 -0.10504659820E+03  0.37991762660E+02  0.21194167966E+03  0.25835837650E+03  0.96703739884E+02 0.  0.
          5    1    3    3  502    0  0.79656280979E+02 -0.33259798621E+02 -0.55510744279E+02  0.10271442174E+03  0.41800000000E+01 0.  1.
         -5    1    3    3    0  502  0.25390317217E+02 -0.47319640392E+01  0.59548054961E+02  0.65042316546E+02  0.41800000000E+01 0.  1.
        -11    1    4    4    0    0 -0.89795629121E+02  0.48424066886E+02  0.21649432335E+03  0.23932809553E+03  0.00000000000E+00 0.  1.
         11    1    4    4    0    0 -0.15250969075E+02 -0.10432304225E+02 -0.45526436985E+01  0.19030280970E+02  0.00000000000E+00 0. -1.
</event>
<event>
 8    1  0.7262913E-009  0.1540732E+03  0.7561462E-02  0.1195555E+00
          1   -1    0    0  501    0  0.00000000000E+00  0.00000000000E+00  0.40422612365E+03  0.40422612365E+03  0.00000000000E+00 0. -1.
         -1   -1    0    0    0  501 -0.00000000000E+00 -0.00000000000E+00 -0.65207210322E+02  0.65207210322E+02  0.00000000000E+00 0.  1.
         25    2    1    2    0    0  0.97114689511E+02 -0.68249240514E+02  0.20689745150E+03  0.26933340288E+03  0.12507879406E+03 0.  0.
         23    2    1    2    0    0 -0.97114689511E+02  0.68249240514E+02  0.13212146184E+03  0.20009993109E+03  0.92166588283E+02 0.  0.
          5    1    3    3  502    0 -0.11005023012E+02 -0.61292059351E+02  0.93734693387E+02  0.11261213174E+03  0.41800000000E+01 0. -1.
         -5    1    3    3    0  502  0.10811971252E+03 -0.69571811630E+01  0.11316275811E+03  0.15672127114E+03  0.41800000000E+01 0. -1.
        -11    1    4    4    0    0 -0.99797323669E+02  0.37758233286E+02  0.61561334659E+02  0.12318680091E+03  0.00000000000E+00 0.  1.
         11    1    4    4    0    0  0.26826341580E+01  0.30491007228E+02  0.70560127178E+02  0.76913130187E+02  0.00000000000E+00 0. -1.
</event>
<event>
 8    1  0.7262913E-009  0.1060053E+03  0.7561462E-02  0.1268151E+00
          2   -1    0    0  501    0  0.00000000000E+00  0.00000000000E+00  0.64837975129E+03  0.64837975129E+03  0.00000000000E+00 0. -1.
         -2   -1    0    0    0  501 -0.00000000000E+00 -0.00000000000E+00 -0.25328868361E+02  0.25328868361E+02  0.00000000000E+00 0.  1.
         25    2    1    2    0    0  0.10514388815E+02  0.61437905736E+02  0.42739134097E+03  0.44966163555E+03  0.12508820696E+03 0.  0.
         23    2    1    2    0    0 -0.10514388815E+02 -0.61437905736E+02  0.19565954196E+03  0.22404698410E+03  0.89605948965E+02 0.  0.
          5    1    3    3  502    0  0.28009007224E+02 -0.17804772746E+02  0.33010719158E+02  0.46996748797E+02  0.41800000000E+01 0.  1.
         -5    1    3    3    0  502 -0.17494618409E+02  0.79242678482E+02  0.39438062181E+03  0.40266488675E+03  0.41800000000E+01 0.  1.
        -11    1    4    4    0    0 -0.29223412848E+02  0.37668316248E+01  0.19646750612E+02  0.35414568875E+02  0.00000000000E+00 0.  1.
         11    1    4    4    0    0  0.18709024034E+02 -0.65204737361E+02  0.17601279135E+03  0.18863241522E+03  0.00000000000E+00 0. -1.
</event>
<event>
 8    1  0.7262913E-009  0.1167755E+03  0.7561462E-02  0.1248513E+00
         -1   -1    0    0    0  501 -0.00000000000E+00  0.00000000000E+00  0.86075352012E+02  0.86075352012E+02  0.00000000000E+00 0.  1.
          1   -1    0    0  501    0  0.00000000000E+00 -0.00000000000E+00 -0.24835263673E+03  0.24835263673E+03  0.00000000000E+00 0. -1.
         25    2    1    2    0    0  0.39577889562E+02 -0.44952157699E+02  0.55192679824E+01  0.13880194626E+03  0.12509361352E+03 0.  0.
         23    2    1    2    0    0 -0.39577889562E+02  0.44952157699E+02 -0.16779655271E+03  0.19562604249E+03  0.80788362866E+02 0.  0.
          5    1    3    3  502    0  0.29357964638E+02 -0.86790517603E+02  0.18627458550E+02  0.93589201543E+02  0.41800000000E+01 0. -1.
         -5    1    3    3    0  502  0.10219924925E+02  0.41838359904E+02 -0.13108190568E+02  0.45212744718E+02  0.41800000000E+01 0. -1.
        -11    1    4    4    0    0 -0.63592969982E+02  0.30427140794E+02 -0.10097414675E+03  0.12314891408E+03  0.00000000000E+00 0.  1.
         11    1    4    4    0    0  0.24015080420E+02  0.14525016905E+02 -0.66822405959E+02  0.72477128404E+02  0.00000000000E+00 0. -1.
</event>
<event>
 8    1  0.7262913E-009  0.1000872E+03  0.7561462E-02  0.1280113E+00
          2   -1    0    0  501    0  0.00000000000E+00  0.00000000000E+00  0.19296632299E+03  0.19296632299E+03  0.00000000000E+00 0. -1.
         -2   -1    0    0    0  501 -0.00000000000E+00 -0.00000000000E+00 -0.10372989517E+03  0.10372989517E+03  0.00000000000E+00 0.  1.
         25    2    1    2    0    0  0.30018850939E+02 -0.83655619258E+02  0.74729636086E+02  0.17067837279E+03  0.12508874603E+03 0.  0.
         23    2    1    2    0    0 -0.30018850939E+02  0.83655619258E+02  0.14506791739E+02  0.12601784537E+03  0.88151326135E+02 0.  0.
          5    1    3    3  502    0 -0.21378411068E+01 -0.88803142294E+01 -0.33624368681E+02  0.35092747322E+02  0.41800000000E+01 0. -1.
         -5    1    3    3    0  502  0.32156692046E+02 -0.74775305029E+02  0.10835400477E+03  0.13558562547E+03  0.41800000000E+01 0. -1.
        -11    1    4    4    0    0 -0.43746942978E+02  0.29517080635E+02 -0.24206919735E+02  0.58060554873E+02  0.00000000000E+00 0.  1.
         11    1    4    4    0    0  0.13728092038E+02  0.54138538623E+02  0.38713711474E+02  0.67957290494E+02  0.00000000000E+00 0. -1.
</event>
<event>
 8    1  0.7262913E-009  0.1023690E+03  0.7561462E-02  0.1275392E+00
         -2   -1    0    0    0  501 -0.00000000000E+00  0.00000000000E+00  0.67862393401E+02  0.67862393401E+02  0.00000000000E+00 0.  1.
          2   -1    0    0  501    0  0.00000000000E+00 -0.00000000000E+00 -0.22509087637E+03  0.22509087637E+03  0.00000000000E+00 0. -1.
         25    2    1    2    0    0  0.31149150348E+02  0.39654916049E+02 -0.12337917555E+03  0.18279023391E+03  0.12508823573E+03 0.  0.
         23    2    1    2    0    0 -0.31149150348E+02 -0.39654916049E+02 -0.33849307417E+02  0.11016303586E+03  0.91909395183E+02 0.  0.
          5    1    3    3  502    0 -0.15206678203E+01 -0.26060552804E+02  0.11773961769E+02  0.28940687947E+02  0.41800000000E+01 0. -1.
         -5    1    3    3    0  502  0.32669818168E+02  0.65715468854E+02 -0.13515313732E+03  0.15384954596E+03  0.41800000000E+01 0. -1.
        -11    1    4    4    0    0 -0.17609328774E+02  0.29483341989E+02 -0.12533294998E+02  0.36557343971E+02  0.00000000000E+00 0.  1.
         11    1    4    4    0    0 -0.13539821573E+02 -0.69138258039E+02 -0.21316012419E+02  0.73605691888E+02  0.00000000000E+00 0. -1.
</event>
<event>
 8    1  0.7262913E-009  0.1042699E+03  0.7561462E-02  0.1271565E+00
          1   -1    0    0  501    0  0.00000000000E+00  0.00000000000E+00  0.92859945435E+02  0.92859945435E+02  0.00000000000E+00 0. -1.
         -1   -1    0    0    0  501 -0.00000000000E+00 -0.00000000000E+00 -0.15339073279E+03  0.15339073279E+03  0.00000000000E+00 0.  1.
         25    2    1    2    0    0  0.14097078091E+02  0.26326589149E+02 -0.70812080426E+02  0.14681005281E+03  0.12508806484E+03 0.  0.
         23    2    1    2    0    0 -0.14097078091E+02 -0.26326589149E+02  0.10281293069E+02  0.99440625416E+02  0.94291654397E+02 0.  0.
          5    1    3    3  502    0  0.15717027745E+02  0.69010874641E+02 -0.75575495311E+02  0.10362747547E+03  0.41800000000E+01 0. -1.
         -5    1    3    3    0  502 -0.16199496541E+01 -0.42684285492E+02  0.47634148848E+01  0.43182577346E+02  0.41800000000E+01 0. -1.
        -11    1    4    4    0    0 -0.27964531281E+02 -0.55650614732E+02  0.20274376291E+02  0.65498521081E+02  0.00000000000E+00 0. -1.
         11    1    4    4    0    0  0.13867453190E+02  0.29324025583E+02 -0.99930832220E+01  0.33942104334E+02  0.00000000000E+00 0.  1.
</event>
<event>
 8    1  0.7262913E-009  0.1499678E+03  0.7561462E-02  0.1200513E+00
          3   -1    0    0  501    0  0.00000000000E+00  0.00000000000E+00  0.56468291480E+03  0.56468291480E+03  0.00000000000E+00 0. -1.
         -3   -1    0    0    0  501 -0.00000000000E+00 -0.00000000000E+00 -0.48888141158E+02  0.48888141158E+02  0.00000000000E+00 0.  1.
         25    2    1    2    0    0  0.12279260238E+03 -0.24796311769E+02  0.25877834791E+03  0.31353958662E+03  0.12509180130E+03 0.  0.
         23    2    1    2    0    0 -0.12279260238E+03  0.24796311769E+02  0.25701642573E+03  0.30003146934E+03  0.90931618383E+02 0.  0.
          5    1    3    3  502    0  0.87151797392E+01  0.25022166696E+02  0.53492423042E+00  0.26829493621E+02  0.41800000000E+01 0.  1.
         -5    1    3    3    0  502  0.11407742264E+03 -0.49818478465E+02  0.25824342368E+03  0.28671009300E+03  0.41800000000E+01 0.  1.
        -11    1    4    4    0    0 -0.60816230411E+02  0.52811499741E+02  0.18050116123E+03  0.19765712127E+03  0.00000000000E+00 0. -1.
         11    1    4    4    0    0 -0.61976371967E+02 -0.28015187972E+02  0.76515264501E+02  0.10237434806E+03  0.00000000000E+00 0.  1.
</event>
<event>
 8    1  0.7262913E-009  0.9599326E+02  0.7561462E-02  0.1288955E+00
         -1   -1    0    0    0  501 -0.00000000000E+00  0.00000000000E+00  0.12682297829E+03  0.12682297829E+03  0.00000000000E+00 0.  1.
          1   -1    0    0  501    0  0.00000000000E+00 -0.00000000000E+00 -0.20319659766E+03  0.20319659766E+03  0.00000000000E+00 0. -1.
         25    2    1    2    0    0 -0.50223243836E+02 -0.24418079462E+02 -0.14931496897E+03  0.20263568473E+03  0.12509054298E+03 0.  0.
         23    2    1    2    0    0  0.50223243836E+02  0.24418079462E+02  0.72941349598E+02  0.12738389123E+03  0.88247370706E+02 0.  0.
          5    1    3    3  502    0 -0.16523844721E+02 -0.73640457088E+02 -0.67807591951E+02  0.10154455323E+03  0.41800000000E+01 0. -1.
         -5    1    3    3    0  502 -0.33699399116E+02  0.49222377626E+02 -0.81507377017E+02  0.10109113150E+03  0.41800000000E+01 0. -1.
        -11    1    4    4    0    0  0.32517952901E+02  0.20580791995E+02 -0.12172948896E+02  0.40362940240E+02  0.00000000000E+00 0. -1.
         11    1    4    4    0    0  0.17705290935E+02  0.38372874669E+01  0.85114298494E+02  0.87020950985E+02  0.00000000000E+00 0.  1.
</event>
<event>
 8    1  0.7262913E-009  0.1132461E+03  0.7561462E-02  0.1254674E+00
          2   -1    0    0  501    0  0.00000000000E+00  0.00000000000E+00  0.69649702524E+03  0.69649702524E+03  0.00000000000E+00 0.  1.
         -2   -1    0    0    0  501 -0.00000000000E+00 -0.00000000000E+00 -0.22778759163E+02  0.22778759163E+02  0.00000000000E+00 0. -1.
         25    2    1    2    0    0  0.26027226276E+02 -0.54526576785E+02  0.44149309718E+03  0.46283279788E+03  0.12508988707E+03 0.  0.
         23    2    1    2    0    0 -0.26027226276E+02  0.54526576785E+02  0.23222516890E+03  0.25644298653E+03  0.90464977681E+02 0.  0.
          5    1    3    3  502    0 -0.36681147693E+02  0.15962865457E+02  0.18957836025E+03  0.19379821141E+03  0.41800000000E+01 0.  1.
         -5    1    3    3    0  502  0.62708373969E+02 -0.70489442241E+02  0.25191473693E+03  0.26903458647E+03  0.41800000000E+01 0.  1.
        -11    1    4    4    0    0 -0.30629003442E+02  0.69616296389E+02  0.22764733920E+03  0.24001640698E+03  0.00000000000E+00 0.  1.
         11    1    4    4    0    0  0.46017771662E+01 -0.15089719605E+02  0.45778296937E+01  0.16426579545E+02  0.00000000000E+00 0. -1.
</event>
<event>
 8    1  0.7262913E-009  0.7651077E+02  0.7561462E-02  0.1339255E+00
          2   -1    0    0  501    0  0.00000000000E+00  0.00000000000E+00  0.15422421859E+03  0.15422421859E+03  0.00000000000E+00 0. -1.
         -2   -1    0    0    0  501 -0.00000000000E+00 -0.00000000000E+00 -0.79211933715E+02  0.79211933715E+02  0.00000000000E+00 0.  1.
         25    2    1    2    0    0 -0.25733872864E+02  0.65066829989E+01  0.38916638736E+02  0.13366588656E+03  0.12508994893E+03 0.  0.
         23    2    1    2    0    0  0.25733872864E+02 -0.65066829989E+01  0.36095646141E+02  0.99770265748E+02  0.89143934852E+02 0.  0.
          5    1    3    3  502    0  0.15404384509E+02  0.48305990351E+02 -0.15878198756E+02  0.53294965632E+02  0.41800000000E+01 0. -1.
         -5    1    3    3    0  502 -0.41138257373E+02 -0.41799307353E+02  0.54794837491E+02  0.80370920926E+02  0.41800000000E+01 0. -1.
        -11    1    4    4    0    0 -0.34807449977E+00  0.11596409424E+02 -0.26862002813E+02  0.29260298401E+02  0.00000000000E+00 0.  1.
         11    1    4    4    0    0  0.26081947364E+02 -0.18103092423E+02  0.62957648953E+02  0.70509967347E+02  0.00000000000E+00 0. -1.
</event>
<event>
 8    1  0.7262913E-009  0.1248021E+03  0.7561462E-02  0.1235379E+00
          3   -1    0    0  501    0  0.00000000000E+00  0.00000000000E+00  0.23239619864E+03  0.23239619864E+03  0.00000000000E+00 0. -1.
         -3   -1    0    0    0  501 -0.00000000000E+00 -0.00000000000E+00 -0.71836727959E+02  0.71836727959E+02  0.00000000000E+00 0.  1.
         25    2    1    2    0    0 -0.46872304915E+02 -0.46545209561E+02  0.11805567723E+03  0.18425594047E+03  0.12509851787E+03 0.  0.
         23    2    1    2    0    0  0.46872304915E+02  0.46545209561E+02  0.42503793453E+02  0.11997698613E+03  0.90688672064E+02 0.  0.
          5    1    3    3  502    0 -0.89943828793E+02 -0.33759558586E+02  0.84663085170E+02  0.12812068734E+03  0.41800000000E+01 0. -1.
         -5    1    3    3    0  502  0.43071523878E+02 -0.12785650975E+02  0.33392592058E+02  0.56135253133E+02  0.41800000000E+01 0. -1.
        -11    1    4    4    0    0 -0.24872761935E+02  0.19652322447E+02 -0.12876512162E+01  0.31725795647E+02  0.00000000000E+00 0.  1.
         11    1    4    4    0    0  0.71745066850E+02  0.26892887114E+02  0.43791444669E+02  0.88251190478E+02  0.00000000000E+00 0. -1.
</event>
<event>
 8    1  0.7262913E-009  0.1034019E+03  0.7561462E-02  0.1273301E+00
         -2   -1    0    0    0  501 -0.00000000000E+00  0.00000000000E+00  0.44932097060E+02  0.44932097060E+02  0.00000000000E+00 0.  1.
          2   -1    0    0  501    0  0.00000000000E+00 -0.00000000000E+00 -0.36929712353E+03  0.36929712353E+03  0.00000000000E+00 0. -1.
         25    2    1    2    0    0 -0.55871458895E+02 -0.33305848401E+02 -0.14733062333E+03  0.20392508370E+03  0.12509287645E+03 0.  0.
         23    2    1    2    0    0  0.55871458895E+02  0.33305848401E+02 -0.17703440315E+03  0.21030413689E+03  0.93036286674E+02 0.  0.
          5    1    3    3  502    0  0.13996115579E+02 -0.60275165842E+02 -0.43161649010E+02  0.75560487121E+02  0.41800000000E+01 0. -1.
         -5    1    3    3    0  502 -0.69867574474E+02  0.26969317441E+02 -0.10416897432E+03  0.12836459658E+03  0.41800000000E+01 0. -1.
        -11    1    4    4    0    0  0.88833653739E+01  0.18479185090E+02  0.55067361897E+01  0.21230134371E+02  0.00000000000E+00 0.  1.
         11    1    4    4    0    0  0.46988093521E+02  0.14826663311E+02 -0.18254113934E+03  0.18907400252E+03  0.00000000000E+00 0. -1.
</event>
<event>
 8    1  0.7262913E-009  0.1200219E+03  0.7561462E-02  0.1243061E+00
         -2   -1    0    0    0  501 -0.00000000000E+00  0.00000000000E+00  0.15523341598E+03  0.15523341598E+03  0.00000000000E+00 0.  1.
          2   -1    0    0  501    0  0.00000000000E+00 -0.00000000000E+00 -0.10145017418E+03  0.10145017418E+03  0.00000000000E+00 0. -1.
         25    2    1    2    0    0  0.40897715425E+02 -0.39592257283E+02  0.50296369513E+02  0.14634561347E+03  0.12508854396E+03 0.  0.
         23    2    1    2    0    0 -0.40897715425E+02  0.39592257283E+02  0.34868722903E+01  0.11033797669E+03  0.94457084741E+02 0.  0.
          5    1    3    3  502    0 -0.86122807842E+01 -0.75434632232E+02  0.24727673205E+02  0.79959273023E+02  0.41800000000E+01 0.  1.
         -5    1    3    3    0  502  0.49509996209E+02  0.35842374949E+02  0.25568696308E+02  0.66386340443E+02  0.41800000000E+01 0.  1.
        -11    1    4    4    0    0 -0.13575351429E+01  0.58775633869E+02  0.21832933751E+02  0.62714392563E+02  0.00000000000E+00 0. -1.
         11    1    4    4    0    0 -0.39540180282E+02 -0.19183376586E+02 -0.18346061461E+02  0.47623584127E+02  0.00000000000E+00 0.  1.
</event>
<event>
 8    1  0.7262913E-009  0.1611880E+03  0.7561462E-02  0.1187362E+00
          2   -1    0    0  501    0  0.00000000000E+00  0.00000000000E+00  0.72033520820E+03  0.72033520820E+03  0.00000000000E+00 0. -1.
         -2   -1    0    0    0  501 -0.00000000000E+00 -0.00000000000E+00 -0.51270865704E+02  0.51270865704E+02  0.00000000000E+00 0.  1.
         25    2    1    2    0    0  0.36975181951E+02  0.13624113363E+03  0.20830437134E+03  0.28101136144E+03  0.12509142082E+03 0.  0.
         23    2    1    2    0    0 -0.36975181951E+02 -0.13624113363E+03  0.46075997115E+03  0.49059471246E+03  0.91948954888E+02 0.  0.
          5    1    3    3  502    0  0.38465689777E+02 -0.43663462036E+01  0.86769866996E+02  0.95106027610E+02  0.41800000000E+01 0.  1.
         -5    1    3    3    0  502 -0.14905078266E+01  0.14060747984E+03  0.12153450434E+03  0.18590533383E+03  0.41800000000E+01 0.  1.
        -11    1    4    4    0    0 -0.23592432878E+02 -0.47717539010E+02  0.61127476593E+02  0.81056368121E+02  0.00000000000E+00 0.  1.
         11    1    4    4    0    0 -0.13382749073E+02 -0.88523594623E+02  0.39963249456E+03  0.40953834434E+03  0.00000000000E+00 0. -1.
</event>
<event>
 8    1  0.7262913E-009  0.9928214E+02  0.7561462E-02  0.1281813E+00
          2   -1    0    0  501    0  0.00000000000E+00  0.00000000000E+00  0.35773558021E+03  0.35773558021E+03  0.00000000000E+00 0. -1.
         -2   -1    0    0    0  501 -0.00000000000E+00 -0.00000000000E+00 -0.39380213303E+02  0.39380213303E+02  0.00000000000E+00 0.  1.
         25    2    1    2    0    0 -0.51317901520E+01  0.13895374722E+02  0.26194310758E+03  0.29065700294E+03  0.12509150667E+03 0.  0.
         23    2    1    2    0    0  0.51317901520E+01 -0.13895374722E+02  0.56412259331E+02  0.10645879058E+03  0.89060172802E+02 0.  0.
          5    1    3    3  502    0 -0.50510469773E+01  0.60821281076E+02  0.21732355873E+03  0.22576922485E+03  0.41800000000E+01 0. -1.
         -5    1    3    3    0  502 -0.80743174642E-01 -0.46925906354E+02  0.44619548848E+02  0.64887778094E+02  0.41800000000E+01 0. -1.
        -11    1    4    4    0    0  0.33505386904E+01  0.38102983575E+02  0.23362361539E+02  0.44820345865E+02  0.00000000000E+00 0.  1.
         11    1    4    4    0    0  0.17812514615E+01 -0.51998358297E+02  0.33049897792E+02  0.61638444712E+02  0.00000000000E+00 0. -1.
</event>
<event>
 8    1  0.7262913E-009  0.9052901E+02  0.7561462E-02  0.1301576E+00
         -1   -1    0    0    0  501 -0.00000000000E+00  0.00000000000E+00  0.19459796981E+02  0.19459796981E+02  0.00000000000E+00 0.  1.
          1   -1    0    0  501    0  0.00000000000E+00 -0.00000000000E+00 -0.12809896576E+04  0.12809896576E+04  0.00000000000E+00 0. -1.
         25    2    1    2    0    0  0.65624608535E+02  0.22380254983E+02 -0.10520534278E+04  0.10617297378E+04  0.12508459568E+03 0.  0.
         23    2    1    2    0    0 -0.65624608535E+02 -0.22380254983E+02 -0.20947643275E+03  0.23871971674E+03  0.91100286620E+02 0.  0.
          5    1    3    3  502    0 -0.16271027367E+02 -0.11671499347E+02 -0.63498901281E+03  0.63531841546E+03  0.41800000000E+01 0. -1.
         -5    1    3    3    0  502  0.81895635902E+02  0.34051754330E+02 -0.41706441503E+03  0.42641132236E+03  0.41800000000E+01 0. -1.
        -11    1    4    4    0    0 -0.38859632985E+02 -0.22777125511E+02 -0.20699267399E+03  0.21183681362E+03  0.00000000000E+00 0. -1.
         11    1    4    4    0    0 -0.26764975549E+02  0.39687052799E+00 -0.24837587692E+01  0.26882903117E+02  0.00000000000E+00 0.  1.
</event>
<event>
 8    1  0.7262913E-009  0.8456140E+02  0.7561462E-02  0.1316584E+00
         -1   -1    0    0    0  501 -0.00000000000E+00  0.00000000000E+00  0.69035534615E+02  0.69035534615E+02  0.00000000000E+00 0.  1.
          1   -1    0    0  501    0  0.00000000000E+00 -0.00000000000E+00 -0.20964490215E+03  0.20964490215E+03  0.00000000000E+00 0. -1.
         25    2    1    2    0    0  0.94877944559E+01 -0.13532313199E+02 -0.13903274708E+03  0.18775152434E+03  0.12508952149E+03 0.  0.
         23    2    1    2    0    0 -0.94877944559E+01  0.13532313199E+02 -0.15766204564E+01  0.90928912427E+02  0.89400445406E+02 0.  0.
          5    1    3    3  502    0  0.32620540751E+02  0.31628035471E+02 -0.68963059021E+01  0.46146112965E+02  0.41800000000E+01 0. -1.
         -5    1    3    3    0  502 -0.23132746295E+02 -0.45160348670E+02 -0.13213644117E+03  0.14160541137E+03  0.41800000000E+01 0. -1.
        -11    1    4    4    0    0 -0.34316511722E+02 -0.12580775295E+02 -0.28169519636E+02  0.46145646818E+02  0.00000000000E+00 0. -1.
         11    1    4    4    0    0  0.24828717266E+02  0.26113088494E+02  0.26592899179E+02  0.44783265608E+02  0.00000000000E+00 0.  1.
</event>
<event>
 8    1  0.7262913E-009  0.1096084E+03  0.7561462E-02  0.1261297E+00
          2   -1    0    0  501    0  0.00000000000E+00  0.00000000000E+00  0.11468831539E+04  0.11468831539E+04  0.00000000000E+00 0.  1.
         -2   -1    0    0    0  501 -0.00000000000E+00 -0.00000000000E+00 -0.18070891966E+02  0.18070891966E+02  0.00000000000E+00 0. -1.
         25    2    1    2    0    0  0.87526665976E+02 -0.79341572534E+01  0.74920077088E+03  0.76463999763E+03  0.12509461533E+03 0.  0.
         23    2    1    2    0    0 -0.87526665976E+02  0.79341572534E+01  0.37961149108E+03  0.40031404826E+03  0.91774642283E+02 0.  0.
          5    1    3    3  502    0  0.53888738906E+01  0.12186559084E+02  0.38370341716E+01  0.14482659126E+02  0.41800000000E+01 0. -1.
         -5    1    3    3    0  502  0.82137792085E+02 -0.20120716338E+02  0.74536373671E+03  0.75015733851E+03  0.41800000000E+01 0. -1.
        -11    1    4    4    0    0 -0.39775403408E+02 -0.37502963816E+02  0.23674940291E+03  0.24297908303E+03  0.00000000000E+00 0.  1.
         11    1    4    4    0    0 -0.47751262568E+02  0.45437121069E+02  0.14286208816E+03  0.15733496522E+03  0.00000000000E+00 0. -1.
</event>
<event>
 8    1  0.7262913E-009  0.1275579E+03  0.7561462E-02  0.1231125E+00
          1   -1    0    0  501    0  0.00000000000E+00  0.00000000000E+00  0.38444321624E+03  0.38444321624E+03  0.00000000000E+00 0. -1.
         -1   -1    0    0    0  501 -0.00000000000E+00 -0.00000000000E+00 -0.61050438029E+02  0.61050438029E+02  0.00000000000E+00 0.  1.
         25    2    1    2    0    0 -0.30625306402E+01  0.10401246261E+03  0.14649564195E+03  0.21894396977E+03  0.12509003684E+03 0.  0.
         23    2    1    2    0    0  0.30625306402E+01 -0.10401246261E+03  0.17689713626E+03  0.22654968450E+03  0.95938476424E+02 0.  0.
          5    1    3    3  502    0  0.30888535224E+02 -0.85897444965E+01  0.73918601685E+02  0.80680340814E+02  0.41800000000E+01 0.  1.
         -5    1    3    3    0  502 -0.33951065864E+02  0.11260220710E+03  0.72577040269E+02  0.13826362896E+03  0.41800000000E+01 0.  1.
        -11    1    4    4    0    0 -0.38035265705E+01 -0.80905585589E+02  0.18431719344E+03  0.20132811128E+03  0.00000000000E+00 0. -1.
         11    1    4    4    0    0  0.68660572107E+01 -0.23106877020E+02 -0.74200571798E+01  0.25221573222E+02  0.00000000000E+00 0.  1.
</event>
<event>
 8    1  0.7262913E-009  0.1101919E+03  0.7561462E-02  0.1260215E+00
          2   -1    0    0  501    0  0.00000000000E+00  0.00000000000E+00  0.45976368815E+03  0.45976368815E+03  0.00000000000E+00 0. -1.
         -2   -1    0    0    0  501 -0.00000000000E+00 -0.00000000000E+00 -0.28922065228E+02  0.28922065228E+02  0.00000000000E+00 0.  1.
         25    2    1    2    0    0 -0.37446456688E+02 -0.12685200716E+02  0.29664388960E+03  0.32435851630E+03  0.12509076075E+03 0.  0.
         23    2    1    2    0    0  0.37446456688E+02  0.12685200716E+02  0.13419773332E+03  0.16432723707E+03  0.86204743377E+02 0.  0.
          5    1    3    3  502    0 -0.19008650915E+02  0.53410014854E+02  0.18212053878E+03  0.19078606223E+03  0.41800000000E+01 0. -1.
         -5    1    3    3    0  502 -0.18437805774E+02 -0.66095215570E+02  0.11452335082E+03  0.13357245407E+03  0.41800000000E+01 0. -1.
        -11    1    4    4    0    0  0.54627489385E+02  0.36300103043E+02  0.95208814149E+02  0.11561391944E+03  0.00000000000E+00 0.  1.
         11    1    4    4    0    0 -0.17181032697E+02 -0.23614902328E+02  0.38988919171E+02  0.48713317631E+02  0.00000000000E+00 0. -1.
</event>
<event>
 8    1  0.7262913E-009  0.1350187E+03  0.7561462E-02  0.1220193E+00
          2   -1    0    0  501    0  0.00000000000E+00  0.00000000000E+00  0.12350887018E+03  0.12350887018E+03  0.00000000000E+00 0. -1.
         -2   -1    0    0    0  501 -0.00000000000E+00 -0.00000000000E+00 -0.20460404288E+03  0.20460404288E+03  0.00000000000E+00 0.  1.
         25    2    1    2    0    0 -0.10559837240E+03  0.20360081110E+02  0.32374513727E+01  0.16499891670E+03  0.12509441341E+03 0.  0.
         23    2    1    2    0    0  0.10559837240E+03 -0.20360081110E+02 -0.84332624072E+02  0.16311399635E+03  0.89042883861E+02 0.  0.
          5    1    3    3  502    0  0.13893968256E+01  0.42679762140E+02  0.30057836180E+02  0.52387388136E+02  0.41800000000E+01 0.  1.
         -5    1    3    3    0  502 -0.10698776923E+03 -0.22319681030E+02 -0.26820384807E+02  0.11261152857E+03  0.41800000000E+01 0.  1.
        -11    1    4    4    0    0  0.37902715038E+01 -0.15368957996E+02  0.14258401459E+02  0.21304296283E+02  0.00000000000E+00 0. -1.
         11    1    4    4    0    0  0.10180810090E+03 -0.49911231139E+01 -0.98591025531E+02  0.14180970007E+03  0.00000000000E+00 0.  1.
</event>
