<event>
 8    1  0.6380400E-009  0.1065171E+03  0.7561462E-02  0.1267159E+00
          2   -1    0    0  501    0  0.00000000000E+00  0.00000000000E+00  0.64308726124E+02  0.64308726124E+02  0.00000000000E+00 0. -1.
         -2   -1    0    0    0  501 -0.00000000000E+00 -0.00000000000E+00 -0.27605321110E+03  0.27605321110E+03  0.00000000000E+00 0.  1.
         25    2    1    2    0    0  0.65860105688E+02  0.38942378377E+02 -0.10058258079E+03  0.17781599407E+03  0.12509040663E+03 0.  0.
         23    2    1    2    0    0 -0.65860105688E+02 -0.38942378377E+02 -0.11116190418E+03  0.16254594316E+03  0.90609890966E+02 0.  0.
          5    1    3    3  502    0  0.41277350469E+02  0.63192409350E+02 -0.11704464527E+03  0.13933420846E+03  0.41800000000E+01 0.  1.
         -5    1    3    3    0  502  0.24582755219E+02 -0.24250030972E+02  0.16462064478E+02  0.38481785603E+02  0.41800000000E+01 0.  1.
        -11    1    4    4    0    0 -0.73111932654E+02 -0.11178987295E+02 -0.11155742402E+03  0.13384835938E+03  0.00000000000E+00 0.  1.
         11    1    4    4    0    0  0.72518269654E+01 -0.27763391082E+02  0.39551984592E+00  0.28697583777E+02  0.00000000000E+00 0. -1.
</event>
<event>
 8    1  0.6380400E-009  0.1045204E+03  0.7561462E-02  0.1271067E+00
          2   -1    0    0  501    0  0.00000000000E+00  0.00000000000E+00  0.76065290409E+03  0.76065290409E+03  0.00000000000E+00 0. -1.
         -2   -1    0    0    0  501 -0.00000000000E+00 -0.00000000000E+00 -0.17734115163E+02  0.17734115163E+02  0.00000000000E+00 0.  1.
         25    2    1    2    0    0  0.13856585050E+02  0.14426968500E+02  0.54475403218E+03  0.55929751839E+03  0.12512640061E+03 0.  0.
         23    2    1    2    0    0 -0.13856585050E+02 -0.14426968500E+02  0.19816475675E+03  0.21908950087E+03  0.91273195425E+02 0.  0.
          5    1    3    3  502    0 -0.34943978266E+01  0.67858297086E+02  0.24428863817E+03  0.25359686599E+03  0.41800000000E+01 0.  1.
         -5    1    3    3    0  502  0.17350982876E+02 -0.53431328586E+02  0.30046539401E+03  0.30570065240E+03  0.41800000000E+01 0.  1.
        -11    1    4    4    0    0  0.28245900134E+02  0.16204915529E+02  0.34943039687E+02  0.47764486643E+02  0.00000000000E+00 0.  1.
         11    1    4    4    0    0 -0.42102485184E+02 -0.30631884029E+02  0.16322171706E+03  0.17132501422E+03  0.00000000000E+00 0. -1.
</event>
<event>
 8    1  0.6380400E-009  0.1993943E+03  0.7561462E-02  0.1150251E+00
         -2   -1    0    0    0  501 -0.00000000000E+00  0.00000000000E+00  0.96737818946E+02  0.96737818946E+02  0.00000000000E+00 0.  1.
          2   -1    0    0  501    0  0.00000000000E+00 -0.00000000000E+00 -0.65850347453E+03  0.65850347453E+03  0.00000000000E+00 0. -1.
         25    2    1    2    0    0 -0.17810590972E+02  0.17562092691E+03 -0.73851328451E+02  0.22860653623E+03  0.12508797932E+03 0.  0.
         23    2    1    2    0    0  0.17810590972E+02 -0.17562092691E+03 -0.48791432714E+03  0.52663475726E+03  0.90132401521E+02 0.  0.
          5    1    3    3  502    0 -0.18651613395E+01  0.18356893627E+03 -0.36792845727E+02  0.18727578350E+03  0.41800000000E+01 0.  1.
         -5    1    3    3    0  502 -0.15945429633E+02 -0.79480093565E+01 -0.37058482724E+02  0.41330752724E+02  0.41800000000E+01 0.  1.
        -11    1    4    4    0    0 -0.24947482466E+02 -0.13697252992E+03 -0.37155141823E+03  0.39677992291E+03  0.00000000000E+00 0. -1.
         11    1    4    4    0    0  0.42758073438E+02 -0.38648396991E+02 -0.11636290891E+03  0.12985483435E+03  0.00000000000E+00 0.  1.
</event>
<event>
 8    1  0.6380400E-009  0.8842393E+02  0.7561462E-02  0.1306714E+00
          2   -1    0    0  501    0  0.00000000000E+00  0.00000000000E+00  0.11112278018E+04  0.11112278018E+04  0.00000000000E+00 0. -1.
         -2   -1    0    0    0  501 -0.00000000000E+00 -0.00000000000E+00 -0.15247105383E+02  0.15247105383E+02  0.00000000000E+00 0.  1.
         25    2    1    2    0    0  0.17671981754E+02 -0.58598618418E+01  0.90231699058E+03  0.91112989675E+03  0.12504039487E+03 0.  0.
         23    2    1    2    0    0 -0.17671981754E+02  0.58598618418E+01  0.19366370584E+03  0.21534501044E+03  0.92310376656E+02 0.  0.
          5    1    3    3  502    0  0.28162724805E+02  0.40071270577E+02  0.16175949390E+03  0.16906345572E+03  0.41800000000E+01 0. -1.
         -5    1    3    3    0  502 -0.10490743051E+02 -0.45931132419E+02  0.74055749668E+03  0.74206644103E+03  0.41800000000E+01 0. -1.
        -11    1    4    4    0    0  0.70337153093E+01 -0.33330775964E+02  0.30473124684E+02  0.45705854170E+02  0.00000000000E+00 0.  1.
         11    1    4    4    0    0 -0.24705697064E+02  0.39190637806E+02  0.16319058116E+03  0.16963915626E+03  0.00000000000E+00 0. -1.
</event>
<event>
 8    1  0.6380400E-009  0.2034438E+03  0.7561462E-02  0.1146866E+00
         -3   -1    0    0    0  501 -0.00000000000E+00  0.00000000000E+00  0.17804552930E+04  0.17804552930E+04  0.00000000000E+00 0.  1.
          3   -1    0    0  501    0  0.00000000000E+00 -0.00000000000E+00 -0.25429868150E+02  0.25429868150E+02  0.00000000000E+00 0. -1.
         25    2    1    2    0    0 -0.19352789418E+02 -0.17365074955E+03  0.70190567238E+03  0.73406475792E+03  0.12510148932E+03 0.  0.
         23    2    1    2    0    0  0.19352789418E+02  0.17365074955E+03  0.10531197525E+04  0.10718204033E+04  0.95961713487E+02 0.  0.
          5    1    3    3  502    0 -0.53936687528E+02 -0.16261432093E+03  0.63623338959E+03  0.65891045071E+03  0.41800000000E+01 0. -1.
         -5    1    3    3    0  502  0.34583898110E+02 -0.11036428615E+02  0.65672282791E+02  0.75154307209E+02  0.41800000000E+01 0. -1.
        -11    1    4    4    0    0 -0.38625219261E+02  0.79743929416E+02  0.50184390131E+03  0.50960602737E+03  0.00000000000E+00 0.  1.
         11    1    4    4    0    0  0.57978008679E+02  0.93906820130E+02  0.55127585119E+03  0.56221437589E+03  0.00000000000E+00 0. -1.
</event>
<event>
 7    1  0.6380400E-009  0.5788101E+02  0.7561462E-02  0.1406946E+00
          1   -1    0    0  501    0  0.00000000000E+00  0.00000000000E+00  0.25106267626E+03  0.25106267626E+03  0.00000000000E+00 0. -1.
         -1   -1    0    0    0  501 -0.00000000000E+00 -0.00000000000E+00 -0.35483821026E+02  0.35483821026E+02  0.00000000000E+00 0.  1.
         25    2    1    2    0    0 -0.34741265272E+02  0.12834593884E+02  0.11320648294E+03  0.17272486146E+03  0.12508592116E+03 0.  0.
          5    1    3    3  502    0 -0.47378882263E+02  0.30452366494E+02 -0.91807720095E+00  0.56483806310E+02  0.41800000000E+01 0.  1.
         -5    1    3    3    0  502  0.12637616991E+02 -0.17617772610E+02  0.11412456014E+03  0.11624105515E+03  0.41800000000E+01 0.  1.
        -11    1    1    2    0    0  0.17073760216E+02 -0.44247985538E+01  0.87457768662E+02  0.89218571102E+02  0.00000000000E+00 0. -1.
         11    1    1    2    0    0  0.17667505056E+02 -0.84097953304E+01  0.14914603639E+02  0.24603064730E+02  0.00000000000E+00 0.  1.
</event>
<event>
 8    1  0.6380400E-009  0.1524258E+03  0.7561462E-02  0.1197524E+00
          1   -1    0    0  501    0  0.00000000000E+00  0.00000000000E+00  0.18794298030E+03  0.18794298030E+03  0.00000000000E+00 0. -1.
         -1   -1    0    0    0  501 -0.00000000000E+00 -0.00000000000E+00 -0.13270029107E+03  0.13270029107E+03  0.00000000000E+00 0.  1.
         25    2    1    2    0    0  0.25145984709E+02  0.11120940976E+03  0.35096108771E+02  0.17285793829E+03  0.12509307179E+03 0.  0.
         23    2    1    2    0    0 -0.25145984709E+02 -0.11120940976E+03  0.20146580465E+02  0.14778533308E+03  0.91840985418E+02 0.  0.
          5    1    3    3  502    0 -0.43998714637E+02  0.27028315572E+02  0.37267826627E+02  0.63818336189E+02  0.41800000000E+01 0.  1.
         -5    1    3    3    0  502  0.69144699347E+02  0.84181094190E+02 -0.21717178564E+01  0.10903960210E+03  0.41800000000E+01 0.  1.
        -11    1    4    4    0    0  0.24155508000E+02 -0.84645810019E+02  0.25184432162E+02  0.91556853068E+02  0.00000000000E+00 0. -1.
         11    1    4    4    0    0 -0.49301492710E+02 -0.26563599744E+02 -0.50378516967E+01  0.56228480012E+02  0.00000000000E+00 0.  1.
</event>
<event>
 8    1  0.6380400E-009  0.8339202E+02  0.7561462E-02  0.1319692E+00
         -3   -1    0    0    0  501 -0.00000000000E+00  0.00000000000E+00  0.28279564692E+03  0.28279564692E+03  0.00000000000E+00 0.  1.
          3   -1    0    0  501    0  0.00000000000E+00 -0.00000000000E+00 -0.45319882469E+02  0.45319882469E+02  0.00000000000E+00 0. -1.
         25    2    1    2    0    0  0.74040641969E+01 -0.21141802226E+02  0.96123660206E+02  0.15933863195E+03  0.12508895080E+03 0.  0.
         23    2    1    2    0    0 -0.74040641969E+01  0.21141802226E+02  0.14135210425E+03  0.16877689744E+03  0.89461878848E+02 0.  0.
          5    1    3    3  502    0  0.43357371238E+02 -0.37645004837E+02  0.10391989091E+03  0.11880161681E+03  0.41800000000E+01 0. -1.
         -5    1    3    3    0  502 -0.35953307041E+02  0.16503202611E+02 -0.77962307011E+01  0.40537015143E+02  0.41800000000E+01 0. -1.
        -11    1    4    4    0    0 -0.27863934447E+02  0.34987947833E+02  0.28011228206E+02  0.52774844785E+02  0.00000000000E+00 0. -1.
         11    1    4    4    0    0  0.20459870251E+02 -0.13846145607E+02  0.11334087604E+03  0.11600205266E+03  0.00000000000E+00 0.  1.
</event>
<event>
 8    1  0.6380400E-009  0.1587658E+03  0.7561462E-02  0.1190097E+00
         -1   -1    0    0    0  501 -0.00000000000E+00  0.00000000000E+00  0.52263504728E+02  0.52263504728E+02  0.00000000000E+00 0.  1.
          1   -1    0    0  501    0  0.00000000000E+00 -0.00000000000E+00 -0.82735580496E+03  0.82735580496E+03  0.00000000000E+00 0. -1.
         25    2    1    2    0    0  0.65535257877E+02 -0.11676463742E+03 -0.15998775556E+03  0.24325477702E+03  0.12509178245E+03 0.  0.
         23    2    1    2    0    0 -0.65535257877E+02  0.11676463742E+03 -0.61510454467E+03  0.63636453267E+03  0.93152385791E+02 0.  0.
          5    1    3    3  502    0  0.72357078937E+02 -0.27323297964E+02 -0.12464541553E+03  0.14675170015E+03  0.41800000000E+01 0.  1.
         -5    1    3    3    0  502 -0.68218210597E+01 -0.89441339461E+02 -0.35342340025E+02  0.96503076871E+02  0.41800000000E+01 0.  1.
        -11    1    4    4    0    0  0.11455648125E+02  0.13450087559E+01 -0.91315014310E+01  0.14711398333E+02  0.00000000000E+00 0.  1.
         11    1    4    4    0    0 -0.76990906002E+02  0.11541962867E+03 -0.60597304324E+03  0.62165313433E+03  0.00000000000E+00 0. -1.
</event>
<event>
 8    1  0.6380400E-009  0.7830830E+02  0.7561462E-02  0.1333922E+00
         -2   -1    0    0    0  501 -0.00000000000E+00  0.00000000000E+00  0.77373057852E+02  0.77373057852E+02  0.00000000000E+00 0.  1.
          2   -1    0    0  501    0  0.00000000000E+00 -0.00000000000E+00 -0.20661001346E+03  0.20661001346E+03  0.00000000000E+00 0. -1.
         25    2    1    2    0    0 -0.27791388299E+01 -0.24055426824E+02 -0.50015029866E+01  0.12750766631E+03  0.12508718065E+03 0.  0.
         23    2    1    2    0    0  0.27791388299E+01  0.24055426824E+02 -0.12423545262E+03  0.15647540500E+03  0.91998464718E+02 0.  0.
          5    1    3    3  502    0 -0.29425321272E+02 -0.23743335412E+02 -0.57233303017E+02  0.68722040734E+02  0.41800000000E+01 0.  1.
         -5    1    3    3    0  502  0.26646182442E+02 -0.31209141198E+00  0.52231800030E+02  0.58785625574E+02  0.41800000000E+01 0.  1.
        -11    1    4    4    0    0  0.21331036210E+02 -0.28654808796E+02 -0.28809879626E+02  0.45892486716E+02  0.00000000000E+00 0. -1.
         11    1    4    4    0    0 -0.18551897380E+02  0.52710235620E+02 -0.95425572991E+02  0.11058291828E+03  0.00000000000E+00 0.  1.
</event>
<event>
 8    1  0.6380400E-009  0.1721962E+03  0.7561462E-02  0.1175577E+00
          2   -1    0    0  501    0  0.00000000000E+00  0.00000000000E+00  0.13060822879E+04  0.13060822879E+04  0.00000000000E+00 0. -1.
         -2   -1    0    0    0  501 -0.00000000000E+00 -0.00000000000E+00 -0.23295429489E+02  0.23295429489E+02  0.00000000000E+00 0.  1.
         25    2    1    2    0    0 -0.13155565892E+03 -0.27719871675E+02  0.77270114409E+03  0.79422247617E+03  0.12508797263E+03 0.  0.
         23    2    1    2    0    0  0.13155565892E+03  0.27719871675E+02  0.51008571429E+03  0.53515524118E+03  0.90157714964E+02 0.  0.
          5    1    3    3  502    0 -0.12905349626E+03  0.23913176673E+02  0.52785434247E+03  0.54394330971E+03  0.41800000000E+01 0.  1.
         -5    1    3    3    0  502 -0.25021626620E+01 -0.51633048347E+02  0.24484680162E+03  0.25027916646E+03  0.41800000000E+01 0.  1.
        -11    1    4    4    0    0  0.32368192035E+02  0.49992066787E+02  0.16563258248E+03  0.17601437150E+03  0.00000000000E+00 0. -1.
         11    1    4    4    0    0  0.99187466886E+02 -0.22272195112E+02  0.34445313181E+03  0.35914086968E+03  0.00000000000E+00 0.  1.
</event>
<event>
 8    1  0.6380400E-009  0.1158131E+03  0.7561462E-02  0.1250168E+00
          2   -1    0    0  501    0  0.00000000000E+00  0.00000000000E+00  0.24918459951E+03  0.24918459951E+03  0.00000000000E+00 0. -1.
         -2   -1    0    0    0  501 -0.00000000000E+00 -0.00000000000E+00 -0.56508785643E+02  0.56508785643E+02  0.00000000000E+00 0.  1.
         25    2    1    2    0    0 -0.30556412735E+02 -0.36124847953E+02  0.12130294367E+03  0.18055593701E+03  0.12508934106E+03 0.  0.
         23    2    1    2    0    0  0.30556412735E+02  0.36124847953E+02  0.71372870197E+02  0.12513744815E+03  0.91250179889E+02 0.  0.
          5    1    3    3  502    0 -0.69896627220E+02 -0.54556288668E+02  0.92858776733E+02  0.12846070195E+03  0.41800000000E+01 0. -1.
         -5    1    3    3    0  502  0.39340214485E+02  0.18431440715E+02  0.28444166939E+02  0.52095235055E+02  0.41800000000E+01 0. -1.
        -11    1    4    4    0    0 -0.30924216008E+02  0.12240968178E+02  0.92268740148E+01  0.34514977064E+02  0.00000000000E+00 0.  1.
         11    1    4    4    0    0  0.61480628743E+02  0.23883879774E+02  0.62145996182E+02  0.90622471083E+02  0.00000000000E+00 0. -1.
</event>
<event>
 8    1  0.6380400E-009  0.5218505E+02  0.7561462E-02  0.1433900E+00
         -2   -1    0    0    0  501 -0.00000000000E+00  0.00000000000E+00  0.22324571334E+02  0.22324571334E+02  0.00000000000E+00 0.  1.
          2   -1    0    0  501    0  0.00000000000E+00 -0.00000000000E+00 -0.56371510272E+03  0.56371510272E+03  0.00000000000E+00 0. -1.
         25    2    1    2    0    0 -0.14489966611E+02  0.18570259293E+02 -0.35194009511E+03  0.37425207522E+03  0.12509185266E+03 0.  0.
         23    2    1    2    0    0  0.14489966611E+02 -0.18570259293E+02 -0.18945043628E+03  0.21178759883E+03  0.91693541486E+02 0.  0.
          5    1    3    3  502    0  0.54527329600E+00  0.50405382397E+01 -0.35347978199E+03  0.35354085057E+03  0.41800000000E+01 0. -1.
         -5    1    3    3    0  502 -0.15035239907E+02  0.13529721053E+02  0.15396868797E+01  0.20711224651E+02  0.41800000000E+01 0. -1.
        -11    1    4    4    0    0  0.38806857846E+01  0.28566732837E+02 -0.18771822301E+02  0.34402024063E+02  0.00000000000E+00 0.  1.
         11    1    4    4    0    0  0.10609280826E+02 -0.47136992130E+02 -0.17067861398E+03  0.17738557477E+03  0.00000000000E+00 0. -1.
</event>
<event>
 8    1  0.6380400E-009  0.6550305E+02  0.7561462E-02  0.1376089E+00
         -1   -1    0    0    0  501 -0.00000000000E+00  0.00000000000E+00  0.15626610020E+02  0.15626610020E+02  0.00000000000E+00 0.  1.
          1   -1    0    0  501    0  0.00000000000E+00 -0.00000000000E+00 -0.83181546539E+03  0.83181546539E+03  0.00000000000E+00 0. -1.
         25    2    1    2    0    0  0.86451019875E+01 -0.17084564956E+02 -0.49900161484E+03  0.51479747391E+03  0.12508879799E+03 0.  0.
         23    2    1    2    0    0 -0.86451019875E+01  0.17084564956E+02 -0.31718724054E+03  0.33264460151E+03  0.98377157941E+02 0.  0.
          5    1    3    3  502    0 -0.66782403922E+01 -0.23465805297E+02 -0.12023675614E+02  0.27518795182E+02  0.41800000000E+01 0.  1.
         -5    1    3    3    0  502  0.15323342380E+02  0.63812403409E+01 -0.48697793922E+03  0.48727867872E+03  0.41800000000E+01 0.  1.
        -11    1    4    4    0    0  0.24109909314E+02  0.41696136358E+02 -0.92874674192E+02  0.10462103336E+03  0.00000000000E+00 0.  1.
         11    1    4    4    0    0 -0.32755011301E+02 -0.24611571401E+02 -0.22431256634E+03  0.22802356815E+03  0.00000000000E+00 0. -1.
</event>
<event>
 8    1  0.6380400E-009  0.1000907E+03  0.7561462E-02  0.1280105E+00
         -2   -1    0    0    0  501 -0.00000000000E+00  0.00000000000E+00  0.92320079575E+02  0.92320079575E+02  0.00000000000E+00 0.  1.
          2   -1    0    0  501    0  0.00000000000E+00 -0.00000000000E+00 -0.13761042405E+03  0.13761042405E+03  0.00000000000E+00 0. -1.
         25    2    1    2    0    0 -0.61989891316E+01 -0.26864639775E+02 -0.85673328963E+01  0.12836430338E+03  0.12507541266E+03 0.  0.
         23    2    1    2    0    0  0.61989891316E+01  0.26864639775E+02 -0.36723011576E+02  0.10156620024E+03  0.90592367871E+02 0.  0.
          5    1    3    3  502    0  0.32785850146E+02  0.38666673042E+02 -0.10651516425E+02  0.51970672269E+02  0.41800000000E+01 0.  1.
         -5    1    3    3    0  502 -0.38984839278E+02 -0.65531312817E+02  0.20841835285E+01  0.76393631109E+02  0.41800000000E+01 0.  1.
        -11    1    4    4    0    0  0.85836300382E+01 -0.22212679994E+02 -0.45780023600E+02  0.51603221003E+02  0.00000000000E+00 0. -1.
         11    1    4    4    0    0 -0.23846409066E+01  0.49077319768E+02  0.90570120239E+01  0.49962979241E+02  0.00000000000E+00 0.  1.
</event>
<event>
 8    1  0.6380400E-009  0.1645933E+03  0.7561462E-02  0.1183606E+00
         -1   -1    0    0    0  501 -0.00000000000E+00  0.00000000000E+00  0.26096061227E+03  0.26096061227E+03  0.00000000000E+00 0.  1.
          1   -1    0    0  501    0  0.00000000000E+00 -0.00000000000E+00 -0.11180722935E+03  0.11180722935E+03  0.00000000000E+00 0. -1.
         25    2    1    2    0    0 -0.50960058421E+02 -0.11428170751E+03  0.12729903753E+03  0.21796497937E+03  0.12508577478E+03 0.  0.
         23    2    1    2    0    0  0.50960058421E+02  0.11428170751E+03  0.21854345389E+02  0.15480286225E+03  0.88482074594E+02 0.  0.
          5    1    3    3  502    0 -0.13344635421E+02 -0.13351638251E+03  0.10135240104E+03  0.16820964684E+03  0.41800000000E+01 0.  1.
         -5    1    3    3    0  502 -0.37615423000E+02  0.19234675005E+02  0.25946636491E+02  0.49755332530E+02  0.41800000000E+01 0.  1.
        -11    1    4    4    0    0  0.54287268581E+02  0.19556949532E+02  0.79334732574E+00  0.57707982160E+02  0.00000000000E+00 0.  1.
         11    1    4    4    0    0 -0.33272101596E+01  0.94724757977E+02  0.21060998063E+02  0.97094880095E+02  0.00000000000E+00 0. -1.
</event>
<event>
 8    1  0.6380400E-009  0.1057084E+03  0.7561462E-02  0.1268730E+00
         -1   -1    0    0    0  501 -0.00000000000E+00  0.00000000000E+00  0.80759634754E+02  0.80759634754E+02  0.00000000000E+00 0.  1.
          1   -1    0    0  501    0  0.00000000000E+00 -0.00000000000E+00 -0.16820144974E+03  0.16820144974E+03  0.00000000000E+00 0. -1.
         25    2    1    2    0    0  0.33271900356E+02  0.14095428872E+02 -0.30158680003E+02  0.13365269183E+03  0.12509114911E+03 0.  0.
         23    2    1    2    0    0 -0.33271900356E+02 -0.14095428872E+02 -0.57283134980E+02  0.11530839266E+03  0.93321848440E+02 0.  0.
          5    1    3    3  502    0 -0.28170957744E+02 -0.31912216690E+02  0.13992990034E+02  0.45002984394E+02  0.41800000000E+01 0. -1.
         -5    1    3    3    0  502  0.61442858100E+02  0.46007645562E+02 -0.44151670037E+02  0.88649707437E+02  0.41800000000E+01 0. -1.
        -11    1    4    4    0    0  0.12981902807E+02  0.26961784587E+02  0.15273463431E+01  0.29963317831E+02  0.00000000000E+00 0.  1.
         11    1    4    4    0    0 -0.46253803162E+02 -0.41057213459E+02 -0.58810481323E+02  0.85345074828E+02  0.00000000000E+00 0. -1.
</event>
<event>
 8    1  0.6380400E-009  0.1294077E+03  0.7561462E-02  0.1228337E+00
         -1   -1    0    0    0  501 -0.00000000000E+00  0.00000000000E+00  0.58266416375E+03  0.58266416375E+03  0.00000000000E+00 0.  1.
          1   -1    0    0  501    0  0.00000000000E+00 -0.00000000000E+00 -0.46441743486E+02  0.46441743486E+02  0.00000000000E+00 0. -1.
         25    2    1    2    0    0 -0.74360094546E+02  0.60697731921E+02  0.43352541301E+03  0.46130921092E+03  0.12509302952E+03 0.  0.
         23    2    1    2    0    0  0.74360094546E+02 -0.60697731921E+02  0.10269700725E+03  0.16779669631E+03  0.91626511848E+02 0.  0.
          5    1    3    3  502    0 -0.88781041408E+02  0.16581721778E+02  0.15944589348E+03  0.18329618697E+03  0.41800000000E+01 0. -1.
         -5    1    3    3    0  502  0.14420946863E+02  0.44116010143E+02  0.27407951954E+03  0.27801302396E+03  0.41800000000E+01 0. -1.
        -11    1    4    4    0    0  0.36018876383E+02  0.13352312016E+02  0.40493135932E+01  0.38626941797E+02  0.00000000000E+00 0. -1.
         11    1    4    4    0    0  0.38341218163E+02 -0.74050043937E+02  0.98647693657E+02  0.12916975451E+03  0.00000000000E+00 0.  1.
</event>
<event>
 8    1  0.6380400E-009  0.2530950E+03  0.7561462E-02  0.1111364E+00
          2   -1    0    0  501    0  0.00000000000E+00  0.00000000000E+00  0.22587068620E+04  0.22587068620E+04  0.00000000000E+00 0. -1.
         -2   -1    0    0    0  501 -0.00000000000E+00 -0.00000000000E+00 -0.37210248539E+02  0.37210248539E+02  0.00000000000E+00 0.  1.
         25    2    1    2    0    0  0.18091327665E+03  0.15165500332E+03  0.16429599077E+04  0.16645401056E+04  0.12509057140E+03 0.  0.
         23    2    1    2    0    0 -0.18091327665E+03 -0.15165500332E+03  0.57853670580E+03  0.63137700501E+03  0.90572340106E+02 0.  0.
          5    1    3    3  502    0 -0.19031056054E+02  0.11007823042E+02  0.11766074082E+03  0.11977009474E+03  0.41800000000E+01 0.  1.
         -5    1    3    3    0  502  0.19994433270E+03  0.14064718027E+03  0.15252991669E+04  0.15447700108E+04  0.41800000000E+01 0.  1.
        -11    1    4    4    0    0 -0.14036344171E+03 -0.94387064407E+02  0.49019670308E+03  0.51855917830E+03  0.00000000000E+00 0. -1.
         11    1    4    4    0    0 -0.40549834938E+02 -0.57267938909E+02  0.88340002726E+02  0.11281782670E+03  0.00000000000E+00 0.  1.
</event>
<event>
 8    1  0.6380400E-009  0.1039260E+03  0.7561462E-02  0.1272250E+00
          2   -1    0    0  501    0  0.00000000000E+00  0.00000000000E+00  0.13104649598E+04  0.13104649598E+04  0.00000000000E+00 0. -1.
         -2   -1    0    0    0  501 -0.00000000000E+00 -0.00000000000E+00 -0.12378351126E+02  0.12378351126E+02  0.00000000000E+00 0.  1.
         25    2    1    2    0    0  0.26450459932E+02  0.78582837170E+01  0.10946658289E+04  0.11021351639E+04  0.12508902026E+03 0.  0.
         23    2    1    2    0    0 -0.26450459932E+02 -0.78582837170E+01  0.20342077978E+03  0.22070814708E+03  0.81059811786E+02 0.  0.
          5    1    3    3  502    0  0.71839111391E+02 -0.18870604068E+02  0.57586923990E+03  0.58065464046E+03  0.41800000000E+01 0. -1.
         -5    1    3    3    0  502 -0.45388651459E+02  0.26728887785E+02  0.51879658899E+03  0.52148052339E+03  0.41800000000E+01 0. -1.
        -11    1    4    4    0    0 -0.20163920093E+02 -0.41635555719E+02  0.78194294668E+02  0.90854008675E+02  0.00000000000E+00 0.  1.
         11    1    4    4    0    0 -0.62865398385E+01  0.33777272002E+02  0.12522648511E+03  0.12985413840E+03  0.00000000000E+00 0. -1.
</event>
<event>
 8    1  0.6380400E-009  0.1268513E+03  0.7561462E-02  0.1232204E+00
          2   -1    0    0  501    0  0.00000000000E+00  0.00000000000E+00  0.43501704574E+03  0.43501704574E+03  0.00000000000E+00 0. -1.
         -2   -1    0    0    0  501 -0.00000000000E+00 -0.00000000000E+00 -0.58747776850E+02  0.58747776850E+02  0.00000000000E+00 0.  1.
         25    2    1    2    0    0 -0.11527794486E+02  0.86847156305E+02  0.32180838656E+03  0.35620853512E+03  0.12509422140E+03 0.  0.
         23    2    1    2    0    0  0.11527794486E+02 -0.86847156305E+02  0.54460882329E+02  0.13755628747E+03  0.90996845629E+02 0.  0.
          5    1    3    3  502    0 -0.14048959569E+02  0.10852477870E+03  0.16628593925E+03  0.19910672226E+03  0.41800000000E+01 0. -1.
         -5    1    3    3    0  502  0.25211650827E+01 -0.21677622397E+02  0.15552244732E+03  0.15710181286E+03  0.41800000000E+01 0. -1.
        -11    1    4    4    0    0 -0.27837243984E+02 -0.76298590683E+02  0.18713834582E+02  0.83346233853E+02  0.00000000000E+00 0.  1.
         11    1    4    4    0    0  0.39365038470E+02 -0.10548565622E+02  0.35747047747E+02  0.54210053616E+02  0.00000000000E+00 0. -1.
</event>
<event>
 8    1  0.6380400E-009  0.1045207E+03  0.7561462E-02  0.1271067E+00
          2   -1    0    0  501    0  0.00000000000E+00  0.00000000000E+00  0.36287661120E+03  0.36287661120E+03  0.00000000000E+00 0.  1.
         -2   -1    0    0    0  501 -0.00000000000E+00 -0.00000000000E+00 -0.41237052961E+02  0.41237052961E+02  0.00000000000E+00 0. -1.
         25    2    1    2    0    0 -0.22977834869E+02  0.49774543188E+02  0.15325174986E+03  0.20527664912E+03  0.12508764044E+03 0.  0.
         23    2    1    2    0    0  0.22977834869E+02 -0.49774543188E+02  0.16838780838E+03  0.19883701505E+03  0.90422444652E+02 0.  0.
          5    1    3    3  502    0  0.35682023115E+02  0.43166986755E+02  0.13014745426E+03  0.14174776107E+03  0.41800000000E+01 0. -1.
         -5    1    3    3    0  502 -0.58659857985E+02  0.66075564337E+01  0.23104295603E+02  0.63528888044E+02  0.41800000000E+01 0. -1.
        -11    1    4    4    0    0  0.50655960056E+02 -0.39278770049E+02  0.15208889831E+03  0.16504508795E+03  0.00000000000E+00 0.  1.
         11    1    4    4    0    0 -0.27678125187E+02 -0.10495773140E+02  0.16298910066E+02  0.33791927098E+02  0.00000000000E+00 0. -1.
</event>
<event>
 8    1  0.6380400E-009  0.9051565E+02  0.7561462E-02  0.1301608E+00
         -2   -1    0    0    0  501 -0.00000000000E+00  0.00000000000E+00  0.25276322561E+02  0.25276322561E+02  0.00000000000E+00 0.  1.
          2   -1    0    0  501    0  0.00000000000E+00 -0.00000000000E+00 -0.85007550256E+03  0.85007550256E+03  0.00000000000E+00 0. -1.
         25    2    1    2    0    0 -0.33596662817E+02  0.49023663061E+02 -0.67740153934E+03  0.69141327678E+03  0.12508964195E+03 0.  0.
         23    2    1    2    0    0  0.33596662817E+02 -0.49023663061E+02 -0.14739764066E+03  0.18393854833E+03  0.92602752652E+02 0.  0.
          5    1    3    3  502    0  0.95488889646E+01  0.20770864497E+02 -0.16528860078E+02  0.28518164525E+02  0.41800000000E+01 0. -1.
         -5    1    3    3    0  502 -0.43145551782E+02  0.28252798564E+02 -0.66087267926E+03  0.66289511226E+03  0.41800000000E+01 0. -1.
        -11    1    4    4    0    0  0.60415285100E+02 -0.14139134697E+02 -0.61157399644E+02  0.87121463113E+02  0.00000000000E+00 0.  1.
         11    1    4    4    0    0 -0.26818622283E+02 -0.34884528364E+02 -0.86240241013E+02  0.96817085219E+02  0.00000000000E+00 0. -1.
</event>
<event>
 8    1  0.6380400E-009  0.1081175E+03  0.7561462E-02  0.1264096E+00
         -2   -1    0    0    0  501 -0.00000000000E+00  0.00000000000E+00  0.19434102415E+02  0.19434102415E+02  0.00000000000E+00 0.  1.
          2   -1    0    0  501    0  0.00000000000E+00 -0.00000000000E+00 -0.14976410548E+04  0.14976410548E+04  0.00000000000E+00 0. -1.
         25    2    1    2    0    0 -0.73091069350E+02 -0.26063155576E+02 -0.12580500736E+04  0.12666324599E+04  0.12508480447E+03 0.  0.
         23    2    1    2    0    0  0.73091069350E+02  0.26063155576E+02 -0.22015687880E+03  0.25044269732E+03  0.90724312408E+02 0.  0.
          5    1    3    3  502    0  0.18307729250E+02 -0.16482727549E+02 -0.74374241798E+03  0.74416201863E+03  0.41800000000E+01 0.  1.
         -5    1    3    3    0  502 -0.91398798600E+02 -0.95804280273E+01 -0.51430765560E+03  0.52247044127E+03  0.41800000000E+01 0.  1.
        -11    1    4    4    0    0  0.28565693610E+02 -0.20245222850E+02 -0.15513913688E+03  0.15904093715E+03  0.00000000000E+00 0. -1.
         11    1    4    4    0    0  0.44525375741E+02  0.46308378426E+02 -0.65017741921E+02  0.91401760168E+02  0.00000000000E+00 0.  1.
</event>
<event>
 8    1  0.6380400E-009  0.9796002E+02  0.7561462E-02  0.1284645E+00
         -1   -1    0    0    0  501 -0.00000000000E+00  0.00000000000E+00  0.79648146523E+02  0.79648146523E+02  0.00000000000E+00 0.  1.
          1   -1    0    0  501    0  0.00000000000E+00 -0.00000000000E+00 -0.15711086769E+03  0.15711086769E+03  0.00000000000E+00 0. -1.
         25    2    1    2    0    0 -0.16204568199E+02 -0.10972629712E+02 -0.50674413684E+02  0.13637293789E+03  0.12508675131E+03 0.  0.
         23    2    1    2    0    0  0.16204568199E+02  0.10972629712E+02 -0.26788307485E+02  0.10038607633E+03  0.94745787606E+02 0.  0.
          5    1    3    3  502    0 -0.59336149930E+02 -0.36357147753E+02 -0.50616249618E+02  0.86151598979E+02  0.41800000000E+01 0.  1.
         -5    1    3    3    0  502  0.43131581731E+02  0.25384518042E+02 -0.58164066115E-01  0.50221338910E+02  0.41800000000E+01 0.  1.
        -11    1    4    4    0    0 -0.12868893078E+02 -0.25963970100E+02 -0.41958462322E+02  0.50992633907E+02  0.00000000000E+00 0. -1.
         11    1    4    4    0    0  0.29073461277E+02  0.36936599812E+02  0.15170154837E+02  0.49393442420E+02  0.00000000000E+00 0.  1.
</event>
<event>
 8    1  0.6380400E-009  0.1100018E+03  0.7561462E-02  0.1260566E+00
         -1   -1    0    0    0  501 -0.00000000000E+00  0.00000000000E+00  0.10063307954E+03  0.10063307954E+03  0.00000000000E+00 0. -1.
          1   -1    0    0  501    0  0.00000000000E+00 -0.00000000000E+00 -0.33594877030E+03  0.33594877030E+03  0.00000000000E+00 0.  1.
         25    2    1    2    0    0 -0.36212354453E+02  0.18254230167E+02 -0.29335086764E+03  0.32147096956E+03  0.12507718092E+03 0.  0.
         23    2    1    2    0    0  0.36212354453E+02 -0.18254230167E+02  0.58035176884E+02  0.11511088028E+03  0.90762775786E+02 0.  0.
          5    1    3    3  502    0 -0.45351282038E+02 -0.45962905099E+02 -0.17273237312E+03  0.18445398492E+03  0.41800000000E+01 0. -1.
         -5    1    3    3    0  502  0.91389275846E+01  0.64217135266E+02 -0.12061849452E+03  0.13701698464E+03  0.41800000000E+01 0. -1.
        -11    1    4    4    0    0 -0.25212265724E+02  0.27986636954E+01  0.40608857022E+02  0.47880790825E+02  0.00000000000E+00 0.  1.
         11    1    4    4    0    0  0.61424620177E+02 -0.21052893862E+02  0.17426319862E+02  0.67230089453E+02  0.00000000000E+00 0. -1.
</event>
<event>
 8    1  0.6380400E-009  0.8295444E+02  0.7561462E-02  0.1320870E+00
         -2   -1    0    0    0  501 -0.00000000000E+00  0.00000000000E+00  0.13073563017E+03  0.13073563017E+03  0.00000000000E+00 0.  1.
          2   -1    0    0  501    0  0.00000000000E+00 -0.00000000000E+00 -0.96558679817E+02  0.96558679817E+02  0.00000000000E+00 0. -1.
         25    2    1    2    0    0  0.10890732843E+02  0.21243647838E+02 -0.45402532497E+00  0.12734138641E+03  0.12508286021E+03 0.  0.
         23    2    1    2    0    0 -0.10890732843E+02 -0.21243647838E+02  0.34630975677E+02  0.99952923579E+02  0.90671835871E+02 0.  0.
          5    1    3    3  502    0  0.20922363003E+02 -0.33016569254E+02 -0.42462276912E+02  0.57864984918E+02  0.41800000000E+01 0. -1.
         -5    1    3    3    0  502 -0.10031630159E+02  0.54260217092E+02  0.42008251587E+02  0.69476401490E+02  0.41800000000E+01 0. -1.
        -11    1    4    4    0    0 -0.33731375549E+02 -0.31564308400E+02  0.51925711389E+02  0.69501012687E+02  0.00000000000E+00 0.  1.
         11    1    4    4    0    0  0.22840642706E+02  0.10320660562E+02 -0.17294735712E+02  0.30451910892E+02  0.00000000000E+00 0. -1.
</event>
<event>
 8    1  0.6380400E-009  0.1414059E+03  0.7561462E-02  0.1211450E+00
          2   -1    0    0  501    0  0.00000000000E+00  0.00000000000E+00  0.62427302697E+03  0.62427302697E+03  0.00000000000E+00 0. -1.
         -2   -1    0    0    0  501 -0.00000000000E+00 -0.00000000000E+00 -0.41340841578E+02  0.41340841578E+02  0.00000000000E+00 0.  1.
         25    2    1    2    0    0 -0.68940706407E+02  0.85087801284E+02  0.21960052262E+03  0.27543581167E+03  0.12509093447E+03 0.  0.
         23    2    1    2    0    0  0.68940706407E+02 -0.85087801284E+02  0.36333166276E+03  0.39017805687E+03  0.90753864780E+02 0.  0.
          5    1    3    3  502    0 -0.90130320640E+02  0.53182443107E+02  0.83379622482E+02  0.13387113505E+03  0.41800000000E+01 0. -1.
         -5    1    3    3    0  502  0.21189614233E+02  0.31905358177E+02  0.13622090014E+03  0.14156467662E+03  0.41800000000E+01 0. -1.
        -11    1    4    4    0    0  0.49405762470E+02  0.28303696921E+01  0.94691077606E+02  0.10684259701E+03  0.00000000000E+00 0.  1.
         11    1    4    4    0    0  0.19534943937E+02 -0.87918170976E+02  0.26864058516E+03  0.28333545986E+03  0.00000000000E+00 0. -1.
</event>
<event>
 8    1  0.6380400E-009  0.1176185E+03  0.7561462E-02  0.1247078E+00
          1   -1    0    0  501    0  0.00000000000E+00  0.00000000000E+00  0.54149416686E+02  0.54149416686E+02  0.00000000000E+00 0. -1.
         -1   -1    0    0    0  501 -0.00000000000E+00 -0.00000000000E+00 -0.47354615684E+03  0.47354615684E+03  0.00000000000E+00 0.  1.
         25    2    1    2    0    0  0.10828019777E+03 -0.31160413666E+02 -0.27863049013E+03  0.32554123427E+03  0.12508626053E+03 0.  0.
         23    2    1    2    0    0 -0.10828019777E+03  0.31160413666E+02 -0.14076625003E+03  0.20215433926E+03  0.91409338270E+02 0.  0.
          5    1    3    3  502    0  0.15345485628E+02 -0.61927292557E+01  0.11005956984E+02  0.20308552729E+02  0.41800000000E+01 0. -1.
         -5    1    3    3    0  502  0.92934712146E+02 -0.24967684411E+02 -0.28963644711E+03  0.30523268154E+03  0.41800000000E+01 0. -1.
        -11    1    4    4    0    0 -0.10656473945E+03  0.17393455870E+02 -0.66952363094E+02  0.12704800245E+03  0.00000000000E+00 0. -1.
         11    1    4    4    0    0 -0.17154583199E+01  0.13766957797E+02 -0.73813886937E+02  0.75106336809E+02  0.00000000000E+00 0.  1.
</event>
<event>
 8    1  0.6380400E-009  0.1515984E+03  0.7561462E-02  0.1198523E+00
          1   -1    0    0  501    0  0.00000000000E+00  0.00000000000E+00  0.53430382193E+03  0.53430382193E+03  0.00000000000E+00 0. -1.
         -1   -1    0    0    0  501 -0.00000000000E+00 -0.00000000000E+00 -0.55640226796E+02  0.55640226796E+02  0.00000000000E+00 0.  1.
         25    2    1    2    0    0 -0.97617411189E+02 -0.63050817317E+02  0.14039179109E+03  0.22104649872E+03  0.12508850891E+03 0.  0.
         23    2    1    2    0    0  0.97617411189E+02  0.63050817317E+02  0.33827180405E+03  0.36889755001E+03  0.90294099776E+02 0.  0.
          5    1    3    3  502    0 -0.14333386213E+02  0.37210220130E+02  0.28168024000E+02  0.48999555289E+02  0.41800000000E+01 0. -1.
         -5    1    3    3    0  502 -0.83284024975E+02 -0.10026103745E+03  0.11222376709E+03  0.17204694344E+03  0.41800000000E+01 0. -1.
        -11    1    4    4    0    0  0.39421523811E+02  0.63215324493E+02  0.26529655133E+03  0.27555851273E+03  0.00000000000E+00 0. -1.
         11    1    4    4    0    0  0.58195887378E+02 -0.16450717603E+00  0.72975252722E+02  0.93339037279E+02  0.00000000000E+00 0.  1.
</event>
<event>
 8    1  0.6380400E-009  0.1264443E+03  0.7561462E-02  0.1232829E+00
         -1   -1    0    0    0  501 -0.00000000000E+00  0.00000000000E+00  0.16283594584E+03  0.16283594584E+03  0.00000000000E+00 0.  1.
          1   -1    0    0  501    0  0.00000000000E+00 -0.00000000000E+00 -0.25231147097E+03  0.25231147097E+03  0.00000000000E+00 0. -1.
         25    2    1    2    0    0 -0.11177684421E+02 -0.10763523875E+03  0.88393386948E+02  0.18754028098E+03  0.12509069064E+03 0.  0.
         23    2    1    2    0    0  0.11177684421E+02  0.10763523875E+03 -0.17786891207E+03  0.22760713583E+03  0.91963977440E+02 0.  0.
          5    1    3    3  502    0 -0.30039253676E+02 -0.36880455496E+02 -0.23915160596E+02  0.53403483644E+02  0.41800000000E+01 0.  1.
         -5    1    3    3    0  502  0.18861569254E+02 -0.70754783254E+02  0.11230854754E+03  0.13413679734E+03  0.41800000000E+01 0.  1.
        -11    1    4    4    0    0  0.25270266275E+02  0.21384259861E+01 -0.70144621464E+01  0.26312770712E+02  0.00000000000E+00 0.  1.
         11    1    4    4    0    0 -0.14092581854E+02  0.10549681276E+03 -0.17085444993E+03  0.20129436511E+03  0.00000000000E+00 0. -1.
</event>
<event>
 8    1  0.6380400E-009  0.1070444E+03  0.7561462E-02  0.1266143E+00
         -2   -1    0    0    0  501 -0.00000000000E+00  0.00000000000E+00  0.85570369516E+02  0.85570369516E+02  0.00000000000E+00 0.  1.
          2   -1    0    0  501    0  0.00000000000E+00 -0.00000000000E+00 -0.18909847819E+03  0.18909847819E+03  0.00000000000E+00 0. -1.
         25    2    1    2    0    0  0.44088527654E+02 -0.28377234874E+02 -0.98772735273E+02  0.16778667590E+03  0.12508896693E+03 0.  0.
         23    2    1    2    0    0 -0.44088527654E+02  0.28377234874E+02 -0.47553733974E+01  0.10688217180E+03  0.93016769149E+02 0.  0.
          5    1    3    3  502    0  0.77764345001E+02  0.11010441501E+02 -0.80848485735E+02  0.11279394142E+03  0.41800000000E+01 0. -1.
         -5    1    3    3    0  502 -0.33675817347E+02 -0.39387676375E+02 -0.17924249538E+02  0.54992734481E+02  0.41800000000E+01 0. -1.
        -11    1    4    4    0    0 -0.59741441798E+02  0.31423260357E+02 -0.32471752172E+02  0.74905779809E+02  0.00000000000E+00 0. -1.
         11    1    4    4    0    0  0.15652914144E+02 -0.30460254829E+01  0.27716378775E+02  0.31976391992E+02  0.00000000000E+00 0.  1.
</event>
<event>
 8    1  0.6380400E-009  0.8240405E+02  0.7561462E-02  0.1322364E+00
          1   -1    0    0  501    0  0.00000000000E+00  0.00000000000E+00  0.31591193954E+03  0.31591193954E+03  0.00000000000E+00 0. -1.
         -1   -1    0    0    0  501 -0.00000000000E+00 -0.00000000000E+00 -0.39941220063E+02  0.39941220063E+02  0.00000000000E+00 0.  1.
         25    2    1    2    0    0 -0.27202317463E+02  0.93986127605E+00  0.13276219481E+03  0.18442607557E+03  0.12508528116E+03 0.  0.
         23    2    1    2    0    0  0.27202317463E+02 -0.93986127605E+00  0.14320852466E+03  0.17142708403E+03  0.90209279951E+02 0.  0.
          5    1    3    3  502    0 -0.24957681967E+02  0.39774889624E+02  0.13717938529E+03  0.14505372757E+03  0.41800000000E+01 0. -1.
         -5    1    3    3    0  502 -0.22446354956E+01 -0.38835028348E+02 -0.44171904746E+01  0.39372348000E+02  0.41800000000E+01 0. -1.
        -11    1    4    4    0    0 -0.15802530650E+01 -0.34382554267E+02  0.11255772775E+03  0.11770258839E+03  0.00000000000E+00 0. -1.
         11    1    4    4    0    0  0.28782570528E+02  0.33442692991E+02  0.30650796916E+02  0.53724495644E+02  0.00000000000E+00 0.  1.
</event>
<event>
 8    1  0.6380400E-009  0.1475740E+03  0.7561462E-02  0.1203486E+00
         -2   -1    0    0    0  501 -0.00000000000E+00  0.00000000000E+00  0.14052240699E+03  0.14052240699E+03  0.00000000000E+00 0.  1.
          2   -1    0    0  501    0  0.00000000000E+00 -0.00000000000E+00 -0.18544697137E+03  0.18544697137E+03  0.00000000000E+00 0. -1.
         25    2    1    2    0    0 -0.69225892271E+02  0.88266815181E+02 -0.64505338475E+02  0.17997998438E+03  0.12509436943E+03 0.  0.
         23    2    1    2    0    0  0.69225892271E+02 -0.88266815181E+02  0.19580774099E+02  0.14598939397E+03  0.91357767133E+02 0.  0.
          5    1    3    3  502    0 -0.84000586742E+02  0.18358478742E+02 -0.38665533260E+01  0.86171659781E+02  0.41800000000E+01 0.  1.
         -5    1    3    3    0  502  0.14774694471E+02  0.69908336439E+02 -0.60638785149E+02  0.93808324603E+02  0.41800000000E+01 0.  1.
        -11    1    4    4    0    0  0.51809500206E+02 -0.10259564083E+03 -0.17474922981E+01  0.11494843870E+03  0.00000000000E+00 0. -1.
         11    1    4    4    0    0  0.17416392065E+02  0.14328825650E+02  0.21328266397E+02  0.31040955278E+02  0.00000000000E+00 0.  1.
</event>
<event>
 8    1  0.6380400E-009  0.1635045E+03  0.7561462E-02  0.1184796E+00
         -3   -1    0    0    0  501 -0.00000000000E+00  0.00000000000E+00  0.53398119336E+02  0.53398119336E+02  0.00000000000E+00 0.  1.
          3   -1    0    0  501    0  0.00000000000E+00 -0.00000000000E+00 -0.54260837075E+03  0.54260837075E+03  0.00000000000E+00 0. -1.
         25    2    1    2    0    0 -0.12705107485E+03 -0.49903914769E+02 -0.28478596619E+03  0.33968093974E+03  0.12509083882E+03 0.  0.
         23    2    1    2    0    0  0.12705107485E+03  0.49903914769E+02 -0.20442428523E+03  0.25632555035E+03  0.72671335746E+02 0.  0.
          5    1    3    3  502    0 -0.14422686906E+02  0.34208223025E+02 -0.10485429510E+03  0.11131088007E+03  0.41800000000E+01 0.  1.
         -5    1    3    3    0  502 -0.11262838795E+03 -0.84112137794E+02 -0.17993167108E+03  0.22837005967E+03  0.41800000000E+01 0.  1.
        -11    1    4    4    0    0  0.69675631736E+02 -0.46709793975E+01 -0.13043608302E+03  0.14795297720E+03  0.00000000000E+00 0. -1.
         11    1    4    4    0    0  0.57375443115E+02  0.54574894167E+02 -0.73988202207E+02  0.10837257315E+03  0.00000000000E+00 0.  1.
</event>
<event>
 8    1  0.6380400E-009  0.1515173E+03  0.7561462E-02  0.1198621E+00
          2   -1    0    0  501    0  0.00000000000E+00  0.00000000000E+00  0.75994256269E+03  0.75994256269E+03  0.00000000000E+00 0. -1.
         -2   -1    0    0    0  501 -0.00000000000E+00 -0.00000000000E+00 -0.33714937980E+02  0.33714937980E+02  0.00000000000E+00 0.  1.
         25    2    1    2    0    0  0.58806167304E+02 -0.96517199723E+02  0.30968172489E+03  0.35257686702E+03  0.12503575996E+03 0.  0.
         23    2    1    2    0    0 -0.58806167304E+02  0.96517199723E+02  0.41654589982E+03  0.44108063365E+03  0.90928013128E+02 0.  0.
          5    1    3    3  502    0 -0.14996836238E+02  0.17043972638E+02  0.10215335964E+03  0.10472909522E+03  0.41800000000E+01 0.  1.
         -5    1    3    3    0  502  0.73803003542E+02 -0.11356117236E+03  0.20752836525E+03  0.24784777179E+03  0.41800000000E+01 0.  1.
        -11    1    4    4    0    0  0.71900214567E+01  0.74546341613E+02  0.19574665870E+03  0.20958436929E+03  0.00000000000E+00 0.  1.
         11    1    4    4    0    0 -0.65996188761E+02  0.21970858110E+02  0.22079924111E+03  0.23149626436E+03  0.00000000000E+00 0. -1.
</event>
<event>
 8    1  0.6380400E-009  0.1333729E+03  0.7561462E-02  0.1222535E+00
          1   -1    0    0  501    0  0.00000000000E+00  0.00000000000E+00  0.91109158991E+02  0.91109158991E+02  0.00000000000E+00 0. -1.
         -1   -1    0    0    0  501 -0.00000000000E+00 -0.00000000000E+00 -0.28884142105E+03  0.28884142105E+03  0.00000000000E+00 0.  1.
         25    2    1    2    0    0 -0.10382537548E+03 -0.71194309481E+01 -0.17807765440E+03  0.24122251854E+03  0.12508500136E+03 0.  0.
         23    2    1    2    0    0  0.10382537548E+03  0.71194309481E+01 -0.19654607660E+02  0.13872806150E+03  0.89603440530E+02 0.  0.
          5    1    3    3  502    0 -0.10897847246E+03 -0.44212512332E+02 -0.16205483653E+03  0.20027555055E+03  0.41800000000E+01 0.  1.
         -5    1    3    3    0  502  0.51530969862E+01  0.37093081384E+02 -0.16022817874E+02  0.40946967992E+02  0.41800000000E+01 0.  1.
        -11    1    4    4    0    0  0.49926188147E+02 -0.16436712991E+02 -0.49995581974E+02  0.72542043077E+02  0.00000000000E+00 0.  1.
         11    1    4    4    0    0  0.53899187330E+02  0.23556143939E+02  0.30340974315E+02  0.66186018422E+02  0.00000000000E+00 0. -1.
</event>
<event>
 8    1  0.6380400E-009  0.1196526E+03  0.7561462E-02  0.1243671E+00
         -3   -1    0    0    0  501 -0.00000000000E+00  0.00000000000E+00  0.86876463936E+02  0.86876463936E+02  0.00000000000E+00 0.  1.
          3   -1    0    0  501    0  0.00000000000E+00 -0.00000000000E+00 -0.26737925154E+03  0.26737925154E+03  0.00000000000E+00 0. -1.
         25    2    1    2    0    0  0.50011560590E+02  0.69736463693E+02 -0.17023163501E+03  0.22802584787E+03  0.12511053983E+03 0.  0.
         23    2    1    2    0    0 -0.50011560590E+02 -0.69736463693E+02 -0.10271152590E+02  0.12622986760E+03  0.92000827923E+02 0.  0.
          5    1    3    3  502    0  0.36856699615E+02 -0.10003365321E+02 -0.13392956628E+03  0.13933084636E+03  0.41800000000E+01 0.  1.
         -5    1    3    3    0  502  0.13154860975E+02  0.79739829015E+02 -0.36302068734E+02  0.88695001511E+02  0.41800000000E+01 0.  1.
        -11    1    4    4    0    0  0.22083969504E+02 -0.40964959951E+01  0.13053148049E+02  0.25978215152E+02  0.00000000000E+00 0.  1.
         11    1    4    4    0    0 -0.72095530093E+02 -0.65639967698E+02 -0.23324300639E+02  0.10025165245E+03  0.00000000000E+00 0. -1.
</event>
<event>
 8    1  0.6380400E-009  0.1244248E+03  0.7561462E-02  0.1235971E+00
          1   -1    0    0  501    0  0.00000000000E+00  0.00000000000E+00  0.47464859317E+03  0.47464859317E+03  0.00000000000E+00 0. -1.
         -1   -1    0    0    0  501 -0.00000000000E+00 -0.00000000000E+00 -0.54415743979E+02  0.54415743979E+02  0.00000000000E+00 0.  1.
         25    2    1    2    0    0  0.10033889257E+03 -0.56457744322E+01  0.32887959374E+03  0.36593629203E+03  0.12509122480E+03 0.  0.
         23    2    1    2    0    0 -0.10033889257E+03  0.56457744322E+01  0.91353255453E+02  0.16312804511E+03  0.90363563942E+02 0.  0.
          5    1    3    3  502    0 -0.69387451139E+01  0.17873174591E+01 -0.84591661971E+01  0.11847809089E+02  0.41800000000E+01 0. -1.
         -5    1    3    3    0  502  0.10727763769E+03 -0.74330918913E+01  0.33733875993E+03  0.35408848295E+03  0.41800000000E+01 0. -1.
        -11    1    4    4    0    0 -0.77612280672E+02 -0.35953649164E+02  0.44256958963E+02  0.96306850307E+02  0.00000000000E+00 0.  1.
         11    1    4    4    0    0 -0.22726611899E+02  0.41599423596E+02  0.47096296489E+02  0.66821194803E+02  0.00000000000E+00 0. -1.
</event>
<event>
 8    1  0.6380400E-009  0.1076151E+03  0.7561462E-02  0.1265051E+00
          2   -1    0    0  501    0  0.00000000000E+00  0.00000000000E+00  0.65733457922E+03  0.65733457922E+03  0.00000000000E+00 0. -1.
         -2   -1    0    0    0  501 -0.00000000000E+00 -0.00000000000E+00 -0.19254753853E+02  0.19254753853E+02  0.00000000000E+00 0.  1.
         25    2    1    2    0    0 -0.23221373997E+02 -0.15089031395E+02  0.39815980903E+03  0.41826548635E+03  0.12509145641E+03 0.  0.
         23    2    1    2    0    0  0.23221373997E+02  0.15089031395E+02  0.23992001634E+03  0.25832384672E+03  0.91666157698E+02 0.  0.
          5    1    3    3  502    0 -0.15547793090E+02 -0.65945613663E+02  0.14780339786E+03  0.16264647137E+03  0.41800000000E+01 0. -1.
         -5    1    3    3    0  502 -0.76735809068E+01  0.50856582268E+02  0.25035641117E+03  0.25561901497E+03  0.41800000000E+01 0. -1.
        -11    1    4    4    0    0  0.51626507190E+02 -0.15596930374E+02  0.13309939872E+03  0.14361062085E+03  0.00000000000E+00 0.  1.
         11    1    4    4    0    0 -0.28405133193E+02  0.30685961769E+02  0.10682061762E+03  0.11471322587E+03  0.00000000000E+00 0. -1.
</event>
<event>
 8    1  0.6380400E-009  0.1070069E+03  0.7561462E-02  0.1266215E+00
         -1   -1    0    0    0  501 -0.00000000000E+00  0.00000000000E+00  0.31239238831E+02  0.31239238831E+02  0.00000000000E+00 0.  1.
          1   -1    0    0  501    0  0.00000000000E+00 -0.00000000000E+00 -0.46727336886E+03  0.46727336886E+03  0.00000000000E+00 0. -1.
         25    2    1    2    0    0  0.27296558707E+01 -0.53168527094E+02 -0.25273100722E+03  0.28697568812E+03  0.12509092801E+03 0.  0.
         23    2    1    2    0    0 -0.27296558707E+01  0.53168527094E+02 -0.18330312281E+03  0.21153691957E+03  0.91178342898E+02 0.  0.
          5    1    3    3  502    0 -0.51331305987E+02 -0.48730576882E+02 -0.85255004814E+02  0.11088489682E+03  0.41800000000E+01 0. -1.
         -5    1    3    3    0  502  0.54060961858E+02 -0.44379502117E+01 -0.16747600240E+03  0.17609079130E+03  0.41800000000E+01 0. -1.
        -11    1    4    4    0    0  0.33550810850E+02  0.33618949189E+02 -0.38976479949E+02  0.61441489586E+02  0.00000000000E+00 0.  1.
         11    1    4    4    0    0 -0.36280466721E+02  0.19549577905E+02 -0.14432664287E+03  0.15009542999E+03  0.00000000000E+00 0. -1.
</event>
<event>
 8    1  0.6380400E-009  0.1529805E+03  0.7561462E-02  0.1196858E+00
          1   -1    0    0  501    0  0.00000000000E+00  0.00000000000E+00  0.69968690042E+03  0.69968690042E+03  0.00000000000E+00 0. -1.
         -1   -1    0    0    0  501 -0.00000000000E+00 -0.00000000000E+00 -0.40826016691E+02  0.40826016691E+02  0.00000000000E+00 0.  1.
         25    2    1    2    0    0  0.12065962233E+02 -0.12075788357E+03  0.24010084672E+03  0.29668590317E+03  0.12508419028E+03 0.  0.
         23    2    1    2    0    0 -0.12065962233E+02  0.12075788357E+03  0.41876003701E+03  0.44382701394E+03  0.83032498551E+02 0.  0.
          5    1    3    3  502    0 -0.22729854803E+02  0.10855498985E+02  0.92007001406E+02  0.95484285960E+02  0.41800000000E+01 0. -1.
         -5    1    3    3    0  502  0.34795817037E+02 -0.13161338255E+03  0.14809384531E+03  0.20120161722E+03  0.41800000000E+01 0. -1.
        -11    1    4    4    0    0 -0.34630493002E+02  0.18014037384E+02  0.15559508982E+03  0.16041698340E+03  0.00000000000E+00 0. -1.
         11    1    4    4    0    0  0.22564530769E+02  0.10274384618E+03  0.26316494720E+03  0.28341003054E+03  0.00000000000E+00 0.  1.
</event>
<event>
 8    1  0.6380400E-009  0.1311856E+03  0.7561462E-02  0.1225707E+00
          3   -1    0    0  501    0  0.00000000000E+00  0.00000000000E+00  0.88768556778E+02  0.88768556778E+02  0.00000000000E+00 0. -1.
         -3   -1    0    0    0  501 -0.00000000000E+00 -0.00000000000E+00 -0.23190421566E+03  0.23190421566E+03  0.00000000000E+00 0.  1.
         25    2    1    2    0    0 -0.26536757390E+02  0.83714561918E+02 -0.74067859880E+02  0.16983903300E+03  0.12508765683E+03 0.  0.
         23    2    1    2    0    0  0.26536757390E+02 -0.83714561918E+02 -0.69067799005E+02  0.15083373944E+03  0.10133177550E+03 0.  0.
          5    1    3    3  502    0 -0.19323856424E+02 -0.31268421642E+02 -0.24358958512E+02  0.44293982422E+02  0.41800000000E+01 0. -1.
         -5    1    3    3    0  502 -0.72129009661E+01  0.11498298356E+03 -0.49708901369E+02  0.12554505058E+03  0.41800000000E+01 0. -1.
        -11    1    4    4    0    0  0.31891635865E+02 -0.63195704619E+01 -0.65554973600E+02  0.73174230249E+02  0.00000000000E+00 0.  1.
         11    1    4    4    0    0 -0.53548784744E+01 -0.77394991456E+02 -0.35128254055E+01  0.77659509194E+02  0.00000000000E+00 0. -1.
</event>
<event>
 8    1  0.6380400E-009  0.1012571E+03  0.7561462E-02  0.1277674E+00
         -2   -1    0    0    0  501 -0.00000000000E+00  0.00000000000E+00  0.30036089363E+02  0.30036089363E+02  0.00000000000E+00 0.  1.
          2   -1    0    0  501    0  0.00000000000E+00 -0.00000000000E+00 -0.49223642923E+03  0.49223642923E+03  0.00000000000E+00 0. -1.
         25    2    1    2    0    0  0.23392049140E+02  0.45220088406E+02 -0.22306420497E+03  0.26076259366E+03  0.12508975318E+03 0.  0.
         23    2    1    2    0    0 -0.23392049140E+02 -0.45220088406E+02 -0.23913613490E+03  0.26150992494E+03  0.92786343120E+02 0.  0.
          5    1    3    3  502    0 -0.46711333464E+02  0.44750858987E+02 -0.10754273177E+03  0.12556870474E+03  0.41800000000E+01 0.  1.
         -5    1    3    3    0  502  0.70103382604E+02  0.46922941961E+00 -0.11552147320E+03  0.13519388891E+03  0.41800000000E+01 0.  1.
        -11    1    4    4    0    0  0.13326742937E+02 -0.12808603898E+02 -0.11320619616E+01  0.18518746594E+02  0.00000000000E+00 0.  1.
         11    1    4    4    0    0 -0.36718792078E+02 -0.32411484509E+02 -0.23800407293E+03  0.24299117834E+03  0.00000000000E+00 0. -1.
</event>
<event>
 8    1  0.6380400E-009  0.1326783E+03  0.7561462E-02  0.1223535E+00
         -2   -1    0    0    0  501 -0.00000000000E+00  0.00000000000E+00  0.33751057108E+02  0.33751057108E+02  0.00000000000E+00 0.  1.
          2   -1    0    0  501    0  0.00000000000E+00 -0.00000000000E+00 -0.83791289842E+03  0.83791289842E+03  0.00000000000E+00 0. -1.
         25    2    1    2    0    0  0.34883034637E+02  0.10079939795E+03 -0.61049101355E+03  0.63223931364E+03  0.12509966965E+03 0.  0.
         23    2    1    2    0    0 -0.34883034637E+02 -0.10079939795E+03 -0.19367082776E+03  0.23942464189E+03  0.91860899669E+02 0.  0.
          5    1    3    3  502    0 -0.32727507310E+02  0.23463531030E+01 -0.25641500168E+03  0.25853959193E+03  0.41800000000E+01 0.  1.
         -5    1    3    3    0  502  0.67610541948E+02  0.98453044845E+02 -0.35407601188E+03  0.37369972171E+03  0.41800000000E+01 0.  1.
        -11    1    4    4    0    0 -0.11548991107E+02 -0.25968551699E+01  0.77356633416E+01  0.14140839427E+02  0.00000000000E+00 0.  1.
         11    1    4    4    0    0 -0.23334043531E+02 -0.98202542778E+02 -0.20140649110E+03  0.22528380247E+03  0.00000000000E+00 0. -1.
</event>
<event>
 8    1  0.6380400E-009  0.2563256E+03  0.7561462E-02  0.1109371E+00
         -3   -1    0    0    0  501 -0.00000000000E+00  0.00000000000E+00  0.23304911447E+03  0.23304911447E+03  0.00000000000E+00 0.  1.
          3   -1    0    0  501    0  0.00000000000E+00 -0.00000000000E+00 -0.29392917112E+03  0.29392917112E+03  0.00000000000E+00 0. -1.
         25    2    1    2    0    0 -0.22030115776E+03 -0.88355430673E+02 -0.16428247605E+02  0.26880675315E+03  0.12509157038E+03 0.  0.
         23    2    1    2    0    0  0.22030115776E+03  0.88355430673E+02 -0.44451809043E+02  0.25817153245E+03  0.91308787081E+02 0.  0.
          5    1    3    3  502    0 -0.78537000938E+02 -0.95529304189E+02  0.10811939360E+02  0.12421062317E+03  0.41800000000E+01 0. -1.
         -5    1    3    3    0  502 -0.14176415682E+03  0.71738735156E+01 -0.27240186966E+02  0.14459612998E+03  0.41800000000E+01 0. -1.
        -11    1    4    4    0    0  0.11946389196E+03  0.83875515057E+02  0.43998525145E+01  0.14603452404E+03  0.00000000000E+00 0.  1.
         11    1    4    4    0    0  0.10083726580E+03  0.44799156157E+01 -0.48851661558E+02  0.11213700841E+03  0.00000000000E+00 0. -1.
</event>
<event>
 8    1  0.6380400E-009  0.1070842E+03  0.7561462E-02  0.1266067E+00
          1   -1    0    0  501    0  0.00000000000E+00  0.00000000000E+00  0.31534035905E+03  0.31534035905E+03  0.00000000000E+00 0. -1.
         -1   -1    0    0    0  501 -0.00000000000E+00 -0.00000000000E+00 -0.38849393729E+02  0.38849393729E+02  0.00000000000E+00 0.  1.
         25    2    1    2    0    0  0.24967548740E+00  0.13609901942E+02  0.12945287786E+03  0.18052771739E+03  0.12508763884E+03 0.  0.
         23    2    1    2    0    0 -0.24967548740E+00 -0.13609901942E+02  0.14703808746E+03  0.17366203539E+03  0.91394811689E+02 0.  0.
          5    1    3    3  502    0 -0.51292644998E+02 -0.26691886992E+02  0.78011125452E+02  0.97193623024E+02  0.41800000000E+01 0.  1.
         -5    1    3    3    0  502  0.51542320486E+02  0.40301788935E+02  0.51441752409E+02  0.83334094363E+02  0.41800000000E+01 0.  1.
        -11    1    4    4    0    0 -0.42815467708E+02 -0.20574173551E+02  0.93819888209E+02  0.10516003193E+03  0.00000000000E+00 0. -1.
         11    1    4    4    0    0  0.42565792221E+02  0.69642716084E+01  0.53218199246E+02  0.68502003455E+02  0.00000000000E+00 0.  1.
</event>
<event>
 8    1  0.6380400E-009  0.1584595E+03  0.7561462E-02  0.1190447E+00
         -2   -1    0    0    0  501 -0.00000000000E+00  0.00000000000E+00  0.87449314940E+02  0.87449314940E+02  0.00000000000E+00 0.  1.
          2   -1    0    0  501    0  0.00000000000E+00 -0.00000000000E+00 -0.36378719185E+03  0.36378719185E+03  0.00000000000E+00 0. -1.
         25    2    1    2    0    0  0.91330294651E+02 -0.10722045961E+03 -0.15061329869E+03  0.24118199274E+03  0.12508772201E+03 0.  0.
         23    2    1    2    0    0 -0.91330294651E+02  0.10722045961E+03 -0.12572457822E+03  0.21005451406E+03  0.92080289017E+02 0.  0.
          5    1    3    3  502    0  0.97948907644E+02 -0.54277544191E+02 -0.15053254735E+03  0.18766342351E+03  0.41800000000E+01 0. -1.
         -5    1    3    3    0  502 -0.66186129933E+01 -0.52942915422E+02 -0.80751342878E-01  0.53518569227E+02  0.41800000000E+01 0. -1.
        -11    1    4    4    0    0 -0.66378913483E+02  0.10755200808E+03 -0.13357914256E+03  0.18389394205E+03  0.00000000000E+00 0. -1.
         11    1    4    4    0    0 -0.24951381168E+02 -0.33154846951E+00  0.78545643352E+01  0.26160572002E+02  0.00000000000E+00 0.  1.
</event>
<event>
 8    1  0.6380400E-009  0.1488220E+03  0.7561462E-02  0.1201928E+00
          4   -1    0    0  501    0  0.00000000000E+00  0.00000000000E+00  0.25817942711E+03  0.25817942711E+03  0.00000000000E+00 0. -1.
         -4   -1    0    0    0  501 -0.00000000000E+00 -0.00000000000E+00 -0.12059186430E+03  0.12059186430E+03  0.00000000000E+00 0.  1.
         25    2    1    2    0    0  0.82793988387E+02  0.88292264122E+02 -0.52904280029E+00  0.17406151470E+03  0.12508702010E+03 0.  0.
         23    2    1    2    0    0 -0.82793988387E+02 -0.88292264122E+02  0.13811660561E+03  0.20470977672E+03  0.90440740382E+02 0.  0.
          5    1    3    3  502    0  0.97408217834E+02  0.10949206462E+03  0.74027682635E+01  0.14679627547E+03  0.41800000000E+01 0. -1.
         -5    1    3    3    0  502 -0.14614229447E+02 -0.21199800494E+02 -0.79318110638E+01  0.27265239226E+02  0.41800000000E+01 0. -1.
        -11    1    4    4    0    0 -0.35463756265E+02 -0.60313434967E+02  0.17454324737E+02  0.72111316019E+02  0.00000000000E+00 0.  1.
         11    1    4    4    0    0 -0.47330232122E+02 -0.27978829155E+02  0.12066228087E+03  0.13259846070E+03  0.00000000000E+00 0. -1.
</event>
<event>
 8    1  0.6380400E-009  0.9302568E+02  0.7561462E-02  0.1295686E+00
          1   -1    0    0  501    0  0.00000000000E+00  0.00000000000E+00  0.83875963935E+03  0.83875963935E+03  0.00000000000E+00 0. -1.
         -1   -1    0    0    0  501 -0.00000000000E+00 -0.00000000000E+00 -0.18776022692E+02  0.18776022692E+02  0.00000000000E+00 0.  1.
         25    2    1    2    0    0 -0.45280738561E+01 -0.24364445244E+02  0.66058491126E+03  0.67278056261E+03  0.12508849185E+03 0.  0.
         23    2    1    2    0    0  0.45280738561E+01  0.24364445244E+02  0.15939870540E+03  0.18475509943E+03  0.90068695113E+02 0.  0.
          5    1    3    3  502    0 -0.40182622600E+02  0.29280901029E+02  0.14882995322E+03  0.15697083073E+03  0.41800000000E+01 0.  1.
         -5    1    3    3    0  502  0.35654548744E+02 -0.53645346273E+02  0.51175495804E+03  0.51580973188E+03  0.41800000000E+01 0.  1.
        -11    1    4    4    0    0 -0.10136209598E+02  0.45092122780E+02  0.15115030402E+03  0.15805839644E+03  0.00000000000E+00 0. -1.
         11    1    4    4    0    0  0.14664283454E+02 -0.20727677536E+02  0.82484013821E+01  0.26696702991E+02  0.00000000000E+00 0.  1.
</event>
<event>
 8    1  0.6380400E-009  0.1111286E+03  0.7561462E-02  0.1258494E+00
         -2   -1    0    0    0  501 -0.00000000000E+00  0.00000000000E+00  0.59512201994E+02  0.59512201994E+02  0.00000000000E+00 0.  1.
          2   -1    0    0  501    0  0.00000000000E+00 -0.00000000000E+00 -0.21932848161E+03  0.21932848161E+03  0.00000000000E+00 0. -1.
         25    2    1    2    0    0  0.21984304400E+02 -0.10613587863E+02 -0.12061684272E+03  0.17547649523E+03  0.12509044625E+03 0.  0.
         23    2    1    2    0    0 -0.21984304400E+02  0.10613587863E+02 -0.39199436897E+02  0.10336418838E+03  0.92474870635E+02 0.  0.
          5    1    3    3  502    0  0.70282350542E+02  0.15737621019E+02 -0.72236847050E+02  0.10209268331E+03  0.41800000000E+01 0. -1.
         -5    1    3    3    0  502 -0.48298046143E+02 -0.26351208882E+02 -0.48379995670E+02  0.73383811919E+02  0.41800000000E+01 0. -1.
        -11    1    4    4    0    0  0.26080066801E+02 -0.24207590662E+02 -0.20841198934E+02  0.41237518148E+02  0.00000000000E+00 0.  1.
         11    1    4    4    0    0 -0.48064371201E+02  0.34821178525E+02 -0.18358237963E+02  0.62126670230E+02  0.00000000000E+00 0. -1.
</event>
<event>
 8    1  0.6380400E-009  0.8878483E+02  0.7561462E-02  0.1305821E+00
         -1   -1    0    0    0  501 -0.00000000000E+00  0.00000000000E+00  0.54319476828E+02  0.54319476828E+02  0.00000000000E+00 0.  1.
          1   -1    0    0  501    0  0.00000000000E+00 -0.00000000000E+00 -0.29851765057E+03  0.29851765057E+03  0.00000000000E+00 0. -1.
         25    2    1    2    0    0 -0.48476408396E+02  0.46560059364E+01 -0.19813075165E+03  0.23932176224E+03  0.12508984999E+03 0.  0.
         23    2    1    2    0    0  0.48476408396E+02 -0.46560059364E+01 -0.46067422090E+02  0.11351536515E+03  0.91607260551E+02 0.  0.
          5    1    3    3  502    0 -0.37425304335E+02  0.46216043865E+02 -0.18468888161E+03  0.19407223270E+03  0.41800000000E+01 0.  1.
         -5    1    3    3    0  502 -0.11051104061E+02 -0.41560037929E+02 -0.13441870041E+02  0.45249529542E+02  0.41800000000E+01 0.  1.
        -11    1    4    4    0    0 -0.74710205888E+01 -0.16002444928E+02 -0.53135069743E+02  0.55993124836E+02  0.00000000000E+00 0. -1.
         11    1    4    4    0    0  0.55947428984E+02  0.11346438992E+02  0.70676476531E+01  0.57522240317E+02  0.00000000000E+00 0.  1.
</event>
<event>
 8    1  0.6380400E-009  0.1414139E+03  0.7561462E-02  0.1211439E+00
          2   -1    0    0  501    0  0.00000000000E+00  0.00000000000E+00  0.28703189722E+03  0.28703189722E+03  0.00000000000E+00 0. -1.
         -2   -1    0    0    0  501 -0.00000000000E+00 -0.00000000000E+00 -0.72302890161E+02  0.72302890161E+02  0.00000000000E+00 0.  1.
         25    2    1    2    0    0 -0.45553593978E+02  0.87905353367E+02  0.97377508475E+02  0.18690190650E+03  0.12508981742E+03 0.  0.
         23    2    1    2    0    0  0.45553593978E+02 -0.87905353367E+02  0.11735149858E+03  0.17243288088E+03  0.78480845525E+02 0.  0.
          5    1    3    3  502    0  0.12038482983E+02  0.98673670055E+02  0.49522976612E+02  0.11113692387E+03  0.41800000000E+01 0. -1.
         -5    1    3    3    0  502 -0.57592076961E+02 -0.10768316689E+02  0.47854531863E+02  0.75764982630E+02  0.41800000000E+01 0. -1.
        -11    1    4    4    0    0  0.62508636092E+02 -0.41090084288E+02  0.84126321122E+02  0.11257425336E+03  0.00000000000E+00 0. -1.
         11    1    4    4    0    0 -0.16955042114E+02 -0.46815269079E+02  0.33225177462E+02  0.59858627527E+02  0.00000000000E+00 0.  1.
</event>
<event>
 8    1  0.6380400E-009  0.2131159E+03  0.7561462E-02  0.1139122E+00
          2   -1    0    0  501    0  0.00000000000E+00  0.00000000000E+00  0.18715849094E+03  0.18715849094E+03  0.00000000000E+00 0.  1.
         -2   -1    0    0    0  501 -0.00000000000E+00 -0.00000000000E+00 -0.26410958627E+03  0.26410958627E+03  0.00000000000E+00 0. -1.
         25    2    1    2    0    0 -0.32465821570E+01 -0.18556399134E+03 -0.77362179542E+01  0.22394707446E+03  0.12509159809E+03 0.  0.
         23    2    1    2    0    0  0.32465821570E+01  0.18556399134E+03 -0.69214877377E+02  0.22732100275E+03  0.11153297209E+03 0.  0.
          5    1    3    3  502    0  0.98411640536E+01  0.97234325132E+01  0.21602222976E+02  0.25990807745E+02  0.41800000000E+01 0. -1.
         -5    1    3    3    0  502 -0.13087746211E+02 -0.19528742385E+03 -0.29338440930E+02  0.19795626671E+03  0.41800000000E+01 0. -1.
        -11    1    4    4    0    0 -0.38568768354E+02  0.16493103763E+03 -0.47706819218E+02  0.17597084323E+03  0.00000000000E+00 0.  1.
         11    1    4    4    0    0  0.41815350511E+02  0.20632953707E+02 -0.21508058160E+02  0.51350159521E+02  0.00000000000E+00 0. -1.
</event>
<event>
 8    1  0.6380400E-009  0.8739953E+02  0.7561462E-02  0.1309274E+00
         -2   -1    0    0    0  501 -0.00000000000E+00  0.00000000000E+00  0.14996639858E+03  0.14996639858E+03  0.00000000000E+00 0.  1.
          2   -1    0    0  501    0  0.00000000000E+00 -0.00000000000E+00 -0.10193469619E+03  0.10193469619E+03  0.00000000000E+00 0. -1.
         25    2    1    2    0    0  0.44672730012E+02  0.17086007866E+02  0.63930098783E+02  0.14840456168E+03  0.12509705003E+03 0.  0.
         23    2    1    2    0    0 -0.44672730012E+02 -0.17086007866E+02 -0.15898396388E+02  0.10349653309E+03  0.90394628616E+02 0.  0.
          5    1    3    3  502    0  0.51844124203E+02  0.51817864340E+02 -0.19760244219E+01  0.73445771503E+02  0.41800000000E+01 0.  1.
         -5    1    3    3    0  502 -0.71713941909E+01 -0.34731856474E+02  0.65906123204E+02  0.74958790176E+02  0.41800000000E+01 0.  1.
        -11    1    4    4    0    0  0.83028017410E+01 -0.87152332777E+01 -0.42113316771E+02  0.43799808873E+02  0.00000000000E+00 0. -1.
         11    1    4    4    0    0 -0.52975531753E+02 -0.83707745887E+01  0.26214920383E+02  0.59696724218E+02  0.00000000000E+00 0.  1.
</event>
<event>
 8    1  0.6380400E-009  0.9327994E+02  0.7561462E-02  0.1295098E+00
         -1   -1    0    0    0  501 -0.00000000000E+00  0.00000000000E+00  0.74498514276E+03  0.74498514276E+03  0.00000000000E+00 0.  1.
          1   -1    0    0  501    0  0.00000000000E+00 -0.00000000000E+00 -0.17976232081E+02  0.17976232081E+02  0.00000000000E+00 0. -1.
         25    2    1    2    0    0  0.57693959531E+01  0.65987123115E+01  0.54561249720E+03  0.55983689902E+03  0.12509007740E+03 0.  0.
         23    2    1    2    0    0 -0.57693959531E+01 -0.65987123115E+01  0.18139641347E+03  0.20312447582E+03  0.90983871774E+02 0.  0.
          5    1    3    3  502    0 -0.99607885256E+01  0.53541481865E+02  0.43699514844E+03  0.44039543566E+03  0.41800000000E+01 0. -1.
         -5    1    3    3    0  502  0.15730184479E+02 -0.46942769553E+02  0.10861734876E+03  0.11944146336E+03  0.41800000000E+01 0. -1.
        -11    1    4    4    0    0  0.81954281414E+01 -0.42735366445E+02  0.13919123253E+03  0.14583441226E+03  0.00000000000E+00 0.  1.
         11    1    4    4    0    0 -0.13964824094E+02  0.36136654133E+02  0.42205180948E+02  0.57290063561E+02  0.00000000000E+00 0. -1.
</event>
<event>
 8    1  0.6380400E-009  0.1300697E+03  0.7561462E-02  0.1227352E+00
         -3   -1    0    0    0  501 -0.00000000000E+00  0.00000000000E+00  0.28307545335E+03  0.28307545335E+03  0.00000000000E+00 0.  1.
          3   -1    0    0  501    0  0.00000000000E+00 -0.00000000000E+00 -0.76298974344E+02  0.76298974344E+02  0.00000000000E+00 0. -1.
         25    2    1    2    0    0 -0.21956513034E+01 -0.98646028113E+02  0.10384818338E+03  0.19018306600E+03  0.12509713688E+03 0.  0.
         23    2    1    2    0    0  0.21956513034E+01  0.98646028113E+02  0.10292829563E+03  0.16919136169E+03  0.91080311172E+02 0.  0.
          5    1    3    3  502    0 -0.87565574494E+01 -0.11109579515E+03  0.30827326813E+02  0.11570112133E+03  0.41800000000E+01 0. -1.
         -5    1    3    3    0  502  0.65609061460E+01  0.12449767036E+02  0.73020856568E+02  0.74481944676E+02  0.41800000000E+01 0. -1.
        -11    1    4    4    0    0  0.43665891186E+02  0.73350907889E+02  0.71322891425E+02  0.11123857506E+03  0.00000000000E+00 0.  1.
         11    1    4    4    0    0 -0.41470239882E+02  0.25295120224E+02  0.31605404200E+02  0.57952786626E+02  0.00000000000E+00 0. -1.
</event>
<event>
 8    1  0.6380400E-009  0.6375940E+02  0.7561462E-02  0.1382700E+00
          2   -1    0    0  501    0  0.00000000000E+00  0.00000000000E+00  0.25399815871E+02  0.25399815871E+02  0.00000000000E+00 0. -1.
         -2   -1    0    0    0  501 -0.00000000000E+00 -0.00000000000E+00 -0.51284825867E+03  0.51284825867E+03  0.00000000000E+00 0.  1.
         25    2    1    2    0    0  0.15918656379E+02 -0.13049707103E+02 -0.21300968888E+03  0.24787637269E+03  0.12508345257E+03 0.  0.
         23    2    1    2    0    0 -0.15918656379E+02  0.13049707103E+02 -0.27443875392E+03  0.29037170185E+03  0.92603440017E+02 0.  0.
          5    1    3    3  502    0  0.22315923090E+02 -0.32480283276E+01  0.96409484388E+01  0.24879115703E+02  0.41800000000E+01 0.  1.
         -5    1    3    3    0  502 -0.63972667108E+01 -0.98016787751E+01 -0.22265063732E+03  0.22299725699E+03  0.41800000000E+01 0.  1.
        -11    1    4    4    0    0 -0.41042905990E+02  0.38584906376E+02 -0.19967010848E+03  0.20746437611E+03  0.00000000000E+00 0. -1.
         11    1    4    4    0    0  0.25124249611E+02 -0.25535199273E+02 -0.74768645439E+02  0.82907325739E+02  0.00000000000E+00 0.  1.
</event>
<event>
 8    1  0.6380400E-009  0.1714808E+03  0.7561462E-02  0.1176312E+00
         -2   -1    0    0    0  501 -0.00000000000E+00  0.00000000000E+00  0.86930780173E+02  0.86930780173E+02  0.00000000000E+00 0. -1.
          2   -1    0    0  501    0  0.00000000000E+00 -0.00000000000E+00 -0.40718717836E+03  0.40718717836E+03  0.00000000000E+00 0.  1.
         25    2    1    2    0    0 -0.46481403134E+02  0.14398179014E+03 -0.17342141906E+03  0.26194237648E+03  0.12509014061E+03 0.  0.
         23    2    1    2    0    0  0.46481403134E+02 -0.14398179014E+03 -0.14683497913E+03  0.23217558205E+03  0.97230206601E+02 0.  0.
          5    1    3    3  502    0 -0.56199795707E+02  0.15218999822E+03 -0.18365801496E+03  0.24508764036E+03  0.41800000000E+01 0.  1.
         -5    1    3    3    0  502  0.97183925722E+01 -0.82082080763E+01  0.10236595905E+02  0.16854736122E+02  0.41800000000E+01 0.  1.
        -11    1    4    4    0    0 -0.12667716084E+02 -0.76523907108E+02 -0.26272051972E+02  0.81893834350E+02  0.00000000000E+00 0. -1.
         11    1    4    4    0    0  0.59149119218E+02 -0.67457883037E+02 -0.12056292716E+03  0.15028174770E+03  0.00000000000E+00 0.  1.
</event>
<event>
 8    1  0.6380400E-009  0.1263642E+03  0.7561462E-02  0.1232953E+00
          1   -1    0    0  501    0  0.00000000000E+00  0.00000000000E+00  0.41501054272E+03  0.41501054272E+03  0.00000000000E+00 0. -1.
         -1   -1    0    0    0  501 -0.00000000000E+00 -0.00000000000E+00 -0.65922710249E+02  0.65922710249E+02  0.00000000000E+00 0.  1.
         25    2    1    2    0    0 -0.24796155644E+02 -0.91001400833E+02  0.68946625441E+02  0.17116560131E+03  0.12509165290E+03 0.  0.
         23    2    1    2    0    0  0.24796155644E+02  0.91001400833E+02  0.28014120703E+03  0.30976765165E+03  0.92632596037E+02 0.  0.
          5    1    3    3  502    0  0.14987361798E+02  0.57504565397E+01  0.64258813008E+02  0.66365323877E+02  0.41800000000E+01 0. -1.
         -5    1    3    3    0  502 -0.39783517442E+02 -0.96751857373E+02  0.46878124327E+01  0.10480027744E+03  0.41800000000E+01 0. -1.
        -11    1    4    4    0    0 -0.27586610797E+02  0.69584250529E+02  0.14293559508E+03  0.16134922795E+03  0.00000000000E+00 0.  1.
         11    1    4    4    0    0  0.52382766442E+02  0.21417150304E+02  0.13720561194E+03  0.14841842371E+03  0.00000000000E+00 0. -1.
</event>
<event>
 8    1  0.6380400E-009  0.1306201E+03  0.7561462E-02  0.1226538E+00
          2   -1    0    0  501    0  0.00000000000E+00  0.00000000000E+00  0.13907381530E+04  0.13907381530E+04  0.00000000000E+00 0. -1.
         -2   -1    0    0    0  501 -0.00000000000E+00 -0.00000000000E+00 -0.20889274325E+02  0.20889274325E+02  0.00000000000E+00 0.  1.
         25    2    1    2    0    0 -0.48178102262E+02  0.10556857972E+03  0.98665166185E+03  0.10012964267E+04  0.12508867953E+03 0.  0.
         23    2    1    2    0    0  0.48178102262E+02 -0.10556857972E+03  0.38319721682E+03  0.41033100061E+03  0.89808510297E+02 0.  0.
          5    1    3    3  502    0 -0.23185519699E+02  0.96080168675E+02  0.34052870914E+03  0.35460716474E+03  0.41800000000E+01 0.  1.
         -5    1    3    3    0  502 -0.24992582563E+02  0.94884110449E+01  0.64612295271E+03  0.64668926197E+03  0.41800000000E+01 0.  1.
        -11    1    4    4    0    0  0.63443843378E+02 -0.60477459776E+02  0.31633005596E+03  0.32824891273E+03  0.00000000000E+00 0. -1.
         11    1    4    4    0    0 -0.15265741116E+02 -0.45091119944E+02  0.66867160857E+02  0.82082087879E+02  0.00000000000E+00 0.  1.
</event>
<event>
 8    1  0.6380400E-009  0.1094643E+03  0.7561462E-02  0.1261565E+00
         -1   -1    0    0    0  501 -0.00000000000E+00  0.00000000000E+00  0.77215358099E+02  0.77215358099E+02  0.00000000000E+00 0.  1.
          1   -1    0    0  501    0  0.00000000000E+00 -0.00000000000E+00 -0.26839478213E+03  0.26839478213E+03  0.00000000000E+00 0. -1.
         25    2    1    2    0    0 -0.16269259323E+02 -0.90230868524E+02 -0.76342324287E+02  0.17286459368E+03  0.12509084233E+03 0.  0.
         23    2    1    2    0    0  0.16269259323E+02  0.90230868524E+02 -0.11483709974E+03  0.17274554655E+03  0.90813908306E+02 0.  0.
          5    1    3    3  502    0  0.27816602245E+02 -0.25015785268E+02 -0.85582778346E+02  0.93495653495E+02  0.41800000000E+01 0. -1.
         -5    1    3    3    0  502 -0.44085861568E+02 -0.65215083256E+02  0.92404540593E+01  0.79368940182E+02  0.41800000000E+01 0. -1.
        -11    1    4    4    0    0 -0.95420051804E+00  0.84202541524E+02 -0.12585591361E+03  0.15142882648E+03  0.00000000000E+00 0. -1.
         11    1    4    4    0    0  0.17223459841E+02  0.60283270002E+01  0.11018813872E+02  0.21316720068E+02  0.00000000000E+00 0.  1.
</event>
<event>
 8    1  0.6380400E-009  0.1222317E+03  0.7561462E-02  0.1239460E+00
         -1   -1    0    0    0  501 -0.00000000000E+00  0.00000000000E+00  0.74408242581E+02  0.74408242581E+02  0.00000000000E+00 0.  1.
          1   -1    0    0  501    0  0.00000000000E+00 -0.00000000000E+00 -0.35047910148E+03  0.35047910148E+03  0.00000000000E+00 0. -1.
         25    2    1    2    0    0 -0.43072235597E+02 -0.40116449496E+02 -0.11030964276E+02  0.13868491513E+03  0.12508907431E+03 0.  0.
         23    2    1    2    0    0  0.43072235597E+02  0.40116449496E+02 -0.26503989462E+03  0.28620242893E+03  0.90560132432E+02 0.  0.
          5    1    3    3  502    0 -0.42513510787E+02 -0.83950322774E+02 -0.84730993370E+01  0.94574420990E+02  0.41800000000E+01 0. -1.
         -5    1    3    3    0  502 -0.55872481077E+00  0.43833873278E+02 -0.25578649390E+01  0.44110494137E+02  0.41800000000E+01 0. -1.
        -11    1    4    4    0    0  0.55736781411E+02 -0.81528618636E+01 -0.16606543691E+03  0.17535902399E+03  0.00000000000E+00 0.  1.
         11    1    4    4    0    0 -0.12664545814E+02  0.48269311359E+02 -0.98974457706E+02  0.11084340494E+03  0.00000000000E+00 0. -1.
</event>
<event>
 8    1  0.6380400E-009  0.1320647E+03  0.7561462E-02  0.1224424E+00
          1   -1    0    0  501    0  0.00000000000E+00  0.00000000000E+00  0.17813836064E+03  0.17813836064E+03  0.00000000000E+00 0. -1.
         -1   -1    0    0    0  501 -0.00000000000E+00 -0.00000000000E+00 -0.12607822112E+03  0.12607822112E+03  0.00000000000E+00 0.  1.
         25    2    1    2    0    0  0.75298145302E+02  0.81586997680E+02  0.22325273139E+02  0.16873671423E+03  0.12508961601E+03 0.  0.
         23    2    1    2    0    0 -0.75298145302E+02 -0.81586997680E+02  0.29734866380E+02  0.13547986752E+03  0.71724356736E+02 0.  0.
          5    1    3    3  502    0  0.89330601580E+02  0.88484865159E+02 -0.16300439445E+02  0.12685702372E+03  0.41800000000E+01 0. -1.
         -5    1    3    3    0  502 -0.14032456278E+02 -0.68978674791E+01  0.38625712583E+02  0.41879690514E+02  0.41800000000E+01 0. -1.
        -11    1    4    4    0    0 -0.49477337709E+02 -0.82614690302E+02  0.28217256065E+00  0.96297838095E+02  0.00000000000E+00 0.  1.
         11    1    4    4    0    0 -0.25820807592E+02  0.10276926224E+01  0.29452693820E+02  0.39182029428E+02  0.00000000000E+00 0. -1.
</event>
<event>
 8    1  0.6380400E-009  0.1255133E+03  0.7561462E-02  0.1234269E+00
         -1   -1    0    0    0  501 -0.00000000000E+00  0.00000000000E+00  0.63090491727E+02  0.63090491727E+02  0.00000000000E+00 0.  1.
          1   -1    0    0  501    0  0.00000000000E+00 -0.00000000000E+00 -0.28550547676E+03  0.28550547676E+03  0.00000000000E+00 0. -1.
         25    2    1    2    0    0 -0.65151837722E+02 -0.10434455363E+02 -0.68655128896E+02  0.15720698564E+03  0.12508744859E+03 0.  0.
         23    2    1    2    0    0  0.65151837722E+02  0.10434455363E+02 -0.15375985614E+03  0.19138898285E+03  0.92919371381E+02 0.  0.
          5    1    3    3  502    0  0.34785122733E+02 -0.20525384933E+02 -0.24337128973E+02  0.47339882095E+02  0.41800000000E+01 0. -1.
         -5    1    3    3    0  502 -0.99936960455E+02  0.10090929570E+02 -0.44317999923E+02  0.10986710355E+03  0.41800000000E+01 0. -1.
        -11    1    4    4    0    0  0.19158463766E+02  0.47243424197E+02 -0.46426048530E+02  0.68951909661E+02  0.00000000000E+00 0.  1.
         11    1    4    4    0    0  0.45993373956E+02 -0.36808968834E+02 -0.10733380761E+03  0.12243707319E+03  0.00000000000E+00 0. -1.
</event>
<event>
 8    1  0.6380400E-009  0.1047035E+03  0.7561462E-02  0.1270705E+00
         -2   -1    0    0    0  501 -0.00000000000E+00  0.00000000000E+00  0.84219896081E+03  0.84219896081E+03  0.00000000000E+00 0.  1.
          2   -1    0    0  501    0  0.00000000000E+00 -0.00000000000E+00 -0.15819872259E+02  0.15819872259E+02  0.00000000000E+00 0. -1.
         25    2    1    2    0    0 -0.37807041947E+02 -0.49950963539E+02  0.56664640116E+03  0.58366167006E+03  0.12509328508E+03 0.  0.
         23    2    1    2    0    0  0.37807041947E+02  0.49950963539E+02  0.25973268739E+03  0.27435716300E+03  0.62340298484E+02 0.  0.
          5    1    3    3  502    0 -0.46173645742E+02  0.23525139510E+02  0.11804453656E+03  0.12898613399E+03  0.41800000000E+01 0.  1.
         -5    1    3    3    0  502  0.83666037947E+01 -0.73476103049E+02  0.44860186460E+03  0.45467553607E+03  0.41800000000E+01 0.  1.
        -11    1    4    4    0    0  0.39531831562E+02  0.60713134425E+02  0.24789907928E+03  0.25826885973E+03  0.00000000000E+00 0.  1.
         11    1    4    4    0    0 -0.17247896151E+01 -0.10762170886E+02  0.11833608106E+02  0.16088303273E+02  0.00000000000E+00 0. -1.
</event>
<event>
 8    1  0.6380400E-009  0.9677855E+02  0.7561462E-02  0.1287220E+00
         -1   -1    0    0    0  501 -0.00000000000E+00  0.00000000000E+00  0.68973151197E+02  0.68973151197E+02  0.00000000000E+00 0.  1.
          1   -1    0    0  501    0  0.00000000000E+00 -0.00000000000E+00 -0.33155413239E+03  0.33155413239E+03  0.00000000000E+00 0. -1.
         25    2    1    2    0    0 -0.55318043179E+02  0.38233523965E+02 -0.24512495656E+03  0.28329405993E+03  0.12508953517E+03 0.  0.
         23    2    1    2    0    0  0.55318043179E+02 -0.38233523965E+02 -0.17456024638E+02  0.11723322366E+03  0.94430014705E+02 0.  0.
          5    1    3    3  502    0 -0.14032389527E+02 -0.19559448004E+02  0.35066769665E+01  0.24682972783E+02  0.41800000000E+01 0.  1.
         -5    1    3    3    0  502 -0.41285653652E+02  0.57792971969E+02 -0.24863163352E+03  0.25861108715E+03  0.41800000000E+01 0.  1.
        -11    1    4    4    0    0 -0.39077779878E+01  0.16727646303E+02  0.21511522211E+02  0.27528720775E+02  0.00000000000E+00 0.  1.
         11    1    4    4    0    0  0.59225821167E+02 -0.54961170268E+02 -0.38967546849E+02  0.89704502884E+02  0.00000000000E+00 0. -1.
</event>
<event>
 7    1  0.6380400E-009  0.7820543E+02  0.7561462E-02  0.1334223E+00
         -1   -1    0    0    0  501 -0.00000000000E+00  0.00000000000E+00  0.95897065816E+02  0.95897065816E+02  0.00000000000E+00 0.  1.
          1   -1    0    0  501    0  0.00000000000E+00 -0.00000000000E+00 -0.12738836110E+03  0.12738836110E+03  0.00000000000E+00 0. -1.
         23    2    1    2    0    0 -0.17847145942E+02 -0.29369872008E+02 -0.52096366188E+01  0.97323227072E+02  0.90904126496E+02 0.  0.
          5    1    1    2  502    0 -0.12283096786E+02  0.51944851506E+02  0.27491356023E+02  0.60186286815E+02  0.41800000000E+01 0.  1.
         -5    1    1    2    0  502  0.30130242728E+02 -0.22574979498E+02 -0.53773014692E+02  0.65775913032E+02  0.41800000000E+01 0.  1.
        -11    1    3    3    0    0 -0.16359543982E+02  0.14037583394E+02  0.33038934392E+02  0.39449456430E+02  0.00000000000E+00 0.  1.
         11    1    3    3    0    0 -0.14876019601E+01 -0.43407455402E+02 -0.38248571011E+02  0.57873770643E+02  0.00000000000E+00 0. -1.
</event>
<event>
 8    1  0.6380400E-009  0.1123967E+03  0.7561462E-02  0.1256195E+00
          2   -1    0    0  501    0  0.00000000000E+00  0.00000000000E+00  0.59920183827E+03  0.59920183827E+03  0.00000000000E+00 0. -1.
         -2   -1    0    0    0  501 -0.00000000000E+00 -0.00000000000E+00 -0.13229298183E+03  0.13229298183E+03  0.00000000000E+00 0.  1.
         25    2    1    2    0    0 -0.47797117301E+02 -0.39649997661E+02  0.56643787221E+03  0.58340015079E+03  0.12508871303E+03 0.  0.
         23    2    1    2    0    0  0.47797117301E+02  0.39649997661E+02 -0.99529015773E+02  0.14809466930E+03  0.90384287118E+02 0.  0.
          5    1    3    3  502    0 -0.42300423132E+02 -0.78686847947E+02  0.48059584288E+03  0.48884637917E+03  0.41800000000E+01 0. -1.
         -5    1    3    3    0  502 -0.54966941691E+01  0.39036850287E+02  0.85842029338E+02  0.94553771622E+02  0.41800000000E+01 0. -1.
        -11    1    4    4    0    0  0.66288920189E+02  0.21204102736E+02 -0.10016176846E+03  0.12196808917E+03  0.00000000000E+00 0.  1.
         11    1    4    4    0    0 -0.18491802888E+02  0.18445894924E+02  0.63275269149E+00  0.26126580136E+02  0.00000000000E+00 0. -1.
</event>
<event>
 8    1  0.6380400E-009  0.1017481E+03  0.7561462E-02  0.1276662E+00
         -1   -1    0    0    0  501 -0.00000000000E+00  0.00000000000E+00  0.22239743633E+02  0.22239743633E+02  0.00000000000E+00 0.  1.
          1   -1    0    0  501    0  0.00000000000E+00 -0.00000000000E+00 -0.74347993935E+03  0.74347993935E+03  0.00000000000E+00 0. -1.
         25    2    1    2    0    0 -0.64510547973E+02 -0.33558676395E+02 -0.42424061736E+03  0.44823572768E+03  0.12508945036E+03 0.  0.
         23    2    1    2    0    0  0.64510547973E+02  0.33558676395E+02 -0.29699957836E+03  0.31748395530E+03  0.85437209507E+02 0.  0.
          5    1    3    3  502    0  0.11393644036E+02 -0.73891696174E+01  0.21157261477E+01  0.14365362828E+02  0.41800000000E+01 0.  1.
         -5    1    3    3    0  502 -0.75904192009E+02 -0.26169506777E+02 -0.42635634351E+03  0.43387036485E+03  0.41800000000E+01 0.  1.
        -11    1    4    4    0    0  0.69242267257E+02 -0.55796604976E+01 -0.15025550181E+03  0.16553652168E+03  0.00000000000E+00 0.  1.
         11    1    4    4    0    0 -0.47317192837E+01  0.39138336892E+02 -0.14674407655E+03  0.15194743362E+03  0.00000000000E+00 0. -1.
</event>
<event>
 8    1  0.6380400E-009  0.1023311E+03  0.7561462E-02  0.1275469E+00
         -1   -1    0    0    0  501 -0.00000000000E+00  0.00000000000E+00  0.22211462438E+02  0.22211462438E+02  0.00000000000E+00 0.  1.
          1   -1    0    0  501    0  0.00000000000E+00 -0.00000000000E+00 -0.64264947281E+03  0.64264947281E+03  0.00000000000E+00 0. -1.
         25    2    1    2    0    0  0.22400689309E+02  0.45759316268E+02 -0.33922495418E+03  0.36513199574E+03  0.12510834853E+03 0.  0.
         23    2    1    2    0    0 -0.22400689309E+02 -0.45759316268E+02 -0.28121305620E+03  0.29972893951E+03  0.90337967075E+02 0.  0.
          5    1    3    3  502    0  0.34485144785E+02 -0.15742768805E+02 -0.27193785011E+02  0.46840520106E+02  0.41800000000E+01 0.  1.
         -5    1    3    3    0  502 -0.12084455477E+02  0.61502085073E+02 -0.31203116916E+03  0.31829147564E+03  0.41800000000E+01 0.  1.
        -11    1    4    4    0    0  0.27608606230E+01  0.26782793108E+02 -0.74617561212E+02  0.79326671424E+02  0.00000000000E+00 0.  1.
         11    1    4    4    0    0 -0.25161549932E+02 -0.72542109376E+02 -0.20659549499E+03  0.22040226809E+03  0.00000000000E+00 0. -1.
</event>
<event>
 8    1  0.6380400E-009  0.1081910E+03  0.7561462E-02  0.1263957E+00
         -2   -1    0    0    0  501 -0.00000000000E+00  0.00000000000E+00  0.17080147343E+03  0.17080147343E+03  0.00000000000E+00 0. -1.
          2   -1    0    0  501    0  0.00000000000E+00 -0.00000000000E+00 -0.10980342155E+03  0.10980342155E+03  0.00000000000E+00 0.  1.
         25    2    1    2    0    0  0.26746883297E+01  0.71570512215E+02  0.77794838717E+02  0.16379511630E+03  0.12508921223E+03 0.  0.
         23    2    1    2    0    0 -0.26746883297E+01 -0.71570512215E+02 -0.16796786836E+02  0.11680977867E+03  0.90735330324E+02 0.  0.
          5    1    3    3  502    0  0.30904430215E+02  0.93766511040E+02  0.80620209206E+02  0.12753169383E+03  0.41800000000E+01 0. -1.
         -5    1    3    3    0  502 -0.28229741885E+02 -0.22195998824E+02 -0.28253704887E+01  0.36263422468E+02  0.41800000000E+01 0. -1.
        -11    1    4    4    0    0 -0.19677178751E+02 -0.51364382182E+02  0.30312294888E+02  0.62803872029E+02  0.00000000000E+00 0. -1.
         11    1    4    4    0    0  0.17002490421E+02 -0.20206130034E+02 -0.47109081724E+02  0.54005906643E+02  0.00000000000E+00 0.  1.
</event>
<event>
 8    1  0.6380400E-009  0.1186246E+03  0.7561462E-02  0.1245383E+00
          1   -1    0    0  501    0  0.00000000000E+00  0.00000000000E+00  0.70529989052E+02  0.70529989052E+02  0.00000000000E+00 0. -1.
         -1   -1    0    0    0  501 -0.00000000000E+00 -0.00000000000E+00 -0.32494741788E+03  0.32494741788E+03  0.00000000000E+00 0.  1.
         25    2    1    2    0    0  0.82876035368E+02 -0.15365999779E+02 -0.54879270601E+02  0.16050222480E+03  0.12507868978E+03 0.  0.
         23    2    1    2    0    0 -0.82876035368E+02  0.15365999779E+02 -0.19953815823E+03  0.23497518213E+03  0.91067603683E+02 0.  0.
          5    1    3    3  502    0  0.77728352149E+02 -0.59693995947E+02 -0.60621258319E+02  0.11531469655E+03  0.41800000000E+01 0. -1.
         -5    1    3    3    0  502  0.51476832186E+01  0.44327996168E+02  0.57419877180E+01  0.45187528254E+02  0.41800000000E+01 0. -1.
        -11    1    4    4    0    0 -0.74261352798E+02  0.27725270823E+02 -0.20432927075E+03  0.21916635246E+03  0.00000000000E+00 0.  1.
         11    1    4    4    0    0 -0.86146825702E+01 -0.12359271044E+02  0.47911125247E+01  0.15808829676E+02  0.00000000000E+00 0. -1.
</event>
<event>
 8    1  0.6380400E-009  0.7707733E+02  0.7561462E-02  0.1337556E+00
         -3   -1    0    0    0  501 -0.00000000000E+00  0.00000000000E+00  0.25973740034E+03  0.25973740034E+03  0.00000000000E+00 0.  1.
          3   -1    0    0  501    0  0.00000000000E+00 -0.00000000000E+00 -0.73073302855E+02  0.73073302855E+02  0.00000000000E+00 0. -1.
         25    2    1    2    0    0 -0.22703204517E+02 -0.15804559360E+02  0.18391997182E+03  0.22414649805E+03  0.12509946826E+03 0.  0.
         23    2    1    2    0    0  0.22703204517E+02  0.15804559360E+02  0.27441256598E+01  0.10866420515E+03  0.10504836820E+03 0.  0.
          5    1    3    3  502    0 -0.51665956323E+02 -0.29289579751E+02  0.18242122355E+03  0.19189118200E+03  0.41800000000E+01 0. -1.
         -5    1    3    3    0  502  0.28962751807E+02  0.13485020391E+02  0.14987482701E+01  0.32255316051E+02  0.41800000000E+01 0. -1.
        -11    1    4    4    0    0  0.18213113458E+02  0.36728485861E+02 -0.42231096652E+02  0.58857155044E+02  0.00000000000E+00 0. -1.
         11    1    4    4    0    0  0.44900910587E+01 -0.20923926501E+02  0.44975222311E+02  0.49807050102E+02  0.00000000000E+00 0.  1.
</event>
<event>
 8    1  0.6380400E-009  0.1240416E+03  0.7561462E-02  0.1236575E+00
          3   -1    0    0  501    0  0.00000000000E+00  0.00000000000E+00  0.16540966193E+03  0.16540966193E+03  0.00000000000E+00 0. -1.
         -3   -1    0    0    0  501 -0.00000000000E+00 -0.00000000000E+00 -0.14957736269E+03  0.14957736269E+03  0.00000000000E+00 0.  1.
         25    2    1    2    0    0  0.67219365239E+02 -0.48907437858E+02 -0.69657032509E+02  0.16556954934E+03  0.12510312926E+03 0.  0.
         23    2    1    2    0    0 -0.67219365239E+02  0.48907437858E+02  0.85489331749E+02  0.14941747527E+03  0.90037633974E+02 0.  0.
          5    1    3    3  502    0  0.10441667998E+03 -0.33842464520E+02 -0.51822299302E+02  0.12145443001E+03  0.41800000000E+01 0.  1.
         -5    1    3    3    0  502 -0.37197314742E+02 -0.15064973338E+02 -0.17834733207E+02  0.44115119338E+02  0.41800000000E+01 0.  1.
        -11    1    4    4    0    0 -0.30088979109E+01 -0.10189120657E+02 -0.13678913777E+02  0.17320055673E+02  0.00000000000E+00 0.  1.
         11    1    4    4    0    0 -0.64210467328E+02  0.59096558515E+02  0.99168245527E+02  0.13209741959E+03  0.00000000000E+00 0. -1.
</event>
<event>
 8    1  0.6380400E-009  0.1018159E+03  0.7561462E-02  0.1276523E+00
          2   -1    0    0  501    0  0.00000000000E+00  0.00000000000E+00  0.55729898823E+03  0.55729898823E+03  0.00000000000E+00 0. -1.
         -2   -1    0    0    0  501 -0.00000000000E+00 -0.00000000000E+00 -0.30615564536E+02  0.30615564536E+02  0.00000000000E+00 0.  1.
         25    2    1    2    0    0  0.40356493197E+02  0.34998517704E+02  0.40405429804E+03  0.42633528409E+03  0.12509338875E+03 0.  0.
         23    2    1    2    0    0 -0.40356493197E+02 -0.34998517704E+02  0.12262912565E+03  0.16157926868E+03  0.90644441765E+02 0.  0.
          5    1    3    3  502    0  0.20987289953E+02 -0.41448695156E+02  0.23709720590E+03  0.24164233511E+03  0.41800000000E+01 0.  1.
         -5    1    3    3    0  502  0.19369203244E+02  0.76447212860E+02  0.16695709214E+03  0.18469294898E+03  0.41800000000E+01 0.  1.
        -11    1    4    4    0    0 -0.24991229531E+02 -0.50400032464E+02  0.12743470515E+03  0.13929942176E+03  0.00000000000E+00 0. -1.
         11    1    4    4    0    0 -0.15365263666E+02  0.15401514760E+02 -0.48055794951E+01  0.22279846919E+02  0.00000000000E+00 0.  1.
</event>
<event>
 8    1  0.6380400E-009  0.1809089E+03  0.7561462E-02  0.1166926E+00
          1   -1    0    0  501    0  0.00000000000E+00  0.00000000000E+00  0.90690060089E+03  0.90690060089E+03  0.00000000000E+00 0. -1.
         -1   -1    0    0    0  501 -0.00000000000E+00 -0.00000000000E+00 -0.46317106101E+02  0.46317106101E+02  0.00000000000E+00 0.  1.
         25    2    1    2    0    0 -0.15764233939E+03  0.65316802174E+02  0.52341277477E+03  0.56455761676E+03  0.12508788123E+03 0.  0.
         23    2    1    2    0    0  0.15764233939E+03 -0.65316802174E+02  0.33717072002E+03  0.38866009024E+03  0.90858018290E+02 0.  0.
          5    1    3    3  502    0 -0.98445055237E+02  0.77441925541E+02  0.46040635258E+03  0.47715842508E+03  0.41800000000E+01 0.  1.
         -5    1    3    3    0  502 -0.59197284155E+02 -0.12125123367E+02  0.63006422192E+02  0.87399191675E+02  0.41800000000E+01 0.  1.
        -11    1    4    4    0    0  0.19485732877E+02 -0.25597002913E+02  0.14582718123E+03  0.14933340929E+03  0.00000000000E+00 0. -1.
         11    1    4    4    0    0  0.13815660652E+03 -0.39719799261E+02  0.19134353879E+03  0.23932668095E+03  0.00000000000E+00 0.  1.
</event>
<event>
 8    1  0.6380400E-009  0.1015250E+03  0.7561462E-02  0.1277121E+00
         -2   -1    0    0    0  501 -0.00000000000E+00  0.00000000000E+00  0.22990448197E+03  0.22990448197E+03  0.00000000000E+00 0.  1.
          2   -1    0    0  501    0  0.00000000000E+00 -0.00000000000E+00 -0.74804191336E+02  0.74804191336E+02  0.00000000000E+00 0. -1.
         25    2    1    2    0    0 -0.10767383828E+00 -0.54644837231E+02  0.40372204742E+02  0.14234257442E+03  0.12508166831E+03 0.  0.
         23    2    1    2    0    0  0.10767383828E+00  0.54644837231E+02  0.11472808589E+03  0.16236609889E+03  0.10106506095E+03 0.  0.
          5    1    3    3  502    0  0.31979595966E+02 -0.78740274883E+02 -0.25086405079E+00  0.85089721938E+02  0.41800000000E+01 0. -1.
         -5    1    3    3    0  502 -0.32087269805E+02  0.24095437651E+02  0.40623068793E+02  0.57252852482E+02  0.41800000000E+01 0. -1.
        -11    1    4    4    0    0 -0.23876925863E+02  0.80263380496E+01 -0.99733032512E+01  0.27092369200E+02  0.00000000000E+00 0. -1.
         11    1    4    4    0    0  0.23984599701E+02  0.46618499182E+02  0.12470138914E+03  0.13527372969E+03  0.00000000000E+00 0.  1.
</event>
<event>
 8    1  0.6380400E-009  0.1128126E+03  0.7561462E-02  0.1255448E+00
         -3   -1    0    0    0  501 -0.00000000000E+00  0.00000000000E+00  0.81630257812E+02  0.81630257812E+02  0.00000000000E+00 0.  1.
          3   -1    0    0  501    0  0.00000000000E+00 -0.00000000000E+00 -0.18826713594E+03  0.18826713594E+03  0.00000000000E+00 0. -1.
         25    2    1    2    0    0 -0.41449281190E+02  0.99584578455E+01 -0.99380087095E+01  0.13252764518E+03  0.12509036304E+03 0.  0.
         23    2    1    2    0    0  0.41449281190E+02 -0.99584578455E+01 -0.96698869414E+02  0.13736974857E+03  0.87764244891E+02 0.  0.
          5    1    3    3  502    0 -0.45352135809E+02 -0.50458306492E+02 -0.20350534541E+02  0.70954024358E+02  0.41800000000E+01 0. -1.
         -5    1    3    3    0  502  0.39028546191E+01  0.60416764338E+02  0.10412525832E+02  0.61573620824E+02  0.41800000000E+01 0. -1.
        -11    1    4    4    0    0  0.29054088491E+02 -0.48468520117E+02 -0.63782189149E+02  0.85214465633E+02  0.00000000000E+00 0. -1.
         11    1    4    4    0    0  0.12395192698E+02  0.38510062271E+02 -0.32916680264E+02  0.52155282933E+02  0.00000000000E+00 0.  1.
</event>
<event>
 8    1  0.6380400E-009  0.2824956E+03  0.7561462E-02  0.1094334E+00
          2   -1    0    0  501    0  0.00000000000E+00  0.00000000000E+00  0.15578248163E+04  0.15578248163E+04  0.00000000000E+00 0. -1.
         -2   -1    0    0    0  501 -0.00000000000E+00 -0.00000000000E+00 -0.64362581256E+02  0.64362581256E+02  0.00000000000E+00 0.  1.
         25    2    1    2    0    0  0.21694501695E+03 -0.16931594362E+03  0.10500605003E+04  0.10927064840E+04  0.12508947483E+03 0.  0.
         23    2    1    2    0    0 -0.21694501695E+03  0.16931594362E+03  0.44340173471E+03  0.52948091354E+03  0.89509274987E+02 0.  0.
          5    1    3    3  502    0  0.79884908442E+01 -0.11553359171E+02  0.25936485223E+03  0.25977855005E+03  0.41800000000E+01 0.  1.
         -5    1    3    3    0  502  0.20895652611E+03 -0.15776258445E+03  0.79069564807E+03  0.83292793394E+03  0.41800000000E+01 0.  1.
        -11    1    4    4    0    0 -0.17422930844E+03  0.17309446705E+03  0.39147148236E+03  0.46213360399E+03  0.00000000000E+00 0. -1.
         11    1    4    4    0    0 -0.42715708514E+02 -0.37785234236E+01  0.51930252357E+02  0.67347309545E+02  0.00000000000E+00 0.  1.
</event>
<event>
 8    1  0.6380400E-009  0.1065362E+03  0.7561462E-02  0.1267122E+00
          2   -1    0    0  501    0  0.00000000000E+00  0.00000000000E+00  0.63017101394E+03  0.63017101394E+03  0.00000000000E+00 0.  1.
         -2   -1    0    0    0  501 -0.00000000000E+00 -0.00000000000E+00 -0.24394573872E+02  0.24394573872E+02  0.00000000000E+00 0. -1.
         25    2    1    2    0    0 -0.46278303962E+02  0.11818228768E+02  0.43749611487E+03  0.45753749825E+03  0.12512537644E+03 0.  0.
         23    2    1    2    0    0  0.46278303962E+02 -0.11818228768E+02  0.16828032520E+03  0.19702808956E+03  0.90666687812E+02 0.  0.
          5    1    3    3  502    0 -0.44021396848E+02 -0.47049701566E+02  0.13913147839E+03  0.15338382729E+03  0.41800000000E+01 0. -1.
         -5    1    3    3    0  502 -0.22569071138E+01  0.58867930334E+02  0.29836463648E+03  0.30415367095E+03  0.41800000000E+01 0. -1.
        -11    1    4    4    0    0  0.67628609616E+00 -0.37233022865E+02  0.25850968674E+02  0.45332415950E+02  0.00000000000E+00 0.  1.
         11    1    4    4    0    0  0.45602017866E+02  0.25414794096E+02  0.14242935653E+03  0.15169567361E+03  0.00000000000E+00 0. -1.
</event>
<event>
 8    1  0.6380400E-009  0.1025269E+03  0.7561462E-02  0.1275070E+00
          1   -1    0    0  501    0  0.00000000000E+00  0.00000000000E+00  0.73369180246E+03  0.73369180246E+03  0.00000000000E+00 0. -1.
         -1   -1    0    0    0  501 -0.00000000000E+00 -0.00000000000E+00 -0.29386402665E+02  0.29386402665E+02  0.00000000000E+00 0.  1.
         25    2    1    2    0    0  0.76281616456E+02 -0.45493767130E+01  0.54681642248E+03  0.56613135124E+03  0.12512763534E+03 0.  0.
         23    2    1    2    0    0 -0.76281616456E+02  0.45493767130E+01  0.15748897731E+03  0.19694685388E+03  0.90253550852E+02 0.  0.
          5    1    3    3  502    0  0.40313503987E+02 -0.25061615056E+02  0.50462114613E+03  0.50686609344E+03  0.41800000000E+01 0.  1.
         -5    1    3    3    0  502  0.35968112469E+02  0.20512238343E+02  0.42195276347E+02  0.59265257803E+02  0.41800000000E+01 0.  1.
        -11    1    4    4    0    0  0.19642274747E+02 -0.12827067252E+01  0.44218681036E+02  0.48402025229E+02  0.00000000000E+00 0. -1.
         11    1    4    4    0    0 -0.95923891203E+02  0.58320834383E+01  0.11327029627E+03  0.14854482865E+03  0.00000000000E+00 0.  1.
</event>
<event>
 8    1  0.6380400E-009  0.1427208E+03  0.7561462E-02  0.1209714E+00
         -1   -1    0    0    0  501 -0.00000000000E+00  0.00000000000E+00  0.69564511382E+02  0.69564511382E+02  0.00000000000E+00 0.  1.
          1   -1    0    0  501    0  0.00000000000E+00 -0.00000000000E+00 -0.36288204415E+03  0.36288204415E+03  0.00000000000E+00 0. -1.
         25    2    1    2    0    0 -0.10846501136E+03  0.25547054760E+02 -0.11656670584E+03  0.20408669464E+03  0.12508505635E+03 0.  0.
         23    2    1    2    0    0  0.10846501136E+03 -0.25547054760E+02 -0.17675082693E+03  0.22835986089E+03  0.92141524564E+02 0.  0.
          5    1    3    3  502    0 -0.70501682555E+02  0.57646253724E+02 -0.17023369884E+02  0.92740742577E+02  0.41800000000E+01 0. -1.
         -5    1    3    3    0  502 -0.37963328807E+02 -0.32099198964E+02 -0.99543335951E+02  0.11134595206E+03  0.41800000000E+01 0. -1.
        -11    1    4    4    0    0 -0.12460247088E+02 -0.19712378445E+02 -0.24212253998E+02  0.33616496919E+02  0.00000000000E+00 0.  1.
         11    1    4    4    0    0  0.12092525845E+03 -0.58346763149E+01 -0.15253857293E+03  0.19474336397E+03  0.00000000000E+00 0. -1.
</event>
<event>
 8    1  0.6380400E-009  0.1184458E+03  0.7561462E-02  0.1245683E+00
          2   -1    0    0  501    0  0.00000000000E+00  0.00000000000E+00  0.10232416551E+03  0.10232416551E+03  0.00000000000E+00 0. -1.
         -2   -1    0    0    0  501 -0.00000000000E+00 -0.00000000000E+00 -0.14802520709E+03  0.14802520709E+03  0.00000000000E+00 0.  1.
         25    2    1    2    0    0  0.51587523795E+02 -0.21683699301E+02 -0.10094638332E+02  0.13740969057E+03  0.12509222962E+03 0.  0.
         23    2    1    2    0    0 -0.51587523795E+02  0.21683699301E+02 -0.35606403251E+02  0.11293968203E+03  0.91411708213E+02 0.  0.
          5    1    3    3  502    0  0.63024240328E+02  0.38728224359E+02 -0.14979207417E+02  0.75589544817E+02  0.41800000000E+01 0.  1.
         -5    1    3    3    0  502 -0.11436716533E+02 -0.60411923660E+02  0.48845690850E+01  0.61820145749E+02  0.41800000000E+01 0.  1.
        -11    1    4    4    0    0  0.98957020064E+01  0.36594386610E+02 -0.31935842545E+02  0.49567853379E+02  0.00000000000E+00 0.  1.
         11    1    4    4    0    0 -0.61483225801E+02 -0.14910687309E+02 -0.36705607057E+01  0.63371828653E+02  0.00000000000E+00 0. -1.
</event>
<event>
 8    1  0.6380400E-009  0.8821097E+02  0.7561462E-02  0.1307243E+00
         -2   -1    0    0    0  501 -0.00000000000E+00  0.00000000000E+00  0.87332100748E+02  0.87332100748E+02  0.00000000000E+00 0.  1.
          2   -1    0    0  501    0  0.00000000000E+00 -0.00000000000E+00 -0.13321065501E+03  0.13321065501E+03  0.00000000000E+00 0. -1.
         25    2    1    2    0    0  0.10495048183E+02  0.16815092608E+02 -0.51481694930E+02  0.13671450368E+03  0.12509035625E+03 0.  0.
         23    2    1    2    0    0 -0.10495048183E+02 -0.16815092608E+02  0.56031406682E+01  0.83828252081E+02  0.81258152119E+02 0.  0.
          5    1    3    3  502    0 -0.72565238054E+00 -0.42479004029E+02 -0.62040059318E+02  0.75308921881E+02  0.41800000000E+01 0.  1.
         -5    1    3    3    0  502  0.11220700563E+02  0.59294096637E+02  0.10558364389E+02  0.61405581796E+02  0.41800000000E+01 0.  1.
        -11    1    4    4    0    0 -0.40889607124E+02 -0.96344766506E+01  0.23190736148E+02  0.47985345202E+02  0.00000000000E+00 0.  1.
         11    1    4    4    0    0  0.30394558942E+02 -0.71806159569E+01 -0.17587595479E+02  0.35842906879E+02  0.00000000000E+00 0. -1.
</event>
<event>
 8    1  0.6380400E-009  0.1509409E+03  0.7561462E-02  0.1199322E+00
         -2   -1    0    0    0  501 -0.00000000000E+00  0.00000000000E+00  0.33823724443E+02  0.33823724443E+02  0.00000000000E+00 0.  1.
          2   -1    0    0  501    0  0.00000000000E+00 -0.00000000000E+00 -0.74617099539E+03  0.74617099539E+03  0.00000000000E+00 0. -1.
         25    2    1    2    0    0 -0.11104618378E+03  0.13590285513E+02 -0.44349597741E+03  0.47418584993E+03  0.12509031738E+03 0.  0.
         23    2    1    2    0    0  0.11104618378E+03 -0.13590285513E+02 -0.26885129354E+03  0.30580886990E+03  0.93392162862E+02 0.  0.
          5    1    3    3  502    0 -0.13458965514E+03 -0.49096647916E+01 -0.32350155831E+03  0.35044145118E+03  0.41800000000E+01 0.  1.
         -5    1    3    3    0  502  0.23543471368E+02  0.18499950305E+02 -0.11999441910E+03  0.12374439875E+03  0.41800000000E+01 0.  1.
        -11    1    4    4    0    0  0.12034461734E+03  0.11327758590E+00 -0.18756662056E+03  0.22285438498E+03  0.00000000000E+00 0. -1.
         11    1    4    4    0    0 -0.92984335689E+01 -0.13703563099E+02 -0.81284672974E+02  0.82954484924E+02  0.00000000000E+00 0.  1.
</event>
<event>
 8    1  0.6380400E-009  0.9182767E+02  0.7561462E-02  0.1298485E+00
         -2   -1    0    0    0  501 -0.00000000000E+00  0.00000000000E+00  0.25417851318E+02  0.25417851318E+02  0.00000000000E+00 0.  1.
          2   -1    0    0  501    0  0.00000000000E+00 -0.00000000000E+00 -0.75029642122E+03  0.75029642122E+03  0.00000000000E+00 0. -1.
         25    2    1    2    0    0  0.60302217531E+02  0.59415457528E+02 -0.41857068470E+03  0.44498778798E+03  0.12508460865E+03 0.  0.
         23    2    1    2    0    0 -0.60302217531E+02 -0.59415457528E+02 -0.30630788520E+03  0.33072648456E+03  0.91591118692E+02 0.  0.
          5    1    3    3  502    0  0.59171369618E+02  0.28425728875E+02 -0.74038521763E+02  0.99037609772E+02  0.41800000000E+01 0.  1.
         -5    1    3    3    0  502  0.11308479136E+01  0.30989728653E+02 -0.34453216294E+03  0.34595017820E+03  0.41800000000E+01 0.  1.
        -11    1    4    4    0    0 -0.46423538104E+02 -0.33703002515E+02 -0.29309922442E+03  0.29866066467E+03  0.00000000000E+00 0. -1.
         11    1    4    4    0    0 -0.13878679427E+02 -0.25712455013E+02 -0.13208660779E+02  0.32065819887E+02  0.00000000000E+00 0.  1.
</event>
<event>
 8    1  0.6380400E-009  0.8937879E+02  0.7561462E-02  0.1304363E+00
          1   -1    0    0  501    0  0.00000000000E+00  0.00000000000E+00  0.57719119142E+02  0.57719119142E+02  0.00000000000E+00 0.  1.
         -1   -1    0    0    0  501 -0.00000000000E+00 -0.00000000000E+00 -0.28438430252E+03  0.28438430252E+03  0.00000000000E+00 0. -1.
         25    2    1    2    0    0  0.33482911816E+02  0.44311434367E+02 -0.17324392888E+03  0.22078314426E+03  0.12508848587E+03 0.  0.
         23    2    1    2    0    0 -0.33482911816E+02 -0.44311434367E+02 -0.53421254494E+02  0.12132027740E+03  0.93702564942E+02 0.  0.
          5    1    3    3  502    0  0.18759676687E+02 -0.11945461700E+02 -0.15921794088E+03  0.16081804819E+03  0.41800000000E+01 0. -1.
         -5    1    3    3    0  502  0.14723235128E+02  0.56256896067E+02 -0.14025988000E+02  0.59965096073E+02  0.41800000000E+01 0. -1.
        -11    1    4    4    0    0 -0.10597421400E+02 -0.65671795352E+02 -0.92217659215E+01  0.67157508975E+02  0.00000000000E+00 0.  1.
         11    1    4    4    0    0 -0.22885490416E+02  0.21360360985E+02 -0.44199488573E+02  0.54162768422E+02  0.00000000000E+00 0. -1.
</event>
<event>
 8    1  0.6380400E-009  0.1407669E+03  0.7561462E-02  0.1212301E+00
         -2   -1    0    0    0  501 -0.00000000000E+00  0.00000000000E+00  0.30950295402E+02  0.30950295402E+02  0.00000000000E+00 0.  1.
          2   -1    0    0  501    0  0.00000000000E+00 -0.00000000000E+00 -0.69864807884E+03  0.69864807884E+03  0.00000000000E+00 0. -1.
         25    2    1    2    0    0 -0.50361027359E+01  0.97490861521E+02 -0.31403577529E+03  0.35184990675E+03  0.12510019306E+03 0.  0.
         23    2    1    2    0    0  0.50361027359E+01 -0.97490861521E+02 -0.35366200814E+03  0.37774846749E+03  0.89929184797E+02 0.  0.
          5    1    3    3  502    0 -0.14702611615E+02 -0.23776822193E+02 -0.23197322845E+02  0.36566272015E+02  0.41800000000E+01 0.  1.
         -5    1    3    3    0  502  0.96665088788E+01  0.12126768371E+03 -0.29083845245E+03  0.31528363473E+03  0.41800000000E+01 0.  1.
        -11    1    4    4    0    0  0.13736799590E+02 -0.11296170142E+03 -0.32103177108E+03  0.34060305884E+03  0.00000000000E+00 0. -1.
         11    1    4    4    0    0 -0.87006968539E+01  0.15470839899E+02 -0.32630237061E+02  0.37145408648E+02  0.00000000000E+00 0.  1.
</event>
<event>
 8    1  0.6380400E-009  0.8608886E+02  0.7561462E-02  0.1312609E+00
         -1   -1    0    0    0  501 -0.00000000000E+00  0.00000000000E+00  0.16174858180E+02  0.16174858180E+02  0.00000000000E+00 0.  1.
          1   -1    0    0  501    0  0.00000000000E+00 -0.00000000000E+00 -0.85473475714E+03  0.85473475714E+03  0.00000000000E+00 0. -1.
         25    2    1    2    0    0  0.27536585822E+02 -0.35133209687E+02 -0.51415828897E+03  0.53103566208E+03  0.12509005675E+03 0.  0.
         23    2    1    2    0    0 -0.27536585822E+02  0.35133209687E+02 -0.32440160999E+03  0.33987395324E+03  0.91023587868E+02 0.  0.
          5    1    3    3  502    0  0.53902025483E+02 -0.19213757228E+00 -0.45011472355E+03  0.45334997742E+03  0.41800000000E+01 0. -1.
         -5    1    3    3    0  502 -0.26365439662E+02 -0.34941072114E+02 -0.64043565420E+02  0.77685684658E+02  0.41800000000E+01 0. -1.
        -11    1    4    4    0    0 -0.20377639250E+02  0.51983080877E+02 -0.31377859303E+03  0.31870753729E+03  0.00000000000E+00 0. -1.
         11    1    4    4    0    0 -0.71589465719E+01 -0.16849871191E+02 -0.10623016958E+02  0.21166415957E+02  0.00000000000E+00 0.  1.
</event>
<event>
 8    1  0.6380400E-009  0.5631566E+02  0.7561462E-02  0.1413978E+00
         -1   -1    0    0    0  501 -0.00000000000E+00  0.00000000000E+00  0.16732196562E+03  0.16732196562E+03  0.00000000000E+00 0.  1.
          1   -1    0    0  501    0  0.00000000000E+00 -0.00000000000E+00 -0.80751030670E+02  0.80751030670E+02  0.00000000000E+00 0. -1.
         25    2    1    2    0    0  0.12922661494E+02  0.36177001298E+02  0.69899338185E+02  0.14835533732E+03  0.12509043940E+03 0.  0.
         23    2    1    2    0    0 -0.12922661494E+02 -0.36177001298E+02  0.16671596763E+02  0.99717658968E+02  0.90498059474E+02 0.  0.
          5    1    3    3  502    0  0.75595851246E+00  0.17863627625E+01  0.10047075794E+03  0.10057637976E+03  0.41800000000E+01 0.  1.
         -5    1    3    3    0  502  0.12166702981E+02  0.34390638535E+02 -0.30571419750E+02  0.47778957563E+02  0.41800000000E+01 0.  1.
        -11    1    4    4    0    0 -0.19732046896E+02  0.11704191309E+02 -0.26385741620E+02  0.34964970038E+02  0.00000000000E+00 0.  1.
         11    1    4    4    0    0  0.68093854027E+01 -0.47881192606E+02  0.43057338384E+02  0.64752688930E+02  0.00000000000E+00 0. -1.
</event>
<event>
 8    1  0.6380400E-009  0.9028957E+02  0.7561462E-02  0.1302152E+00
         -1   -1    0    0    0  501 -0.00000000000E+00  0.00000000000E+00  0.41711982103E+02  0.41711982103E+02  0.00000000000E+00 0. -1.
          1   -1    0    0  501    0  0.00000000000E+00 -0.00000000000E+00 -0.31213483852E+03  0.31213483852E+03  0.00000000000E+00 0.  1.
         25    2    1    2    0    0 -0.13044036707E+02  0.14828190781E+02 -0.19441017677E+03  0.23201557551E+03  0.12508352533E+03 0.  0.
         23    2    1    2    0    0  0.13044036707E+02 -0.14828190781E+02 -0.76012679647E+02  0.12183124512E+03  0.93139157632E+02 0.  0.
          5    1    3    3  502    0 -0.27339068211E+02 -0.29134537294E+02 -0.93794766272E+01  0.41251580525E+02  0.41800000000E+01 0.  1.
         -5    1    3    3    0  502  0.14295031504E+02  0.43962728076E+02 -0.18503070014E+03  0.19076399498E+03  0.41800000000E+01 0.  1.
        -11    1    4    4    0    0  0.21639796661E+01 -0.53639688876E+02 -0.52897127514E+02  0.75365808759E+02  0.00000000000E+00 0.  1.
         11    1    4    4    0    0  0.10880057041E+02  0.38811498095E+02 -0.23115552134E+02  0.46465436359E+02  0.00000000000E+00 0. -1.
</event>
<event>
 8    1  0.6380400E-009  0.1232650E+03  0.7561462E-02  0.1237806E+00
         -1   -1    0    0    0  501 -0.00000000000E+00  0.00000000000E+00  0.38361271775E+03  0.38361271775E+03  0.00000000000E+00 0.  1.
          1   -1    0    0  501    0  0.00000000000E+00 -0.00000000000E+00 -0.42774736452E+02  0.42774736452E+02  0.00000000000E+00 0. -1.
         25    2    1    2    0    0 -0.56562021763E+02 -0.19795724671E+02  0.13451652337E+03  0.19321685918E+03  0.12508767561E+03 0.  0.
         23    2    1    2    0    0  0.56562021763E+02  0.19795724671E+02  0.20632145792E+03  0.23317059502E+03  0.90602700634E+02 0.  0.
          5    1    3    3  502    0  0.28918553478E+02  0.28031623863E+02  0.43739175258E+02  0.59604047882E+02  0.41800000000E+01 0.  1.
         -5    1    3    3    0  502 -0.85480575241E+02 -0.47827348534E+02  0.90777348114E+02  0.13361281129E+03  0.41800000000E+01 0.  1.
        -11    1    4    4    0    0 -0.40262098236E+01  0.42949133130E+02  0.94922334159E+02  0.10426450942E+03  0.00000000000E+00 0. -1.
         11    1    4    4    0    0  0.60588231587E+02 -0.23153408459E+02  0.11139912376E+03  0.12890608560E+03  0.00000000000E+00 0.  1.
</event>
<event>
 8    1  0.6380400E-009  0.9511421E+02  0.7561462E-02  0.1290919E+00
         -2   -1    0    0    0  501 -0.00000000000E+00  0.00000000000E+00  0.11111425526E+02  0.11111425526E+02  0.00000000000E+00 0.  1.
          2   -1    0    0  501    0  0.00000000000E+00 -0.00000000000E+00 -0.21369690125E+04  0.21369690125E+04  0.00000000000E+00 0. -1.
         25    2    1    2    0    0 -0.10016485917E+02 -0.31546660935E+02 -0.18636222080E+04  0.18681087755E+04  0.12508853349E+03 0.  0.
         23    2    1    2    0    0  0.10016485917E+02  0.31546660935E+02 -0.26223537898E+03  0.27997166251E+03  0.92310432862E+02 0.  0.
          5    1    3    3  502    0  0.11328491072E+02 -0.75514688837E+02 -0.13448378813E+04  0.13470104685E+04  0.41800000000E+01 0.  1.
         -5    1    3    3    0  502 -0.21344976989E+02  0.43968027902E+02 -0.51878432668E+03  0.52109830697E+03  0.41800000000E+01 0.  1.
        -11    1    4    4    0    0  0.74973063479E+00 -0.16122107915E+02 -0.32380740898E+01  0.16461153771E+02  0.00000000000E+00 0.  1.
         11    1    4    4    0    0  0.92667552822E+01  0.47668768850E+02 -0.25899730489E+03  0.26351050874E+03  0.00000000000E+00 0. -1.
</event>
<event>
 8    1  0.6380400E-009  0.1101795E+03  0.7561462E-02  0.1260238E+00
          1   -1    0    0  501    0  0.00000000000E+00  0.00000000000E+00  0.52420146545E+02  0.52420146545E+02  0.00000000000E+00 0. -1.
         -1   -1    0    0    0  501 -0.00000000000E+00 -0.00000000000E+00 -0.27869351110E+03  0.27869351110E+03  0.00000000000E+00 0.  1.
         25    2    1    2    0    0  0.27475221603E+02  0.38927292097E+02 -0.10776071835E+03  0.17184379472E+03  0.12509074903E+03 0.  0.
         23    2    1    2    0    0 -0.27475221603E+02 -0.38927292097E+02 -0.11851264620E+03  0.15926986292E+03  0.95138951291E+02 0.  0.
          5    1    3    3  502    0  0.41063042048E+02 -0.33590875302E+02 -0.19371632544E+02  0.56632613159E+02  0.41800000000E+01 0. -1.
         -5    1    3    3    0  502 -0.13587820445E+02  0.72518167399E+02 -0.88389085809E+02  0.11521118156E+03  0.41800000000E+01 0. -1.
        -11    1    4    4    0    0 -0.36402423130E+02  0.14420320802E+02 -0.13985962759E+02  0.41577508536E+02  0.00000000000E+00 0. -1.
         11    1    4    4    0    0  0.89272015265E+01 -0.53347612899E+02 -0.10452668344E+03  0.11769235438E+03  0.00000000000E+00 0.  1.
</event>
<event>
 8    1  0.6380400E-009  0.1123619E+03  0.7561462E-02  0.1256257E+00
          2   -1    0    0  501    0  0.00000000000E+00  0.00000000000E+00  0.61567580173E+03  0.61567580173E+03  0.00000000000E+00 0. -1.
         -2   -1    0    0    0  501 -0.00000000000E+00 -0.00000000000E+00 -0.23951154764E+02  0.23951154764E+02  0.00000000000E+00 0.  1.
         25    2    1    2    0    0 -0.40122571179E+02  0.48581500084E+01  0.25579096038E+03  0.28759358982E+03  0.12509050785E+03 0.  0.
         23    2    1    2    0    0  0.40122571179E+02 -0.48581500084E+01  0.33593368658E+03  0.35203336667E+03  0.97173181125E+02 0.  0.
          5    1    3    3  502    0  0.44314721350E+02  0.89296505728E+00  0.64030379798E+02  0.77986882564E+02  0.41800000000E+01 0.  1.
         -5    1    3    3    0  502 -0.84437292529E+02  0.39651849511E+01  0.19176058058E+03  0.20960670726E+03  0.41800000000E+01 0.  1.
        -11    1    4    4    0    0  0.59713259064E+02  0.20849379059E+02  0.14233250537E+03  0.15575272710E+03  0.00000000000E+00 0.  1.
         11    1    4    4    0    0 -0.19590687886E+02 -0.25707529067E+02  0.19360118121E+03  0.19628063957E+03  0.00000000000E+00 0. -1.
</event>
<event>
 8    1  0.6380400E-009  0.9968511E+02  0.7561462E-02  0.1280960E+00
         -4   -1    0    0    0  501 -0.00000000000E+00  0.00000000000E+00  0.63818040391E+02  0.63818040391E+02  0.00000000000E+00 0.  1.
          4   -1    0    0  501    0  0.00000000000E+00 -0.00000000000E+00 -0.22808673314E+03  0.22808673314E+03  0.00000000000E+00 0. -1.
         25    2    1    2    0    0  0.20560898791E+02 -0.39736019569E+02 -0.12204417080E+03  0.18039886646E+03  0.12508904662E+03 0.  0.
         23    2    1    2    0    0 -0.20560898791E+02  0.39736019569E+02 -0.42224521944E+02  0.11150590707E+03  0.92999759393E+02 0.  0.
          5    1    3    3  502    0 -0.29302147041E+02  0.20501916839E+02 -0.87863141843E+02  0.94954454923E+02  0.41800000000E+01 0. -1.
         -5    1    3    3    0  502  0.49863045833E+02 -0.60237936408E+02 -0.34181028960E+02  0.85444411538E+02  0.41800000000E+01 0. -1.
        -11    1    4    4    0    0 -0.18623669636E+02 -0.18813963745E+02  0.14310381956E+02  0.30093077846E+02  0.00000000000E+00 0.  1.
         11    1    4    4    0    0 -0.19372291551E+01  0.58549983314E+02 -0.56534903900E+02  0.81412829221E+02  0.00000000000E+00 0. -1.
</event>
<event>
 8    1  0.6380400E-009  0.9853602E+02  0.7561462E-02  0.1283405E+00
          1   -1    0    0  501    0  0.00000000000E+00  0.00000000000E+00  0.49304972232E+03  0.49304972232E+03  0.00000000000E+00 0. -1.
         -1   -1    0    0    0  501 -0.00000000000E+00 -0.00000000000E+00 -0.41753416630E+02  0.41753416630E+02  0.00000000000E+00 0.  1.
         25    2    1    2    0    0 -0.77614559797E+02 -0.50867804850E+02  0.21688594285E+03  0.26701835005E+03  0.12509090134E+03 0.  0.
         23    2    1    2    0    0  0.77614559797E+02  0.50867804850E+02  0.23441036284E+03  0.26778478889E+03  0.90271376937E+02 0.  0.
          5    1    3    3  502    0 -0.36690606463E+02 -0.11502436216E+02  0.20530310075E+03  0.20891467689E+03  0.41800000000E+01 0.  1.
         -5    1    3    3    0  502 -0.40923953333E+02 -0.39365368634E+02  0.11582842098E+02  0.58103673164E+02  0.41800000000E+01 0.  1.
        -11    1    4    4    0    0  0.70114280910E+02  0.24863312104E+02  0.73370407067E+02  0.10448642644E+03  0.00000000000E+00 0.  1.
         11    1    4    4    0    0  0.75002788872E+01  0.26004492746E+02  0.16103995577E+03  0.16329836246E+03  0.00000000000E+00 0. -1.
</event>
<event>
 8    1  0.6380400E-009  0.2232868E+03  0.7561462E-02  0.1131456E+00
          2   -1    0    0  501    0  0.00000000000E+00  0.00000000000E+00  0.68885659367E+03  0.68885659367E+03  0.00000000000E+00 0. -1.
         -2   -1    0    0    0  501 -0.00000000000E+00 -0.00000000000E+00 -0.89543660765E+02  0.89543660765E+02  0.00000000000E+00 0.  1.
         25    2    1    2    0    0  0.13397748966E+03  0.15978621093E+03  0.43548879497E+03  0.49877523421E+03  0.12507854644E+03 0.  0.
         23    2    1    2    0    0 -0.13397748966E+03 -0.15978621093E+03  0.16382413794E+03  0.27962502023E+03  0.88714163626E+02 0.  0.
          5    1    3    3  502    0  0.15425504249E+03  0.13010293883E+03  0.32564752117E+03  0.38312553200E+03  0.41800000000E+01 0. -1.
         -5    1    3    3    0  502 -0.20277552834E+02  0.29683272097E+02  0.10984127380E+03  0.11564970221E+03  0.41800000000E+01 0. -1.
        -11    1    4    4    0    0 -0.51257347877E+02 -0.63432821006E+02  0.13205776917E+02  0.82616166918E+02  0.00000000000E+00 0.  1.
         11    1    4    4    0    0 -0.82720141779E+02 -0.96353389923E+02  0.15061836102E+03  0.19700885331E+03  0.00000000000E+00 0. -1.
</event>
<event>
 8    1  0.6380400E-009  0.6335487E+02  0.7561462E-02  0.1384269E+00
          1   -1    0    0  501    0  0.00000000000E+00  0.00000000000E+00  0.31081727235E+03  0.31081727235E+03  0.00000000000E+00 0. -1.
         -1   -1    0    0    0  501 -0.00000000000E+00 -0.00000000000E+00 -0.48639225529E+02  0.48639225529E+02  0.00000000000E+00 0.  1.
         25    2    1    2    0    0  0.53774868776E+02 -0.23193488394E+02  0.15520799429E+03  0.20776900550E+03  0.12509501884E+03 0.  0.
         23    2    1    2    0    0 -0.53774868776E+02  0.23193488394E+02  0.10697005253E+03  0.15168749238E+03  0.90204372349E+02 0.  0.
          5    1    3    3  502    0  0.44005297009E+02 -0.24379033976E+02 -0.16884296058E+01  0.50508679026E+02  0.41800000000E+01 0. -1.
         -5    1    3    3    0  502  0.97695717672E+01  0.11855455812E+01  0.15689642389E+03  0.15726032647E+03  0.41800000000E+01 0. -1.
        -11    1    4    4    0    0 -0.19367456911E+02 -0.61457766115E+01 -0.12561845335E+02  0.23888677560E+02  0.00000000000E+00 0.  1.
         11    1    4    4    0    0 -0.34407411866E+02  0.29339265006E+02  0.11953189787E+03  0.12779881482E+03  0.00000000000E+00 0. -1.
</event>
<event>
 8    1  0.6380400E-009  0.1631653E+03  0.7561462E-02  0.1185169E+00
          2   -1    0    0  501    0  0.00000000000E+00  0.00000000000E+00  0.24183773780E+03  0.24183773780E+03  0.00000000000E+00 0. -1.
         -2   -1    0    0    0  501 -0.00000000000E+00 -0.00000000000E+00 -0.12604898656E+03  0.12604898656E+03  0.00000000000E+00 0.  1.
         25    2    1    2    0    0 -0.10558843459E+03 -0.84476665007E+02  0.68934307758E+02  0.19667242372E+03  0.12507149561E+03 0.  0.
         23    2    1    2    0    0  0.10558843459E+03  0.84476665007E+02  0.46854443487E+02  0.17121430064E+03  0.93988155745E+02 0.  0.
          5    1    3    3  502    0 -0.32638790139E+02  0.30021492490E+02  0.42234205692E+00  0.44544712434E+02  0.41800000000E+01 0.  1.
         -5    1    3    3    0  502 -0.72949644451E+02 -0.11449815750E+03  0.68511965702E+02  0.15212771128E+03  0.41800000000E+01 0.  1.
        -11    1    4    4    0    0  0.82676118724E+02  0.31914721995E+02 -0.11545706379E+02  0.89371099485E+02  0.00000000000E+00 0.  1.
         11    1    4    4    0    0  0.22912315866E+02  0.52561943012E+02  0.58400149865E+02  0.81843201158E+02  0.00000000000E+00 0. -1.
</event>
<event>
 8    1  0.6380400E-009  0.1192508E+03  0.7561462E-02  0.1244338E+00
          2   -1    0    0  501    0  0.00000000000E+00  0.00000000000E+00  0.87304771876E+03  0.87304771876E+03  0.00000000000E+00 0. -1.
         -2   -1    0    0    0  501 -0.00000000000E+00 -0.00000000000E+00 -0.21991312586E+02  0.21991312586E+02  0.00000000000E+00 0.  1.
         25    2    1    2    0    0  0.47857817387E+02  0.16387964694E+02  0.68931484211E+03  0.70239706142E+03  0.12509094401E+03 0.  0.
         23    2    1    2    0    0 -0.47857817387E+02 -0.16387964694E+02  0.16174156407E+03  0.19264196993E+03  0.91605998477E+02 0.  0.
          5    1    3    3  502    0  0.36242704907E+02  0.70403071287E+02  0.38539230328E+03  0.39346515212E+03  0.41800000000E+01 0. -1.
         -5    1    3    3    0  502  0.11615112480E+02 -0.54015106593E+02  0.30392253882E+03  0.30893190930E+03  0.41800000000E+01 0. -1.
        -11    1    4    4    0    0 -0.74588348074E+02 -0.50354809764E+01  0.10492322383E+03  0.12883190845E+03  0.00000000000E+00 0.  1.
         11    1    4    4    0    0  0.26730530686E+02 -0.11352483718E+02  0.56818340241E+02  0.63810061472E+02  0.00000000000E+00 0. -1.
</event>
<event>
 8    1  0.6380400E-009  0.1121385E+03  0.7561462E-02  0.1256660E+00
          1   -1    0    0  501    0  0.00000000000E+00  0.00000000000E+00  0.96150058330E+03  0.96150058330E+03  0.00000000000E+00 0. -1.
         -1   -1    0    0    0  501 -0.00000000000E+00 -0.00000000000E+00 -0.15060781073E+02  0.15060781073E+02  0.00000000000E+00 0.  1.
         25    2    1    2    0    0 -0.31354860169E+02  0.28811373675E+02  0.65083401565E+03  0.66411232213E+03  0.12508812079E+03 0.  0.
         23    2    1    2    0    0  0.31354860169E+02 -0.28811373675E+02  0.29560578658E+03  0.31244904225E+03  0.91806320231E+02 0.  0.
          5    1    3    3  502    0  0.17292170903E+02  0.61808517839E+02  0.21816028657E+03  0.22744382843E+03  0.41800000000E+01 0.  1.
         -5    1    3    3    0  502 -0.48647031072E+02 -0.32997144164E+02  0.43267372908E+03  0.43666849370E+03  0.41800000000E+01 0.  1.
        -11    1    4    4    0    0 -0.11948138934E+02  0.27505279860E+02  0.96279526157E+02  0.10084168583E+03  0.00000000000E+00 0.  1.
         11    1    4    4    0    0  0.43302999103E+02 -0.56316653535E+02  0.19932626042E+03  0.21160735642E+03  0.00000000000E+00 0. -1.
</event>
<event>
 8    1  0.6380400E-009  0.1365812E+03  0.7561462E-02  0.1218005E+00
         -1   -1    0    0    0  501 -0.00000000000E+00  0.00000000000E+00  0.51992258721E+02  0.51992258721E+02  0.00000000000E+00 0.  1.
          1   -1    0    0  501    0  0.00000000000E+00 -0.00000000000E+00 -0.50037436730E+03  0.50037436730E+03  0.00000000000E+00 0. -1.
         25    2    1    2    0    0  0.67766318988E+02  0.71639705473E+02 -0.12506804214E+03  0.20251785393E+03  0.12508774763E+03 0.  0.
         23    2    1    2    0    0 -0.67766318988E+02 -0.71639705473E+02 -0.32331406644E+03  0.34984877209E+03  0.90208959569E+02 0.  0.
          5    1    3    3  502    0 -0.14959045019E+02  0.52189283162E+02 -0.40750859927E+01  0.54603782202E+02  0.41800000000E+01 0. -1.
         -5    1    3    3    0  502  0.82725364007E+02  0.19450422310E+02 -0.12099295615E+03  0.14791407173E+03  0.41800000000E+01 0. -1.
        -11    1    4    4    0    0 -0.11343016734E+02  0.21741804614E+02 -0.56880263759E+02  0.61941379560E+02  0.00000000000E+00 0.  1.
         11    1    4    4    0    0 -0.56423302254E+02 -0.93381510086E+02 -0.26643380268E+03  0.28790739253E+03  0.00000000000E+00 0. -1.
</event>
<event>
 8    1  0.6380400E-009  0.8788972E+02  0.7561462E-02  0.1308044E+00
          2   -1    0    0  501    0  0.00000000000E+00  0.00000000000E+00  0.61047398972E+02  0.61047398972E+02  0.00000000000E+00 0.  1.
         -2   -1    0    0    0  501 -0.00000000000E+00 -0.00000000000E+00 -0.24127054251E+03  0.24127054251E+03  0.00000000000E+00 0. -1.
         25    2    1    2    0    0 -0.40515949000E+02 -0.12631520165E+02 -0.15070398408E+03  0.20040035415E+03  0.12509002238E+03 0.  0.
         23    2    1    2    0    0  0.40515949000E+02  0.12631520165E+02 -0.29519159457E+02  0.10191758733E+03  0.87833458362E+02 0.  0.
          5    1    3    3  502    0 -0.56883303914E+02  0.44315767806E+02 -0.90995593724E+02  0.11617774321E+03  0.41800000000E+01 0.  1.
         -5    1    3    3    0  502  0.16367354914E+02 -0.56947287971E+02 -0.59708390360E+02  0.84222610940E+02  0.41800000000E+01 0.  1.
        -11    1    4    4    0    0  0.29236869858E+02  0.14633899713E+02 -0.60564662729E+02  0.68826041230E+02  0.00000000000E+00 0. -1.
         11    1    4    4    0    0  0.11279079142E+02 -0.20023795485E+01  0.31045503272E+02  0.33091546104E+02  0.00000000000E+00 0.  1.
</event>
<event>
 8    1  0.6380400E-009  0.1097334E+03  0.7561462E-02  0.1261064E+00
          1   -1    0    0  501    0  0.00000000000E+00  0.00000000000E+00  0.22695533330E+03  0.22695533330E+03  0.00000000000E+00 0. -1.
         -1   -1    0    0    0  501 -0.00000000000E+00 -0.00000000000E+00 -0.60477956685E+02  0.60477956685E+02  0.00000000000E+00 0.  1.
         25    2    1    2    0    0 -0.18478020148E+02  0.20447656415E+02  0.13936515698E+03  0.18929890532E+03  0.12510749255E+03 0.  0.
         23    2    1    2    0    0  0.18478020148E+02 -0.20447656415E+02  0.27112219630E+02  0.98134384664E+02  0.90198343214E+02 0.  0.
          5    1    3    3  502    0  0.41586014548E+02 -0.28363566349E+02  0.51602227622E+02  0.72209076975E+02  0.41800000000E+01 0. -1.
         -5    1    3    3    0  502 -0.60064034696E+02  0.48811222764E+02  0.87762929359E+02  0.11708982834E+03  0.41800000000E+01 0. -1.
        -11    1    4    4    0    0  0.49756076403E+02  0.64770479653E+01  0.26752582411E+02  0.56862289393E+02  0.00000000000E+00 0. -1.
         11    1    4    4    0    0 -0.31278056255E+02 -0.26924704380E+02  0.35963721903E+00  0.41272095270E+02  0.00000000000E+00 0.  1.
</event>
<event>
 8    1  0.6380400E-009  0.1133126E+03  0.7561462E-02  0.1254556E+00
          2   -1    0    0  501    0  0.00000000000E+00  0.00000000000E+00  0.17470513654E+04  0.17470513654E+04  0.00000000000E+00 0. -1.
         -2   -1    0    0    0  501 -0.00000000000E+00 -0.00000000000E+00 -0.11472096651E+02  0.11472096651E+02  0.00000000000E+00 0.  1.
         25    2    1    2    0    0 -0.21697548984E+01  0.71755398255E+02  0.12704612016E+04  0.12786213633E+04  0.12508949146E+03 0.  0.
         23    2    1    2    0    0  0.21697548984E+01 -0.71755398255E+02  0.46511806713E+03  0.47990209874E+03  0.93902412068E+02 0.  0.
          5    1    3    3  502    0  0.18270520362E+02  0.83537161291E+02  0.12173370519E+04  0.12203439022E+04  0.41800000000E+01 0.  1.
         -5    1    3    3    0  502 -0.20440275260E+02 -0.11781763036E+02  0.53124149665E+02  0.58277461086E+02  0.41800000000E+01 0.  1.
        -11    1    4    4    0    0 -0.42964552741E+02 -0.17284580008E+02  0.21761182844E+03  0.22248509473E+03  0.00000000000E+00 0. -1.
         11    1    4    4    0    0  0.45134307639E+02 -0.54470818247E+02  0.24750623869E+03  0.25741700402E+03  0.00000000000E+00 0.  1.
</event>
<event>
 8    1  0.6380400E-009  0.9073762E+02  0.7561462E-02  0.1301075E+00
          3   -1    0    0  501    0  0.00000000000E+00  0.00000000000E+00  0.57573387761E+02  0.57573387761E+02  0.00000000000E+00 0. -1.
         -3   -1    0    0    0  501 -0.00000000000E+00 -0.00000000000E+00 -0.24859851183E+03  0.24859851183E+03  0.00000000000E+00 0.  1.
         25    2    1    2    0    0  0.19713268788E+02  0.40550408012E+02 -0.77887787680E+02  0.15409865879E+03  0.12508773168E+03 0.  0.
         23    2    1    2    0    0 -0.19713268788E+02 -0.40550408012E+02 -0.11313733639E+03  0.15207324080E+03  0.91067365862E+02 0.  0.
          5    1    3    3  502    0  0.18347419879E+02 -0.17194610914E+02 -0.91183849087E+02  0.94679719027E+02  0.41800000000E+01 0. -1.
         -5    1    3    3    0  502  0.13658489089E+01  0.57745018927E+02  0.13296061407E+02  0.59418939767E+02  0.41800000000E+01 0. -1.
        -11    1    4    4    0    0  0.32030270270E+02 -0.32635020783E+02 -0.33146010580E+02  0.56476905125E+02  0.00000000000E+00 0.  1.
         11    1    4    4    0    0 -0.51743539058E+02 -0.79153872295E+01 -0.79991325809E+02  0.95596335672E+02  0.00000000000E+00 0. -1.
</event>
<event>
 8    1  0.6380400E-009  0.1177787E+03  0.7561462E-02  0.1246807E+00
          2   -1    0    0  501    0  0.00000000000E+00  0.00000000000E+00  0.16092754557E+03  0.16092754557E+03  0.00000000000E+00 0.  1.
         -2   -1    0    0    0  501 -0.00000000000E+00 -0.00000000000E+00 -0.12964359153E+03  0.12964359153E+03  0.00000000000E+00 0. -1.
         25    2    1    2    0    0  0.48866026260E+02  0.25817122329E+02  0.95292064834E+02  0.16668225371E+03  0.12509190123E+03 0.  0.
         23    2    1    2    0    0 -0.48866026260E+02 -0.25817122329E+02 -0.64008110793E+02  0.12388888340E+03  0.90537311944E+02 0.  0.
          5    1    3    3  502    0  0.47365960234E+02  0.72457677024E+02  0.43940701490E+02  0.97169474610E+02  0.41800000000E+01 0.  1.
         -5    1    3    3    0  502  0.15000660259E+01 -0.46640554695E+02  0.51351363344E+02  0.69512779096E+02  0.41800000000E+01 0.  1.
        -11    1    4    4    0    0  0.12571749041E+02 -0.37455337814E+02 -0.88060579352E+01  0.40478362876E+02  0.00000000000E+00 0. -1.
         11    1    4    4    0    0 -0.61437775302E+02  0.11638215486E+02 -0.55202052858E+02  0.83410520520E+02  0.00000000000E+00 0.  1.
</event>
<event>
 8    1  0.6380400E-009  0.1121764E+03  0.7561462E-02  0.1256592E+00
         -1   -1    0    0    0  501 -0.00000000000E+00  0.00000000000E+00  0.47117780516E+03  0.47117780516E+03  0.00000000000E+00 0.  1.
          1   -1    0    0  501    0  0.00000000000E+00 -0.00000000000E+00 -0.29809812971E+02  0.29809812971E+02  0.00000000000E+00 0. -1.
         25    2    1    2    0    0 -0.82729579246E+01  0.24534768066E+02  0.29742912534E+03  0.32370140600E+03  0.12509244168E+03 0.  0.
         23    2    1    2    0    0  0.82729579246E+01 -0.24534768066E+02  0.14393886685E+03  0.17728621213E+03  0.10020781879E+03 0.  0.
          5    1    3    3  502    0  0.37297703050E+02  0.59361022006E+02  0.16187557229E+03  0.17645402486E+03  0.41800000000E+01 0. -1.
         -5    1    3    3    0  502 -0.45570660974E+02 -0.34826253940E+02  0.13555355306E+03  0.14724738114E+03  0.41800000000E+01 0. -1.
        -11    1    4    4    0    0 -0.34165742442E+02  0.16181083990E+02  0.89457794901E+02  0.97117570523E+02  0.00000000000E+00 0. -1.
         11    1    4    4    0    0  0.42438700367E+02 -0.40715852057E+02  0.54481071946E+02  0.80168641612E+02  0.00000000000E+00 0.  1.
</event>
<event>
 8    1  0.6380400E-009  0.1133055E+03  0.7561462E-02  0.1254568E+00
         -1   -1    0    0    0  501 -0.00000000000E+00  0.00000000000E+00  0.13767950752E+03  0.13767950752E+03  0.00000000000E+00 0.  1.
          1   -1    0    0  501    0  0.00000000000E+00 -0.00000000000E+00 -0.96476921766E+02  0.96476921766E+02  0.00000000000E+00 0. -1.
         25    2    1    2    0    0  0.27113928666E+02  0.28478320038E+02  0.29507311725E+02  0.13440071203E+03  0.12508673035E+03 0.  0.
         23    2    1    2    0    0 -0.27113928666E+02 -0.28478320038E+02  0.11695274034E+02  0.99755717259E+02  0.90929884259E+02 0.  0.
          5    1    3    3  502    0  0.63791866912E+02 -0.22831493277E+02  0.13873932210E+02  0.69286634817E+02  0.41800000000E+01 0. -1.
         -5    1    3    3    0  502 -0.36677938246E+02  0.51309813314E+02  0.15633379514E+02  0.65114077213E+02  0.41800000000E+01 0. -1.
        -11    1    4    4    0    0  0.20655359807E+02  0.19074150074E+02  0.15758756158E+02  0.32230505510E+02  0.00000000000E+00 0.  1.
         11    1    4    4    0    0 -0.47769288472E+02 -0.47552470111E+02 -0.40634821241E+01  0.67525211749E+02  0.00000000000E+00 0. -1.
</event>
<event>
 8    1  0.6380400E-009  0.1083663E+03  0.7561462E-02  0.1263626E+00
         -2   -1    0    0    0  501 -0.00000000000E+00  0.00000000000E+00  0.16098344512E+03  0.16098344512E+03  0.00000000000E+00 0.  1.
          2   -1    0    0  501    0  0.00000000000E+00 -0.00000000000E+00 -0.96940065827E+02  0.96940065827E+02  0.00000000000E+00 0. -1.
         25    2    1    2    0    0  0.17400462556E+02  0.59838143196E+02  0.50500345582E+02  0.14859786235E+03  0.12509060841E+03 0.  0.
         23    2    1    2    0    0 -0.17400462556E+02 -0.59838143196E+02  0.13543033706E+02  0.10932564859E+03  0.88799235359E+02 0.  0.
          5    1    3    3  502    0  0.28070261469E+02  0.90071109073E+02  0.63446636354E+02  0.11377034910E+03  0.41800000000E+01 0. -1.
         -5    1    3    3    0  502 -0.10669798914E+02 -0.30232965877E+02 -0.12946290772E+02  0.34827513252E+02  0.41800000000E+01 0. -1.
        -11    1    4    4    0    0 -0.99020400197E+01  0.13222908137E+02  0.29828037542E+02  0.34097030952E+02  0.00000000000E+00 0.  1.
         11    1    4    4    0    0 -0.74984225358E+01 -0.73061051333E+02 -0.16285003836E+02  0.75228617643E+02  0.00000000000E+00 0. -1.
</event>
<event>
 8    1  0.6380400E-009  0.2082162E+03  0.7561462E-02  0.1142986E+00
         -1   -1    0    0    0  501 -0.00000000000E+00  0.00000000000E+00  0.10361006401E+04  0.10361006401E+04  0.00000000000E+00 0. -1.
          1   -1    0    0  501    0  0.00000000000E+00 -0.00000000000E+00 -0.48307545823E+02  0.48307545823E+02  0.00000000000E+00 0.  1.
         25    2    1    2    0    0  0.39367832865E+02 -0.18837029255E+03  0.43690049725E+03  0.49352117940E+03  0.12509163300E+03 0.  0.
         23    2    1    2    0    0 -0.39367832865E+02  0.18837029255E+03  0.55089259706E+03  0.59088700655E+03  0.92906445596E+02 0.  0.
          5    1    3    3  502    0  0.39776296642E+02 -0.10582288167E+02  0.15321436211E+03  0.15870176986E+03  0.41800000000E+01 0.  1.
         -5    1    3    3    0  502 -0.40846377647E+00 -0.17778800438E+03  0.28368613513E+03  0.33481940955E+03  0.41800000000E+01 0.  1.
        -11    1    4    4    0    0 -0.43687615760E+02  0.10480052902E+03  0.19834681288E+03  0.22854587468E+03  0.00000000000E+00 0.  1.
         11    1    4    4    0    0  0.43197828948E+01  0.83569763527E+02  0.35254578418E+03  0.36234113187E+03  0.00000000000E+00 0. -1.
</event>
<event>
 8    1  0.6380400E-009  0.1896629E+03  0.7561462E-02  0.1158766E+00
         -2   -1    0    0    0  501 -0.00000000000E+00  0.00000000000E+00  0.42676847447E+02  0.42676847447E+02  0.00000000000E+00 0. -1.
          2   -1    0    0  501    0  0.00000000000E+00 -0.00000000000E+00 -0.11731354534E+04  0.11731354534E+04  0.00000000000E+00 0.  1.
         25    2    1    2    0    0 -0.55189442854E+02  0.17504471453E+03 -0.40285740443E+03  0.46003078634E+03  0.12509080455E+03 0.  0.
         23    2    1    2    0    0  0.55189442854E+02 -0.17504471453E+03 -0.72760120151E+03  0.75578151450E+03  0.90086972043E+02 0.  0.
          5    1    3    3  502    0 -0.35693892698E+02  0.48387359438E+02 -0.33294535970E+02  0.68857745060E+02  0.41800000000E+01 0. -1.
         -5    1    3    3    0  502 -0.19495550157E+02  0.12665735510E+03 -0.36956286846E+03  0.39117304128E+03  0.41800000000E+01 0. -1.
        -11    1    4    4    0    0  0.14931273908E+01 -0.91566175214E+02 -0.48657110684E+03  0.49511416450E+03  0.00000000000E+00 0.  1.
         11    1    4    4    0    0  0.53696315464E+02 -0.83478539320E+02 -0.24103009466E+03  0.26066735000E+03  0.00000000000E+00 0. -1.
</event>
<event>
 8    1  0.6380400E-009  0.1184476E+03  0.7561462E-02  0.1245680E+00
          1   -1    0    0  501    0  0.00000000000E+00  0.00000000000E+00  0.88207364938E+03  0.88207364938E+03  0.00000000000E+00 0. -1.
         -1   -1    0    0    0  501 -0.00000000000E+00 -0.00000000000E+00 -0.18240537074E+02  0.18240537074E+02  0.00000000000E+00 0.  1.
         25    2    1    2    0    0  0.16248550400E+02 -0.50454549898E+02  0.60797090174E+03  0.62296586475E+03  0.12509266284E+03 0.  0.
         23    2    1    2    0    0 -0.16248550400E+02  0.50454549898E+02  0.25586221057E+03  0.27734832170E+03  0.92988944271E+02 0.  0.
          5    1    3    3  502    0 -0.21209622137E+02 -0.82640104810E+02  0.34964021956E+03  0.35992358985E+03  0.41800000000E+01 0. -1.
         -5    1    3    3    0  502  0.37458172538E+02  0.32185554913E+02  0.25833068217E+03  0.26304227490E+03  0.41800000000E+01 0. -1.
        -11    1    4    4    0    0 -0.48605412512E+02  0.49741734411E+02  0.20999783587E+03  0.22121441485E+03  0.00000000000E+00 0.  1.
         11    1    4    4    0    0  0.32356862112E+02  0.71281548685E+00  0.45864374706E+02  0.56133906855E+02  0.00000000000E+00 0. -1.
</event>
<event>
 8    1  0.6380400E-009  0.1409222E+03  0.7561462E-02  0.1212093E+00
         -2   -1    0    0    0  501 -0.00000000000E+00  0.00000000000E+00  0.20024523042E+02  0.20024523042E+02  0.00000000000E+00 0.  1.
          2   -1    0    0  501    0  0.00000000000E+00 -0.00000000000E+00 -0.25875720391E+04  0.25875720391E+04  0.00000000000E+00 0. -1.
         25    2    1    2    0    0  0.12943141874E+03 -0.57819161039E+01 -0.22023572911E+04  0.22097083464E+04  0.12508963177E+03 0.  0.
         23    2    1    2    0    0 -0.12943141874E+03  0.57819161039E+01 -0.36519022500E+03  0.39788821574E+03  0.90361546449E+02 0.  0.
          5    1    3    3  502    0  0.22084767430E+02 -0.63415708007E+01 -0.13995670390E+04  0.13997618803E+04  0.41800000000E+01 0. -1.
         -5    1    3    3    0  502  0.10734665131E+03  0.55965469684E+00 -0.80279025205E+03  0.80994646610E+03  0.41800000000E+01 0. -1.
        -11    1    4    4    0    0 -0.86476169271E+02 -0.33609791450E+02 -0.27747729777E+03  0.29257716368E+03  0.00000000000E+00 0.  1.
         11    1    4    4    0    0 -0.42955249469E+02  0.39391707554E+02 -0.87712927233E+02  0.10531105205E+03  0.00000000000E+00 0. -1.
</event>
<event>
 8    1  0.6380400E-009  0.3432975E+03  0.7561462E-02  0.1065400E+00
          2   -1    0    0  501    0  0.00000000000E+00  0.00000000000E+00  0.96385170628E+03  0.96385170628E+03  0.00000000000E+00 0. -1.
         -2   -1    0    0    0  501 -0.00000000000E+00 -0.00000000000E+00 -0.12647921590E+03  0.12647921590E+03  0.00000000000E+00 0.  1.
         25    2    1    2    0    0  0.19313782599E+03  0.26698687946E+03  0.47942652248E+03  0.59504760836E+03  0.12509057569E+03 0.  0.
         23    2    1    2    0    0 -0.19313782599E+03 -0.26698687946E+03  0.35794596790E+03  0.49528331383E+03  0.92714785199E+02 0.  0.
          5    1    3    3  502    0  0.40722111540E+02  0.15768864706E+03  0.25418507185E+03  0.30191310494E+03  0.41800000000E+01 0.  1.
         -5    1    3    3    0  502  0.15241571445E+03  0.10929823239E+03  0.22524145063E+03  0.29313450342E+03  0.41800000000E+01 0.  1.
        -11    1    4    4    0    0  0.15243056437E+00 -0.31157543366E+02  0.66701515575E+02  0.73620023931E+02  0.00000000000E+00 0. -1.
         11    1    4    4    0    0 -0.19329025655E+03 -0.23582933609E+03  0.29124445232E+03  0.42166328990E+03  0.00000000000E+00 0.  1.
</event>
<event>
 8    1  0.6380400E-009  0.1222681E+03  0.7561462E-02  0.1239402E+00
          3   -1    0    0  501    0  0.00000000000E+00  0.00000000000E+00  0.49480841932E+02  0.49480841932E+02  0.00000000000E+00 0. -1.
         -3   -1    0    0    0  501 -0.00000000000E+00 -0.00000000000E+00 -0.47558611296E+03  0.47558611296E+03  0.00000000000E+00 0.  1.
         25    2    1    2    0    0  0.32197469394E+02  0.89220077837E+02 -0.31313998071E+03  0.35028638091E+03  0.12508797626E+03 0.  0.
         23    2    1    2    0    0 -0.32197469394E+02 -0.89220077837E+02 -0.11296529032E+03  0.17478057398E+03  0.93756028610E+02 0.  0.
          5    1    3    3  502    0 -0.10190003393E+02 -0.87312754561E+01  0.48254481660E+01  0.14860305860E+02  0.41800000000E+01 0.  1.
         -5    1    3    3    0  502  0.42387472787E+02  0.97951353293E+02 -0.31796542888E+03  0.33542607505E+03  0.41800000000E+01 0.  1.
        -11    1    4    4    0    0  0.48397432308E+01  0.13571924134E+02 -0.42231913753E+02  0.44622357383E+02  0.00000000000E+00 0.  1.
         11    1    4    4    0    0 -0.37037212625E+02 -0.10279200197E+03 -0.70733376563E+02  0.13015821660E+03  0.00000000000E+00 0. -1.
</event>
<event>
 8    1  0.6380400E-009  0.9201145E+02  0.7561462E-02  0.1298053E+00
          2   -1    0    0  501    0  0.00000000000E+00  0.00000000000E+00  0.29388090709E+03  0.29388090709E+03  0.00000000000E+00 0.  1.
         -2   -1    0    0    0  501 -0.00000000000E+00 -0.00000000000E+00 -0.52225823759E+02  0.52225823759E+02  0.00000000000E+00 0. -1.
         25    2    1    2    0    0  0.32008182800E+02  0.51139393493E+02  0.11426676718E+03  0.17984547545E+03  0.12509092543E+03 0.  0.
         23    2    1    2    0    0 -0.32008182800E+02 -0.51139393493E+02  0.12738831615E+03  0.16626125540E+03  0.88177438288E+02 0.  0.
          5    1    3    3  502    0 -0.34755098114E+02  0.13484657053E+02 -0.51696120543E+01  0.37867533713E+02  0.41800000000E+01 0.  1.
         -5    1    3    3    0  502  0.66763280914E+02  0.37654736440E+02  0.11943637923E+03  0.14197794174E+03  0.41800000000E+01 0.  1.
        -11    1    4    4    0    0 -0.87888704825E+01 -0.44831931182E+02  0.10439355749E+02  0.46862847185E+02  0.00000000000E+00 0. -1.
         11    1    4    4    0    0 -0.23219312317E+02 -0.63074623114E+01  0.11694896040E+03  0.11939840822E+03  0.00000000000E+00 0.  1.
</event>
<event>
 8    1  0.6380400E-009  0.1029145E+03  0.7561462E-02  0.1274284E+00
         -1   -1    0    0    0  501 -0.00000000000E+00  0.00000000000E+00  0.72406891826E+02  0.72406891826E+02  0.00000000000E+00 0.  1.
          1   -1    0    0  501    0  0.00000000000E+00 -0.00000000000E+00 -0.16119075508E+03  0.16119075508E+03  0.00000000000E+00 0. -1.
         25    2    1    2    0    0  0.14303829175E+02  0.12104565239E+02 -0.86787386879E+02  0.15339764112E+03  0.12509063015E+03 0.  0.
         23    2    1    2    0    0 -0.14303829175E+02 -0.12104565239E+02 -0.19964763710E+01  0.80200005779E+02  0.77954698257E+02 0.  0.
          5    1    3    3  502    0 -0.50300886763E+02  0.30022277384E+02 -0.47859269695E+02  0.75759477587E+02  0.41800000000E+01 0. -1.
         -5    1    3    3    0  502  0.64604715938E+02 -0.17917712145E+02 -0.38928117184E+02  0.77638163538E+02  0.41800000000E+01 0. -1.
        -11    1    4    4    0    0 -0.18297180849E+00  0.32827851618E+02 -0.39207350525E+01  0.33061661844E+02  0.00000000000E+00 0. -1.
         11    1    4    4    0    0 -0.14120857367E+02 -0.44932416857E+02  0.19242586815E+01  0.47138343934E+02  0.00000000000E+00 0.  1.
</event>
<event>
 8    1  0.6380400E-009  0.1338688E+03  0.7561462E-02  0.1221825E+00
         -2   -1    0    0    0  501 -0.00000000000E+00  0.00000000000E+00  0.27923435171E+02  0.27923435171E+02  0.00000000000E+00 0. -1.
          2   -1    0    0  501    0  0.00000000000E+00 -0.00000000000E+00 -0.75068136055E+03  0.75068136055E+03  0.00000000000E+00 0.  1.
         25    2    1    2    0    0 -0.91707680156E+02 -0.17709480369E+00 -0.45556781782E+03  0.48124532619E+03  0.12507876470E+03 0.  0.
         23    2    1    2    0    0  0.91707680156E+02  0.17709480369E+00 -0.26719010756E+03  0.29735946954E+03  0.92853489885E+02 0.  0.
          5    1    3    3  502    0  0.25360401986E+02  0.11985483700E+01 -0.17970621883E+03  0.18153893244E+03  0.41800000000E+01 0. -1.
         -5    1    3    3    0  502 -0.11706808214E+03 -0.13756431737E+01 -0.27586159899E+03  0.29970639374E+03  0.41800000000E+01 0. -1.
        -11    1    4    4    0    0  0.83446768795E+02 -0.33693998409E+02 -0.22681000546E+03  0.24401112132E+03  0.00000000000E+00 0.  1.
         11    1    4    4    0    0  0.82609113607E+01  0.33871093212E+02 -0.40380102097E+02  0.53348348215E+02  0.00000000000E+00 0. -1.
</event>
<event>
 8    1  0.6380400E-009  0.8442186E+02  0.7561462E-02  0.1316951E+00
         -2   -1    0    0    0  501 -0.00000000000E+00  0.00000000000E+00  0.60181354964E+02  0.60181354964E+02  0.00000000000E+00 0.  1.
          2   -1    0    0  501    0  0.00000000000E+00 -0.00000000000E+00 -0.33445557193E+03  0.33445557193E+03  0.00000000000E+00 0. -1.
         25    2    1    2    0    0 -0.33373116950E+02 -0.69924580877E+02 -0.83785481524E+02  0.16932410688E+03  0.12508970505E+03 0.  0.
         23    2    1    2    0    0  0.33373116950E+02  0.69924580877E+02 -0.19048873544E+03  0.22531282002E+03  0.92068977335E+02 0.  0.
          5    1    3    3  502    0 -0.11481104637E+02 -0.57339207354E+01  0.32192081030E+02  0.34906963370E+02  0.41800000000E+01 0. -1.
         -5    1    3    3    0  502 -0.21892012314E+02 -0.64190660142E+02 -0.11597756255E+03  0.13441714351E+03  0.41800000000E+01 0. -1.
        -11    1    4    4    0    0  0.27175673916E+02  0.12980324353E+02 -0.15506767391E+03  0.15796515301E+03  0.00000000000E+00 0. -1.
         11    1    4    4    0    0  0.61974430338E+01  0.56944256524E+02 -0.35421061530E+02  0.67347667006E+02  0.00000000000E+00 0.  1.
</event>
<event>
 8    1  0.6380400E-009  0.1339132E+03  0.7561462E-02  0.1221762E+00
         -1   -1    0    0    0  501 -0.00000000000E+00  0.00000000000E+00  0.44281710164E+02  0.44281710164E+02  0.00000000000E+00 0.  1.
          1   -1    0    0  501    0  0.00000000000E+00 -0.00000000000E+00 -0.62074720270E+03  0.62074720270E+03  0.00000000000E+00 0. -1.
         25    2    1    2    0    0  0.11607178668E+00 -0.10439661770E+03 -0.44377178279E+03  0.47273566993E+03  0.12508777382E+03 0.  0.
         23    2    1    2    0    0 -0.11607178668E+00  0.10439661770E+03 -0.13269370974E+03  0.19229324293E+03  0.92034794577E+02 0.  0.
          5    1    3    3  502    0  0.31179184314E+02 -0.60936358367E+01 -0.22858239259E+02  0.39360455208E+02  0.41800000000E+01 0.  1.
         -5    1    3    3    0  502 -0.31063112527E+02 -0.98302981863E+02 -0.42091354354E+03  0.43337521472E+03  0.41800000000E+01 0.  1.
        -11    1    4    4    0    0  0.16383744955E+02  0.11287242850E+03 -0.88497333828E+02  0.14436201131E+03  0.00000000000E+00 0.  1.
         11    1    4    4    0    0 -0.16499816741E+02 -0.84758108008E+01 -0.44196375909E+02  0.47931231621E+02  0.00000000000E+00 0. -1.
</event>
<event>
 8    1  0.6380400E-009  0.1411422E+03  0.7561462E-02  0.1211800E+00
         -2   -1    0    0    0  501 -0.00000000000E+00  0.00000000000E+00  0.16142628700E+02  0.16142628700E+02  0.00000000000E+00 0.  1.
          2   -1    0    0  501    0  0.00000000000E+00 -0.00000000000E+00 -0.12993184610E+04  0.12993184610E+04  0.00000000000E+00 0. -1.
         25    2    1    2    0    0  0.53694840325E+02 -0.79990280863E+02 -0.72597013392E+03  0.74294205763E+03  0.12509470313E+03 0.  0.
         23    2    1    2    0    0 -0.53694840325E+02  0.79990280863E+02 -0.55720569841E+03  0.57251903209E+03  0.89544798058E+02 0.  0.
          5    1    3    3  502    0  0.62449869214E+01 -0.10161703955E+03 -0.55006295779E+03  0.55942090819E+03  0.41800000000E+01 0. -1.
         -5    1    3    3    0  502  0.47449853404E+02  0.21626758689E+02 -0.17590717613E+03  0.18352114945E+03  0.41800000000E+01 0. -1.
        -11    1    4    4    0    0 -0.50831312287E+02  0.28796479354E+01 -0.16061336996E+03  0.16848967117E+03  0.00000000000E+00 0.  1.
         11    1    4    4    0    0 -0.28635280384E+01  0.77110632927E+02 -0.39659232845E+03  0.40402936093E+03  0.00000000000E+00 0. -1.
</event>
<event>
 8    1  0.6380400E-009  0.1320141E+03  0.7561462E-02  0.1224497E+00
          2   -1    0    0  501    0  0.00000000000E+00  0.00000000000E+00  0.18143443794E+03  0.18143443794E+03  0.00000000000E+00 0. -1.
         -2   -1    0    0    0  501 -0.00000000000E+00 -0.00000000000E+00 -0.11294106532E+03  0.11294106532E+03  0.00000000000E+00 0.  1.
         25    2    1    2    0    0 -0.88097788607E+02  0.27444452800E+02  0.26061965531E+02  0.15761205271E+03  0.12509162548E+03 0.  0.
         23    2    1    2    0    0  0.88097788607E+02 -0.27444452800E+02  0.42431407098E+02  0.13676345055E+03  0.91593661089E+02 0.  0.
          5    1    3    3  502    0 -0.78476072670E+02  0.67185518084E+02  0.44502503695E+02  0.11256257396E+03  0.41800000000E+01 0. -1.
         -5    1    3    3    0  502 -0.96217159373E+01 -0.39741065284E+02 -0.18440538165E+02  0.45049478746E+02  0.41800000000E+01 0. -1.
        -11    1    4    4    0    0  0.92033215800E+02 -0.22685458594E+00  0.75466582598E+01  0.92342386391E+02  0.00000000000E+00 0.  1.
         11    1    4    4    0    0 -0.39354271927E+01 -0.27217598214E+02  0.34884748838E+02  0.44421064161E+02  0.00000000000E+00 0. -1.
</event>
<event>
 8    1  0.6380400E-009  0.1373046E+03  0.7561462E-02  0.1217003E+00
          2   -1    0    0  501    0  0.00000000000E+00  0.00000000000E+00  0.59552139237E+03  0.59552139237E+03  0.00000000000E+00 0.  1.
         -2   -1    0    0    0  501 -0.00000000000E+00 -0.00000000000E+00 -0.37528798196E+02  0.37528798196E+02  0.00000000000E+00 0. -1.
         25    2    1    2    0    0  0.90697636228E+02  0.30686849704E+02  0.22158079065E+03  0.27186871030E+03  0.12508718915E+03 0.  0.
         23    2    1    2    0    0 -0.90697636228E+02 -0.30686849704E+02  0.33641180352E+03  0.36118148027E+03  0.90063400894E+02 0.  0.
          5    1    3    3  502    0 -0.24864562993E+02 -0.21265628737E+01  0.75699759513E+01  0.26411090443E+02  0.41800000000E+01 0.  1.
         -5    1    3    3    0  502  0.11556219922E+03  0.32813412578E+02  0.21401081470E+03  0.24545761985E+03  0.41800000000E+01 0.  1.
        -11    1    4    4    0    0 -0.81057055193E+02  0.14979940261E+02  0.18044891359E+03  0.19838461438E+03  0.00000000000E+00 0. -1.
         11    1    4    4    0    0 -0.96405810348E+01 -0.45666789965E+02  0.15596288994E+03  0.16279686590E+03  0.00000000000E+00 0.  1.
</event>
<event>
 8    1  0.6380400E-009  0.1696058E+03  0.7561462E-02  0.1178260E+00
         -1   -1    0    0    0  501 -0.00000000000E+00  0.00000000000E+00  0.43181492470E+02  0.43181492470E+02  0.00000000000E+00 0.  1.
          1   -1    0    0  501    0  0.00000000000E+00 -0.00000000000E+00 -0.77262636414E+03  0.77262636414E+03  0.00000000000E+00 0. -1.
         25    2    1    2    0    0  0.70854126236E+02  0.13028146780E+03 -0.36512561590E+03  0.41347096783E+03  0.12509179747E+03 0.  0.
         23    2    1    2    0    0 -0.70854126236E+02 -0.13028146780E+03 -0.36431925577E+03  0.40233688878E+03  0.84574723708E+02 0.  0.
          5    1    3    3  502    0  0.30827605954E+02 -0.16491679079E+02 -0.33545434790E+02  0.48632143310E+02  0.41800000000E+01 0.  1.
         -5    1    3    3    0  502  0.40026520282E+02  0.14677314688E+03 -0.33158018111E+03  0.36483882452E+03  0.41800000000E+01 0.  1.
        -11    1    4    4    0    0 -0.30051456926E+02 -0.88271930206E+02 -0.12495540903E+03  0.15591304619E+03  0.00000000000E+00 0.  1.
         11    1    4    4    0    0 -0.40802669309E+02 -0.42009537599E+02 -0.23936384674E+03  0.24642384259E+03  0.00000000000E+00 0. -1.
</event>
<event>
 8    1  0.6380400E-009  0.1986362E+03  0.7561462E-02  0.1150895E+00
         -2   -1    0    0    0  501 -0.00000000000E+00  0.00000000000E+00  0.20883958041E+03  0.20883958041E+03  0.00000000000E+00 0.  1.
          2   -1    0    0  501    0  0.00000000000E+00 -0.00000000000E+00 -0.21738140145E+03  0.21738140145E+03  0.00000000000E+00 0. -1.
         25    2    1    2    0    0 -0.16264480194E+03 -0.78066462681E+02  0.27213787371E+02  0.22121453575E+03  0.12509027305E+03 0.  0.
         23    2    1    2    0    0  0.16264480194E+03  0.78066462681E+02 -0.35755608418E+02  0.20500644611E+03  0.90561996545E+02 0.  0.
          5    1    3    3  502    0 -0.11531411783E+03  0.99976606721E+01 -0.54590216479E+01  0.11595073224E+03  0.41800000000E+01 0. -1.
         -5    1    3    3    0  502 -0.47330684107E+02 -0.88064123353E+02  0.32672809018E+02  0.10526380351E+03  0.41800000000E+01 0. -1.
        -11    1    4    4    0    0  0.84925598880E+02  0.51136754024E+02 -0.64048961957E+02  0.11802370306E+03  0.00000000000E+00 0.  1.
         11    1    4    4    0    0  0.77719203061E+02  0.26929708657E+02  0.28293353539E+02  0.86982743043E+02  0.00000000000E+00 0. -1.
</event>
<event>
 8    1  0.6380400E-009  0.1169620E+03  0.7561462E-02  0.1248195E+00
         -2   -1    0    0    0  501 -0.00000000000E+00  0.00000000000E+00  0.26217566637E+02  0.26217566637E+02  0.00000000000E+00 0. -1.
          2   -1    0    0  501    0  0.00000000000E+00 -0.00000000000E+00 -0.85289247431E+03  0.85289247431E+03  0.00000000000E+00 0.  1.
         25    2    1    2    0    0 -0.10063311580E+03  0.19367520943E+02 -0.41908599616E+03  0.44920430038E+03  0.12509718796E+03 0.  0.
         23    2    1    2    0    0  0.10063311580E+03 -0.19367520943E+02 -0.40758891151E+03  0.42990574057E+03  0.90488121439E+02 0.  0.
          5    1    3    3  502    0 -0.45349508205E+02  0.13259094414E+02 -0.29962323030E+02  0.56103428419E+02  0.41800000000E+01 0. -1.
         -5    1    3    3    0  502 -0.55283607599E+02  0.61084265289E+01 -0.38912367313E+03  0.39310087196E+03  0.41800000000E+01 0. -1.
        -11    1    4    4    0    0  0.79316847227E+02  0.23597200045E+02 -0.19248480318E+03  0.20951942525E+03  0.00000000000E+00 0. -1.
         11    1    4    4    0    0  0.21316268576E+02 -0.42964720988E+02 -0.21510410834E+03  0.22038631532E+03  0.00000000000E+00 0.  1.
</event>
<event>
 8    1  0.6380400E-009  0.2234711E+03  0.7561462E-02  0.1131321E+00
          1   -1    0    0  501    0  0.00000000000E+00  0.00000000000E+00  0.16282416002E+03  0.16282416002E+03  0.00000000000E+00 0. -1.
         -1   -1    0    0    0  501 -0.00000000000E+00 -0.00000000000E+00 -0.36368246782E+03  0.36368246782E+03  0.00000000000E+00 0.  1.
         25    2    1    2    0    0  0.91001276985E+02 -0.19756462454E+03 -0.98158727759E+02  0.26943909149E+03  0.12509706194E+03 0.  0.
         23    2    1    2    0    0 -0.91001276985E+02  0.19756462454E+03 -0.10269958004E+03  0.25706753635E+03  0.90683522340E+02 0.  0.
          5    1    3    3  502    0  0.56187881545E+02 -0.43789953738E+02 -0.85273458291E+02  0.11119205534E+03  0.41800000000E+01 0.  1.
         -5    1    3    3    0  502  0.34813395440E+02 -0.15377467080E+03 -0.12885269469E+02  0.15824703615E+03  0.41800000000E+01 0.  1.
        -11    1    4    4    0    0 -0.88524162314E+02  0.18543388302E+03 -0.62155965694E+02  0.21467560727E+03  0.00000000000E+00 0. -1.
         11    1    4    4    0    0 -0.24771146712E+01  0.12130741515E+02 -0.40543614347E+02  0.42391929080E+02  0.00000000000E+00 0.  1.
</event>
<event>
 8    1  0.6380400E-009  0.1197543E+03  0.7561462E-02  0.1243503E+00
          2   -1    0    0  501    0  0.00000000000E+00  0.00000000000E+00  0.38377211557E+03  0.38377211557E+03  0.00000000000E+00 0. -1.
         -2   -1    0    0    0  501 -0.00000000000E+00 -0.00000000000E+00 -0.39157428789E+02  0.39157428789E+02  0.00000000000E+00 0.  1.
         25    2    1    2    0    0 -0.51432647861E+02  0.26755469369E+02  0.18139065372E+03  0.22783897757E+03  0.12508740158E+03 0.  0.
         23    2    1    2    0    0  0.51432647861E+02 -0.26755469369E+02  0.16322403306E+03  0.19509056679E+03  0.89761193591E+02 0.  0.
          5    1    3    3  502    0 -0.37255510064E+02 -0.47707633272E+02  0.65377943104E+02  0.89194950233E+02  0.41800000000E+01 0. -1.
         -5    1    3    3    0  502 -0.14177137797E+02  0.74463102641E+02  0.11601271061E+03  0.13864402733E+03  0.41800000000E+01 0. -1.
        -11    1    4    4    0    0 -0.22875100101E+02 -0.15812589327E+02  0.23288812145E+02  0.36272261537E+02  0.00000000000E+00 0.  1.
         11    1    4    4    0    0  0.74307747962E+02 -0.10942880042E+02  0.13993522092E+03  0.15881830526E+03  0.00000000000E+00 0. -1.
</event>
<event>
 7    1  0.6380400E-009  0.1564805E+03  0.7561462E-02  0.1192729E+00
         -1   -1    0    0    0  501 -0.00000000000E+00  0.00000000000E+00  0.75751637168E+02  0.75751637168E+02  0.00000000000E+00 0.  1.
          1   -1    0    0  501    0  0.00000000000E+00 -0.00000000000E+00 -0.33998674571E+03  0.33998674571E+03  0.00000000000E+00 0. -1.
         23    2    1    2    0    0  0.51741234850E+02  0.10465793676E+03 -0.10838985537E+03  0.18425113624E+03  0.92572573410E+02 0.  0.
          5    1    1    2  502    0 -0.74376655109E+02 -0.12157672162E+03 -0.13103984580E+03  0.19365355575E+03  0.41800000000E+01 0. -1.
         -5    1    1    2    0  502  0.22635420259E+02  0.16918784859E+02 -0.24805407371E+02  0.37833690889E+02  0.41800000000E+01 0. -1.
        -11    1    3    3    0    0  0.73692505099E+02  0.78742884734E+02 -0.10432012897E+03  0.15004571474E+03  0.00000000000E+00 0.  1.
         11    1    3    3    0    0 -0.21951270249E+02  0.25915052030E+02 -0.40697264056E+01  0.34205421504E+02  0.00000000000E+00 0. -1.
</event>
<event>
 7    1  0.6380400E-009  0.2558727E+03  0.7561462E-02  0.1109649E+00
         -1   -1    0    0    0  501 -0.00000000000E+00  0.00000000000E+00  0.23786874615E+03  0.23786874615E+03  0.00000000000E+00 0.  1.
          1   -1    0    0  501    0  0.00000000000E+00 -0.00000000000E+00 -0.33817215629E+03  0.33817215629E+03  0.00000000000E+00 0. -1.
         25    2    1    2    0    0  0.20705660667E+03 -0.12247771790E+03  0.22341938390E+02  0.27206601112E+03  0.12509005735E+03 0.  0.
          5    1    3    3  502    0  0.39611991236E+02 -0.92862840901E+02  0.92981794678E+01  0.10147189567E+03  0.41800000000E+01 0. -1.
         -5    1    3    3    0  502  0.16744461544E+03 -0.29614876998E+02  0.13043758922E+02  0.17059411545E+03  0.41800000000E+01 0. -1.
        -11    1    1    2    0    0 -0.14132862397E+03  0.85875851340E+02 -0.15064483977E+03  0.22370138477E+03  0.00000000000E+00 0. -1.
         11    1    1    2    0    0 -0.65727982700E+02  0.36601866558E+02  0.27999491241E+02  0.80273506557E+02  0.00000000000E+00 0.  1.
</event>
<event>
 8    1  0.6380400E-009  0.7621155E+02  0.7561462E-02  0.1340160E+00
         -1   -1    0    0    0  501 -0.00000000000E+00  0.00000000000E+00  0.51771672387E+02  0.51771672387E+02  0.00000000000E+00 0.  1.
          1   -1    0    0  501    0  0.00000000000E+00 -0.00000000000E+00 -0.24175598779E+03  0.24175598779E+03  0.00000000000E+00 0. -1.
         25    2    1    2    0    0 -0.20157711327E+02  0.29496514321E+00 -0.10155829666E+03  0.16238314866E+03  0.12509108289E+03 0.  0.
         23    2    1    2    0    0  0.20157711327E+02 -0.29496514321E+00 -0.88426018737E+02  0.13114451151E+03  0.94727513319E+02 0.  0.
          5    1    3    3  502    0 -0.59136743818E+02  0.24072238688E+02 -0.97141780573E+02  0.11632121508E+03  0.41800000000E+01 0. -1.
         -5    1    3    3    0  502  0.38979032491E+02 -0.23777273545E+02 -0.44165160915E+01  0.46061933584E+02  0.41800000000E+01 0. -1.
        -11    1    4    4    0    0 -0.14072992718E+01  0.15684871062E+02  0.16518360225E+02  0.22822179913E+02  0.00000000000E+00 0.  1.
         11    1    4    4    0    0  0.21565010599E+02 -0.15979836205E+02 -0.10494437896E+03  0.10832233160E+03  0.00000000000E+00 0. -1.
</event>
<event>
 8    1  0.6380400E-009  0.1227037E+03  0.7561462E-02  0.1238702E+00
          3   -1    0    0  501    0  0.00000000000E+00  0.00000000000E+00  0.29019977238E+02  0.29019977238E+02  0.00000000000E+00 0. -1.
         -3   -1    0    0    0  501 -0.00000000000E+00 -0.00000000000E+00 -0.52978339662E+03  0.52978339662E+03  0.00000000000E+00 0.  1.
         25    2    1    2    0    0 -0.33789195727E+02 -0.48778495650E+02 -0.31879952186E+03  0.34756908736E+03  0.12510029562E+03 0.  0.
         23    2    1    2    0    0  0.33789195727E+02  0.48778495650E+02 -0.18196389752E+03  0.21123428650E+03  0.89375681283E+02 0.  0.
          5    1    3    3  502    0  0.36708126378E+02  0.17999898887E+02 -0.87053555587E+02  0.96266696435E+02  0.41800000000E+01 0. -1.
         -5    1    3    3    0  502 -0.70497322105E+02 -0.66778394537E+02 -0.23174596627E+03  0.25130239092E+03  0.41800000000E+01 0. -1.
        -11    1    4    4    0    0  0.47376954209E+02  0.68426831909E+02 -0.13636722103E+03  0.15975864949E+03  0.00000000000E+00 0. -1.
         11    1    4    4    0    0 -0.13587758482E+02 -0.19648336259E+02 -0.45596676485E+02  0.51475637002E+02  0.00000000000E+00 0.  1.
</event>
<event>
 8    1  0.6380400E-009  0.1325753E+03  0.7561462E-02  0.1223684E+00
         -1   -1    0    0    0  501 -0.00000000000E+00  0.00000000000E+00  0.14575360928E+02  0.14575360928E+02  0.00000000000E+00 0.  1.
          1   -1    0    0  501    0  0.00000000000E+00 -0.00000000000E+00 -0.14886716319E+04  0.14886716319E+04  0.00000000000E+00 0. -1.
         25    2    1    2    0    0 -0.40475867064E+02 -0.67871941292E+02 -0.10991626551E+04  0.11090765340E+04  0.12508924671E+03 0.  0.
         23    2    1    2    0    0  0.40475867064E+02  0.67871941292E+02 -0.37493361589E+03  0.39417045886E+03  0.92467497443E+02 0.  0.
          5    1    3    3  502    0 -0.76218996674E+02 -0.77156505268E+02 -0.72605876186E+03  0.73412618795E+03  0.41800000000E+01 0. -1.
         -5    1    3    3    0  502  0.35743129610E+02  0.92845639763E+01 -0.37310389321E+03  0.37495034601E+03  0.41800000000E+01 0. -1.
        -11    1    4    4    0    0 -0.25741519954E+02  0.40085622078E+02 -0.11443403380E+03  0.12395414894E+03  0.00000000000E+00 0.  1.
         11    1    4    4    0    0  0.66217387018E+02  0.27786319214E+02 -0.26049958209E+03  0.27021630992E+03  0.00000000000E+00 0. -1.
</event>
<event>
 8    1  0.6380400E-009  0.2172822E+03  0.7561462E-02  0.1135926E+00
         -2   -1    0    0    0  501 -0.00000000000E+00  0.00000000000E+00  0.89743126353E+02  0.89743126353E+02  0.00000000000E+00 0.  1.
          2   -1    0    0  501    0  0.00000000000E+00 -0.00000000000E+00 -0.56979681743E+03  0.56979681743E+03  0.00000000000E+00 0. -1.
         25    2    1    2    0    0  0.12365225962E+03 -0.15363422321E+03 -0.24652263680E+03  0.33957961036E+03  0.12509014935E+03 0.  0.
         23    2    1    2    0    0 -0.12365225962E+03  0.15363422321E+03 -0.23353105428E+03  0.31996033343E+03  0.94575397454E+02 0.  0.
          5    1    3    3  502    0  0.97864460002E+02 -0.17341896263E+03 -0.22439969567E+03  0.30004047218E+03  0.41800000000E+01 0.  1.
         -5    1    3    3    0  502  0.25787799619E+02  0.19784739421E+02 -0.22122941134E+02  0.39539138175E+02  0.41800000000E+01 0.  1.
        -11    1    4    4    0    0 -0.73126004515E+02  0.12425469581E+03 -0.21458061026E+03  0.25851785289E+03  0.00000000000E+00 0. -1.
         11    1    4    4    0    0 -0.50526255106E+02  0.29379527401E+02 -0.18950444020E+02  0.61442480531E+02  0.00000000000E+00 0.  1.
</event>
<event>
 8    1  0.6380400E-009  0.8546122E+02  0.7561462E-02  0.1314231E+00
          1   -1    0    0  501    0  0.00000000000E+00  0.00000000000E+00  0.30356862073E+02  0.30356862073E+02  0.00000000000E+00 0. -1.
         -1   -1    0    0    0  501 -0.00000000000E+00 -0.00000000000E+00 -0.54537103581E+03  0.54537103581E+03  0.00000000000E+00 0.  1.
         25    2    1    2    0    0  0.13666252051E+02  0.68873616273E+02 -0.28709446307E+03  0.32093769877E+03  0.12508970502E+03 0.  0.
         23    2    1    2    0    0 -0.13666252051E+02 -0.68873616273E+02 -0.22791971066E+03  0.25479019911E+03  0.89667773418E+02 0.  0.
          5    1    3    3  502    0  0.64571773929E+01  0.58980789819E+01  0.11855144965E+02  0.15313371207E+02  0.41800000000E+01 0.  1.
         -5    1    3    3    0  502  0.72090746581E+01  0.62975537291E+02 -0.29894960804E+03  0.30562432757E+03  0.41800000000E+01 0.  1.
        -11    1    4    4    0    0  0.27060063715E+02 -0.17834997748E+02 -0.14839809976E+03  0.15189578732E+03  0.00000000000E+00 0.  1.
         11    1    4    4    0    0 -0.40726315766E+02 -0.51038618525E+02 -0.79521610900E+02  0.10289441179E+03  0.00000000000E+00 0. -1.
</event>
<event>
 8    1  0.6380400E-009  0.1019124E+03  0.7561462E-02  0.1276325E+00
          1   -1    0    0  501    0  0.00000000000E+00  0.00000000000E+00  0.43751063251E+02  0.43751063251E+02  0.00000000000E+00 0. -1.
         -1   -1    0    0    0  501 -0.00000000000E+00 -0.00000000000E+00 -0.48090424766E+03  0.48090424766E+03  0.00000000000E+00 0.  1.
         25    2    1    2    0    0  0.79355424686E+02  0.26710705640E+02 -0.32084152736E+03  0.35439808409E+03  0.12509185067E+03 0.  0.
         23    2    1    2    0    0 -0.79355424686E+02 -0.26710705640E+02 -0.11631165706E+03  0.17025722683E+03  0.91915050439E+02 0.  0.
          5    1    3    3  502    0  0.19115934365E+02  0.39095023136E+01  0.63191695317E+01  0.20931016664E+02  0.41800000000E+01 0. -1.
         -5    1    3    3    0  502  0.60239490320E+02  0.22801203326E+02 -0.32716069689E+03  0.33346706742E+03  0.41800000000E+01 0. -1.
        -11    1    4    4    0    0 -0.82564067128E+02  0.93767826693E+01 -0.57035491064E+02  0.10078589423E+03  0.00000000000E+00 0. -1.
         11    1    4    4    0    0  0.32086424428E+01 -0.36087488309E+02 -0.59276165992E+02  0.69471332602E+02  0.00000000000E+00 0.  1.
</event>
<event>
 8    1  0.6380400E-009  0.1010535E+03  0.7561462E-02  0.1278096E+00
         -2   -1    0    0    0  501 -0.00000000000E+00  0.00000000000E+00  0.62507491621E+02  0.62507491621E+02  0.00000000000E+00 0.  1.
          2   -1    0    0  501    0  0.00000000000E+00 -0.00000000000E+00 -0.23013236555E+03  0.23013236555E+03  0.00000000000E+00 0. -1.
         25    2    1    2    0    0  0.18033624807E+02 -0.49118828840E+02 -0.10934979092E+03  0.17418995261E+03  0.12508753674E+03 0.  0.
         23    2    1    2    0    0 -0.18033624807E+02  0.49118828840E+02 -0.58275083009E+02  0.11844990456E+03  0.88862385857E+02 0.  0.
          5    1    3    3  502    0 -0.47643555298E+02 -0.21257856296E-01 -0.65514612815E+02  0.81114398880E+02  0.41800000000E+01 0.  1.
         -5    1    3    3    0  502  0.65677180105E+02 -0.49097570983E+02 -0.43835178106E+02  0.93075553733E+02  0.41800000000E+01 0.  1.
        -11    1    4    4    0    0 -0.31230621284E+02  0.49994684126E+02 -0.26192455727E+00  0.58948187005E+02  0.00000000000E+00 0.  1.
         11    1    4    4    0    0  0.13196996476E+02 -0.87585528659E+00 -0.58013158452E+02  0.59501717555E+02  0.00000000000E+00 0. -1.
</event>
<event>
 8    1  0.6380400E-009  0.6356531E+02  0.7561462E-02  0.1383451E+00
          2   -1    0    0  501    0  0.00000000000E+00  0.00000000000E+00  0.41919064558E+02  0.41919064558E+02  0.00000000000E+00 0. -1.
         -2   -1    0    0    0  501 -0.00000000000E+00 -0.00000000000E+00 -0.33987083508E+03  0.33987083508E+03  0.00000000000E+00 0.  1.
         25    2    1    2    0    0  0.57657771382E+01 -0.14516274563E+02 -0.24066900319E+03  0.27168537969E+03  0.12508960799E+03 0.  0.
         23    2    1    2    0    0 -0.57657771382E+01  0.14516274563E+02 -0.57282767330E+02  0.11010451995E+03  0.92723909897E+02 0.  0.
          5    1    3    3  502    0 -0.19874292272E+02  0.19274265289E+02 -0.22427919456E+03  0.22602016350E+03  0.41800000000E+01 0. -1.
         -5    1    3    3    0  502  0.25640069410E+02 -0.33790539851E+02 -0.16389808631E+02  0.45665216191E+02  0.41800000000E+01 0. -1.
        -11    1    4    4    0    0 -0.15477537535E+02 -0.17317777395E+02  0.16949035502E+02  0.28752902227E+02  0.00000000000E+00 0. -1.
         11    1    4    4    0    0  0.97117603967E+01  0.31834051958E+02 -0.74231802832E+02  0.81351617720E+02  0.00000000000E+00 0.  1.
</event>
<event>
 8    1  0.6380400E-009  0.9867731E+02  0.7561462E-02  0.1283102E+00
          2   -1    0    0  501    0  0.00000000000E+00  0.00000000000E+00  0.77006787475E+03  0.77006787475E+03  0.00000000000E+00 0. -1.
         -2   -1    0    0    0  501 -0.00000000000E+00 -0.00000000000E+00 -0.16981385909E+02  0.16981385909E+02  0.00000000000E+00 0.  1.
         25    2    1    2    0    0 -0.23288092949E+02  0.48215791777E+01  0.42582893637E+03  0.44445757386E+03  0.12508664602E+03 0.  0.
         23    2    1    2    0    0  0.23288092949E+02 -0.48215791777E+01  0.32725755248E+03  0.34259168680E+03  0.98518908412E+02 0.  0.
          5    1    3    3  502    0 -0.80894381281E+00 -0.43204912617E+02  0.56173386626E+02  0.70994652118E+02  0.41800000000E+01 0.  1.
         -5    1    3    3    0  502 -0.22479149137E+02  0.48026491795E+02  0.36965554974E+03  0.37346292174E+03  0.41800000000E+01 0.  1.
        -11    1    4    4    0    0  0.61441983340E+02  0.40566799303E+01  0.21773059645E+03  0.22627016285E+03  0.00000000000E+00 0.  1.
         11    1    4    4    0    0 -0.38153890391E+02 -0.88782591080E+01  0.10952695603E+03  0.11632152395E+03  0.00000000000E+00 0. -1.
</event>
<event>
 8    1  0.6380400E-009  0.1802073E+03  0.7561462E-02  0.1167603E+00
          2   -1    0    0  501    0  0.00000000000E+00  0.00000000000E+00  0.42840117925E+03  0.42840117925E+03  0.00000000000E+00 0. -1.
         -2   -1    0    0    0  501 -0.00000000000E+00 -0.00000000000E+00 -0.85040548034E+02  0.85040548034E+02  0.00000000000E+00 0.  1.
         25    2    1    2    0    0 -0.13651406703E+03  0.48732001269E+02  0.26006760274E+03  0.32294463535E+03  0.12508869278E+03 0.  0.
         23    2    1    2    0    0  0.13651406703E+03 -0.48732001269E+02  0.83293028474E+02  0.19049709193E+03  0.91326420046E+02 0.  0.
          5    1    3    3  502    0 -0.13016600137E+03  0.83799771233E+02  0.19960662385E+03  0.25263781636E+03  0.41800000000E+01 0. -1.
         -5    1    3    3    0  502 -0.63480656600E+01 -0.35067769964E+02  0.60460978891E+02  0.70306818989E+02  0.41800000000E+01 0. -1.
        -11    1    4    4    0    0  0.53078686041E+02 -0.65764106677E+02  0.54696879891E+02  0.10066783652E+03  0.00000000000E+00 0. -1.
         11    1    4    4    0    0  0.83435380987E+02  0.17032105408E+02  0.28596148583E+02  0.89829255418E+02  0.00000000000E+00 0.  1.
</event>
<event>
 8    1  0.6380400E-009  0.1522635E+03  0.7561462E-02  0.1197719E+00
          2   -1    0    0  501    0  0.00000000000E+00  0.00000000000E+00  0.66208795329E+02  0.66208795329E+02  0.00000000000E+00 0. -1.
         -2   -1    0    0    0  501 -0.00000000000E+00 -0.00000000000E+00 -0.88221972031E+03  0.88221972031E+03  0.00000000000E+00 0.  1.
         25    2    1    2    0    0  0.27371249983E+02 -0.14867507338E+03 -0.72211406069E+03  0.74829771881E+03  0.12508915445E+03 0.  0.
         23    2    1    2    0    0 -0.27371249983E+02  0.14867507338E+03 -0.93896864295E+02  0.20013079683E+03  0.91554639133E+02 0.  0.
          5    1    3    3  502    0  0.27985402474E+02 -0.14035706528E+03 -0.38036480037E+03  0.40642113907E+03  0.41800000000E+01 0. -1.
         -5    1    3    3    0  502 -0.61415249102E+00 -0.83180080931E+01 -0.34174926032E+03  0.34187657973E+03  0.41800000000E+01 0. -1.
        -11    1    4    4    0    0 -0.26378541018E+02  0.10278358181E+03 -0.10869299662E+03  0.15190279665E+03  0.00000000000E+00 0.  1.
         11    1    4    4    0    0 -0.99270896527E+00  0.45891491571E+02  0.14796132328E+02  0.48228000182E+02  0.00000000000E+00 0. -1.
</event>
<event>
 8    1  0.6380400E-009  0.1019594E+03  0.7561462E-02  0.1276229E+00
          2   -1    0    0  501    0  0.00000000000E+00  0.00000000000E+00  0.64275367076E+03  0.64275367076E+03  0.00000000000E+00 0. -1.
         -2   -1    0    0    0  501 -0.00000000000E+00 -0.00000000000E+00 -0.34143683527E+02  0.34143683527E+02  0.00000000000E+00 0.  1.
         25    2    1    2    0    0 -0.58899051723E+02 -0.68050267005E+02  0.35897973078E+03  0.39065878607E+03  0.12509157801E+03 0.  0.
         23    2    1    2    0    0  0.58899051723E+02  0.68050267005E+02  0.24963025646E+03  0.28623856822E+03  0.10731875822E+03 0.  0.
          5    1    3    3  502    0 -0.37215673504E+02 -0.38065501405E+02  0.34766072741E+03  0.35173774682E+03  0.41800000000E+01 0.  1.
         -5    1    3    3    0  502 -0.21683378219E+02 -0.29984765600E+02  0.11319003366E+02  0.38921039249E+02  0.41800000000E+01 0.  1.
        -11    1    4    4    0    0 -0.12785498366E+02  0.28900873582E+02  0.10118887968E+02  0.33183148675E+02  0.00000000000E+00 0.  1.
         11    1    4    4    0    0  0.71684550089E+02  0.39149393423E+02  0.23951136849E+03  0.25305541955E+03  0.00000000000E+00 0. -1.
</event>
<event>
 8    1  0.6380400E-009  0.9117593E+02  0.7561462E-02  0.1300029E+00
         -1   -1    0    0    0  501 -0.00000000000E+00  0.00000000000E+00  0.11704443551E+03  0.11704443551E+03  0.00000000000E+00 0.  1.
          1   -1    0    0  501    0  0.00000000000E+00 -0.00000000000E+00 -0.11294350198E+03  0.11294350198E+03  0.00000000000E+00 0. -1.
         25    2    1    2    0    0 -0.47578749667E+01  0.31409021290E+02 -0.28651262647E+02  0.13220496683E+03  0.12509234354E+03 0.  0.
         23    2    1    2    0    0  0.47578749667E+01 -0.31409021290E+02  0.32752196172E+02  0.97782970657E+02  0.86484906220E+02 0.  0.
          5    1    3    3  502    0  0.44815493860E+02  0.44882942041E+02  0.14253688775E+02  0.65142513153E+02  0.41800000000E+01 0. -1.
         -5    1    3    3    0  502 -0.49573368827E+02 -0.13473920752E+02 -0.42904951423E+02  0.67062453682E+02  0.41800000000E+01 0. -1.
        -11    1    4    4    0    0  0.30130166792E+02 -0.48541122692E+01 -0.17774975684E+02  0.35317688449E+02  0.00000000000E+00 0. -1.
         11    1    4    4    0    0 -0.25372291825E+02 -0.26554909020E+02  0.50527171855E+02  0.62465282208E+02  0.00000000000E+00 0.  1.
</event>
<event>
 8    1  0.6380400E-009  0.9644245E+02  0.7561462E-02  0.1287960E+00
         -2   -1    0    0    0  501 -0.00000000000E+00  0.00000000000E+00  0.12516012600E+02  0.12516012600E+02  0.00000000000E+00 0.  1.
          2   -1    0    0  501    0  0.00000000000E+00 -0.00000000000E+00 -0.12436588948E+04  0.12436588948E+04  0.00000000000E+00 0. -1.
         25    2    1    2    0    0  0.27149726595E+02  0.39277059445E+02 -0.88345145551E+03  0.89353996564E+03  0.12508957154E+03 0.  0.
         23    2    1    2    0    0 -0.27149726595E+02 -0.39277059445E+02 -0.34769142667E+03  0.36263494173E+03  0.91296099233E+02 0.  0.
          5    1    3    3  502    0  0.53627273003E+02  0.16095048761E+02 -0.16647466726E+03  0.17568785457E+03  0.41800000000E+01 0.  1.
         -5    1    3    3    0  502 -0.26477546408E+02  0.23182010684E+02 -0.71697678825E+03  0.71785211107E+03  0.41800000000E+01 0.  1.
        -11    1    4    4    0    0 -0.15671116803E+02  0.28517625983E+02 -0.82791397389E+02  0.88956474611E+02  0.00000000000E+00 0. -1.
         11    1    4    4    0    0 -0.11478609792E+02 -0.67794685427E+02 -0.26490002928E+03  0.27367846712E+03  0.00000000000E+00 0.  1.
</event>
<event>
 8    1  0.6380400E-009  0.9830352E+02  0.7561462E-02  0.1283904E+00
         -1   -1    0    0    0  501 -0.00000000000E+00  0.00000000000E+00  0.17305923646E+03  0.17305923646E+03  0.00000000000E+00 0.  1.
          1   -1    0    0  501    0  0.00000000000E+00 -0.00000000000E+00 -0.72749971835E+02  0.72749971835E+02  0.00000000000E+00 0. -1.
         25    2    1    2    0    0 -0.37839345381E+01  0.11880995021E+02  0.84453003298E+02  0.15144283098E+03  0.12508854898E+03 0.  0.
         23    2    1    2    0    0  0.37839345381E+01 -0.11880995021E+02  0.15856261324E+02  0.94366377311E+02  0.92185226259E+02 0.  0.
          5    1    3    3  502    0 -0.38440953117E+02  0.43011182304E+02  0.87146508416E+02  0.10459280572E+03  0.41800000000E+01 0. -1.
         -5    1    3    3    0  502  0.34657018579E+02 -0.31130187283E+02 -0.26935051173E+01  0.46850025260E+02  0.41800000000E+01 0. -1.
        -11    1    4    4    0    0 -0.35553078033E+02 -0.31982754714E+02  0.15223121090E+02  0.50186266771E+02  0.00000000000E+00 0.  1.
         11    1    4    4    0    0  0.39337012571E+02  0.20101759693E+02  0.63314023410E+00  0.44180110540E+02  0.00000000000E+00 0. -1.
</event>
<event>
 8    1  0.6380400E-009  0.9537649E+02  0.7561462E-02  0.1290330E+00
         -2   -1    0    0    0  501 -0.00000000000E+00  0.00000000000E+00  0.12443379524E+02  0.12443379524E+02  0.00000000000E+00 0.  1.
          2   -1    0    0  501    0  0.00000000000E+00 -0.00000000000E+00 -0.13508880149E+04  0.13508880149E+04  0.00000000000E+00 0. -1.
         25    2    1    2    0    0 -0.33551699621E+02 -0.47323168823E+02 -0.95863230064E+03  0.96849810563E+03  0.12508994338E+03 0.  0.
         23    2    1    2    0    0  0.33551699621E+02  0.47323168823E+02 -0.37981233472E+03  0.39483328877E+03  0.90943484995E+02 0.  0.
          5    1    3    3  502    0 -0.30065447140E+02 -0.63152237082E+02 -0.94298520497E+03  0.94558484831E+03  0.41800000000E+01 0.  1.
         -5    1    3    3    0  502 -0.34862524812E+01  0.15829068259E+02 -0.15647095665E+02  0.22913257321E+02  0.41800000000E+01 0.  1.
        -11    1    4    4    0    0  0.51921923107E+02 -0.13309767830E+01 -0.13702681437E+03  0.14654011551E+03  0.00000000000E+00 0.  1.
         11    1    4    4    0    0 -0.18370223486E+02  0.48654145606E+02 -0.24278552035E+03  0.24829317326E+03  0.00000000000E+00 0. -1.
</event>
<event>
 8    1  0.6380400E-009  0.1358598E+03  0.7561462E-02  0.1219011E+00
         -2   -1    0    0    0  501 -0.00000000000E+00  0.00000000000E+00  0.38720977349E+03  0.38720977349E+03  0.00000000000E+00 0.  1.
          2   -1    0    0  501    0  0.00000000000E+00 -0.00000000000E+00 -0.66218894242E+02  0.66218894242E+02  0.00000000000E+00 0. -1.
         25    2    1    2    0    0 -0.98173471776E+02 -0.58192037580E+02  0.13508386711E+03  0.21660928821E+03  0.12509032252E+03 0.  0.
         23    2    1    2    0    0  0.98173471776E+02  0.58192037580E+02  0.18590701214E+03  0.23681937952E+03  0.92182740019E+02 0.  0.
          5    1    3    3  502    0 -0.28071489066E+02 -0.71209062806E+02  0.16864407541E+02  0.78489615656E+02  0.41800000000E+01 0.  1.
         -5    1    3    3    0  502 -0.70101982709E+02  0.13017025226E+02  0.11821945957E+03  0.13811967256E+03  0.41800000000E+01 0.  1.
        -11    1    4    4    0    0  0.93018762992E+02  0.34208951692E+02  0.18766215335E+03  0.21222588542E+03  0.00000000000E+00 0.  1.
         11    1    4    4    0    0  0.51547087831E+01  0.23983085888E+02 -0.17551412102E+01  0.24593494099E+02  0.00000000000E+00 0. -1.
</event>
<event>
 8    1  0.6380400E-009  0.1299103E+03  0.7561462E-02  0.1227589E+00
          1   -1    0    0  501    0  0.00000000000E+00  0.00000000000E+00  0.58759200888E+03  0.58759200888E+03  0.00000000000E+00 0. -1.
         -1   -1    0    0    0  501 -0.00000000000E+00 -0.00000000000E+00 -0.32055690975E+02  0.32055690975E+02  0.00000000000E+00 0.  1.
         25    2    1    2    0    0  0.52109444935E+02 -0.56721477923E+02  0.22748748369E+03  0.27079912617E+03  0.12509552827E+03 0.  0.
         23    2    1    2    0    0 -0.52109444935E+02  0.56721477923E+02  0.32804883422E+03  0.34884857368E+03  0.90258348187E+02 0.  0.
          5    1    3    3  502    0 -0.38405060418E+02 -0.15251357517E+02  0.10487197253E+03  0.11279696625E+03  0.41800000000E+01 0. -1.
         -5    1    3    3    0  502  0.90514505353E+02 -0.41470120406E+02  0.12261551115E+03  0.15800215993E+03  0.41800000000E+01 0. -1.
        -11    1    4    4    0    0  0.25514717923E+02  0.21631514499E+02  0.95321029096E+02  0.10101990813E+03  0.00000000000E+00 0. -1.
         11    1    4    4    0    0 -0.77624162858E+02  0.35089963425E+02  0.23272780512E+03  0.24782866555E+03  0.00000000000E+00 0.  1.
</event>
<event>
 8    1  0.6380400E-009  0.1100313E+03  0.7561462E-02  0.1260512E+00
         -1   -1    0    0    0  501 -0.00000000000E+00  0.00000000000E+00  0.37739050093E+02  0.37739050093E+02  0.00000000000E+00 0.  1.
          1   -1    0    0  501    0  0.00000000000E+00 -0.00000000000E+00 -0.46539094209E+03  0.46539094209E+03  0.00000000000E+00 0. -1.
         25    2    1    2    0    0 -0.32066677932E+02 -0.67655087382E+02 -0.26746093574E+03  0.30461083430E+03  0.12508767145E+03 0.  0.
         23    2    1    2    0    0  0.32066677932E+02  0.67655087382E+02 -0.16019095626E+03  0.19851915788E+03  0.90239852032E+02 0.  0.
          5    1    3    3  502    0 -0.46727969553E+02 -0.80632698088E+02 -0.26881704414E+03  0.28454386439E+03  0.41800000000E+01 0. -1.
         -5    1    3    3    0  502  0.14661291621E+02  0.12977610707E+02  0.13561084035E+01  0.20066969917E+02  0.41800000000E+01 0. -1.
        -11    1    4    4    0    0  0.57159990105E+02  0.51271079472E+02 -0.14685415228E+03  0.16571701814E+03  0.00000000000E+00 0.  1.
         11    1    4    4    0    0 -0.25093312173E+02  0.16384007910E+02 -0.13336803979E+02  0.32802139738E+02  0.00000000000E+00 0. -1.
</event>
<event>
 7    1  0.6380400E-009  0.1001880E+03  0.7561462E-02  0.1279901E+00
          2   -1    0    0  501    0  0.00000000000E+00  0.00000000000E+00  0.48699256739E+03  0.48699256739E+03  0.00000000000E+00 0. -1.
         -2   -1    0    0    0  501 -0.00000000000E+00 -0.00000000000E+00 -0.30309861095E+02  0.30309861095E+02  0.00000000000E+00 0.  1.
         23    2    1    2    0    0  0.20373237513E+02 -0.43434505486E+02  0.25845444872E+03  0.27809513183E+03  0.90755579487E+02 0.  0.
          5    1    1    2  502    0  0.10063282823E+01 -0.41354372619E+02  0.96006586154E+02  0.10462281690E+03  0.41800000000E+01 0. -1.
         -5    1    1    2    0  502 -0.21379565796E+02  0.84788878105E+02  0.10222167142E+03  0.13458447976E+03  0.41800000000E+01 0. -1.
        -11    1    3    3    0    0  0.26537686940E+02 -0.53346967602E+02  0.25961505310E+03  0.26636464401E+03  0.00000000000E+00 0. -1.
         11    1    3    3    0    0 -0.61644494271E+01  0.99124621157E+01 -0.11606043801E+01  0.11730487819E+02  0.00000000000E+00 0.  1.
</event>
<event>
 8    1  0.6380400E-009  0.9453011E+02  0.7561462E-02  0.1292238E+00
          2   -1    0    0  501    0  0.00000000000E+00  0.00000000000E+00  0.91459654967E+02  0.91459654967E+02  0.00000000000E+00 0. -1.
         -2   -1    0    0    0  501 -0.00000000000E+00 -0.00000000000E+00 -0.13299630038E+03  0.13299630038E+03  0.00000000000E+00 0.  1.
         25    2    1    2    0    0 -0.18503332372E+01 -0.24943405855E+02 -0.25105111081E+02  0.13000840066E+03  0.12508525258E+03 0.  0.
         23    2    1    2    0    0  0.18503332372E+01  0.24943405855E+02 -0.16431534336E+02  0.94447554688E+02  0.89580958006E+02 0.  0.
          5    1    3    3  502    0 -0.44720925248E+02  0.64374652626E+01 -0.53070589216E+02  0.69823792176E+02  0.41800000000E+01 0. -1.
         -5    1    3    3    0  502  0.42870592011E+02 -0.31380871118E+02  0.27965478135E+02  0.60184608488E+02  0.41800000000E+01 0. -1.
        -11    1    4    4    0    0  0.79257264007E+01  0.57109988569E+02 -0.21067275423E+02  0.61385650009E+02  0.00000000000E+00 0.  1.
         11    1    4    4    0    0 -0.60753931635E+01 -0.32166582714E+02  0.46357410872E+01  0.33061904679E+02  0.00000000000E+00 0. -1.
</event>
<event>
 8    1  0.6380400E-009  0.1655702E+03  0.7561462E-02  0.1182548E+00
         -4   -1    0    0    0  501 -0.00000000000E+00  0.00000000000E+00  0.65859433899E+03  0.65859433899E+03  0.00000000000E+00 0.  1.
          4   -1    0    0  501    0  0.00000000000E+00 -0.00000000000E+00 -0.48110181376E+02  0.48110181376E+02  0.00000000000E+00 0. -1.
         25    2    1    2    0    0  0.15272051317E+02  0.13282505033E+03  0.40420882676E+03  0.44374339104E+03  0.12509073470E+03 0.  0.
         23    2    1    2    0    0 -0.15272051317E+02 -0.13282505033E+03  0.20627533085E+03  0.26296112933E+03  0.93398682394E+02 0.  0.
          5    1    3    3  502    0  0.64048200031E+02  0.93586079248E+02  0.31387262291E+03  0.33375742984E+03  0.41800000000E+01 0. -1.
         -5    1    3    3    0  502 -0.48776148714E+02  0.39238971085E+02  0.90336203847E+02  0.10998596120E+03  0.41800000000E+01 0. -1.
        -11    1    4    4    0    0  0.31727269072E+02 -0.65900440687E+02  0.56906698954E+02  0.92670707731E+02  0.00000000000E+00 0. -1.
         11    1    4    4    0    0 -0.46999320389E+02 -0.66924609647E+02  0.14936863190E+03  0.17029042160E+03  0.00000000000E+00 0.  1.
</event>
<event>
 8    1  0.6380400E-009  0.2206015E+03  0.7561462E-02  0.1133435E+00
         -1   -1    0    0    0  501 -0.00000000000E+00  0.00000000000E+00  0.19415855543E+03  0.19415855543E+03  0.00000000000E+00 0.  1.
          1   -1    0    0  501    0  0.00000000000E+00 -0.00000000000E+00 -0.32563469069E+03  0.32563469069E+03  0.00000000000E+00 0. -1.
         25    2    1    2    0    0 -0.17670640675E+03 -0.10941367823E+03  0.24271427237E+02  0.24379086178E+03  0.12509346480E+03 0.  0.
         23    2    1    2    0    0  0.17670640675E+03  0.10941367823E+03 -0.15574756250E+03  0.27600238435E+03  0.93399709709E+02 0.  0.
          5    1    3    3  502    0 -0.28752502737E+01 -0.36453741369E+02 -0.30094084973E+02  0.47542283015E+02  0.41800000000E+01 0.  1.
         -5    1    3    3    0  502 -0.17383115647E+03 -0.72959936863E+02  0.54365512210E+02  0.19624857876E+03  0.41800000000E+01 0.  1.
        -11    1    4    4    0    0  0.79676931320E+02  0.83466429494E+02 -0.12686570538E+03  0.17149333934E+03  0.00000000000E+00 0. -1.
         11    1    4    4    0    0  0.97029475426E+02  0.25947248738E+02 -0.28881857123E+02  0.10450904501E+03  0.00000000000E+00 0.  1.
</event>
<event>
 8    1  0.6380400E-009  0.9515693E+02  0.7561462E-02  0.1290823E+00
         -4   -1    0    0    0  501 -0.00000000000E+00  0.00000000000E+00  0.45503578907E+03  0.45503578907E+03  0.00000000000E+00 0.  1.
          4   -1    0    0  501    0  0.00000000000E+00 -0.00000000000E+00 -0.32471845817E+02  0.32471845817E+02  0.00000000000E+00 0. -1.
         25    2    1    2    0    0  0.11779912337E+02 -0.50012793988E+01  0.34389609458E+03  0.36616223382E+03  0.12508588439E+03 0.  0.
         23    2    1    2    0    0 -0.11779912337E+02  0.50012793988E+01  0.78667848667E+02  0.12134540107E+03  0.91500255825E+02 0.  0.
          5    1    3    3  502    0  0.41154917763E+02 -0.36985101041E+02  0.72583759265E+02  0.91364651064E+02  0.41800000000E+01 0.  1.
         -5    1    3    3    0  502 -0.29375005425E+02  0.31983821642E+02  0.27131233532E+03  0.27479758275E+03  0.41800000000E+01 0.  1.
        -11    1    4    4    0    0  0.20495855527E+02 -0.34535260363E+02  0.44416621370E+02  0.59879884402E+02  0.00000000000E+00 0.  1.
         11    1    4    4    0    0 -0.32275767864E+02  0.39536539762E+02  0.34251227297E+02  0.61465516665E+02  0.00000000000E+00 0. -1.
</event>
<event>
 8    1  0.6380400E-009  0.4492625E+02  0.7561462E-02  0.1474803E+00
          2   -1    0    0  501    0  0.00000000000E+00  0.00000000000E+00  0.36307335703E+03  0.36307335703E+03  0.00000000000E+00 0.  1.
         -2   -1    0    0    0  501 -0.00000000000E+00 -0.00000000000E+00 -0.44244522659E+02  0.44244522659E+02  0.00000000000E+00 0. -1.
         25    2    1    2    0    0 -0.63492007948E+00 -0.73700502612E+01  0.27259146452E+03  0.30001403451E+03  0.12509034178E+03 0.  0.
         23    2    1    2    0    0  0.63492007948E+00  0.73700502612E+01  0.46237369843E+02  0.10730384518E+03  0.96547915851E+02 0.  0.
          5    1    3    3  502    0 -0.16704450338E+02  0.17149923739E+02 -0.14794947879E+01  0.24347892110E+02  0.41800000000E+01 0. -1.
         -5    1    3    3    0  502  0.16069530259E+02 -0.24519974000E+02  0.27407095931E+03  0.27566614240E+03  0.41800000000E+01 0. -1.
        -11    1    4    4    0    0 -0.38635912047E+01 -0.13781038364E+02  0.72148779015E+02  0.73554678088E+02  0.00000000000E+00 0.  1.
         11    1    4    4    0    0  0.44985112842E+01  0.21151088625E+02 -0.25911409172E+02  0.33749167087E+02  0.00000000000E+00 0. -1.
</event>
<event>
 8    1  0.6380400E-009  0.1360124E+03  0.7561462E-02  0.1218798E+00
          1   -1    0    0  501    0  0.00000000000E+00  0.00000000000E+00  0.13576946437E+03  0.13576946437E+03  0.00000000000E+00 0. -1.
         -1   -1    0    0    0  501 -0.00000000000E+00 -0.00000000000E+00 -0.20862575579E+03  0.20862575579E+03  0.00000000000E+00 0.  1.
         25    2    1    2    0    0  0.68912247274E+02 -0.10535008572E+03 -0.65522139733E+02  0.18917641734E+03  0.12508807975E+03 0.  0.
         23    2    1    2    0    0 -0.68912247274E+02  0.10535008572E+03 -0.73341516882E+01  0.15521880282E+03  0.90507174192E+02 0.  0.
          5    1    3    3  502    0  0.15997684788E+02 -0.86581546171E+02 -0.91606063580E+02  0.12712762619E+03  0.41800000000E+01 0.  1.
         -5    1    3    3    0  502  0.52914562486E+02 -0.18768539552E+02  0.26083923847E+02  0.62048791151E+02  0.41800000000E+01 0.  1.
        -11    1    4    4    0    0 -0.22542962628E+02  0.53292328340E+02 -0.47409970333E+02  0.74806167599E+02  0.00000000000E+00 0.  1.
         11    1    4    4    0    0 -0.46369284646E+02  0.52057757384E+02  0.40075818644E+02  0.80412635216E+02  0.00000000000E+00 0. -1.
</event>
<event>
 8    1  0.6380400E-009  0.1997698E+03  0.7561462E-02  0.1149933E+00
         -1   -1    0    0    0  501 -0.00000000000E+00  0.00000000000E+00  0.13920523436E+03  0.13920523436E+03  0.00000000000E+00 0.  1.
          1   -1    0    0  501    0  0.00000000000E+00 -0.00000000000E+00 -0.30668157529E+03  0.30668157529E+03  0.00000000000E+00 0. -1.
         25    2    1    2    0    0  0.74680377175E+02 -0.15688249312E+03 -0.69860498194E+02  0.22520479897E+03  0.12508971537E+03 0.  0.
         23    2    1    2    0    0 -0.74680377175E+02  0.15688249312E+03 -0.97615842742E+02  0.22068201068E+03  0.94775638754E+02 0.  0.
          5    1    3    3  502    0  0.42632777982E+02  0.28924903564E+01 -0.41561411248E+02  0.59755699008E+02  0.41800000000E+01 0. -1.
         -5    1    3    3    0  502  0.32047599193E+02 -0.15977498347E+03 -0.28299086946E+02  0.16544909997E+03  0.41800000000E+01 0. -1.
        -11    1    4    4    0    0 -0.55362846411E+02  0.25771202615E+02 -0.52963043015E+02  0.80834915552E+02  0.00000000000E+00 0.  1.
         11    1    4    4    0    0 -0.19317530764E+02  0.13111129050E+03 -0.44652799728E+02  0.13984709513E+03  0.00000000000E+00 0. -1.
</event>
<event>
 8    1  0.6380400E-009  0.1085902E+03  0.7561462E-02  0.1263203E+00
         -1   -1    0    0    0  501 -0.00000000000E+00  0.00000000000E+00  0.16499335396E+03  0.16499335396E+03  0.00000000000E+00 0.  1.
          1   -1    0    0  501    0  0.00000000000E+00 -0.00000000000E+00 -0.12092943557E+03  0.12092943557E+03  0.00000000000E+00 0. -1.
         25    2    1    2    0    0 -0.63555296490E+01  0.34489427527E+02 -0.60055512816E+02  0.14311703687E+03  0.12508360506E+03 0.  0.
         23    2    1    2    0    0  0.63555296490E+01 -0.34489427527E+02  0.10411943120E+03  0.14280575266E+03  0.91228908087E+02 0.  0.
          5    1    3    3  502    0 -0.63773494170E+02  0.32629735779E+02 -0.26754532673E+02  0.76583520644E+02  0.41800000000E+01 0. -1.
         -5    1    3    3    0  502  0.57417964521E+02  0.18596917480E+01 -0.33300980142E+02  0.66533516227E+02  0.41800000000E+01 0. -1.
        -11    1    4    4    0    0  0.60258199431E+01  0.26325589384E+02  0.65279747334E+02  0.70645541787E+02  0.00000000000E+00 0. -1.
         11    1    4    4    0    0  0.32970970591E+00 -0.60815016910E+02  0.38839683870E+02  0.72160210874E+02  0.00000000000E+00 0.  1.
</event>
<event>
 8    1  0.6380400E-009  0.1001232E+03  0.7561462E-02  0.1280037E+00
          2   -1    0    0  501    0  0.00000000000E+00  0.00000000000E+00  0.13252937337E+03  0.13252937337E+03  0.00000000000E+00 0.  1.
         -2   -1    0    0    0  501 -0.00000000000E+00 -0.00000000000E+00 -0.19880105427E+03  0.19880105427E+03  0.00000000000E+00 0. -1.
         25    2    1    2    0    0  0.29095150679E+02  0.35298141528E+02  0.77915509815E+02  0.15430584422E+03  0.12508789031E+03 0.  0.
         23    2    1    2    0    0 -0.29095150679E+02 -0.35298141528E+02 -0.14418719072E+03  0.17702458342E+03  0.91952545246E+02 0.  0.
          5    1    3    3  502    0  0.61522252812E+02 -0.30524478759E+01  0.27117049022E+00  0.61740189201E+02  0.41800000000E+01 0. -1.
         -5    1    3    3    0  502 -0.32427102133E+02  0.38350589404E+02  0.77644339325E+02  0.92565655021E+02  0.41800000000E+01 0. -1.
        -11    1    4    4    0    0 -0.45663756874E+02  0.36256087826E+01 -0.28754959230E+02  0.54084853806E+02  0.00000000000E+00 0.  1.
         11    1    4    4    0    0  0.16568606195E+02 -0.38923750311E+02 -0.11543223149E+03  0.12293972961E+03  0.00000000000E+00 0. -1.
</event>
<event>
 8    1  0.6380400E-009  0.1207203E+03  0.7561462E-02  0.1241913E+00
         -2   -1    0    0    0  501 -0.00000000000E+00  0.00000000000E+00  0.80742077303E+02  0.80742077303E+02  0.00000000000E+00 0.  1.
          2   -1    0    0  501    0  0.00000000000E+00 -0.00000000000E+00 -0.18439282033E+03  0.18439282033E+03  0.00000000000E+00 0. -1.
         25    2    1    2    0    0 -0.30713157666E+02  0.47579334802E+02 -0.48863793686E+02  0.14574707887E+03  0.12508976581E+03 0.  0.
         23    2    1    2    0    0  0.30713157666E+02 -0.47579334802E+02 -0.54786949339E+02  0.11938781876E+03  0.89692532003E+02 0.  0.
          5    1    3    3  502    0  0.46086721500E+02  0.36457552670E+02 -0.28312329929E+02  0.65362064466E+02  0.41800000000E+01 0. -1.
         -5    1    3    3    0  502 -0.76799879166E+02  0.11121782133E+02 -0.20551463757E+02  0.80385014401E+02  0.41800000000E+01 0. -1.
        -11    1    4    4    0    0 -0.30383306762E+02 -0.26095943164E+02 -0.12168570219E+02  0.41859499287E+02  0.00000000000E+00 0.  1.
         11    1    4    4    0    0  0.61096464428E+02 -0.21483391638E+02 -0.42618379120E+02  0.77528319475E+02  0.00000000000E+00 0. -1.
</event>
<event>
 8    1  0.6380400E-009  0.7298759E+02  0.7561462E-02  0.1350219E+00
         -1   -1    0    0    0  501 -0.00000000000E+00  0.00000000000E+00  0.39242795279E+02  0.39242795279E+02  0.00000000000E+00 0.  1.
          1   -1    0    0  501    0  0.00000000000E+00 -0.00000000000E+00 -0.32725265822E+03  0.32725265822E+03  0.00000000000E+00 0. -1.
         25    2    1    2    0    0  0.73167638905E+01 -0.10904595121E+02 -0.11935509000E+03  0.17340728034E+03  0.12510796194E+03 0.  0.
         23    2    1    2    0    0 -0.73167638905E+01  0.10904595121E+02 -0.16865477295E+03  0.19308817316E+03  0.93092238916E+02 0.  0.
          5    1    3    3  502    0  0.37622174849E+01 -0.44962804821E+02 -0.12970368301E+03  0.13739114194E+03  0.41800000000E+01 0.  1.
         -5    1    3    3    0  502  0.35545464056E+01  0.34058209700E+02  0.10348593014E+02  0.36016138403E+02  0.41800000000E+01 0.  1.
        -11    1    4    4    0    0  0.22564519208E+02 -0.14602420926E+02 -0.85064357595E+01  0.28191269452E+02  0.00000000000E+00 0.  1.
         11    1    4    4    0    0 -0.29881283099E+02  0.25507016047E+02 -0.16014833719E+03  0.16489690371E+03  0.00000000000E+00 0. -1.
</event>
<event>
 8    1  0.6380400E-009  0.8624965E+02  0.7561462E-02  0.1312197E+00
          1   -1    0    0  501    0  0.00000000000E+00  0.00000000000E+00  0.32541888091E+03  0.32541888091E+03  0.00000000000E+00 0. -1.
         -1   -1    0    0    0  501 -0.00000000000E+00 -0.00000000000E+00 -0.43226901659E+02  0.43226901659E+02  0.00000000000E+00 0.  1.
         25    2    1    2    0    0  0.68373796527E+01  0.30943615160E+02  0.17336549099E+03  0.21611914993E+03  0.12509051292E+03 0.  0.
         23    2    1    2    0    0 -0.68373796527E+01 -0.30943615160E+02  0.10882648827E+03  0.15252663264E+03  0.10206327467E+03 0.  0.
          5    1    3    3  502    0 -0.27767836766E+02  0.13642723694E+02 -0.66717914637E+01  0.31924314712E+02  0.41800000000E+01 0.  1.
         -5    1    3    3    0  502  0.34605216419E+02  0.17300891465E+02  0.18003728245E+03  0.18419483522E+03  0.41800000000E+01 0.  1.
        -11    1    4    4    0    0 -0.10054358656E+01 -0.66412742759E+02  0.90273214343E+02  0.11207549478E+03  0.00000000000E+00 0.  1.
         11    1    4    4    0    0 -0.58319437871E+01  0.35469127600E+02  0.18553273923E+02  0.40451137861E+02  0.00000000000E+00 0. -1.
</event>
<event>
 8    1  0.6380400E-009  0.8929124E+02  0.7561462E-02  0.1304577E+00
         -2   -1    0    0    0  501 -0.00000000000E+00  0.00000000000E+00  0.53606179915E+03  0.53606179915E+03  0.00000000000E+00 0. -1.
          2   -1    0    0  501    0  0.00000000000E+00 -0.00000000000E+00 -0.27986093207E+02  0.27986093207E+02  0.00000000000E+00 0.  1.
         25    2    1    2    0    0  0.48859909885E+02 -0.25834513067E+02  0.25494308598E+03  0.28930642163E+03  0.12509003015E+03 0.  0.
         23    2    1    2    0    0 -0.48859909885E+02  0.25834513067E+02  0.25313261996E+03  0.27474147073E+03  0.91389493882E+02 0.  0.
          5    1    3    3  502    0  0.23196627129E+02 -0.60208442890E+02  0.23125819803E+03  0.24012698028E+03  0.41800000000E+01 0.  1.
         -5    1    3    3    0  502  0.25663282756E+02  0.34373929823E+02  0.23684887957E+02  0.49179441343E+02  0.41800000000E+01 0.  1.
        -11    1    4    4    0    0 -0.57278182842E+02  0.20391162554E+02  0.25692678248E+03  0.26402265300E+03  0.00000000000E+00 0. -1.
         11    1    4    4    0    0  0.84182729572E+01  0.54433505133E+01 -0.37941625193E+01  0.10718817734E+02  0.00000000000E+00 0.  1.
</event>
<event>
 8    1  0.6380400E-009  0.3854229E+03  0.7561462E-02  0.1048947E+00
         -2   -1    0    0    0  501 -0.00000000000E+00  0.00000000000E+00  0.55967090439E+02  0.55967090439E+02  0.00000000000E+00 0.  1.
          2   -1    0    0  501    0  0.00000000000E+00 -0.00000000000E+00 -0.28347532254E+04  0.28347532254E+04  0.00000000000E+00 0. -1.
         25    2    1    2    0    0 -0.29722442739E+03  0.24147382772E+03 -0.14618395962E+04  0.15163358081E+04  0.12508920085E+03 0.  0.
         23    2    1    2    0    0  0.29722442739E+03 -0.24147382772E+03 -0.13169465388E+04  0.13743845077E+04  0.89065254037E+02 0.  0.
          5    1    3    3  502    0 -0.16205772209E+03  0.14000312948E+03 -0.57669726502E+03  0.61519166886E+03  0.41800000000E+01 0. -1.
         -5    1    3    3    0  502 -0.13516670530E+03  0.10147069824E+03 -0.88514233117E+03  0.90114413922E+03  0.41800000000E+01 0. -1.
        -11    1    4    4    0    0  0.23214800920E+03 -0.21782327972E+03 -0.11590788616E+04  0.12019997865E+04  0.00000000000E+00 0. -1.
         11    1    4    4    0    0  0.65076418182E+02 -0.23650548001E+02 -0.15786767717E+03  0.17238472125E+03  0.00000000000E+00 0.  1.
</event>
<event>
 8    1  0.6380400E-009  0.1514720E+03  0.7561462E-02  0.1198676E+00
         -1   -1    0    0    0  501 -0.00000000000E+00  0.00000000000E+00  0.33921197080E+02  0.33921197080E+02  0.00000000000E+00 0.  1.
          1   -1    0    0  501    0  0.00000000000E+00 -0.00000000000E+00 -0.72549265180E+03  0.72549265180E+03  0.00000000000E+00 0. -1.
         25    2    1    2    0    0  0.32498272427E+02 -0.10585510942E+03 -0.37445328026E+03  0.41002982131E+03  0.12509098035E+03 0.  0.
         23    2    1    2    0    0 -0.32498272427E+02  0.10585510942E+03 -0.31711817446E+03  0.34938402757E+03  0.96144787930E+02 0.  0.
          5    1    3    3  502    0 -0.18602826215E+02  0.22107148232E+02 -0.63373043331E+02  0.69773964823E+02  0.41800000000E+01 0. -1.
         -5    1    3    3    0  502  0.51101098641E+02 -0.12796225765E+03 -0.31108023693E+03  0.34025585649E+03  0.41800000000E+01 0. -1.
        -11    1    4    4    0    0 -0.58604746132E+02  0.79868468017E+02 -0.28035345465E+03  0.29734079436E+03  0.00000000000E+00 0. -1.
         11    1    4    4    0    0  0.26106473705E+02  0.25986641405E+02 -0.36764719811E+02  0.52043233216E+02  0.00000000000E+00 0.  1.
</event>
<event>
 8    1  0.6380400E-009  0.8967092E+02  0.7561462E-02  0.1303651E+00
          2   -1    0    0  501    0  0.00000000000E+00  0.00000000000E+00  0.11396688504E+03  0.11396688504E+03  0.00000000000E+00 0. -1.
         -2   -1    0    0    0  501 -0.00000000000E+00 -0.00000000000E+00 -0.76134154243E+02  0.76134154243E+02  0.00000000000E+00 0.  1.
         25    2    1    2    0    0  0.16168931758E+02 -0.65429889656E+01  0.41481274375E+02  0.13296639041E+03  0.12512042118E+03 0.  0.
         23    2    1    2    0    0 -0.16168931758E+02  0.65429889656E+01 -0.36485435821E+01  0.57134648870E+02  0.54284538981E+02 0.  0.
          5    1    3    3  502    0  0.31208430769E+02 -0.59389901880E+02  0.61342104656E+01  0.67499833588E+02  0.41800000000E+01 0.  1.
         -5    1    3    3    0  502 -0.15039499010E+02  0.52846912914E+02  0.35347063910E+02  0.65466556822E+02  0.41800000000E+01 0.  1.
        -11    1    4    4    0    0 -0.28420656318E+02  0.22957444009E+02 -0.21955692183E+01  0.36600525476E+02  0.00000000000E+00 0.  1.
         11    1    4    4    0    0  0.12251724559E+02 -0.16414455043E+02 -0.14529743638E+01  0.20534123394E+02  0.00000000000E+00 0. -1.
</event>
<event>
 8    1  0.6380400E-009  0.1333362E+03  0.7561462E-02  0.1222588E+00
          2   -1    0    0  501    0  0.00000000000E+00  0.00000000000E+00  0.37086872138E+03  0.37086872138E+03  0.00000000000E+00 0. -1.
         -2   -1    0    0    0  501 -0.00000000000E+00 -0.00000000000E+00 -0.64997294204E+02  0.64997294204E+02  0.00000000000E+00 0.  1.
         25    2    1    2    0    0  0.94017866697E+02  0.48280155700E+02  0.16240291945E+03  0.23063500892E+03  0.12508983333E+03 0.  0.
         23    2    1    2    0    0 -0.94017866697E+02 -0.48280155700E+02  0.14346850772E+03  0.20523100666E+03  0.10181463890E+03 0.  0.
          5    1    3    3  502    0  0.22598979592E+02  0.51477649573E+02  0.36683034530E+01  0.56494169030E+02  0.41800000000E+01 0. -1.
         -5    1    3    3    0  502  0.71418887104E+02 -0.31974938728E+01  0.15873461600E+03  0.17414083989E+03  0.41800000000E+01 0. -1.
        -11    1    4    4    0    0 -0.11050280945E+03 -0.30925326964E+02  0.14004361223E+03  0.18105098749E+03  0.00000000000E+00 0. -1.
         11    1    4    4    0    0  0.16484942755E+02 -0.17354828735E+02  0.34248954977E+01  0.24180019174E+02  0.00000000000E+00 0.  1.
</event>
<event>
 8    1  0.6380400E-009  0.2242441E+03  0.7561462E-02  0.1130758E+00
          2   -1    0    0  501    0  0.00000000000E+00  0.00000000000E+00  0.27525647327E+03  0.27525647327E+03  0.00000000000E+00 0.  1.
         -2   -1    0    0    0  501 -0.00000000000E+00 -0.00000000000E+00 -0.19369844194E+03  0.19369844194E+03  0.00000000000E+00 0. -1.
         25    2    1    2    0    0  0.66892045185E+02  0.19200697390E+03  0.50144539969E+02  0.24393533904E+03  0.12509496795E+03 0.  0.
         23    2    1    2    0    0 -0.66892045185E+02 -0.19200697390E+03  0.31413491365E+02  0.22501957618E+03  0.91136043846E+02 0.  0.
          5    1    3    3  502    0  0.10272596695E+03  0.14276335070E+03  0.49973625998E+02  0.18289022468E+03  0.41800000000E+01 0. -1.
         -5    1    3    3    0  502 -0.35833921765E+02  0.49243623201E+02  0.17091397052E+00  0.61045114355E+02  0.41800000000E+01 0. -1.
        -11    1    4    4    0    0 -0.50563761178E+02 -0.59844780198E+02 -0.22253586417E+02  0.81445158050E+02  0.00000000000E+00 0.  1.
         11    1    4    4    0    0 -0.16328284006E+02 -0.13216219370E+03  0.53667077781E+02  0.14357441813E+03  0.00000000000E+00 0. -1.
</event>
<event>
 8    1  0.6380400E-009  0.2055109E+03  0.7561462E-02  0.1145171E+00
         -1   -1    0    0    0  501 -0.00000000000E+00  0.00000000000E+00  0.50172239286E+02  0.50172239286E+02  0.00000000000E+00 0.  1.
          1   -1    0    0  501    0  0.00000000000E+00 -0.00000000000E+00 -0.10008417758E+04  0.10008417758E+04  0.00000000000E+00 0. -1.
         25    2    1    2    0    0  0.11739917884E+02  0.19423438151E+03 -0.45025707762E+03  0.50620422436E+03  0.12508581127E+03 0.  0.
         23    2    1    2    0    0 -0.11739917884E+02 -0.19423438151E+03 -0.50041245894E+03  0.54480979077E+03  0.92413518604E+02 0.  0.
          5    1    3    3  502    0  0.29094254813E+02  0.13207302602E+03 -0.40569936265E+03  0.42766716629E+03  0.41800000000E+01 0.  1.
         -5    1    3    3    0  502 -0.17354336929E+02  0.62161355498E+02 -0.44557714963E+02  0.78537058071E+02  0.41800000000E+01 0.  1.
        -11    1    4    4    0    0 -0.33825425870E+02 -0.29639780097E+02 -0.15758256744E+03  0.16387477402E+03  0.00000000000E+00 0. -1.
         11    1    4    4    0    0  0.22085507986E+02 -0.16459460142E+03 -0.34282989151E+03  0.38093501675E+03  0.00000000000E+00 0.  1.
</event>
<event>
 8    1  0.6380400E-009  0.2240625E+03  0.7561462E-02  0.1130890E+00
          1   -1    0    0  501    0  0.00000000000E+00  0.00000000000E+00  0.58638381565E+03  0.58638381565E+03  0.00000000000E+00 0. -1.
         -1   -1    0    0    0  501 -0.00000000000E+00 -0.00000000000E+00 -0.10480302783E+03  0.10480302783E+03  0.00000000000E+00 0.  1.
         25    2    1    2    0    0 -0.14283360028E+03 -0.15342253992E+03  0.14366417197E+03  0.28324402232E+03  0.12509144154E+03 0.  0.
         23    2    1    2    0    0  0.14283360028E+03  0.15342253992E+03  0.33791661585E+03  0.40794282116E+03  0.91048300078E+02 0.  0.
          5    1    3    3  502    0 -0.12912181961E+03 -0.58052374283E+02  0.11554805936E+03  0.18278771534E+03  0.41800000000E+01 0.  1.
         -5    1    3    3    0  502 -0.13711780674E+02 -0.95370165635E+02  0.28116112615E+02  0.10045630698E+03  0.41800000000E+01 0.  1.
        -11    1    4    4    0    0  0.11204363716E+03  0.11184473667E+03  0.31247006874E+03  0.35028640511E+03  0.00000000000E+00 0. -1.
         11    1    4    4    0    0  0.30789963121E+02  0.41577803250E+02  0.25446547111E+02  0.57656416052E+02  0.00000000000E+00 0.  1.
</event>
<event>
 8    1  0.6380400E-009  0.1244531E+03  0.7561462E-02  0.1235926E+00
          2   -1    0    0  501    0  0.00000000000E+00  0.00000000000E+00  0.14681336004E+03  0.14681336004E+03  0.00000000000E+00 0. -1.
         -2   -1    0    0    0  501 -0.00000000000E+00 -0.00000000000E+00 -0.12071155762E+03  0.12071155762E+03  0.00000000000E+00 0.  1.
         25    2    1    2    0    0  0.67724227012E+02 -0.32046334829E+02  0.10082904688E+02  0.14616066048E+03  0.12509090776E+03 0.  0.
         23    2    1    2    0    0 -0.67724227012E+02  0.32046334829E+02  0.16018897732E+02  0.12136425717E+03  0.94123001092E+02 0.  0.
          5    1    3    3  502    0  0.90795159011E+02  0.14824340167E+02 -0.30115473422E+01  0.92141542090E+02  0.41800000000E+01 0.  1.
         -5    1    3    3    0  502 -0.23070931999E+02 -0.46870674997E+02  0.13094452030E+02  0.54019118393E+02  0.41800000000E+01 0.  1.
        -11    1    4    4    0    0 -0.61310238765E+02 -0.97845593061E+01  0.38889089477E+02  0.73260113695E+02  0.00000000000E+00 0. -1.
         11    1    4    4    0    0 -0.64139882473E+01  0.41830894135E+02 -0.22870191745E+02  0.48104143479E+02  0.00000000000E+00 0.  1.
</event>
<event>
 8    1  0.6380400E-009  0.9523580E+02  0.7561462E-02  0.1290646E+00
          2   -1    0    0  501    0  0.00000000000E+00  0.00000000000E+00  0.28194785276E+03  0.28194785276E+03  0.00000000000E+00 0. -1.
         -2   -1    0    0    0  501 -0.00000000000E+00 -0.00000000000E+00 -0.62567934832E+02  0.62567934832E+02  0.00000000000E+00 0.  1.
         25    2    1    2    0    0  0.46102872797E+02  0.56417186070E+02  0.14673062092E+03  0.20612015108E+03  0.12508903949E+03 0.  0.
         23    2    1    2    0    0 -0.46102872797E+02 -0.56417186070E+02  0.72649297007E+02  0.13839563651E+03  0.92558403651E+02 0.  0.
          5    1    3    3  502    0  0.18892831769E+01  0.58115154166E+01  0.13803286312E+03  0.13823128012E+03  0.41800000000E+01 0.  1.
         -5    1    3    3    0  502  0.44213589620E+02  0.50605670653E+02  0.86977578017E+01  0.67888870959E+02  0.41800000000E+01 0.  1.
        -11    1    4    4    0    0  0.25736666240E+02 -0.23840298889E+01  0.61172721105E+01  0.26560884882E+02  0.00000000000E+00 0.  1.
         11    1    4    4    0    0 -0.71839539037E+02 -0.54033156181E+02  0.66532024896E+02  0.11183475163E+03  0.00000000000E+00 0. -1.
</event>
<event>
 8    1  0.6380400E-009  0.1399669E+03  0.7561462E-02  0.1213374E+00
         -2   -1    0    0    0  501 -0.00000000000E+00  0.00000000000E+00  0.12001266587E+03  0.12001266587E+03  0.00000000000E+00 0.  1.
          2   -1    0    0  501    0  0.00000000000E+00 -0.00000000000E+00 -0.20530272835E+03  0.20530272835E+03  0.00000000000E+00 0. -1.
         25    2    1    2    0    0  0.91872429361E+02  0.65760501762E+02 -0.42915610878E+02  0.17393618817E+03  0.12508821300E+03 0.  0.
         23    2    1    2    0    0 -0.91872429361E+02 -0.65760501762E+02 -0.42374451608E+02  0.15137920605E+03  0.91406143150E+02 0.  0.
          5    1    3    3  502    0 -0.31734716707E+01  0.69993856022E+02 -0.18155593722E+01  0.70213812453E+02  0.41800000000E+01 0. -1.
         -5    1    3    3    0  502  0.95045901032E+02 -0.42333542608E+01 -0.41100051506E+02  0.10372237572E+03  0.41800000000E+01 0. -1.
        -11    1    4    4    0    0 -0.34644712930E+02 -0.36174284767E+02 -0.65917760612E+02  0.82788804657E+02  0.00000000000E+00 0. -1.
         11    1    4    4    0    0 -0.57227716431E+02 -0.29586216994E+02  0.23543309003E+02  0.68590401390E+02  0.00000000000E+00 0.  1.
</event>
<event>
 8    1  0.6380400E-009  0.1363281E+03  0.7561462E-02  0.1218357E+00
          1   -1    0    0  501    0  0.00000000000E+00  0.00000000000E+00  0.22347160830E+03  0.22347160830E+03  0.00000000000E+00 0. -1.
         -1   -1    0    0    0  501 -0.00000000000E+00 -0.00000000000E+00 -0.89727171832E+02  0.89727171832E+02  0.00000000000E+00 0.  1.
         25    2    1    2    0    0  0.91580947036E+01  0.90477272210E+02  0.83908349901E+02  0.17594924792E+03  0.12509004426E+03 0.  0.
         23    2    1    2    0    0 -0.91580947036E+01 -0.90477272210E+02  0.49836086566E+02  0.13724953222E+03  0.89909905372E+02 0.  0.
          5    1    3    3  502    0  0.62067476120E+02  0.55041865303E+02  0.19586319058E+02  0.85340932865E+02  0.41800000000E+01 0.  1.
         -5    1    3    3    0  502 -0.52909381417E+02  0.35435406907E+02  0.64322030842E+02  0.90608315050E+02  0.41800000000E+01 0.  1.
        -11    1    4    4    0    0 -0.45786286386E+02 -0.70476665159E+02  0.21324407568E+02  0.86706831975E+02  0.00000000000E+00 0.  1.
         11    1    4    4    0    0  0.36628191683E+02 -0.20000607051E+02  0.28511678998E+02  0.50542700241E+02  0.00000000000E+00 0. -1.
</event>
<event>
 8    1  0.6380400E-009  0.3837530E+03  0.7561462E-02  0.1049555E+00
         -2   -1    0    0    0  501 -0.00000000000E+00  0.00000000000E+00  0.51704272639E+03  0.51704272639E+03  0.00000000000E+00 0. -1.
          2   -1    0    0  501    0  0.00000000000E+00 -0.00000000000E+00 -0.31799855387E+03  0.31799855387E+03  0.00000000000E+00 0.  1.
         25    2    1    2    0    0  0.33720380956E+03 -0.18075037477E+03  0.18063762644E+03  0.44119673595E+03  0.12508996987E+03 0.  0.
         23    2    1    2    0    0 -0.33720380956E+03  0.18075037477E+03  0.18406546083E+02  0.39384454432E+03  0.91638512588E+02 0.  0.
          5    1    3    3  502    0  0.15038660794E+03 -0.10100351068E+03  0.15100754379E+03  0.23587834088E+03  0.41800000000E+01 0. -1.
         -5    1    3    3    0  502  0.18681720162E+03 -0.79746864093E+02  0.29630082655E+02  0.20531839506E+03  0.41800000000E+01 0. -1.
        -11    1    4    4    0    0 -0.23071079057E+03  0.11283329910E+03  0.54371501998E+02  0.26251682327E+03  0.00000000000E+00 0. -1.
         11    1    4    4    0    0 -0.10649301898E+03  0.67917075673E+02 -0.35964955915E+02  0.13132772104E+03  0.00000000000E+00 0.  1.
</event>
<event>
 8    1  0.6380400E-009  0.1227913E+03  0.7561462E-02  0.1238562E+00
         -4   -1    0    0    0  501 -0.00000000000E+00  0.00000000000E+00  0.10093771026E+03  0.10093771026E+03  0.00000000000E+00 0.  1.
          4   -1    0    0  501    0  0.00000000000E+00 -0.00000000000E+00 -0.20489492216E+03  0.20489492216E+03  0.00000000000E+00 0. -1.
         25    2    1    2    0    0  0.50178558467E+02 -0.77107556393E+02 -0.34448237769E+02  0.15905323415E+03  0.12509111569E+03 0.  0.
         23    2    1    2    0    0 -0.50178558467E+02  0.77107556393E+02 -0.69508974131E+02  0.14677939826E+03  0.90825278900E+02 0.  0.
          5    1    3    3  502    0  0.16279544656E+02  0.21791324854E+02  0.26299552845E+02  0.38066051712E+02  0.41800000000E+01 0. -1.
         -5    1    3    3    0  502  0.33899013811E+02 -0.98898881247E+02 -0.60747790614E+02  0.12098718244E+03  0.41800000000E+01 0. -1.
        -11    1    4    4    0    0 -0.51688970091E+02  0.18644127379E+02  0.12718933359E+01  0.54963358953E+02  0.00000000000E+00 0.  1.
         11    1    4    4    0    0  0.15104116240E+01  0.58463429014E+02 -0.70780867467E+02  0.91816039311E+02  0.00000000000E+00 0. -1.
</event>
<event>
 8    1  0.6380400E-009  0.1276890E+03  0.7561462E-02  0.1230926E+00
          2   -1    0    0  501    0  0.00000000000E+00  0.00000000000E+00  0.84435429409E+03  0.84435429409E+03  0.00000000000E+00 0. -1.
         -2   -1    0    0    0  501 -0.00000000000E+00 -0.00000000000E+00 -0.20308379720E+02  0.20308379720E+02  0.00000000000E+00 0.  1.
         25    2    1    2    0    0  0.12078013489E+02 -0.71635592167E+02  0.48816480331E+03  0.50915225523E+03  0.12511437702E+03 0.  0.
         23    2    1    2    0    0 -0.12078013489E+02  0.71635592167E+02  0.33588111106E+03  0.35551041858E+03  0.91071403193E+02 0.  0.
          5    1    3    3  502    0  0.48343872417E+02  0.11907154739E+02  0.22992907522E+03  0.23529505385E+03  0.41800000000E+01 0. -1.
         -5    1    3    3    0  502 -0.36265858928E+02 -0.83542746907E+02  0.25823572809E+03  0.27385720138E+03  0.41800000000E+01 0. -1.
        -11    1    4    4    0    0  0.38363576973E+02  0.27281882663E+02  0.10526350565E+03  0.11531032382E+03  0.00000000000E+00 0. -1.
         11    1    4    4    0    0 -0.50441590462E+02  0.44353709504E+02  0.23061760541E+03  0.24020009476E+03  0.00000000000E+00 0.  1.
</event>
<event>
 8    1  0.6380400E-009  0.1307336E+03  0.7561462E-02  0.1226371E+00
          2   -1    0    0  501    0  0.00000000000E+00  0.00000000000E+00  0.76280720081E+03  0.76280720081E+03  0.00000000000E+00 0. -1.
         -2   -1    0    0    0  501 -0.00000000000E+00 -0.00000000000E+00 -0.24223744927E+02  0.24223744927E+02  0.00000000000E+00 0.  1.
         25    2    1    2    0    0 -0.73535645162E+02  0.28274384941E+02  0.33613520028E+03  0.36720850880E+03  0.12509310180E+03 0.  0.
         23    2    1    2    0    0  0.73535645162E+02 -0.28274384941E+02  0.40244825561E+03  0.41982243693E+03  0.89885194330E+02 0.  0.
          5    1    3    3  502    0 -0.69139608285E+02  0.73867047229E+02  0.24569942581E+03  0.26574857731E+03  0.41800000000E+01 0.  1.
         -5    1    3    3    0  502 -0.43960368770E+01 -0.45592662288E+02  0.90435774465E+02  0.10145993149E+03  0.41800000000E+01 0.  1.
        -11    1    4    4    0    0  0.57441572775E+02 -0.57228269593E+02  0.22167309909E+03  0.23603722584E+03  0.00000000000E+00 0.  1.
         11    1    4    4    0    0  0.16094072387E+02  0.28953884652E+02  0.18077515652E+03  0.18378521109E+03  0.00000000000E+00 0. -1.
</event>
<event>
 8    1  0.6380400E-009  0.1506281E+03  0.7561462E-02  0.1199703E+00
          1   -1    0    0  501    0  0.00000000000E+00  0.00000000000E+00  0.74394429731E+02  0.74394429731E+02  0.00000000000E+00 0. -1.
         -1   -1    0    0    0  501 -0.00000000000E+00 -0.00000000000E+00 -0.39265667225E+03  0.39265667225E+03  0.00000000000E+00 0.  1.
         25    2    1    2    0    0  0.96524145484E+02  0.89285714201E+02 -0.16793131619E+03  0.24725890275E+03  0.12508872295E+03 0.  0.
         23    2    1    2    0    0 -0.96524145484E+02 -0.89285714201E+02 -0.15033092633E+03  0.21979219923E+03  0.91762595928E+02 0.  0.
          5    1    3    3  502    0 -0.21016205380E+02  0.51468023772E+01 -0.67990866133E+02  0.71473077034E+02  0.41800000000E+01 0.  1.
         -5    1    3    3    0  502  0.11754035086E+03  0.84138911823E+02 -0.99940450058E+02  0.17578582571E+03  0.41800000000E+01 0.  1.
        -11    1    4    4    0    0 -0.56782231021E+02 -0.32905240535E+02 -0.13354543829E+03  0.14879973355E+03  0.00000000000E+00 0. -1.
         11    1    4    4    0    0 -0.39741914463E+02 -0.56380473666E+02 -0.16785488037E+02  0.70992465689E+02  0.00000000000E+00 0.  1.
</event>
<event>
 8    1  0.6380400E-009  0.1714559E+03  0.7561462E-02  0.1176338E+00
          2   -1    0    0  501    0  0.00000000000E+00  0.00000000000E+00  0.11045754154E+03  0.11045754154E+03  0.00000000000E+00 0. -1.
         -2   -1    0    0    0  501 -0.00000000000E+00 -0.00000000000E+00 -0.30861450972E+03  0.30861450972E+03  0.00000000000E+00 0.  1.
         25    2    1    2    0    0  0.14867950545E+03 -0.11401552091E+02 -0.83187108883E+02  0.21167074420E+03  0.12509523626E+03 0.  0.
         23    2    1    2    0    0 -0.14867950545E+03  0.11401552091E+02 -0.11496985930E+03  0.20740130707E+03  0.86957707507E+02 0.  0.
          5    1    3    3  502    0  0.47463261197E+02  0.54480339743E+02 -0.43677812106E+02  0.84534562472E+02  0.41800000000E+01 0.  1.
         -5    1    3    3    0  502  0.10121624425E+03 -0.65881891834E+02 -0.39509296777E+02  0.12713618173E+03  0.41800000000E+01 0.  1.
        -11    1    4    4    0    0 -0.15066200669E+02  0.51953333871E+01  0.14280881529E+02  0.21399193182E+02  0.00000000000E+00 0. -1.
         11    1    4    4    0    0 -0.13361330478E+03  0.62062187036E+01 -0.12925074083E+03  0.18600211388E+03  0.00000000000E+00 0.  1.
</event>
<event>
 8    1  0.6380400E-009  0.1404090E+03  0.7561462E-02  0.1212780E+00
         -3   -1    0    0    0  501 -0.00000000000E+00  0.00000000000E+00  0.11179981303E+04  0.11179981303E+04  0.00000000000E+00 0.  1.
          3   -1    0    0  501    0  0.00000000000E+00 -0.00000000000E+00 -0.21214699777E+02  0.21214699777E+02  0.00000000000E+00 0. -1.
         25    2    1    2    0    0  0.18612971733E+02  0.10986261216E+03  0.59960087516E+03  0.62256273389E+03  0.12508761680E+03 0.  0.
         23    2    1    2    0    0 -0.18612971733E+02 -0.10986261216E+03  0.49718255535E+03  0.51665009617E+03  0.85560459669E+02 0.  0.
          5    1    3    3  502    0 -0.22998754955E+02  0.92284498705E+02  0.21296297646E+03  0.23327252983E+03  0.41800000000E+01 0. -1.
         -5    1    3    3    0  502  0.41611726688E+02  0.17578113456E+02  0.38663789869E+03  0.38929020406E+03  0.41800000000E+01 0. -1.
        -11    1    4    4    0    0 -0.19958491877E+02  0.86366363486E+01  0.66857877502E+02  0.70305822443E+02  0.00000000000E+00 0. -1.
         11    1    4    4    0    0  0.13455201432E+01 -0.11849924851E+03  0.43032467785E+03  0.44634427373E+03  0.00000000000E+00 0.  1.
</event>
<event>
 8    1  0.6380400E-009  0.1356896E+03  0.7561462E-02  0.1219249E+00
          2   -1    0    0  501    0  0.00000000000E+00  0.00000000000E+00  0.67313054426E+02  0.67313054426E+02  0.00000000000E+00 0. -1.
         -2   -1    0    0    0  501 -0.00000000000E+00 -0.00000000000E+00 -0.42961399867E+03  0.42961399867E+03  0.00000000000E+00 0.  1.
         25    2    1    2    0    0  0.12223045693E+03  0.44711553258E+01 -0.26194561396E+03  0.31499781038E+03  0.12509132681E+03 0.  0.
         23    2    1    2    0    0 -0.12223045693E+03 -0.44711553258E+01 -0.10035533029E+03  0.18192924272E+03  0.89815261551E+02 0.  0.
          5    1    3    3  502    0  0.84742124383E+02 -0.36690465136E+02 -0.23594997492E+03  0.25341128811E+03  0.41800000000E+01 0. -1.
         -5    1    3    3    0  502  0.37488332547E+02  0.41161620462E+02 -0.25995639032E+02  0.61586522266E+02  0.41800000000E+01 0. -1.
        -11    1    4    4    0    0 -0.65166721478E+02  0.46012950506E+01 -0.10531970963E+03  0.12393592999E+03  0.00000000000E+00 0. -1.
         11    1    4    4    0    0 -0.57063735452E+02 -0.90724503764E+01  0.49643793417E+01  0.57993312733E+02  0.00000000000E+00 0.  1.
</event>
<event>
 8    1  0.6380400E-009  0.2256353E+03  0.7561462E-02  0.1129750E+00
         -3   -1    0    0    0  501 -0.00000000000E+00  0.00000000000E+00  0.12339932769E+03  0.12339932769E+03  0.00000000000E+00 0.  1.
          3   -1    0    0  501    0  0.00000000000E+00 -0.00000000000E+00 -0.46732445448E+03  0.46732445448E+03  0.00000000000E+00 0. -1.
         25    2    1    2    0    0 -0.76076332344E+02 -0.19650087388E+03 -0.13336215986E+03  0.27898608808E+03  0.12509024694E+03 0.  0.
         23    2    1    2    0    0  0.76076332344E+02  0.19650087388E+03 -0.21056296692E+03  0.31173769409E+03  0.91888111825E+02 0.  0.
          5    1    3    3  502    0 -0.10392989439E+03 -0.12083973171E+03 -0.61459134357E+02  0.17087527996E+03  0.41800000000E+01 0.  1.
         -5    1    3    3    0  502  0.27853562047E+02 -0.75661142180E+02 -0.71903025507E+02  0.10811080812E+03  0.41800000000E+01 0.  1.
        -11    1    4    4    0    0  0.74183544049E+02  0.18300373665E+03 -0.14555340363E+03  0.24531481640E+03  0.00000000000E+00 0.  1.
         11    1    4    4    0    0  0.18927882944E+01  0.13497137235E+02 -0.65009563293E+02  0.66422877690E+02  0.00000000000E+00 0. -1.
</event>
<event>
 8    1  0.6380400E-009  0.1501180E+03  0.7561462E-02  0.1200328E+00
          1   -1    0    0  501    0  0.00000000000E+00  0.00000000000E+00  0.89796121468E+03  0.89796121468E+03  0.00000000000E+00 0. -1.
         -1   -1    0    0    0  501 -0.00000000000E+00 -0.00000000000E+00 -0.27497351257E+02  0.27497351257E+02  0.00000000000E+00 0.  1.
         25    2    1    2    0    0  0.10045678735E+02  0.11241031133E+03  0.41978970289E+03  0.45234203793E+03  0.12511167361E+03 0.  0.
         23    2    1    2    0    0 -0.10045678735E+02 -0.11241031133E+03  0.45067416053E+03  0.47311652801E+03  0.89415078971E+02 0.  0.
          5    1    3    3  502    0  0.38216176179E+02  0.12506926080E+03  0.37938382595E+03  0.40131328898E+03  0.41800000000E+01 0. -1.
         -5    1    3    3    0  502 -0.28170497444E+02 -0.12658949478E+02  0.40405876940E+02  0.51028748950E+02  0.41800000000E+01 0. -1.
        -11    1    4    4    0    0  0.35092971670E+02 -0.54114945897E+02  0.14536354167E+03  0.15902988171E+03  0.00000000000E+00 0.  1.
         11    1    4    4    0    0 -0.45138650405E+02 -0.58295365429E+02  0.30531061886E+03  0.31408664630E+03  0.00000000000E+00 0. -1.
</event>
<event>
 8    1  0.6380400E-009  0.8366344E+02  0.7561462E-02  0.1318965E+00
          2   -1    0    0  501    0  0.00000000000E+00  0.00000000000E+00  0.83232651364E+02  0.83232651364E+02  0.00000000000E+00 0. -1.
         -2   -1    0    0    0  501 -0.00000000000E+00 -0.00000000000E+00 -0.27777185956E+03  0.27777185956E+03  0.00000000000E+00 0.  1.
         25    2    1    2    0    0  0.36820921936E+02 -0.62874790103E+02 -0.13745089685E+02  0.14541445535E+03  0.12508963511E+03 0.  0.
         23    2    1    2    0    0 -0.36820921936E+02  0.62874790103E+02 -0.18079411851E+03  0.21559005557E+03  0.92106130363E+02 0.  0.
          5    1    3    3  502    0  0.19722784554E+02 -0.33031875980E+02 -0.69629791876E+02  0.79660990316E+02  0.41800000000E+01 0. -1.
         -5    1    3    3    0  502  0.17098137382E+02 -0.29842914122E+02  0.55884702191E+02  0.65753465036E+02  0.41800000000E+01 0. -1.
        -11    1    4    4    0    0  0.62383202393E+01  0.48032551882E+02 -0.27554401178E+02  0.55725108380E+02  0.00000000000E+00 0. -1.
         11    1    4    4    0    0 -0.43059242175E+02  0.14842238220E+02 -0.15323971733E+03  0.15986494719E+03  0.00000000000E+00 0.  1.
</event>
<event>
 8    1  0.6380400E-009  0.1419436E+03  0.7561462E-02  0.1210737E+00
          1   -1    0    0  501    0  0.00000000000E+00  0.00000000000E+00  0.72503215722E+03  0.72503215722E+03  0.00000000000E+00 0. -1.
         -1   -1    0    0    0  501 -0.00000000000E+00 -0.00000000000E+00 -0.31988613207E+02  0.31988613207E+02  0.00000000000E+00 0.  1.
         25    2    1    2    0    0 -0.87881319187E+02 -0.32741318739E+02  0.24754817014E+03  0.29278608989E+03  0.12509387546E+03 0.  0.
         23    2    1    2    0    0  0.87881319187E+02  0.32741318739E+02  0.44549537387E+03  0.46423468054E+03  0.90843768408E+02 0.  0.
          5    1    3    3  502    0 -0.91323894279E+02  0.26975413577E+02  0.13494531946E+03  0.16521331135E+03  0.41800000000E+01 0. -1.
         -5    1    3    3    0  502  0.34425750917E+01 -0.59716732316E+02  0.11260285069E+03  0.12757277854E+03  0.41800000000E+01 0. -1.
        -11    1    4    4    0    0  0.93414128395E+02 -0.19945221263E+01  0.28481477084E+03  0.29974928055E+03  0.00000000000E+00 0. -1.
         11    1    4    4    0    0 -0.55328092076E+01  0.34735840866E+02  0.16068060303E+03  0.16448539998E+03  0.00000000000E+00 0.  1.
</event>
<event>
 8    1  0.6380400E-009  0.5632836E+03  0.7561462E-02  0.9984652E-01
          2   -1    0    0  501    0  0.00000000000E+00  0.00000000000E+00  0.20774347842E+03  0.20774347842E+03  0.00000000000E+00 0. -1.
         -2   -1    0    0    0  501 -0.00000000000E+00 -0.00000000000E+00 -0.16322269579E+04  0.16322269579E+04  0.00000000000E+00 0.  1.
         25    2    1    2    0    0 -0.55175940805E+03 -0.32414819937E+02 -0.48367154512E+03  0.74503210004E+03  0.12508197955E+03 0.  0.
         23    2    1    2    0    0  0.55175940805E+03  0.32414819937E+02 -0.94081193431E+03  0.10949383362E+04  0.90959878421E+02 0.  0.
          5    1    3    3  502    0 -0.18555664534E+03 -0.70184637227E+02 -0.16314942764E+03  0.25688978195E+03  0.41800000000E+01 0.  1.
         -5    1    3    3    0  502 -0.36620276271E+03  0.37769817290E+02 -0.32052211748E+03  0.48814231808E+03  0.41800000000E+01 0.  1.
        -11    1    4    4    0    0  0.10944445174E+03  0.42838961397E+02 -0.18640250976E+03  0.22036143100E+03  0.00000000000E+00 0.  1.
         11    1    4    4    0    0  0.44231495631E+03 -0.10424141460E+02 -0.75440942456E+03  0.87457690523E+03  0.00000000000E+00 0. -1.
</event>
<event>
 8    1  0.6380400E-009  0.1367221E+03  0.7561462E-02  0.1217809E+00
         -1   -1    0    0    0  501 -0.00000000000E+00  0.00000000000E+00  0.91065733549E+02  0.91065733549E+02  0.00000000000E+00 0.  1.
          1   -1    0    0  501    0  0.00000000000E+00 -0.00000000000E+00 -0.37137671192E+03  0.37137671192E+03  0.00000000000E+00 0. -1.
         25    2    1    2    0    0  0.65626973145E+02  0.92338327611E+02 -0.27909715901E+03  0.32615372824E+03  0.12509102256E+03 0.  0.
         23    2    1    2    0    0 -0.65626973145E+02 -0.92338327611E+02 -0.12138193643E+01  0.13628871724E+03  0.75761961023E+02 0.  0.
          5    1    3    3  502    0  0.40359228794E+02  0.10564859359E+03 -0.12192806629E+03  0.16635629963E+03  0.41800000000E+01 0. -1.
         -5    1    3    3    0  502  0.25267744351E+02 -0.13310265975E+02 -0.15716909272E+03  0.15979742861E+03  0.41800000000E+01 0. -1.
        -11    1    4    4    0    0 -0.71738588851E+02 -0.47234249235E+02 -0.18031885181E+02  0.87764732748E+02  0.00000000000E+00 0. -1.
         11    1    4    4    0    0  0.61116157064E+01 -0.45104078376E+02  0.16818065817E+02  0.48523984487E+02  0.00000000000E+00 0.  1.
</event>
<event>
 8    1  0.6380400E-009  0.7625192E+02  0.7561462E-02  0.1340037E+00
          2   -1    0    0  501    0  0.00000000000E+00  0.00000000000E+00  0.67173322723E+02  0.67173322723E+02  0.00000000000E+00 0. -1.
         -2   -1    0    0    0  501 -0.00000000000E+00 -0.00000000000E+00 -0.20060119778E+03  0.20060119778E+03  0.00000000000E+00 0.  1.
         25    2    1    2    0    0  0.24910228461E+02  0.34742043890E+02 -0.84165164626E+02  0.15671218070E+03  0.12508958209E+03 0.  0.
         23    2    1    2    0    0 -0.24910228461E+02 -0.34742043890E+02 -0.49262710431E+02  0.11106233981E+03  0.89891599099E+02 0.  0.
          5    1    3    3  502    0 -0.10583118356E+02 -0.17871882145E+02 -0.90356784023E+02  0.92807474831E+02  0.41800000000E+01 0.  1.
         -5    1    3    3    0  502  0.35493346817E+02  0.52613926036E+02  0.61916193967E+01  0.63904705867E+02  0.41800000000E+01 0.  1.
        -11    1    4    4    0    0  0.29896814233E+00  0.13382344191E+02  0.19360583886E+02  0.23537389966E+02  0.00000000000E+00 0. -1.
         11    1    4    4    0    0 -0.25209196603E+02 -0.48124388081E+02 -0.68623294318E+02  0.87524949840E+02  0.00000000000E+00 0.  1.
</event>
<event>
 8    1  0.6380400E-009  0.1375606E+03  0.7561462E-02  0.1216650E+00
         -1   -1    0    0    0  501 -0.00000000000E+00  0.00000000000E+00  0.11062582924E+03  0.11062582924E+03  0.00000000000E+00 0.  1.
          1   -1    0    0  501    0  0.00000000000E+00 -0.00000000000E+00 -0.40643287416E+03  0.40643287416E+03  0.00000000000E+00 0. -1.
         25    2    1    2    0    0 -0.10243406288E+03  0.32500459371E+02 -0.33165761029E+03  0.37039596754E+03  0.12508950881E+03 0.  0.
         23    2    1    2    0    0  0.10243406288E+03 -0.32500459371E+02  0.35850565364E+02  0.14666273586E+03  0.93143319445E+02 0.  0.
          5    1    3    3  502    0 -0.61943681945E+02 -0.45146168922E+02 -0.16898461541E+03  0.18560298744E+03  0.41800000000E+01 0. -1.
         -5    1    3    3    0  502 -0.40490380933E+02  0.77646628293E+02 -0.16267299487E+03  0.18479298010E+03  0.41800000000E+01 0. -1.
        -11    1    4    4    0    0  0.69379698587E+02 -0.34674823547E+02  0.66021536883E+02  0.10185641510E+03  0.00000000000E+00 0.  1.
         11    1    4    4    0    0  0.33054364292E+02  0.21743641759E+01 -0.30170971519E+02  0.44806320767E+02  0.00000000000E+00 0. -1.
</event>
<event>
 8    1  0.6380400E-009  0.8306276E+02  0.7561462E-02  0.1320578E+00
          1   -1    0    0  501    0  0.00000000000E+00  0.00000000000E+00  0.14387970105E+02  0.14387970105E+02  0.00000000000E+00 0. -1.
         -1   -1    0    0    0  501 -0.00000000000E+00 -0.00000000000E+00 -0.94721042163E+03  0.94721042163E+03  0.00000000000E+00 0.  1.
         25    2    1    2    0    0 -0.12571505624E+02 -0.39708623577E+02 -0.48508343514E+03  0.50268167839E+03  0.12509241867E+03 0.  0.
         23    2    1    2    0    0  0.12571505624E+02  0.39708623577E+02 -0.44773901639E+03  0.45891671334E+03  0.91648815855E+02 0.  0.
          5    1    3    3  502    0  0.74992502846E+01  0.10624382116E+02 -0.40874518750E+03  0.40897336949E+03  0.41800000000E+01 0. -1.
         -5    1    3    3    0  502 -0.20070755909E+02 -0.50333005693E+02 -0.76338247636E+02  0.93708308901E+02  0.41800000000E+01 0. -1.
        -11    1    4    4    0    0 -0.38182136385E+02  0.10674546245E+02 -0.23349680925E+03  0.23683872447E+03  0.00000000000E+00 0. -1.
         11    1    4    4    0    0  0.50753642009E+02  0.29034077333E+02 -0.21424220714E+03  0.22207798888E+03  0.00000000000E+00 0.  1.
</event>
<event>
 8    1  0.6380400E-009  0.9313164E+02  0.7561462E-02  0.1295440E+00
          4   -1    0    0  501    0  0.00000000000E+00  0.00000000000E+00  0.13230103267E+03  0.13230103267E+03  0.00000000000E+00 0. -1.
         -4   -1    0    0    0  501 -0.00000000000E+00 -0.00000000000E+00 -0.13824450320E+03  0.13824450320E+03  0.00000000000E+00 0.  1.
         25    2    1    2    0    0  0.58846846942E+02 -0.52738270402E+01 -0.57092839564E+02  0.14965961569E+03  0.12509054157E+03 0.  0.
         23    2    1    2    0    0 -0.58846846942E+02  0.52738270402E+01  0.51149369039E+02  0.12088592018E+03  0.92230055289E+02 0.  0.
          5    1    3    3  502    0  0.91022849648E+02 -0.49119740964E+01 -0.69723557986E+02  0.11483959938E+03  0.41800000000E+01 0. -1.
         -5    1    3    3    0  502 -0.32176002705E+02 -0.36185294382E+00  0.12630718423E+02  0.34820016306E+02  0.41800000000E+01 0. -1.
        -11    1    4    4    0    0 -0.19810445229E+02 -0.79533095089E+01  0.71714105144E+02  0.74823938342E+02  0.00000000000E+00 0. -1.
         11    1    4    4    0    0 -0.39036401713E+02  0.13227136549E+02 -0.20564736106E+02  0.46061981841E+02  0.00000000000E+00 0.  1.
</event>
<event>
 8    1  0.6380400E-009  0.8762310E+02  0.7561462E-02  0.1308712E+00
         -2   -1    0    0    0  501 -0.00000000000E+00  0.00000000000E+00  0.81495819979E+02  0.81495819979E+02  0.00000000000E+00 0.  1.
          2   -1    0    0  501    0  0.00000000000E+00 -0.00000000000E+00 -0.17301275236E+03  0.17301275236E+03  0.00000000000E+00 0. -1.
         25    2    1    2    0    0  0.34466074617E+02  0.45604317413E+01 -0.85643976260E+02  0.15553773557E+03  0.12509351973E+03 0.  0.
         23    2    1    2    0    0 -0.34466074617E+02 -0.45604317413E+01 -0.58729561172E+01  0.98970836770E+02  0.92477170589E+02 0.  0.
          5    1    3    3  502    0 -0.28687789006E+01 -0.30784390814E+02 -0.97704893736E+02  0.10256523422E+03  0.41800000000E+01 0. -1.
         -5    1    3    3    0  502  0.37334853517E+02  0.35344822555E+02  0.12060917476E+02  0.52972501347E+02  0.41800000000E+01 0. -1.
        -11    1    4    4    0    0 -0.48763325732E+02 -0.34198202939E+02  0.13104693470E+02  0.60984522723E+02  0.00000000000E+00 0.  1.
         11    1    4    4    0    0  0.14297251116E+02  0.29637771198E+02 -0.18977649587E+02  0.37986314047E+02  0.00000000000E+00 0. -1.
</event>
<event>
 8    1  0.6380400E-009  0.1204095E+03  0.7561462E-02  0.1242423E+00
          2   -1    0    0  501    0  0.00000000000E+00  0.00000000000E+00  0.22783142198E+03  0.22783142198E+03  0.00000000000E+00 0.  1.
         -2   -1    0    0    0  501 -0.00000000000E+00 -0.00000000000E+00 -0.81737558999E+02  0.81737558999E+02  0.00000000000E+00 0. -1.
         25    2    1    2    0    0 -0.13967764765E+01  0.65979113928E+02  0.13525405137E+03  0.19569352529E+03  0.12508838063E+03 0.  0.
         23    2    1    2    0    0  0.13967764765E+01 -0.65979113928E+02  0.10839811606E+02  0.11387545568E+03  0.92167908908E+02 0.  0.
          5    1    3    3  502    0  0.61221564259E+02  0.25302342798E+02  0.57620966340E+02  0.87897307372E+02  0.41800000000E+01 0.  1.
         -5    1    3    3    0  502 -0.62618340736E+02  0.40676771130E+02  0.77633085034E+02  0.10779621792E+03  0.41800000000E+01 0.  1.
        -11    1    4    4    0    0  0.15536228814E+02  0.12482986472E+02  0.25960419576E+02  0.32728317121E+02  0.00000000000E+00 0.  1.
         11    1    4    4    0    0 -0.14139452338E+02 -0.78462100400E+02 -0.15120607970E+02  0.81147138563E+02  0.00000000000E+00 0. -1.
</event>
<event>
 8    1  0.6380400E-009  0.2260676E+03  0.7561462E-02  0.1129439E+00
         -1   -1    0    0    0  501 -0.00000000000E+00  0.00000000000E+00  0.46964274116E+02  0.46964274116E+02  0.00000000000E+00 0.  1.
          1   -1    0    0  501    0  0.00000000000E+00 -0.00000000000E+00 -0.11826862665E+04  0.11826862665E+04  0.00000000000E+00 0. -1.
         25    2    1    2    0    0  0.19737198477E+03 -0.67765137182E+02 -0.60780358658E+03  0.65469172348E+03  0.12509292041E+03 0.  0.
         23    2    1    2    0    0 -0.19737198477E+03  0.67765137182E+02 -0.52791840578E+03  0.57495881712E+03  0.91279702189E+02 0.  0.
          5    1    3    3  502    0  0.16898296235E+03 -0.61343866219E+01 -0.36041916452E+03  0.39813605566E+03  0.41800000000E+01 0.  1.
         -5    1    3    3    0  502  0.28389022418E+02 -0.61630750560E+02 -0.24738442207E+03  0.25655566782E+03  0.41800000000E+01 0.  1.
        -11    1    4    4    0    0 -0.22906874540E+02  0.27800018201E+02 -0.33697810384E+02  0.49326548003E+02  0.00000000000E+00 0. -1.
         11    1    4    4    0    0 -0.17446511023E+03  0.39965118981E+02 -0.49422059539E+03  0.52563226911E+03  0.00000000000E+00 0.  1.
</event>
<event>
 8    1  0.6380400E-009  0.8826405E+02  0.7561462E-02  0.1307111E+00
         -1   -1    0    0    0  501 -0.00000000000E+00  0.00000000000E+00  0.54563891520E+02  0.54563891520E+02  0.00000000000E+00 0.  1.
          1   -1    0    0  501    0  0.00000000000E+00 -0.00000000000E+00 -0.23083260082E+03  0.23083260082E+03  0.00000000000E+00 0. -1.
         25    2    1    2    0    0  0.62364006642E+01 -0.16279909950E+02 -0.13200984866E+03  0.18269546366E+03  0.12508838530E+03 0.  0.
         23    2    1    2    0    0 -0.62364006642E+01  0.16279909950E+02 -0.44258860634E+02  0.10270102867E+03  0.91020472337E+02 0.  0.
          5    1    3    3  502    0  0.60234093830E+02  0.13096038408E+02 -0.85559304579E+02  0.10553444595E+03  0.41800000000E+01 0. -1.
         -5    1    3    3    0  502 -0.53997693166E+02 -0.29375948357E+02 -0.46450544083E+02  0.77161017715E+02  0.41800000000E+01 0. -1.
        -11    1    4    4    0    0  0.16038797277E+02  0.24589160858E+02  0.19103033331E+02  0.35025643924E+02  0.00000000000E+00 0.  1.
         11    1    4    4    0    0 -0.22275197941E+02 -0.83092509084E+01 -0.63361893965E+02  0.67675384749E+02  0.00000000000E+00 0. -1.
</event>
<event>
 8    1  0.6380400E-009  0.1035479E+03  0.7561462E-02  0.1273007E+00
         -1   -1    0    0    0  501 -0.00000000000E+00  0.00000000000E+00  0.17504681641E+02  0.17504681641E+02  0.00000000000E+00 0.  1.
          1   -1    0    0  501    0  0.00000000000E+00 -0.00000000000E+00 -0.10857457034E+04  0.10857457034E+04  0.00000000000E+00 0. -1.
         25    2    1    2    0    0  0.52139802315E+02  0.31889425277E+02 -0.82375006740E+03  0.83543264567E+03  0.12509211593E+03 0.  0.
         23    2    1    2    0    0 -0.52139802315E+02 -0.31889425277E+02 -0.24449095434E+03  0.26781773936E+03  0.90636749345E+02 0.  0.
          5    1    3    3  502    0  0.69862101611E+02 -0.77217980110E+01 -0.71210517639E+03  0.71557780433E+03  0.41800000000E+01 0.  1.
         -5    1    3    3    0  502 -0.17722299296E+02  0.39611223288E+02 -0.11164489101E+03  0.11985484134E+03  0.41800000000E+01 0.  1.
        -11    1    4    4    0    0 -0.64997135691E+02 -0.41429442884E+02 -0.23862861816E+03  0.25076810761E+03  0.00000000000E+00 0. -1.
         11    1    4    4    0    0  0.12857333376E+02  0.95400176074E+01 -0.58623361756E+01  0.17049631753E+02  0.00000000000E+00 0.  1.
</event>
<event>
 8    1  0.6380400E-009  0.1010048E+03  0.7561462E-02  0.1278197E+00
         -1   -1    0    0    0  501 -0.00000000000E+00  0.00000000000E+00  0.11842119560E+03  0.11842119560E+03  0.00000000000E+00 0.  1.
          1   -1    0    0  501    0  0.00000000000E+00 -0.00000000000E+00 -0.15111697452E+03  0.15111697452E+03  0.00000000000E+00 0. -1.
         25    2    1    2    0    0 -0.27874197450E+02  0.71893755508E+02 -0.19994295089E+02  0.14830448667E+03  0.12509502774E+03 0.  0.
         23    2    1    2    0    0  0.27874197450E+02 -0.71893755508E+02 -0.12701483840E+02  0.12123368345E+03  0.92685464591E+02 0.  0.
          5    1    3    3  502    0 -0.24798418288E+02 -0.19106719954E+02  0.30667737652E+02  0.44022844407E+02  0.41800000000E+01 0. -1.
         -5    1    3    3    0  502 -0.30757791622E+01  0.91000475463E+02 -0.50662032740E+02  0.10428164226E+03  0.41800000000E+01 0. -1.
        -11    1    4    4    0    0  0.24187634114E+02 -0.37092745797E+02  0.38861579777E+02  0.58916345928E+02  0.00000000000E+00 0.  1.
         11    1    4    4    0    0  0.36865633364E+01 -0.34801009711E+02 -0.51563063617E+02  0.62317337522E+02  0.00000000000E+00 0. -1.
</event>
<event>
 8    1  0.6380400E-009  0.2165118E+03  0.7561462E-02  0.1136511E+00
         -1   -1    0    0    0  501 -0.00000000000E+00  0.00000000000E+00  0.10149801767E+03  0.10149801767E+03  0.00000000000E+00 0.  1.
          1   -1    0    0  501    0  0.00000000000E+00 -0.00000000000E+00 -0.98999885197E+03  0.98999885197E+03  0.00000000000E+00 0. -1.
         25    2    1    2    0    0  0.19190950295E+03 -0.62512494711E+02 -0.82790387091E+03  0.86128498131E+03  0.12509968124E+03 0.  0.
         23    2    1    2    0    0 -0.19190950295E+03  0.62512494711E+02 -0.60596963394E+02  0.23021188833E+03  0.92673902679E+02 0.  0.
          5    1    3    3  502    0  0.21650027324E+02  0.29841653572E+02 -0.22437194090E+03  0.22741919056E+03  0.41800000000E+01 0.  1.
         -5    1    3    3    0  502  0.17025947562E+03 -0.92354148282E+02 -0.60353193002E+03  0.63386579076E+03  0.41800000000E+01 0.  1.
        -11    1    4    4    0    0 -0.46550738107E+02  0.98958530466E+01 -0.58756299864E+02  0.75612180894E+02  0.00000000000E+00 0. -1.
         11    1    4    4    0    0 -0.14535876484E+03  0.52616641664E+02 -0.18406635300E+01  0.15459970743E+03  0.00000000000E+00 0.  1.
</event>
<event>
 8    1  0.6380400E-009  0.1378550E+03  0.7561462E-02  0.1216245E+00
          1   -1    0    0  501    0  0.00000000000E+00  0.00000000000E+00  0.13742568630E+04  0.13742568630E+04  0.00000000000E+00 0. -1.
         -1   -1    0    0    0  501 -0.00000000000E+00 -0.00000000000E+00 -0.31646897303E+02  0.31646897303E+02  0.00000000000E+00 0.  1.
         25    2    1    2    0    0  0.53510418804E+02 -0.73931135768E+02  0.12145879778E+04  0.12244185313E+04  0.12509039236E+03 0.  0.
         23    2    1    2    0    0 -0.53510418804E+02  0.73931135768E+02  0.12802198788E+03  0.18148522896E+03  0.90653633110E+02 0.  0.
          5    1    3    3  502    0  0.45990074937E+02  0.26653071447E+02  0.47126689587E+03  0.47427358429E+03  0.41800000000E+01 0. -1.
         -5    1    3    3    0  502  0.75203438662E+01 -0.10058420721E+03  0.74332108196E+03  0.75014494706E+03  0.41800000000E+01 0. -1.
        -11    1    4    4    0    0 -0.74401095980E+02  0.64706534403E+02  0.12378853712E+03  0.15825947239E+03  0.00000000000E+00 0. -1.
         11    1    4    4    0    0  0.20890677177E+02  0.92246013645E+01  0.42334507521E+01  0.23225756576E+02  0.00000000000E+00 0.  1.
</event>
<event>
 8    1  0.6380400E-009  0.1060981E+03  0.7561462E-02  0.1267971E+00
          2   -1    0    0  501    0  0.00000000000E+00  0.00000000000E+00  0.59868522528E+03  0.59868522528E+03  0.00000000000E+00 0. -1.
         -2   -1    0    0    0  501 -0.00000000000E+00 -0.00000000000E+00 -0.32459984673E+02  0.32459984673E+02  0.00000000000E+00 0.  1.
         25    2    1    2    0    0  0.72729651599E+02  0.20129111614E+02  0.40827876715E+03  0.43362583036E+03  0.12508007714E+03 0.  0.
         23    2    1    2    0    0 -0.72729651599E+02 -0.20129111614E+02  0.15794647346E+03  0.19751937959E+03  0.91498816823E+02 0.  0.
          5    1    3    3  502    0  0.63605032468E+02 -0.40316321315E+02  0.14653556994E+03  0.16480640636E+03  0.41800000000E+01 0. -1.
         -5    1    3    3    0  502  0.91246191315E+01  0.60445432929E+02  0.26174319721E+03  0.26881942400E+03  0.41800000000E+01 0. -1.
        -11    1    4    4    0    0 -0.33215480929E+02 -0.79669597122E+01 -0.97011898367E-01  0.34157722870E+02  0.00000000000E+00 0.  1.
         11    1    4    4    0    0 -0.39514170671E+02 -0.12162151902E+02  0.15804348536E+03  0.16336165672E+03  0.00000000000E+00 0. -1.
</event>
<event>
 8    1  0.6380400E-009  0.1334343E+03  0.7561462E-02  0.1222447E+00
         -3   -1    0    0    0  501 -0.00000000000E+00  0.00000000000E+00  0.21146177661E+02  0.21146177661E+02  0.00000000000E+00 0.  1.
          3   -1    0    0  501    0  0.00000000000E+00 -0.00000000000E+00 -0.10858080740E+04  0.10858080740E+04  0.00000000000E+00 0. -1.
         25    2    1    2    0    0 -0.34237686211E+02 -0.91739628170E+02 -0.71229328227E+03  0.72979344730E+03  0.12509347391E+03 0.  0.
         23    2    1    2    0    0  0.34237686211E+02  0.91739628170E+02 -0.35236861409E+03  0.37716080439E+03  0.92185973093E+02 0.  0.
          5    1    3    3  502    0  0.27787719239E+02 -0.89737077330E+02 -0.49110092445E+03  0.50002249028E+03  0.41800000000E+01 0. -1.
         -5    1    3    3    0  502 -0.62025405450E+02 -0.20025508406E+01 -0.22119235782E+03  0.22977095702E+03  0.41800000000E+01 0. -1.
        -11    1    4    4    0    0  0.42252047917E+02  0.39679314633E+02 -0.28901665652E+03  0.29477162568E+03  0.00000000000E+00 0. -1.
         11    1    4    4    0    0 -0.80143617057E+01  0.52060313537E+02 -0.63351957574E+02  0.82389178705E+02  0.00000000000E+00 0.  1.
</event>
<event>
 8    1  0.6380400E-009  0.1090191E+03  0.7561462E-02  0.1262397E+00
          1   -1    0    0  501    0  0.00000000000E+00  0.00000000000E+00  0.23884690743E+03  0.23884690743E+03  0.00000000000E+00 0. -1.
         -1   -1    0    0    0  501 -0.00000000000E+00 -0.00000000000E+00 -0.82539489428E+02  0.82539489428E+02  0.00000000000E+00 0.  1.
         25    2    1    2    0    0  0.23471034445E+02 -0.77215563711E+02  0.99319175628E+02  0.17895746988E+03  0.12509334371E+03 0.  0.
         23    2    1    2    0    0 -0.23471034445E+02  0.77215563711E+02  0.56988242375E+02  0.14242892698E+03  0.10259243020E+03 0.  0.
          5    1    3    3  502    0  0.58475441095E+02 -0.20231813119E+02  0.92825415186E+02  0.11163661397E+03  0.41800000000E+01 0.  1.
         -5    1    3    3    0  502 -0.35004406650E+02 -0.56983750591E+02  0.64937604418E+01  0.67320855914E+02  0.41800000000E+01 0.  1.
        -11    1    4    4    0    0  0.18436742418E+01  0.55871029592E+02 -0.19400583341E+02  0.59172237716E+02  0.00000000000E+00 0.  1.
         11    1    4    4    0    0 -0.25314708687E+02  0.21344534119E+02  0.76388825716E+02  0.83256689262E+02  0.00000000000E+00 0. -1.
</event>
<event>
 8    1  0.6380400E-009  0.1409314E+03  0.7561462E-02  0.1212081E+00
          2   -1    0    0  501    0  0.00000000000E+00  0.00000000000E+00  0.56100062785E+03  0.56100062785E+03  0.00000000000E+00 0.  1.
         -2   -1    0    0    0  501 -0.00000000000E+00 -0.00000000000E+00 -0.38160775481E+02  0.38160775481E+02  0.00000000000E+00 0. -1.
         25    2    1    2    0    0 -0.85693128221E+02  0.46937800695E+02  0.28347711117E+03  0.32488931243E+03  0.12508926180E+03 0.  0.
         23    2    1    2    0    0  0.85693128221E+02 -0.46937800695E+02  0.23936274120E+03  0.27427209090E+03  0.91565215081E+02 0.  0.
          5    1    3    3  502    0  0.62275510222E+01  0.64496398152E+02  0.12226151345E+03  0.13843380308E+03  0.41800000000E+01 0.  1.
         -5    1    3    3    0  502 -0.91920679243E+02 -0.17558597457E+02  0.16121559772E+03  0.18645550935E+03  0.41800000000E+01 0.  1.
        -11    1    4    4    0    0 -0.13822914876E+02 -0.16556286233E+01  0.35821566855E+01  0.14375184462E+02  0.00000000000E+00 0. -1.
         11    1    4    4    0    0  0.99516043097E+02 -0.45282172072E+02  0.23578058451E+03  0.25989690644E+03  0.00000000000E+00 0.  1.
</event>
<event>
 8    1  0.6380400E-009  0.1537551E+03  0.7561462E-02  0.1195933E+00
          1   -1    0    0  501    0  0.00000000000E+00  0.00000000000E+00  0.54419518916E+02  0.54419518916E+02  0.00000000000E+00 0. -1.
         -1   -1    0    0    0  501 -0.00000000000E+00 -0.00000000000E+00 -0.58059688535E+03  0.58059688535E+03  0.00000000000E+00 0.  1.
         25    2    1    2    0    0  0.10799376316E+03 -0.27261534424E+02 -0.12568636866E+03  0.20940087124E+03  0.12508324216E+03 0.  0.
         23    2    1    2    0    0 -0.10799376316E+03  0.27261534424E+02 -0.40049099778E+03  0.42561553303E+03  0.91376684744E+02 0.  0.
          5    1    3    3  502    0  0.69280498892E+02  0.45794519554E+02 -0.48776318978E+02  0.96402942076E+02  0.41800000000E+01 0.  1.
         -5    1    3    3    0  502  0.38713264268E+02 -0.73056053978E+02 -0.76910049678E+02  0.11299792916E+03  0.41800000000E+01 0.  1.
        -11    1    4    4    0    0 -0.96200811740E+02  0.55435128476E+02 -0.34289069354E+03  0.36041875279E+03  0.00000000000E+00 0.  1.
         11    1    4    4    0    0 -0.11792951419E+02 -0.28173594052E+02 -0.57600304244E+02  0.65196780242E+02  0.00000000000E+00 0. -1.
</event>
<event>
 8    1  0.6380400E-009  0.1119586E+03  0.7561462E-02  0.1256985E+00
         -1   -1    0    0    0  501 -0.00000000000E+00  0.00000000000E+00  0.49570423137E+02  0.49570423137E+02  0.00000000000E+00 0.  1.
          1   -1    0    0  501    0  0.00000000000E+00 -0.00000000000E+00 -0.27597977322E+03  0.27597977322E+03  0.00000000000E+00 0. -1.
         25    2    1    2    0    0 -0.33610734297E+01 -0.43292253700E+02 -0.10788180517E+03  0.17079586462E+03  0.12508887816E+03 0.  0.
         23    2    1    2    0    0  0.33610734297E+01  0.43292253700E+02 -0.11852754491E+03  0.15475433174E+03  0.89524344421E+02 0.  0.
          5    1    3    3  502    0  0.51447861673E+02 -0.52563981674E+02 -0.78976203194E+02  0.10800262826E+03  0.41800000000E+01 0. -1.
         -5    1    3    3    0  502 -0.54808935103E+02  0.92717279737E+01 -0.28905601980E+02  0.62793236360E+02  0.41800000000E+01 0. -1.
        -11    1    4    4    0    0  0.38627560512E+02 -0.46631082566E-01 -0.25660273422E+02  0.46373917644E+02  0.00000000000E+00 0. -1.
         11    1    4    4    0    0 -0.35266487082E+02  0.43338884783E+02 -0.92867271488E+02  0.10838041409E+03  0.00000000000E+00 0.  1.
</event>
<event>
 8    1  0.6380400E-009  0.1447006E+03  0.7561462E-02  0.1207140E+00
         -1   -1    0    0    0  501 -0.00000000000E+00  0.00000000000E+00  0.15005247866E+03  0.15005247866E+03  0.00000000000E+00 0.  1.
          1   -1    0    0  501    0  0.00000000000E+00 -0.00000000000E+00 -0.14160209384E+03  0.14160209384E+03  0.00000000000E+00 0. -1.
         25    2    1    2    0    0 -0.42248219024E+02 -0.87182246652E+02  0.75067789168E+01  0.15839466428E+03  0.12508741664E+03 0.  0.
         23    2    1    2    0    0  0.42248219024E+02  0.87182246652E+02  0.94360590374E+00  0.13325990823E+03  0.91496757354E+02 0.  0.
          5    1    3    3  502    0 -0.57159415704E+02  0.10689768772E+02  0.10602662508E+02  0.59256719554E+02  0.41800000000E+01 0. -1.
         -5    1    3    3    0  502  0.14911196681E+02 -0.97872015424E+02 -0.30958835910E+01  0.99137944728E+02  0.41800000000E+01 0. -1.
        -11    1    4    4    0    0 -0.23329052762E+02  0.53334997024E+02  0.94432536812E+01  0.58974923912E+02  0.00000000000E+00 0. -1.
         11    1    4    4    0    0  0.65577271785E+02  0.33847249627E+02 -0.84996477774E+01  0.74284984314E+02  0.00000000000E+00 0.  1.
</event>
<event>
 8    1  0.6380400E-009  0.1701256E+03  0.7561462E-02  0.1177717E+00
         -2   -1    0    0    0  501 -0.00000000000E+00  0.00000000000E+00  0.46187019120E+03  0.46187019120E+03  0.00000000000E+00 0.  1.
          2   -1    0    0  501    0  0.00000000000E+00 -0.00000000000E+00 -0.94175880852E+02  0.94175880852E+02  0.00000000000E+00 0. -1.
         25    2    1    2    0    0  0.30406097284E+02 -0.16423829048E+03  0.11067635372E+03  0.23621068083E+03  0.12508990230E+03 0.  0.
         23    2    1    2    0    0 -0.30406097284E+02  0.16423829048E+03  0.25701795663E+03  0.31983539122E+03  0.91311010484E+02 0.  0.
          5    1    3    3  502    0  0.63237543087E+01 -0.15137721097E+01 -0.22962969341E+02  0.24229150532E+02  0.41800000000E+01 0. -1.
         -5    1    3    3    0  502  0.24082342975E+02 -0.16272451837E+03  0.13363932306E+03  0.21198153030E+03  0.41800000000E+01 0. -1.
        -11    1    4    4    0    0 -0.63650181603E+01  0.83171225903E+02  0.52586413885E+02  0.98606780698E+02  0.00000000000E+00 0.  1.
         11    1    4    4    0    0 -0.24041079124E+02  0.81067064574E+02  0.20443154275E+03  0.22122861052E+03  0.00000000000E+00 0. -1.
</event>
<event>
 8    1  0.6380400E-009  0.1230490E+03  0.7561462E-02  0.1238150E+00
          1   -1    0    0  501    0  0.00000000000E+00  0.00000000000E+00  0.69294917605E+02  0.69294917605E+02  0.00000000000E+00 0. -1.
         -1   -1    0    0    0  501 -0.00000000000E+00 -0.00000000000E+00 -0.28997288226E+03  0.28997288226E+03  0.00000000000E+00 0.  1.
         25    2    1    2    0    0 -0.51703114596E+02  0.43444977654E+02 -0.19874600875E+03  0.24435153010E+03  0.12508803352E+03 0.  0.
         23    2    1    2    0    0  0.51703114596E+02 -0.43444977654E+02 -0.21931955905E+02  0.11491626976E+03  0.90355189242E+02 0.  0.
          5    1    3    3  502    0  0.40310658130E+02  0.10661364631E+02 -0.81892810061E+02  0.91991948530E+02  0.41800000000E+01 0. -1.
         -5    1    3    3    0  502 -0.92013772726E+02  0.32783613023E+02 -0.11685319869E+03  0.15235958157E+03  0.41800000000E+01 0. -1.
        -11    1    4    4    0    0 -0.90515040562E+01 -0.44748455817E+02  0.92989377620E+01  0.46592105203E+02  0.00000000000E+00 0.  1.
         11    1    4    4    0    0  0.60754618652E+02  0.13034781633E+01 -0.31230893667E+02  0.68324164555E+02  0.00000000000E+00 0. -1.
</event>
<event>
 8    1  0.6380400E-009  0.1031224E+03  0.7561462E-02  0.1273864E+00
         -1   -1    0    0    0  501 -0.00000000000E+00  0.00000000000E+00  0.20668687808E+02  0.20668687808E+02  0.00000000000E+00 0.  1.
          1   -1    0    0  501    0  0.00000000000E+00 -0.00000000000E+00 -0.67058601676E+03  0.67058601676E+03  0.00000000000E+00 0. -1.
         25    2    1    2    0    0 -0.96245958088E+01  0.41221591835E+02 -0.43818580913E+03  0.45764534195E+03  0.12506239724E+03 0.  0.
         23    2    1    2    0    0  0.96245958088E+01 -0.41221591835E+02 -0.21173151982E+03  0.23360936262E+03  0.89169755752E+02 0.  0.
          5    1    3    3  502    0  0.44146836659E+02  0.37468769284E+02 -0.10392792883E+03  0.11904343178E+03  0.41800000000E+01 0. -1.
         -5    1    3    3    0  502 -0.53771432468E+02  0.37528225513E+01 -0.33425788030E+03  0.33860191017E+03  0.41800000000E+01 0. -1.
        -11    1    4    4    0    0  0.26274339979E+02 -0.62095507903E+02 -0.17955418769E+03  0.19179650508E+03  0.00000000000E+00 0. -1.
         11    1    4    4    0    0 -0.16649744170E+02  0.20873916067E+02 -0.32177332130E+02  0.41812857543E+02  0.00000000000E+00 0.  1.
</event>
<event>
 8    1  0.6380400E-009  0.1079964E+03  0.7561462E-02  0.1264326E+00
          1   -1    0    0  501    0  0.00000000000E+00  0.00000000000E+00  0.51616930356E+03  0.51616930356E+03  0.00000000000E+00 0. -1.
         -1   -1    0    0    0  501 -0.00000000000E+00 -0.00000000000E+00 -0.34264283297E+02  0.34264283297E+02  0.00000000000E+00 0.  1.
         25    2    1    2    0    0 -0.67441365604E+02  0.36825182280E+02  0.24142962850E+03  0.28256066444E+03  0.12509129358E+03 0.  0.
         23    2    1    2    0    0  0.67441365604E+02 -0.36825182280E+02  0.24047539177E+03  0.26787292242E+03  0.89571517091E+02 0.  0.
          5    1    3    3  502    0 -0.61460452684E+02  0.70637563271E+00  0.23766555261E+03  0.24552041363E+03  0.41800000000E+01 0. -1.
         -5    1    3    3    0  502 -0.59809129203E+01  0.36118806648E+02  0.37640758870E+01  0.37040250813E+02  0.41800000000E+01 0. -1.
        -11    1    4    4    0    0  0.82617044817E+02 -0.55836675549E+01  0.15803232522E+03  0.17841235734E+03  0.00000000000E+00 0.  1.
         11    1    4    4    0    0 -0.15175679212E+02 -0.31241514726E+02  0.82443066551E+02  0.89460565079E+02  0.00000000000E+00 0. -1.
</event>
<event>
 8    1  0.6380400E-009  0.7572600E+02  0.7561462E-02  0.1341637E+00
         -3   -1    0    0    0  501 -0.00000000000E+00  0.00000000000E+00  0.13689133894E+03  0.13689133894E+03  0.00000000000E+00 0.  1.
          3   -1    0    0  501    0  0.00000000000E+00 -0.00000000000E+00 -0.11539582461E+03  0.11539582461E+03  0.00000000000E+00 0. -1.
         25    2    1    2    0    0  0.39395519052E+02 -0.50014306684E+02 -0.23074119811E+02  0.14224302431E+03  0.12508886907E+03 0.  0.
         23    2    1    2    0    0 -0.39395519052E+02  0.50014306684E+02  0.44569634139E+02  0.11004413925E+03  0.77909065589E+02 0.  0.
          5    1    3    3  502    0  0.40874326158E+02 -0.24315717757E+02 -0.72238707968E+02  0.86590230383E+02  0.41800000000E+01 0.  1.
         -5    1    3    3    0  502 -0.14788071051E+01 -0.25698588927E+02  0.49164588157E+02  0.55652793928E+02  0.41800000000E+01 0.  1.
        -11    1    4    4    0    0  0.97433440646E+01  0.12273041846E+02  0.45452476456E+02  0.48077935955E+02  0.00000000000E+00 0.  1.
         11    1    4    4    0    0 -0.49138863117E+02  0.37741264838E+02 -0.88284231633E+00  0.61966203293E+02  0.00000000000E+00 0. -1.
</event>
<event>
 8    1  0.6380400E-009  0.1319643E+03  0.7561462E-02  0.1224570E+00
          1   -1    0    0  501    0  0.00000000000E+00  0.00000000000E+00  0.52953030536E+02  0.52953030536E+02  0.00000000000E+00 0. -1.
         -1   -1    0    0    0  501 -0.00000000000E+00 -0.00000000000E+00 -0.39317287988E+03  0.39317287988E+03  0.00000000000E+00 0.  1.
         25    2    1    2    0    0  0.83057466992E+02 -0.40678217902E+02 -0.15187661583E+03  0.21741147005E+03  0.12509188877E+03 0.  0.
         23    2    1    2    0    0 -0.83057466992E+02  0.40678217902E+02 -0.18834323351E+03  0.22871444037E+03  0.91015720557E+02 0.  0.
          5    1    3    3  502    0  0.69075297290E+02  0.31725341470E+02 -0.10585707160E+03  0.13038821263E+03  0.41800000000E+01 0.  1.
         -5    1    3    3    0  502  0.13982169702E+02 -0.72403559372E+02 -0.46019544238E+02  0.87023257416E+02  0.41800000000E+01 0.  1.
        -11    1    4    4    0    0 -0.78851085706E+02  0.60760680566E+01 -0.17379628386E+03  0.19094386767E+03  0.00000000000E+00 0.  1.
         11    1    4    4    0    0 -0.42063812859E+01  0.34602149845E+02 -0.14546949658E+02  0.37770572696E+02  0.00000000000E+00 0. -1.
</event>
<event>
 8    1  0.6380400E-009  0.1973735E+03  0.7561462E-02  0.1151974E+00
          3   -1    0    0  501    0  0.00000000000E+00  0.00000000000E+00  0.12710691045E+03  0.12710691045E+03  0.00000000000E+00 0. -1.
         -3   -1    0    0    0  501 -0.00000000000E+00 -0.00000000000E+00 -0.36022704900E+03  0.36022704900E+03  0.00000000000E+00 0.  1.
         25    2    1    2    0    0  0.66020157774E+02 -0.15594930322E+03 -0.20471606623E+03  0.29365812470E+03  0.12509028749E+03 0.  0.
         23    2    1    2    0    0 -0.66020157774E+02  0.15594930322E+03 -0.28404072319E+02  0.19367583474E+03  0.89580640936E+02 0.  0.
          5    1    3    3  502    0  0.10326438331E+03 -0.12122994629E+03 -0.15962368687E+03  0.22551591196E+03  0.41800000000E+01 0. -1.
         -5    1    3    3    0  502 -0.37244225532E+02 -0.34719356931E+02 -0.45092379357E+02  0.68142212741E+02  0.41800000000E+01 0. -1.
        -11    1    4    4    0    0  0.15107501372E+02  0.40710451906E+02  0.15432501560E+02  0.46084049263E+02  0.00000000000E+00 0. -1.
         11    1    4    4    0    0 -0.81127659146E+02  0.11523885131E+03 -0.43836573879E+02  0.14759178548E+03  0.00000000000E+00 0.  1.
</event>
<event>
 8    1  0.6380400E-009  0.1314559E+03  0.7561462E-02  0.1225311E+00
         -4   -1    0    0    0  501 -0.00000000000E+00  0.00000000000E+00  0.99330363875E+02  0.99330363875E+02  0.00000000000E+00 0.  1.
          4   -1    0    0  501    0  0.00000000000E+00 -0.00000000000E+00 -0.22393891598E+03  0.22393891598E+03  0.00000000000E+00 0. -1.
         25    2    1    2    0    0 -0.12569735171E+02  0.10076139918E+03 -0.58898939140E+02  0.17154409108E+03  0.12508969719E+03 0.  0.
         23    2    1    2    0    0  0.12569735171E+02 -0.10076139918E+03 -0.65709612965E+02  0.15172518878E+03  0.91607433468E+02 0.  0.
          5    1    3    3  502    0 -0.92422095072E+01 -0.27231899170E+02  0.31009092720E+01  0.29224695161E+02  0.41800000000E+01 0. -1.
         -5    1    3    3    0  502 -0.33275256635E+01  0.12799329835E+03 -0.61999848412E+02  0.14231939591E+03  0.41800000000E+01 0. -1.
        -11    1    4    4    0    0 -0.86795721904E+01 -0.49516538859E+02  0.16182292377E+02  0.52811828036E+02  0.00000000000E+00 0.  1.
         11    1    4    4    0    0  0.21249307361E+02 -0.51244860324E+02 -0.81891905343E+02  0.98913360744E+02  0.00000000000E+00 0. -1.
</event>
<event>
 8    1  0.6380400E-009  0.9252270E+02  0.7561462E-02  0.1296855E+00
          1   -1    0    0  501    0  0.00000000000E+00  0.00000000000E+00  0.45914254187E+03  0.45914254187E+03  0.00000000000E+00 0. -1.
         -1   -1    0    0    0  501 -0.00000000000E+00 -0.00000000000E+00 -0.30818703861E+02  0.30818703861E+02  0.00000000000E+00 0.  1.
         25    2    1    2    0    0  0.10427869244E+02  0.48810883078E+02  0.23733684044E+03  0.27288753713E+03  0.12509032467E+03 0.  0.
         23    2    1    2    0    0 -0.10427869244E+02 -0.48810883078E+02  0.19098699757E+03  0.21707370860E+03  0.90297945500E+02 0.  0.
          5    1    3    3  502    0 -0.29982023889E+02  0.18558865563E+01  0.19591487046E+03  0.19824851812E+03  0.41800000000E+01 0.  1.
         -5    1    3    3    0  502  0.40409893133E+02  0.46954996522E+02  0.41421969985E+02  0.74639019010E+02  0.41800000000E+01 0.  1.
        -11    1    4    4    0    0  0.25632511129E+02  0.66425374452E+01  0.18399067703E+02  0.32243985840E+02  0.00000000000E+00 0.  1.
         11    1    4    4    0    0 -0.36060380373E+02 -0.55453420523E+02  0.17258792987E+03  0.18482972276E+03  0.00000000000E+00 0. -1.
</event>
<event>
 8    1  0.6380400E-009  0.7360877E+02  0.7561462E-02  0.1348234E+00
         -1   -1    0    0    0  501 -0.00000000000E+00  0.00000000000E+00  0.18632749141E+02  0.18632749141E+02  0.00000000000E+00 0.  1.
          1   -1    0    0  501    0  0.00000000000E+00 -0.00000000000E+00 -0.10234490060E+04  0.10234490060E+04  0.00000000000E+00 0. -1.
         25    2    1    2    0    0 -0.46801455063E+02 -0.10472975314E+02 -0.81124229540E+03  0.82222988647E+03  0.12509142639E+03 0.  0.
         23    2    1    2    0    0  0.46801455063E+02  0.10472975314E+02 -0.19357396150E+03  0.21985186871E+03  0.92541375590E+02 0.  0.
          5    1    3    3  502    0 -0.10603867426E+02  0.27519719127E+00 -0.13885468364E+01  0.11485564862E+02  0.41800000000E+01 0.  1.
         -5    1    3    3    0  502 -0.36197587637E+02 -0.10748172505E+02 -0.80985374856E+03  0.81074432161E+03  0.41800000000E+01 0.  1.
        -11    1    4    4    0    0  0.62860843277E+02 -0.17780644718E+02 -0.16140565810E+03  0.17412473521E+03  0.00000000000E+00 0. -1.
         11    1    4    4    0    0 -0.16059388214E+02  0.28253620031E+02 -0.32168303398E+02  0.45727133500E+02  0.00000000000E+00 0.  1.
</event>
<event>
 8    1  0.6380400E-009  0.1126918E+03  0.7561462E-02  0.1255665E+00
         -1   -1    0    0    0  501 -0.00000000000E+00  0.00000000000E+00  0.41764235652E+03  0.41764235652E+03  0.00000000000E+00 0.  1.
          1   -1    0    0  501    0  0.00000000000E+00 -0.00000000000E+00 -0.59620913477E+02  0.59620913477E+02  0.00000000000E+00 0. -1.
         25    2    1    2    0    0 -0.25447427995E+02  0.91716978488E+02  0.95144067469E+02  0.18373725665E+03  0.12508960857E+03 0.  0.
         23    2    1    2    0    0  0.25447427995E+02 -0.91716978488E+02  0.26287737558E+03  0.29352601335E+03  0.89405985203E+02 0.  0.
          5    1    3    3  502    0 -0.37921470512E+02  0.79230609954E+02  0.12257237874E+03  0.15085419421E+03  0.41800000000E+01 0.  1.
         -5    1    3    3    0  502  0.12474042517E+02  0.12486368534E+02 -0.27428311275E+02  0.32883062438E+02  0.41800000000E+01 0.  1.
        -11    1    4    4    0    0 -0.24557300952E+02 -0.42866034836E+02  0.17150930629E+03  0.17848249247E+03  0.00000000000E+00 0.  1.
         11    1    4    4    0    0  0.50004728947E+02 -0.48850943652E+02  0.91368069283E+02  0.11504352088E+03  0.00000000000E+00 0. -1.
</event>
<event>
 8    1  0.6380400E-009  0.4286654E+03  0.7561462E-02  0.1034282E+00
         -2   -1    0    0    0  501 -0.00000000000E+00  0.00000000000E+00  0.53160824750E+02  0.53160824750E+02  0.00000000000E+00 0.  1.
          2   -1    0    0  501    0  0.00000000000E+00 -0.00000000000E+00 -0.35263782168E+04  0.35263782168E+04  0.00000000000E+00 0. -1.
         25    2    1    2    0    0 -0.39719160953E+03  0.13221262092E+03 -0.17242732699E+04  0.17787652002E+04  0.12508387700E+03 0.  0.
         23    2    1    2    0    0  0.39719160953E+03 -0.13221262092E+03 -0.17489441222E+04  0.18007738414E+04  0.93485472349E+02 0.  0.
          5    1    3    3  502    0 -0.34909802406E+03  0.14648265311E+03 -0.13865875454E+04  0.14373479368E+04  0.41800000000E+01 0.  1.
         -5    1    3    3    0  502 -0.48093585467E+02 -0.14270032187E+02 -0.33768572455E+03  0.34141726339E+03  0.41800000000E+01 0.  1.
        -11    1    4    4    0    0  0.10254725406E+03  0.64317932089E+01 -0.45948965698E+03  0.47083760698E+03  0.00000000000E+00 0.  1.
         11    1    4    4    0    0  0.29464435547E+03 -0.13864441413E+03 -0.12894544652E+04  0.13299362344E+04  0.00000000000E+00 0. -1.
</event>
<event>
 8    1  0.6380400E-009  0.1399812E+03  0.7561462E-02  0.1213354E+00
         -1   -1    0    0    0  501 -0.00000000000E+00  0.00000000000E+00  0.78959879144E+02  0.78959879144E+02  0.00000000000E+00 0. -1.
          1   -1    0    0  501    0  0.00000000000E+00 -0.00000000000E+00 -0.26028793554E+03  0.26028793554E+03  0.00000000000E+00 0.  1.
         25    2    1    2    0    0 -0.84793807200E+02  0.32029095153E+02 -0.11928910746E+03  0.19517442736E+03  0.12508922121E+03 0.  0.
         23    2    1    2    0    0  0.84793807200E+02 -0.32029095153E+02 -0.62038948935E+02  0.14407338732E+03  0.93233347431E+02 0.  0.
          5    1    3    3  502    0 -0.11133457869E+03 -0.10328152679E+01 -0.79422365145E+02  0.13682777352E+03  0.41800000000E+01 0.  1.
         -5    1    3    3    0  502  0.26540771494E+02  0.33061910421E+02 -0.39866742312E+02  0.58346653844E+02  0.41800000000E+01 0.  1.
        -11    1    4    4    0    0  0.21151374791E+01  0.25264129696E+02  0.98359428049E+00  0.25371588708E+02  0.00000000000E+00 0. -1.
         11    1    4    4    0    0  0.82678669721E+02 -0.57293224850E+02 -0.63022543216E+02  0.11870179861E+03  0.00000000000E+00 0.  1.
</event>
<event>
 8    1  0.6380400E-009  0.1183123E+03  0.7561462E-02  0.1245907E+00
         -2   -1    0    0    0  501 -0.00000000000E+00  0.00000000000E+00  0.18581707926E+02  0.18581707926E+02  0.00000000000E+00 0.  1.
          2   -1    0    0  501    0  0.00000000000E+00 -0.00000000000E+00 -0.82095535127E+03  0.82095535127E+03  0.00000000000E+00 0. -1.
         25    2    1    2    0    0 -0.54806792619E+02  0.14559312371E+02 -0.39162708776E+03  0.41501149980E+03  0.12508801303E+03 0.  0.
         23    2    1    2    0    0  0.54806792619E+02 -0.14559312371E+02 -0.41074655558E+03  0.42452555939E+03  0.91068433404E+02 0.  0.
          5    1    3    3  502    0 -0.84385091931E+02 -0.22141112055E+02 -0.21274176519E+03  0.22997304982E+03  0.41800000000E+01 0.  1.
         -5    1    3    3    0  502  0.29578299312E+02  0.36700424426E+02 -0.17888532257E+03  0.18503844999E+03  0.41800000000E+01 0.  1.
        -11    1    4    4    0    0 -0.22194943941E+02 -0.11264689171E+02 -0.52758837862E+02  0.58335270045E+02  0.00000000000E+00 0.  1.
         11    1    4    4    0    0  0.77001736560E+02 -0.32946231992E+01 -0.35798771772E+03  0.36619028935E+03  0.00000000000E+00 0. -1.
</event>
<event>
 8    1  0.6380400E-009  0.1180528E+03  0.7561462E-02  0.1246344E+00
         -1   -1    0    0    0  501 -0.00000000000E+00  0.00000000000E+00  0.15861260998E+03  0.15861260998E+03  0.00000000000E+00 0. -1.
          1   -1    0    0  501    0  0.00000000000E+00 -0.00000000000E+00 -0.24197062901E+03  0.24197062901E+03  0.00000000000E+00 0.  1.
         25    2    1    2    0    0  0.27855374839E+02  0.66925288918E+02 -0.19379931855E+03  0.24178474245E+03  0.12508704812E+03 0.  0.
         23    2    1    2    0    0 -0.27855374839E+02 -0.66925288918E+02  0.11044129952E+03  0.15879849654E+03  0.88117907710E+02 0.  0.
          5    1    3    3  502    0  0.61118143319E+02 -0.31136615675E+01 -0.11945673705E+03  0.13428516954E+03  0.41800000000E+01 0.  1.
         -5    1    3    3    0  502 -0.33262768480E+02  0.70038950486E+02 -0.74342581498E+02  0.10749957291E+03  0.41800000000E+01 0.  1.
        -11    1    4    4    0    0 -0.47749196904E+02 -0.58497853671E+02  0.40688043584E+02  0.85775879941E+02  0.00000000000E+00 0.  1.
         11    1    4    4    0    0  0.19893822065E+02 -0.84274352473E+01  0.69753255932E+02  0.73022616595E+02  0.00000000000E+00 0. -1.
</event>
<event>
 8    1  0.6380400E-009  0.9210729E+02  0.7561462E-02  0.1297827E+00
         -4   -1    0    0    0  501 -0.00000000000E+00  0.00000000000E+00  0.35293658274E+02  0.35293658274E+02  0.00000000000E+00 0. -1.
          4   -1    0    0  501    0  0.00000000000E+00 -0.00000000000E+00 -0.39139824272E+03  0.39139824272E+03  0.00000000000E+00 0.  1.
         25    2    1    2    0    0  0.11293037954E+02 -0.19099938513E+02 -0.27253543731E+03  0.30069341991E+03  0.12509447561E+03 0.  0.
         23    2    1    2    0    0 -0.11293037954E+02  0.19099938513E+02 -0.83569147140E+02  0.12599848109E+03  0.91648647160E+02 0.  0.
          5    1    3    3  502    0 -0.54039711819E+02 -0.27090857086E+02 -0.14386424240E+03  0.15610444463E+03  0.41800000000E+01 0.  1.
         -5    1    3    3    0  502  0.65332749774E+02  0.79909185725E+01 -0.12867119491E+03  0.14458897528E+03  0.41800000000E+01 0.  1.
        -11    1    4    4    0    0 -0.26732992635E+02  0.28909582106E+02  0.10851998033E+01  0.39390284226E+02  0.00000000000E+00 0. -1.
         11    1    4    4    0    0  0.15439954681E+02 -0.98096435928E+01 -0.84654346943E+02  0.86608196866E+02  0.00000000000E+00 0.  1.
</event>
<event>
 8    1  0.6380400E-009  0.8866423E+02  0.7561462E-02  0.1306119E+00
         -2   -1    0    0    0  501 -0.00000000000E+00  0.00000000000E+00  0.35607292809E+02  0.35607292809E+02  0.00000000000E+00 0.  1.
          2   -1    0    0  501    0  0.00000000000E+00 -0.00000000000E+00 -0.36026403074E+03  0.36026403074E+03  0.00000000000E+00 0. -1.
         25    2    1    2    0    0 -0.10835212904E+02  0.26263351628E+02 -0.16261415251E+03  0.20711545192E+03  0.12508510044E+03 0.  0.
         23    2    1    2    0    0  0.10835212904E+02 -0.26263351628E+02 -0.16204258542E+03  0.18875587163E+03  0.92540878027E+02 0.  0.
          5    1    3    3  502    0  0.25138766400E+01 -0.28420081201E+02 -0.14521517379E+03  0.14805046332E+03  0.41800000000E+01 0.  1.
         -5    1    3    3    0  502 -0.13349089544E+02  0.54683432829E+02 -0.17398978715E+02  0.59064988597E+02  0.41800000000E+01 0.  1.
        -11    1    4    4    0    0 -0.95571481050E+01 -0.55547550592E+02 -0.68936756892E+02  0.89045751765E+02  0.00000000000E+00 0. -1.
         11    1    4    4    0    0  0.20392361009E+02  0.29284198964E+02 -0.93105828533E+02  0.99710119864E+02  0.00000000000E+00 0.  1.
</event>
<event>
 8    1  0.6380400E-009  0.1327376E+03  0.7561462E-02  0.1223449E+00
         -1   -1    0    0    0  501 -0.00000000000E+00  0.00000000000E+00  0.44488469726E+03  0.44488469726E+03  0.00000000000E+00 0.  1.
          1   -1    0    0  501    0  0.00000000000E+00 -0.00000000000E+00 -0.45308216053E+02  0.45308216053E+02  0.00000000000E+00 0. -1.
         25    2    1    2    0    0  0.36460993089E+01 -0.83275934537E+02  0.16571076939E+03  0.22373087465E+03  0.12508904774E+03 0.  0.
         23    2    1    2    0    0 -0.36460993089E+01  0.83275934537E+02  0.23386571181E+03  0.26646203866E+03  0.96750563691E+02 0.  0.
          5    1    3    3  502    0 -0.23057264968E+02 -0.10644670967E+03  0.95093052816E+02  0.14464681318E+03  0.41800000000E+01 0.  1.
         -5    1    3    3    0  502  0.26703364277E+02  0.23170775138E+02  0.70617716578E+02  0.79084061472E+02  0.41800000000E+01 0.  1.
        -11    1    4    4    0    0 -0.45442712749E+02  0.37758977794E+02  0.15755035910E+03  0.16826436402E+03  0.00000000000E+00 0.  1.
         11    1    4    4    0    0  0.41796613440E+02  0.45516956743E+02  0.76315352709E+02  0.98197674643E+02  0.00000000000E+00 0. -1.
</event>
<event>
 8    1  0.6380400E-009  0.7921422E+02  0.7561462E-02  0.1331296E+00
          1   -1    0    0  501    0  0.00000000000E+00  0.00000000000E+00  0.35477377621E+02  0.35477377621E+02  0.00000000000E+00 0. -1.
         -1   -1    0    0    0  501 -0.00000000000E+00 -0.00000000000E+00 -0.44864263835E+03  0.44864263835E+03  0.00000000000E+00 0.  1.
         25    2    1    2    0    0  0.51295605563E+02 -0.11080516040E+02 -0.16414507820E+03  0.21294082957E+03  0.12508466419E+03 0.  0.
         23    2    1    2    0    0 -0.51295605563E+02  0.11080516040E+02 -0.24902018253E+03  0.27117918639E+03  0.93664736388E+02 0.  0.
          5    1    3    3  502    0  0.41071684683E+02 -0.25878029859E+01  0.63743433350E+01  0.41853132020E+02  0.41800000000E+01 0. -1.
         -5    1    3    3    0  502  0.10223920880E+02 -0.84927130545E+01 -0.17051942154E+03  0.17108769755E+03  0.41800000000E+01 0. -1.
        -11    1    4    4    0    0  0.13013809342E+02 -0.25871969769E+02 -0.10834362922E+03  0.11214749237E+03  0.00000000000E+00 0.  1.
         11    1    4    4    0    0 -0.64309414905E+02  0.36952485810E+02 -0.14067655331E+03  0.15903169402E+03  0.00000000000E+00 0. -1.
</event>
<event>
 8    1  0.6380400E-009  0.1595902E+03  0.7561462E-02  0.1189160E+00
         -1   -1    0    0    0  501 -0.00000000000E+00  0.00000000000E+00  0.55179010602E+02  0.55179010602E+02  0.00000000000E+00 0.  1.
          1   -1    0    0  501    0  0.00000000000E+00 -0.00000000000E+00 -0.50862368907E+03  0.50862368907E+03  0.00000000000E+00 0. -1.
         25    2    1    2    0    0 -0.11836630436E+03 -0.41524457354E+02 -0.19317324157E+03  0.26210404198E+03  0.12509102685E+03 0.  0.
         23    2    1    2    0    0  0.11836630436E+03  0.41524457354E+02 -0.26027143690E+03  0.30169865769E+03  0.86867696068E+02 0.  0.
          5    1    3    3  502    0  0.16089189551E+02  0.17171516598E+02 -0.57354451986E+02  0.62134761328E+02  0.41800000000E+01 0.  1.
         -5    1    3    3    0  502 -0.13445549391E+03 -0.58695973952E+02 -0.13581878958E+03  0.19996928065E+03  0.41800000000E+01 0.  1.
        -11    1    4    4    0    0  0.10303100077E+03 -0.12850712773E+01 -0.14587946078E+03  0.17859970774E+03  0.00000000000E+00 0.  1.
         11    1    4    4    0    0  0.15335303587E+02  0.42809528631E+02 -0.11439197611E+03  0.12309894994E+03  0.00000000000E+00 0. -1.
</event>
<event>
 8    1  0.6380400E-009  0.1035540E+03  0.7561462E-02  0.1272995E+00
         -1   -1    0    0    0  501 -0.00000000000E+00  0.00000000000E+00  0.18927401995E+03  0.18927401995E+03  0.00000000000E+00 0.  1.
          1   -1    0    0  501    0  0.00000000000E+00 -0.00000000000E+00 -0.82148149093E+02  0.82148149093E+02  0.00000000000E+00 0. -1.
         25    2    1    2    0    0  0.21323232731E+02 -0.39655553712E+02  0.13897269902E+02  0.13366432145E+03  0.12508306649E+03 0.  0.
         23    2    1    2    0    0 -0.21323232731E+02  0.39655553712E+02  0.93228600953E+02  0.13775784759E+03  0.90875790745E+02 0.  0.
          5    1    3    3  502    0  0.66251772051E+02  0.45519313225E+01  0.21761403348E+02  0.70007488559E+02  0.41800000000E+01 0.  1.
         -5    1    3    3    0  502 -0.44928539321E+02 -0.44207485034E+02 -0.78641334456E+01  0.63656832889E+02  0.41800000000E+01 0.  1.
        -11    1    4    4    0    0 -0.23193126010E+02  0.56174941962E+02  0.10217138341E+03  0.11888034651E+03  0.00000000000E+00 0.  1.
         11    1    4    4    0    0  0.18698932797E+01 -0.16519388250E+02 -0.89427824567E+01  0.18877501082E+02  0.00000000000E+00 0. -1.
</event>
<event>
 8    1  0.6380400E-009  0.1830431E+03  0.7561462E-02  0.1164890E+00
         -3   -1    0    0    0  501 -0.00000000000E+00  0.00000000000E+00  0.39025651284E+02  0.39025651284E+02  0.00000000000E+00 0.  1.
          3   -1    0    0  501    0  0.00000000000E+00 -0.00000000000E+00 -0.95814214382E+03  0.95814214382E+03  0.00000000000E+00 0. -1.
         25    2    1    2    0    0 -0.36948808046E+02  0.15559553573E+03 -0.49608144955E+03  0.53602651195E+03  0.12510967893E+03 0.  0.
         23    2    1    2    0    0  0.36948808046E+02 -0.15559553573E+03 -0.42303504299E+03  0.46114128316E+03  0.90096893870E+02 0.  0.
          5    1    3    3  502    0  0.27070460268E+02  0.12800277559E+03 -0.28336189648E+03  0.31213611960E+03  0.41800000000E+01 0.  1.
         -5    1    3    3    0  502 -0.64019268314E+02  0.27592760142E+02 -0.21271955307E+03  0.22389039235E+03  0.41800000000E+01 0.  1.
        -11    1    4    4    0    0 -0.20752316208E+01 -0.82170615561E+02 -0.31064465944E+03  0.32133537167E+03  0.00000000000E+00 0.  1.
         11    1    4    4    0    0  0.39024039667E+02 -0.73424920174E+02 -0.11239038355E+03  0.13980591150E+03  0.00000000000E+00 0. -1.
</event>
<event>
 8    1  0.6380400E-009  0.1165720E+03  0.7561462E-02  0.1248862E+00
         -2   -1    0    0    0  501 -0.00000000000E+00  0.00000000000E+00  0.69255913216E+02  0.69255913216E+02  0.00000000000E+00 0. -1.
          2   -1    0    0  501    0  0.00000000000E+00 -0.00000000000E+00 -0.31272615457E+03  0.31272615457E+03  0.00000000000E+00 0.  1.
         25    2    1    2    0    0 -0.51541297171E+01  0.97272352995E+02 -0.11793239143E+03  0.19759512972E+03  0.12508921069E+03 0.  0.
         23    2    1    2    0    0  0.51541297171E+01 -0.97272352995E+02 -0.12553784993E+03  0.18438693807E+03  0.93543120832E+02 0.  0.
          5    1    3    3  502    0 -0.99715289899E+01  0.63749136722E+01  0.25065593115E+02  0.28032610883E+02  0.41800000000E+01 0. -1.
         -5    1    3    3    0  502  0.48173992728E+01  0.90897439323E+02 -0.14299798454E+03  0.16956251884E+03  0.41800000000E+01 0. -1.
        -11    1    4    4    0    0 -0.38287979113E+02 -0.26982477016E+02 -0.21532897092E+02  0.51552779436E+02  0.00000000000E+00 0. -1.
         11    1    4    4    0    0  0.43442108830E+02 -0.70289875979E+02 -0.10400495284E+03  0.13283415863E+03  0.00000000000E+00 0.  1.
</event>
<event>
 8    1  0.6380400E-009  0.8402685E+02  0.7561462E-02  0.1317997E+00
         -1   -1    0    0    0  501 -0.00000000000E+00  0.00000000000E+00  0.29472836354E+02  0.29472836354E+02  0.00000000000E+00 0.  1.
          1   -1    0    0  501    0  0.00000000000E+00 -0.00000000000E+00 -0.56067101136E+03  0.56067101136E+03  0.00000000000E+00 0. -1.
         25    2    1    2    0    0 -0.38812253509E+02  0.39292880772E+02 -0.38962987035E+03  0.41292452077E+03  0.12507958459E+03 0.  0.
         23    2    1    2    0    0  0.38812253509E+02 -0.39292880772E+02 -0.14156830466E+03  0.17721932695E+03  0.91185434460E+02 0.  0.
          5    1    3    3  502    0  0.30570929014E+02  0.19553955759E+02 -0.27503905476E+03  0.27745430783E+03  0.41800000000E+01 0. -1.
         -5    1    3    3    0  502 -0.69383182523E+02  0.19738925013E+02 -0.11459081559E+03  0.13547021294E+03  0.41800000000E+01 0. -1.
        -11    1    4    4    0    0  0.23482426612E+02 -0.86896032842E+01  0.59883682090E+01  0.25744788184E+02  0.00000000000E+00 0.  1.
         11    1    4    4    0    0  0.15329826897E+02 -0.30603277488E+02 -0.14755667287E+03  0.15147453876E+03  0.00000000000E+00 0. -1.
</event>
<event>
 8    1  0.6380400E-009  0.3327420E+03  0.7561462E-02  0.1069930E+00
          1   -1    0    0  501    0  0.00000000000E+00  0.00000000000E+00  0.80469645849E+03  0.80469645849E+03  0.00000000000E+00 0. -1.
         -1   -1    0    0    0  501 -0.00000000000E+00 -0.00000000000E+00 -0.13857668464E+03  0.13857668464E+03  0.00000000000E+00 0.  1.
         25    2    1    2    0    0  0.14934866215E+03  0.27756596577E+03  0.33165837807E+03  0.47433589887E+03  0.12509746991E+03 0.  0.
         23    2    1    2    0    0 -0.14934866215E+03 -0.27756596577E+03  0.33446139578E+03  0.46893724426E+03  0.93219233768E+02 0.  0.
          5    1    3    3  502    0  0.16364232856E+03  0.19941264040E+03  0.27199197042E+03  0.37488840636E+03  0.41800000000E+01 0.  1.
         -5    1    3    3    0  502 -0.14293666412E+02  0.78153325374E+02  0.59666407641E+02  0.99447492514E+02  0.41800000000E+01 0.  1.
        -11    1    4    4    0    0 -0.22385965899E+02 -0.13575097645E+03  0.15619983250E+03  0.20815342118E+03  0.00000000000E+00 0.  1.
         11    1    4    4    0    0 -0.12696269625E+03 -0.14181498932E+03  0.17826156328E+03  0.26078382307E+03  0.00000000000E+00 0. -1.
</event>
<event>
 8    1  0.6380400E-009  0.2423624E+03  0.7561462E-02  0.1118229E+00
         -1   -1    0    0    0  501 -0.00000000000E+00  0.00000000000E+00  0.10881586057E+03  0.10881586057E+03  0.00000000000E+00 0.  1.
          1   -1    0    0  501    0  0.00000000000E+00 -0.00000000000E+00 -0.55850200140E+03  0.55850200140E+03  0.00000000000E+00 0. -1.
         25    2    1    2    0    0  0.69451260887E+02 -0.20929433062E+03 -0.23455943204E+03  0.34538882024E+03  0.12509082906E+03 0.  0.
         23    2    1    2    0    0 -0.69451260887E+02  0.20929433062E+03 -0.21512670878E+03  0.32192904172E+03  0.93440957846E+02 0.  0.
          5    1    3    3  502    0  0.89308655542E+02 -0.20829645456E+03 -0.23291044627E+03  0.32500491891E+03  0.41800000000E+01 0.  1.
         -5    1    3    3    0  502 -0.19857394656E+02 -0.99787606281E+00 -0.16489857758E+01  0.20383901325E+02  0.41800000000E+01 0.  1.
        -11    1    4    4    0    0 -0.49095637902E+02  0.30528905011E+02 -0.69896365734E+02  0.90707759564E+02  0.00000000000E+00 0. -1.
         11    1    4    4    0    0 -0.20355622984E+02  0.17876542561E+03 -0.14523034305E+03  0.23122128216E+03  0.00000000000E+00 0.  1.
</event>
<event>
 8    1  0.6380400E-009  0.4458939E+03  0.7561462E-02  0.1028954E+00
         -3   -1    0    0    0  501 -0.00000000000E+00  0.00000000000E+00  0.10806706821E+04  0.10806706821E+04  0.00000000000E+00 0.  1.
          3   -1    0    0  501    0  0.00000000000E+00 -0.00000000000E+00 -0.20345584295E+03  0.20345584295E+03  0.00000000000E+00 0. -1.
         25    2    1    2    0    0  0.43106717966E+03 -0.96404368210E+02  0.59758866780E+03  0.75357307397E+03  0.12508975314E+03 0.  0.
         23    2    1    2    0    0 -0.43106717966E+03  0.96404368210E+02  0.27962617137E+03  0.53055345110E+03  0.90462440673E+02 0.  0.
          5    1    3    3  502    0  0.10794231733E+02  0.11019499702E+02  0.63628626348E+02  0.65605024985E+02  0.41800000000E+01 0.  1.
         -5    1    3    3    0  502  0.42027294792E+03 -0.10742386791E+03  0.53396004146E+03  0.68796804899E+03  0.41800000000E+01 0.  1.
        -11    1    4    4    0    0 -0.32897661643E+03  0.80459206283E+02  0.25604530600E+03  0.42456860077E+03  0.00000000000E+00 0.  1.
         11    1    4    4    0    0 -0.10209056323E+03  0.15945161927E+02  0.23580865376E+02  0.10598485034E+03  0.00000000000E+00 0. -1.
</event>
<event>
 8    1  0.6380400E-009  0.2479443E+03  0.7561462E-02  0.1114611E+00
         -2   -1    0    0    0  501 -0.00000000000E+00  0.00000000000E+00  0.39640331225E+02  0.39640331225E+02  0.00000000000E+00 0.  1.
          2   -1    0    0  501    0  0.00000000000E+00 -0.00000000000E+00 -0.17155368914E+04  0.17155368914E+04  0.00000000000E+00 0. -1.
         25    2    1    2    0    0 -0.22463534132E+03 -0.68071256793E+02 -0.98116306276E+03  0.10165741372E+04  0.12508912038E+03 0.  0.
         23    2    1    2    0    0  0.22463534132E+03  0.68071256793E+02 -0.69473349744E+03  0.73860308550E+03  0.88233513298E+02 0.  0.
          5    1    3    3  502    0 -0.13546116105E+03 -0.80243409471E+02 -0.42672374368E+03  0.45486190953E+03  0.41800000000E+01 0. -1.
         -5    1    3    3    0  502 -0.89174180265E+02  0.12172152678E+02 -0.55443931908E+03  0.56171222763E+03  0.41800000000E+01 0. -1.
        -11    1    4    4    0    0  0.13795806238E+03 -0.19506963677E+00 -0.43663010625E+03  0.45790644755E+03  0.00000000000E+00 0.  1.
         11    1    4    4    0    0  0.86677278931E+02  0.68266326429E+02 -0.25810339120E+03  0.28069663795E+03  0.00000000000E+00 0. -1.
</event>
<event>
 8    1  0.6380400E-009  0.1621764E+03  0.7561462E-02  0.1186261E+00
          2   -1    0    0  501    0  0.00000000000E+00  0.00000000000E+00  0.48519921372E+03  0.48519921372E+03  0.00000000000E+00 0.  1.
         -2   -1    0    0    0  501 -0.00000000000E+00 -0.00000000000E+00 -0.77728806513E+02  0.77728806513E+02  0.00000000000E+00 0. -1.
         25    2    1    2    0    0  0.11834156614E+03  0.87086987261E+02  0.31368626701E+03  0.36828708155E+03  0.12508969064E+03 0.  0.
         23    2    1    2    0    0 -0.11834156614E+03 -0.87086987261E+02  0.93784140196E+02  0.19464093868E+03  0.86606930611E+02 0.  0.
          5    1    3    3  502    0  0.28500548681E+02  0.68914645539E+02  0.52081097413E+02  0.91057249863E+02  0.41800000000E+01 0. -1.
         -5    1    3    3    0  502  0.89841017457E+02  0.18172341722E+02  0.26160516959E+03  0.27722983169E+03  0.41800000000E+01 0. -1.
        -11    1    4    4    0    0  0.52079662940E+01 -0.12610346390E+02  0.37298519363E+02  0.39715529654E+02  0.00000000000E+00 0.  1.
         11    1    4    4    0    0 -0.12354953243E+03 -0.74476640871E+02  0.56485620832E+02  0.15492540902E+03  0.00000000000E+00 0. -1.
</event>
<event>
 8    1  0.6380400E-009  0.1206593E+03  0.7561462E-02  0.1242013E+00
         -1   -1    0    0    0  501 -0.00000000000E+00  0.00000000000E+00  0.28255383521E+02  0.28255383521E+02  0.00000000000E+00 0.  1.
          1   -1    0    0  501    0  0.00000000000E+00 -0.00000000000E+00 -0.54503183272E+03  0.54503183272E+03  0.00000000000E+00 0. -1.
         25    2    1    2    0    0  0.54311803992E+01  0.58534580108E+02 -0.28571467809E+03  0.31738778562E+03  0.12508530847E+03 0.  0.
         23    2    1    2    0    0 -0.54311803992E+01 -0.58534580108E+02 -0.23106177111E+03  0.25589943062E+03  0.92947198649E+02 0.  0.
          5    1    3    3  502    0 -0.18858033755E+02  0.93393696350E+02 -0.20404423289E+03  0.22523216762E+03  0.41800000000E+01 0. -1.
         -5    1    3    3    0  502  0.24289214154E+02 -0.34859116242E+02 -0.81670445205E+02  0.92155618002E+02  0.41800000000E+01 0. -1.
        -11    1    4    4    0    0 -0.30052812820E+02  0.90017093293E+01 -0.11651872195E+03  0.12066820167E+03  0.00000000000E+00 0. -1.
         11    1    4    4    0    0  0.24621632420E+02 -0.67536289437E+02 -0.11454304916E+03  0.13523122895E+03  0.00000000000E+00 0.  1.
</event>
<event>
 8    1  0.6380400E-009  0.3302150E+03  0.7561462E-02  0.1071042E+00
         -1   -1    0    0    0  501 -0.00000000000E+00  0.00000000000E+00  0.58899960697E+03  0.58899960697E+03  0.00000000000E+00 0.  1.
          1   -1    0    0  501    0  0.00000000000E+00 -0.00000000000E+00 -0.23423827522E+03  0.23423827522E+03  0.00000000000E+00 0. -1.
         25    2    1    2    0    0 -0.28434497760E+03 -0.13236120655E+03  0.36380992030E+03  0.49636334245E+03  0.12508938537E+03 0.  0.
         23    2    1    2    0    0  0.28434497760E+03  0.13236120655E+03 -0.90485885521E+01  0.32687453974E+03  0.91616223945E+02 0.  0.
          5    1    3    3  502    0 -0.47871873755E+02  0.23698495589E+02  0.70333178593E+02  0.88416985930E+02  0.41800000000E+01 0.  1.
         -5    1    3    3    0  502 -0.23647310384E+03 -0.15605970214E+03  0.29347674171E+03  0.40794635652E+03  0.41800000000E+01 0.  1.
        -11    1    4    4    0    0  0.17548390349E+03  0.38280531945E+02 -0.27894898127E+02  0.18176392615E+03  0.00000000000E+00 0. -1.
         11    1    4    4    0    0  0.10886107411E+03  0.94080674605E+02  0.18846309574E+02  0.14511061359E+03  0.00000000000E+00 0.  1.
</event>
<event>
 8    1  0.6380400E-009  0.1321652E+03  0.7561462E-02  0.1224278E+00
         -2   -1    0    0    0  501 -0.00000000000E+00  0.00000000000E+00  0.40395545142E+03  0.40395545142E+03  0.00000000000E+00 0.  1.
          2   -1    0    0  501    0  0.00000000000E+00 -0.00000000000E+00 -0.55378514397E+02  0.55378514397E+02  0.00000000000E+00 0. -1.
         25    2    1    2    0    0 -0.95531768453E+02 -0.21232064838E+02  0.14616816969E+03  0.21584696906E+03  0.12509061061E+03 0.  0.
         23    2    1    2    0    0  0.95531768453E+02  0.21232064838E+02  0.20240876733E+03  0.24348699675E+03  0.93485234836E+02 0.  0.
          5    1    3    3  502    0 -0.10716051526E+03  0.25546616357E+02  0.96564964501E+02  0.14655466696E+03  0.41800000000E+01 0. -1.
         -5    1    3    3    0  502  0.11628746805E+02 -0.46778681195E+02  0.49603205185E+02  0.69292302106E+02  0.41800000000E+01 0. -1.
        -11    1    4    4    0    0  0.27527736519E+02  0.25557463496E+02  0.15740650409E+03  0.16182635060E+03  0.00000000000E+00 0.  1.
         11    1    4    4    0    0  0.68004031935E+02 -0.43253986585E+01  0.45002263242E+02  0.81660646151E+02  0.00000000000E+00 0. -1.
</event>
<event>
 8    1  0.6380400E-009  0.8427863E+02  0.7561462E-02  0.1317330E+00
         -1   -1    0    0    0  501 -0.00000000000E+00  0.00000000000E+00  0.27505117265E+03  0.27505117265E+03  0.00000000000E+00 0.  1.
          1   -1    0    0  501    0  0.00000000000E+00 -0.00000000000E+00 -0.11410602035E+03  0.11410602035E+03  0.00000000000E+00 0. -1.
         25    2    1    2    0    0  0.46852118934E+02  0.15322647669E+01  0.22936364810E+03  0.26542946597E+03  0.12509056502E+03 0.  0.
         23    2    1    2    0    0 -0.46852118934E+02 -0.15322647669E+01 -0.68418495789E+02  0.12372772703E+03  0.91814982358E+02 0.  0.
          5    1    3    3  502    0  0.40705594602E+02 -0.18976063351E+02  0.23780083774E+03  0.24204079665E+03  0.41800000000E+01 0.  1.
         -5    1    3    3    0  502  0.61465243316E+01  0.20508328118E+02 -0.84371896481E+01  0.23388669323E+02  0.41800000000E+01 0.  1.
        -11    1    4    4    0    0  0.25287532410E+02 -0.13256703602E+02 -0.28969242874E+02  0.40674519277E+02  0.00000000000E+00 0.  1.
         11    1    4    4    0    0 -0.72139651344E+02  0.11724438835E+02 -0.39449252916E+02  0.83053207750E+02  0.00000000000E+00 0. -1.
</event>
<event>
 8    1  0.6380400E-009  0.1901117E+03  0.7561462E-02  0.1158361E+00
          2   -1    0    0  501    0  0.00000000000E+00  0.00000000000E+00  0.18965011576E+04  0.18965011576E+04  0.00000000000E+00 0. -1.
         -2   -1    0    0    0  501 -0.00000000000E+00 -0.00000000000E+00 -0.23855264705E+02  0.23855264705E+02  0.00000000000E+00 0.  1.
         25    2    1    2    0    0  0.11744863329E+03 -0.10591878627E+03  0.13824759046E+04  0.13971079555E+04  0.12513209796E+03 0.  0.
         23    2    1    2    0    0 -0.11744863329E+03  0.10591878627E+03  0.49016998827E+03  0.52324846672E+03  0.92246245339E+02 0.  0.
          5    1    3    3  502    0  0.21327091022E+02 -0.10234672739E+03  0.78041200601E+03  0.78739448115E+03  0.41800000000E+01 0.  1.
         -5    1    3    3    0  502  0.96121542265E+02 -0.35720588833E+01  0.60206389857E+03  0.60971347439E+03  0.41800000000E+01 0.  1.
        -11    1    4    4    0    0 -0.83290094207E+02  0.18303477537E+02  0.18080714281E+03  0.19990867909E+03  0.00000000000E+00 0.  1.
         11    1    4    4    0    0 -0.34158539080E+02  0.87615308733E+02  0.30936284546E+03  0.32333978763E+03  0.00000000000E+00 0. -1.
</event>
<event>
 8    1  0.6380400E-009  0.1339187E+03  0.7561462E-02  0.1221754E+00
         -2   -1    0    0    0  501 -0.00000000000E+00  0.00000000000E+00  0.17556645418E+02  0.17556645418E+02  0.00000000000E+00 0. -1.
          2   -1    0    0  501    0  0.00000000000E+00 -0.00000000000E+00 -0.12422779667E+04  0.12422779667E+04  0.00000000000E+00 0.  1.
         25    2    1    2    0    0  0.43443206958E+02  0.72166987529E+02 -0.89296466860E+03  0.90560675799E+03  0.12506923857E+03 0.  0.
         23    2    1    2    0    0 -0.43443206958E+02 -0.72166987529E+02 -0.33175665270E+03  0.35422785414E+03  0.91211346438E+02 0.  0.
          5    1    3    3  502    0 -0.33543397552E+02  0.55273512664E+02 -0.27015362032E+03  0.27781427554E+03  0.41800000000E+01 0. -1.
         -5    1    3    3    0  502  0.76986604509E+02  0.16893474865E+02 -0.62281104828E+03  0.62779248245E+03  0.41800000000E+01 0. -1.
        -11    1    4    4    0    0  0.19664200393E+02  0.87321236644E+01 -0.54228258081E+02  0.58340678220E+02  0.00000000000E+00 0.  1.
         11    1    4    4    0    0 -0.63107407350E+02 -0.80899111193E+02 -0.27752839462E+03  0.29588717592E+03  0.00000000000E+00 0. -1.
</event>
<event>
 8    1  0.6380400E-009  0.1209213E+03  0.7561462E-02  0.1241585E+00
          2   -1    0    0  501    0  0.00000000000E+00  0.00000000000E+00  0.34610981566E+03  0.34610981566E+03  0.00000000000E+00 0. -1.
         -2   -1    0    0    0  501 -0.00000000000E+00 -0.00000000000E+00 -0.50460762418E+02  0.50460762418E+02  0.00000000000E+00 0.  1.
         25    2    1    2    0    0  0.32817392729E+02 -0.67842150806E+02  0.16166581774E+03  0.21785938578E+03  0.12508931471E+03 0.  0.
         23    2    1    2    0    0 -0.32817392729E+02  0.67842150806E+02  0.13398323550E+03  0.17871119230E+03  0.91140793098E+02 0.  0.
          5    1    3    3  502    0 -0.21260861182E+02 -0.74892918782E+02  0.13749427544E+03  0.15806050007E+03  0.41800000000E+01 0. -1.
         -5    1    3    3    0  502  0.54078253911E+02  0.70507679766E+01  0.24171542297E+02  0.59798885709E+02  0.41800000000E+01 0. -1.
        -11    1    4    4    0    0  0.10797718629E+02  0.64545789922E+02  0.44586682415E+02  0.79187890319E+02  0.00000000000E+00 0.  1.
         11    1    4    4    0    0 -0.43615111358E+02  0.32963608836E+01  0.89396553083E+02  0.99523301979E+02  0.00000000000E+00 0. -1.
</event>
<event>
 8    1  0.6380400E-009  0.1854366E+03  0.7561462E-02  0.1162643E+00
          1   -1    0    0  501    0  0.00000000000E+00  0.00000000000E+00  0.80483860484E+03  0.80483860484E+03  0.00000000000E+00 0. -1.
         -1   -1    0    0    0  501 -0.00000000000E+00 -0.00000000000E+00 -0.51091726782E+02  0.51091726782E+02  0.00000000000E+00 0.  1.
         25    2    1    2    0    0  0.15783267280E+03 -0.52895394059E+02  0.31928202010E+03  0.38118293747E+03  0.12510135150E+03 0.  0.
         23    2    1    2    0    0 -0.15783267280E+03  0.52895394059E+02  0.43446485796E+03  0.47474739415E+03  0.94426162320E+02 0.  0.
          5    1    3    3  502    0  0.77057326449E+02 -0.63124109384E+02  0.26527017020E+03  0.28338705042E+03  0.41800000000E+01 0.  1.
         -5    1    3    3    0  502  0.80775346355E+02  0.10228715325E+02  0.54011849894E+02  0.97795887055E+02  0.41800000000E+01 0.  1.
        -11    1    4    4    0    0 -0.98094376164E+02 -0.14974351531E+02  0.19532473448E+03  0.21908557629E+03  0.00000000000E+00 0.  1.
         11    1    4    4    0    0 -0.59738296640E+02  0.67869745590E+02  0.23914012349E+03  0.25566181786E+03  0.00000000000E+00 0. -1.
</event>
<event>
 8    1  0.6380400E-009  0.1114336E+03  0.7561462E-02  0.1257938E+00
         -2   -1    0    0    0  501 -0.00000000000E+00  0.00000000000E+00  0.33916546208E+03  0.33916546208E+03  0.00000000000E+00 0. -1.
          2   -1    0    0  501    0  0.00000000000E+00 -0.00000000000E+00 -0.45445363931E+02  0.45445363931E+02  0.00000000000E+00 0.  1.
         25    2    1    2    0    0  0.14070312148E+02  0.33959742683E+02  0.23170180555E+03  0.26586458401E+03  0.12508801913E+03 0.  0.
         23    2    1    2    0    0 -0.14070312148E+02 -0.33959742683E+02  0.62018292604E+02  0.11874624200E+03  0.94356576692E+02 0.  0.
          5    1    3    3  502    0  0.57264688218E+02  0.49873013238E+02  0.95802463549E+02  0.12231985280E+03  0.41800000000E+01 0.  1.
         -5    1    3    3    0  502 -0.43194376070E+02 -0.15913270555E+02  0.13589934200E+03  0.14354473121E+03  0.41800000000E+01 0.  1.
        -11    1    4    4    0    0 -0.52680706225E+02 -0.32613244631E+02  0.44746751007E+02  0.76427431328E+02  0.00000000000E+00 0.  1.
         11    1    4    4    0    0  0.38610394077E+02 -0.13464980517E+01  0.17271541597E+02  0.42318810674E+02  0.00000000000E+00 0. -1.
</event>
<event>
 8    1  0.6380400E-009  0.1061756E+03  0.7561462E-02  0.1267821E+00
          4   -1    0    0  501    0  0.00000000000E+00  0.00000000000E+00  0.26538264430E+03  0.26538264430E+03  0.00000000000E+00 0. -1.
         -4   -1    0    0    0  501 -0.00000000000E+00 -0.00000000000E+00 -0.79153797930E+02  0.79153797930E+02  0.00000000000E+00 0.  1.
         25    2    1    2    0    0 -0.29606555589E+01  0.52866975628E+02  0.19688599956E+03  0.23919712572E+03  0.12508990981E+03 0.  0.
         23    2    1    2    0    0  0.29606555589E+01 -0.52866975628E+02 -0.10657153184E+02  0.10533931652E+03  0.90438454747E+02 0.  0.
          5    1    3    3  502    0  0.24052798094E+02  0.75458024208E+02  0.64746143597E+02  0.10238157073E+03  0.41800000000E+01 0. -1.
         -5    1    3    3    0  502 -0.27013453653E+02 -0.22591048580E+02  0.13213985596E+03  0.13681555499E+03  0.41800000000E+01 0. -1.
        -11    1    4    4    0    0  0.16696829566E+02  0.18489958639E+02 -0.20167070680E+02  0.32052666470E+02  0.00000000000E+00 0.  1.
         11    1    4    4    0    0 -0.13736174007E+02 -0.71356934267E+02  0.95099174954E+01  0.73286650047E+02  0.00000000000E+00 0. -1.
</event>
<event>
 8    1  0.6380400E-009  0.1089592E+03  0.7561462E-02  0.1262510E+00
          1   -1    0    0  501    0  0.00000000000E+00  0.00000000000E+00  0.22389057394E+03  0.22389057394E+03  0.00000000000E+00 0. -1.
         -1   -1    0    0    0  501 -0.00000000000E+00 -0.00000000000E+00 -0.15355376586E+03  0.15355376586E+03  0.00000000000E+00 0.  1.
         25    2    1    2    0    0 -0.90360124406E+02  0.56331783157E+02 -0.70807176183E+02  0.17888352757E+03  0.12508972124E+03 0.  0.
         23    2    1    2    0    0  0.90360124406E+02 -0.56331783157E+02  0.14114398426E+03  0.19856081223E+03  0.90368965815E+02 0.  0.
          5    1    3    3  502    0 -0.71332997106E+02  0.55698013919E+02 -0.10551705557E+03  0.13907547105E+03  0.41800000000E+01 0.  1.
         -5    1    3    3    0  502 -0.19027127300E+02  0.63376923835E+00  0.34709879390E+02  0.39808056521E+02  0.41800000000E+01 0.  1.
        -11    1    4    4    0    0  0.44830702857E+02 -0.17991630174E+02  0.12908742031E+03  0.13782979633E+03  0.00000000000E+00 0. -1.
         11    1    4    4    0    0  0.45529421549E+02 -0.38340152983E+02  0.12056563954E+02  0.60731015896E+02  0.00000000000E+00 0.  1.
</event>
<event>
 8    1  0.6380400E-009  0.1430417E+03  0.7561462E-02  0.1209294E+00
         -4   -1    0    0    0  501 -0.00000000000E+00  0.00000000000E+00  0.46101982939E+02  0.46101982939E+02  0.00000000000E+00 0. -1.
          4   -1    0    0  501    0  0.00000000000E+00 -0.00000000000E+00 -0.46560335303E+03  0.46560335303E+03  0.00000000000E+00 0.  1.
         25    2    1    2    0    0  0.73310891042E+02 -0.59452856296E+02 -0.28131307763E+03  0.32201385531E+03  0.12508695576E+03 0.  0.
         23    2    1    2    0    0 -0.73310891042E+02  0.59452856296E+02 -0.13818829246E+03  0.18969148065E+03  0.89318110098E+02 0.  0.
          5    1    3    3  502    0  0.80921784460E+02 -0.92234279332E+02 -0.22248223744E+03  0.25410886616E+03  0.41800000000E+01 0.  1.
         -5    1    3    3    0  502 -0.76108934177E+01  0.32781423037E+02 -0.58830840190E+02  0.67904989157E+02  0.41800000000E+01 0.  1.
        -11    1    4    4    0    0 -0.49906087830E+02  0.82584497522E+02 -0.95157088779E+02  0.13552006633E+03  0.00000000000E+00 0.  1.
         11    1    4    4    0    0 -0.23404803212E+02 -0.23131641227E+02 -0.43031203679E+02  0.54171414319E+02  0.00000000000E+00 0. -1.
</event>
<event>
 8    1  0.6380400E-009  0.1389207E+03  0.7561462E-02  0.1214789E+00
         -2   -1    0    0    0  501 -0.00000000000E+00  0.00000000000E+00  0.43901209386E+02  0.43901209386E+02  0.00000000000E+00 0.  1.
          2   -1    0    0  501    0  0.00000000000E+00 -0.00000000000E+00 -0.47772236840E+03  0.47772236840E+03  0.00000000000E+00 0. -1.
         25    2    1    2    0    0  0.98761743368E+02  0.19208248172E+02 -0.22513809228E+03  0.27650901933E+03  0.12508892207E+03 0.  0.
         23    2    1    2    0    0 -0.98761743368E+02 -0.19208248172E+02 -0.20868306674E+03  0.24511455846E+03  0.80060512586E+02 0.  0.
          5    1    3    3  502    0  0.96770912212E+02 -0.36002894341E+02 -0.16545371598E+03  0.19507235166E+03  0.41800000000E+01 0.  1.
         -5    1    3    3    0  502  0.19908311562E+01  0.55211142513E+02 -0.59684376299E+02  0.81436667665E+02  0.41800000000E+01 0.  1.
        -11    1    4    4    0    0 -0.84068359533E+02  0.11699152931E+02 -0.18486599656E+03  0.20342024466E+03  0.00000000000E+00 0. -1.
         11    1    4    4    0    0 -0.14693383835E+02 -0.30907401103E+02 -0.23817070180E+02  0.41694313802E+02  0.00000000000E+00 0.  1.
</event>
<event>
 8    1  0.6380400E-009  0.1172759E+03  0.7561462E-02  0.1247660E+00
         -1   -1    0    0    0  501 -0.00000000000E+00  0.00000000000E+00  0.92330099663E+02  0.92330099663E+02  0.00000000000E+00 0.  1.
          1   -1    0    0  501    0  0.00000000000E+00 -0.00000000000E+00 -0.20474715495E+03  0.20474715495E+03  0.00000000000E+00 0. -1.
         25    2    1    2    0    0 -0.72708141556E+02 -0.39221966006E+02 -0.78387161399E+02  0.16916036688E+03  0.12508335695E+03 0.  0.
         23    2    1    2    0    0  0.72708141556E+02  0.39221966006E+02 -0.34029893888E+02  0.12791688773E+03  0.91541575381E+02 0.  0.
          5    1    3    3  502    0  0.99483172239E+01  0.35283371364E+02 -0.30792721639E+02  0.48057771654E+02  0.41800000000E+01 0.  1.
         -5    1    3    3    0  502 -0.82656458780E+02 -0.74505337370E+02 -0.47594439760E+02  0.12110259523E+03  0.41800000000E+01 0.  1.
        -11    1    4    4    0    0  0.31216550592E+02  0.31009521259E+02 -0.62859712781E+02  0.76729439790E+02  0.00000000000E+00 0. -1.
         11    1    4    4    0    0  0.41491590964E+02  0.82124447465E+01  0.28829818893E+02  0.51187447942E+02  0.00000000000E+00 0.  1.
</event>
<event>
 8    1  0.6380400E-009  0.1069704E+03  0.7561462E-02  0.1266285E+00
          2   -1    0    0  501    0  0.00000000000E+00  0.00000000000E+00  0.99251667031E+03  0.99251667031E+03  0.00000000000E+00 0. -1.
         -2   -1    0    0    0  501 -0.00000000000E+00 -0.00000000000E+00 -0.15651304637E+02  0.15651304637E+02  0.00000000000E+00 0.  1.
         25    2    1    2    0    0  0.58946047608E+02 -0.13979484616E+02  0.48743794806E+03  0.50686603174E+03  0.12508940164E+03 0.  0.
         23    2    1    2    0    0 -0.58946047608E+02  0.13979484616E+02  0.48942741761E+03  0.50130194321E+03  0.89968764769E+02 0.  0.
          5    1    3    3  502    0  0.13176737366E+02  0.35839471962E+02  0.44561344055E+02  0.58832643508E+02  0.41800000000E+01 0. -1.
         -5    1    3    3    0  502  0.45769310241E+02 -0.49818956577E+02  0.44287660400E+03  0.44803338823E+03  0.41800000000E+01 0. -1.
        -11    1    4    4    0    0 -0.57825885937E+02  0.47116529902E+02  0.31098668850E+03  0.31980700571E+03  0.00000000000E+00 0. -1.
         11    1    4    4    0    0 -0.11201616711E+01 -0.33137045287E+02  0.17844072911E+03  0.18149493750E+03  0.00000000000E+00 0.  1.
</event>
<event>
 8    1  0.6380400E-009  0.9896541E+02  0.7561462E-02  0.1282487E+00
          1   -1    0    0  501    0  0.00000000000E+00  0.00000000000E+00  0.32708979462E+03  0.32708979462E+03  0.00000000000E+00 0. -1.
         -1   -1    0    0    0  501 -0.00000000000E+00 -0.00000000000E+00 -0.51188645884E+02  0.51188645884E+02  0.00000000000E+00 0.  1.
         25    2    1    2    0    0  0.23143713897E+02  0.13683897586E+02  0.59889324704E+02  0.14123384178E+03  0.12504953540E+03 0.  0.
         23    2    1    2    0    0 -0.23143713897E+02 -0.13683897586E+02  0.21601182403E+03  0.23704459873E+03  0.93841105696E+02 0.  0.
          5    1    3    3  502    0  0.37999191803E+02 -0.46933723013E+02  0.48697405958E+02  0.77689270048E+02  0.41800000000E+01 0. -1.
         -5    1    3    3    0  502 -0.14855477906E+02  0.60617620599E+02  0.11191918746E+02  0.63544571728E+02  0.41800000000E+01 0. -1.
        -11    1    4    4    0    0 -0.12705967887E+02 -0.42415807514E+02  0.44304165698E+02  0.62637061275E+02  0.00000000000E+00 0.  1.
         11    1    4    4    0    0 -0.10437746010E+02  0.28731909928E+02  0.17170765833E+03  0.17440753745E+03  0.00000000000E+00 0. -1.
</event>
<event>
 8    1  0.6380400E-009  0.9715247E+02  0.7561462E-02  0.1286400E+00
          2   -1    0    0  501    0  0.00000000000E+00  0.00000000000E+00  0.17194729769E+03  0.17194729769E+03  0.00000000000E+00 0. -1.
         -2   -1    0    0    0  501 -0.00000000000E+00 -0.00000000000E+00 -0.95981804445E+02  0.95981804445E+02  0.00000000000E+00 0.  1.
         25    2    1    2    0    0  0.56332745978E+02 -0.21197681666E+01  0.95846092988E+00  0.13721317572E+03  0.12509462522E+03 0.  0.
         23    2    1    2    0    0 -0.56332745978E+02  0.21197681666E+01  0.75007032319E+02  0.13071592641E+03  0.91009487607E+02 0.  0.
          5    1    3    3  502    0  0.92512549878E+02  0.16865513551E+02  0.11446081568E+02  0.94823534080E+02  0.41800000000E+01 0.  1.
         -5    1    3    3    0  502 -0.36179803899E+02 -0.18985281718E+02 -0.10487620638E+02  0.42389641644E+02  0.41800000000E+01 0.  1.
        -11    1    4    4    0    0 -0.18279163192E+02 -0.76498042066E+01 -0.19848214614E+02  0.28046371151E+02  0.00000000000E+00 0.  1.
         11    1    4    4    0    0 -0.38053582786E+02  0.97695723732E+01  0.94855246933E+02  0.10266955526E+03  0.00000000000E+00 0. -1.
</event>
<event>
 8    1  0.6380400E-009  0.1202917E+03  0.7561462E-02  0.1242617E+00
         -2   -1    0    0    0  501 -0.00000000000E+00  0.00000000000E+00  0.13059451261E+02  0.13059451261E+02  0.00000000000E+00 0. -1.
          2   -1    0    0  501    0  0.00000000000E+00 -0.00000000000E+00 -0.24010638542E+04  0.24010638542E+04  0.00000000000E+00 0.  1.
         25    2    1    2    0    0 -0.26336705691E+02 -0.76846906845E+02 -0.20403271052E+04  0.20457714435E+04  0.12508810436E+03 0.  0.
         23    2    1    2    0    0  0.26336705691E+02  0.76846906845E+02 -0.34767729771E+03  0.36835186189E+03  0.90578814602E+02 0.  0.
          5    1    3    3  502    0 -0.51308837079E+02  0.15204856814E+02 -0.74102634621E+03  0.74296790146E+03  0.41800000000E+01 0.  1.
         -5    1    3    3    0  502  0.24972131388E+02 -0.92051763659E+02 -0.12993007590E+04  0.13028035421E+04  0.41800000000E+01 0.  1.
        -11    1    4    4    0    0  0.37121111875E+02  0.48280905236E+02 -0.32410580262E+03  0.32977809820E+03  0.00000000000E+00 0.  1.
         11    1    4    4    0    0 -0.10784406184E+02  0.28566001609E+02 -0.23571495092E+02  0.38573763694E+02  0.00000000000E+00 0. -1.
</event>
<event>
 8    1  0.6380400E-009  0.1049063E+03  0.7561462E-02  0.1270304E+00
          1   -1    0    0  501    0  0.00000000000E+00  0.00000000000E+00  0.56194789199E+03  0.56194789199E+03  0.00000000000E+00 0. -1.
         -1   -1    0    0    0  501 -0.00000000000E+00 -0.00000000000E+00 -0.21644892490E+02  0.21644892490E+02  0.00000000000E+00 0.  1.
         25    2    1    2    0    0 -0.22547680250E+02  0.23572331852E+02  0.30088995710E+03  0.32748531747E+03  0.12509122333E+03 0.  0.
         23    2    1    2    0    0  0.22547680250E+02 -0.23572331852E+02  0.23941304240E+03  0.25610746702E+03  0.84902161797E+02 0.  0.
          5    1    3    3  502    0 -0.41689027176E+02 -0.41371185665E+02  0.10789459368E+03  0.12291568547E+03  0.41800000000E+01 0. -1.
         -5    1    3    3    0  502  0.19141346926E+02  0.64943517516E+02  0.19299536343E+03  0.20456963199E+03  0.41800000000E+01 0. -1.
        -11    1    4    4    0    0  0.42491985575E+02  0.10360309081E+02  0.72967945372E+02  0.85071886626E+02  0.00000000000E+00 0.  1.
         11    1    4    4    0    0 -0.19944305325E+02 -0.33932640933E+02  0.16644509703E+03  0.17103558039E+03  0.00000000000E+00 0. -1.
</event>
<event>
 8    1  0.6380400E-009  0.7636381E+02  0.7561462E-02  0.1339699E+00
         -4   -1    0    0    0  501 -0.00000000000E+00  0.00000000000E+00  0.29560374821E+03  0.29560374821E+03  0.00000000000E+00 0.  1.
          4   -1    0    0  501    0  0.00000000000E+00 -0.00000000000E+00 -0.47156244521E+02  0.47156244521E+02  0.00000000000E+00 0. -1.
         25    2    1    2    0    0  0.36480835343E+02  0.53136894543E+01  0.16269742332E+03  0.20851007750E+03  0.12508762617E+03 0.  0.
         23    2    1    2    0    0 -0.36480835343E+02 -0.53136894543E+01  0.85750080363E+02  0.13424991523E+03  0.96492884780E+02 0.  0.
          5    1    3    3  502    0  0.95733314734E+01 -0.20024734229E+02 -0.14901055283E+02  0.27058316743E+02  0.41800000000E+01 0.  1.
         -5    1    3    3    0  502  0.26907503869E+02  0.25338423683E+02  0.17759847860E+03  0.18145176076E+03  0.41800000000E+01 0.  1.
        -11    1    4    4    0    0 -0.64245866371E+02  0.18480734674E+01  0.28679148486E+02  0.70380681150E+02  0.00000000000E+00 0. -1.
         11    1    4    4    0    0  0.27765031028E+02 -0.71617629218E+01  0.57070931877E+02  0.63869234076E+02  0.00000000000E+00 0.  1.
</event>
<event>
 8    1  0.6380400E-009  0.9851662E+02  0.7561462E-02  0.1283447E+00
          3   -1    0    0  501    0  0.00000000000E+00  0.00000000000E+00  0.18433294003E+03  0.18433294003E+03  0.00000000000E+00 0. -1.
         -3   -1    0    0    0  501 -0.00000000000E+00 -0.00000000000E+00 -0.73208149612E+02  0.73208149612E+02  0.00000000000E+00 0.  1.
         25    2    1    2    0    0  0.30458937750E+02 -0.61836032156E+01  0.55844189449E+02  0.14047030517E+03  0.12508936526E+03 0.  0.
         23    2    1    2    0    0 -0.30458937750E+02  0.61836032156E+01  0.55280600967E+02  0.11707078447E+03  0.98405487119E+02 0.  0.
          5    1    3    3  502    0  0.69731728913E+02  0.96761831207E+01  0.66136709481E+02  0.96683397116E+02  0.41800000000E+01 0. -1.
         -5    1    3    3    0  502 -0.39272791163E+02 -0.15859786336E+02 -0.10292520031E+02  0.43786908055E+02  0.41800000000E+01 0. -1.
        -11    1    4    4    0    0 -0.95427846667E+01 -0.35796771636E+02 -0.83947269824E+01  0.37986116410E+02  0.00000000000E+00 0.  1.
         11    1    4    4    0    0 -0.20916153083E+02  0.41980374852E+02  0.63675327949E+02  0.79084668059E+02  0.00000000000E+00 0. -1.
</event>
<event>
 8    1  0.6380400E-009  0.2574359E+03  0.7561462E-02  0.1108694E+00
          2   -1    0    0  501    0  0.00000000000E+00  0.00000000000E+00  0.81118809579E+03  0.81118809579E+03  0.00000000000E+00 0. -1.
         -2   -1    0    0    0  501 -0.00000000000E+00 -0.00000000000E+00 -0.11566566783E+03  0.11566566783E+03  0.00000000000E+00 0.  1.
         25    2    1    2    0    0  0.81972183260E+02  0.23098454544E+03  0.12548210823E+03  0.30243462193E+03  0.12509053521E+03 0.  0.
         23    2    1    2    0    0 -0.81972183260E+02 -0.23098454544E+03  0.57004031974E+03  0.62441914169E+03  0.69856991898E+02 0.  0.
          5    1    3    3  502    0 -0.18645722616E+02  0.15388870164E+02 -0.12323561847E+02  0.27455834961E+02  0.41800000000E+01 0. -1.
         -5    1    3    3    0  502  0.10061790588E+03  0.21559567527E+03  0.13780567007E+03  0.27497878697E+03  0.41800000000E+01 0. -1.
        -11    1    4    4    0    0 -0.79227395432E+02 -0.13627554078E+03  0.39675135062E+03  0.42691877145E+03  0.00000000000E+00 0.  1.
         11    1    4    4    0    0 -0.27447878279E+01 -0.94709004656E+02  0.17328896912E+03  0.19750037023E+03  0.00000000000E+00 0. -1.
</event>
<event>
 8    1  0.6380400E-009  0.1162501E+03  0.7561462E-02  0.1249415E+00
         -2   -1    0    0    0  501 -0.00000000000E+00  0.00000000000E+00  0.12121498211E+02  0.12121498211E+02  0.00000000000E+00 0.  1.
          2   -1    0    0  501    0  0.00000000000E+00 -0.00000000000E+00 -0.13834368348E+04  0.13834368348E+04  0.00000000000E+00 0. -1.
         25    2    1    2    0    0 -0.31739623706E+02 -0.55591763124E+02 -0.98731870264E+03  0.99726835594E+03  0.12509238724E+03 0.  0.
         23    2    1    2    0    0  0.31739623706E+02  0.55591763124E+02 -0.38399663396E+03  0.39828997708E+03  0.84164381470E+02 0.  0.
          5    1    3    3  502    0 -0.51999940119E+02 -0.87859465994E+02 -0.72343717250E+03  0.73061761167E+03  0.41800000000E+01 0.  1.
         -5    1    3    3    0  502  0.20260316413E+02  0.32267702870E+02 -0.26388153014E+03  0.26665074427E+03  0.41800000000E+01 0.  1.
        -11    1    4    4    0    0 -0.20750486204E+02  0.17330154264E+02 -0.40426104628E+02  0.48633186817E+02  0.00000000000E+00 0.  1.
         11    1    4    4    0    0  0.52490109910E+02  0.38261608860E+02 -0.34357052933E+03  0.34965679026E+03  0.00000000000E+00 0. -1.
</event>
<event>
 8    1  0.6380400E-009  0.9341936E+02  0.7561462E-02  0.1294776E+00
          2   -1    0    0  501    0  0.00000000000E+00  0.00000000000E+00  0.11094572539E+04  0.11094572539E+04  0.00000000000E+00 0.  1.
         -2   -1    0    0    0  501 -0.00000000000E+00 -0.00000000000E+00 -0.13504717823E+02  0.13504717823E+02  0.00000000000E+00 0. -1.
         25    2    1    2    0    0  0.48625180656E+02  0.13981097286E+02  0.65316877243E+03  0.66696135137E+03  0.12509244452E+03 0.  0.
         23    2    1    2    0    0 -0.48625180656E+02 -0.13981097286E+02  0.44278376362E+03  0.45600062032E+03  0.96536133811E+02 0.  0.
          5    1    3    3  502    0 -0.38360151367E+01 -0.23505768760E+02  0.22622694598E+02  0.33113364190E+02  0.41800000000E+01 0. -1.
         -5    1    3    3    0  502  0.52461195793E+02  0.37486866046E+02  0.63054607783E+03  0.63384798718E+03  0.41800000000E+01 0. -1.
        -11    1    4    4    0    0 -0.72659760358E+02 -0.14070781714E+02  0.40121229289E+03  0.40798128834E+03  0.00000000000E+00 0.  1.
         11    1    4    4    0    0  0.24034579702E+02  0.89684427552E-01  0.41571470737E+02  0.48019331981E+02  0.00000000000E+00 0. -1.
</event>
<event>
 8    1  0.6380400E-009  0.7428905E+02  0.7561462E-02  0.1346087E+00
          2   -1    0    0  501    0  0.00000000000E+00  0.00000000000E+00  0.15389285715E+03  0.15389285715E+03  0.00000000000E+00 0. -1.
         -2   -1    0    0    0  501 -0.00000000000E+00 -0.00000000000E+00 -0.86646339251E+02  0.86646339251E+02  0.00000000000E+00 0.  1.
         25    2    1    2    0    0  0.36358894238E+02 -0.13040743427E+02  0.24980005885E+02  0.13327931270E+03  0.12508934535E+03 0.  0.
         23    2    1    2    0    0 -0.36358894238E+02  0.13040743427E+02  0.42266512013E+02  0.10725988370E+03  0.90698370625E+02 0.  0.
          5    1    3    3  502    0  0.48160246765E+02 -0.31352545594E+02  0.65407096859E+02  0.87166233160E+02  0.41800000000E+01 0.  1.
         -5    1    3    3    0  502 -0.11801352527E+02  0.18311802167E+02 -0.40427090975E+02  0.46113079541E+02  0.41800000000E+01 0.  1.
        -11    1    4    4    0    0 -0.14909771235E+02 -0.22662033515E+02 -0.19041070935E+02  0.33142592290E+02  0.00000000000E+00 0.  1.
         11    1    4    4    0    0 -0.21449123003E+02  0.35702776942E+02  0.61307582948E+02  0.74117291409E+02  0.00000000000E+00 0. -1.
</event>
<event>
 8    1  0.6380400E-009  0.1214983E+03  0.7561462E-02  0.1240646E+00
          2   -1    0    0  501    0  0.00000000000E+00  0.00000000000E+00  0.72699216057E+03  0.72699216057E+03  0.00000000000E+00 0. -1.
         -2   -1    0    0    0  501 -0.00000000000E+00 -0.00000000000E+00 -0.22344431699E+02  0.22344431699E+02  0.00000000000E+00 0.  1.
         25    2    1    2    0    0 -0.25630758138E+02 -0.52267783202E+02  0.48789912507E+03  0.50703294916E+03  0.12509195965E+03 0.  0.
         23    2    1    2    0    0  0.25630758138E+02  0.52267783202E+02  0.21674860380E+03  0.24230364310E+03  0.91335870768E+02 0.  0.
          5    1    3    3  502    0  0.43200504905E+02  0.90917669700E+01  0.12710328778E+03  0.13461672264E+03  0.41800000000E+01 0.  1.
         -5    1    3    3    0  502 -0.68831263044E+02 -0.61359550172E+02  0.36079583729E+03  0.37241622652E+03  0.41800000000E+01 0.  1.
        -11    1    4    4    0    0 -0.32439878210E+02  0.29900667098E+02  0.11321804270E+03  0.12151016741E+03  0.00000000000E+00 0. -1.
         11    1    4    4    0    0  0.58070636348E+02  0.22367116104E+02  0.10353056110E+03  0.12079347569E+03  0.00000000000E+00 0.  1.
</event>
<event>
 8    1  0.6380400E-009  0.1019920E+03  0.7561462E-02  0.1276162E+00
          2   -1    0    0  501    0  0.00000000000E+00  0.00000000000E+00  0.10122361831E+04  0.10122361831E+04  0.00000000000E+00 0. -1.
         -2   -1    0    0    0  501 -0.00000000000E+00 -0.00000000000E+00 -0.16394473281E+02  0.16394473281E+02  0.00000000000E+00 0.  1.
         25    2    1    2    0    0 -0.27829025196E+02 -0.29059423288E+02  0.78136159783E+03  0.79233330978E+03  0.12508885842E+03 0.  0.
         23    2    1    2    0    0  0.27829025196E+02  0.29059423288E+02  0.21448011203E+03  0.23629734664E+03  0.90641121175E+02 0.  0.
          5    1    3    3  502    0 -0.50805316219E+02  0.34188564913E+02  0.45139194447E+03  0.45554604384E+03  0.41800000000E+01 0. -1.
         -5    1    3    3    0  502  0.22976291022E+02 -0.63247988201E+02  0.32996965336E+03  0.33678726594E+03  0.41800000000E+01 0. -1.
        -11    1    4    4    0    0 -0.19239842057E+02  0.19020681738E+02  0.14676590363E+02  0.30779216378E+02  0.00000000000E+00 0.  1.
         11    1    4    4    0    0  0.47068867253E+02  0.10038741550E+02  0.19980352166E+03  0.20551813026E+03  0.00000000000E+00 0. -1.
</event>
<event>
 8    1  0.6380400E-009  0.7839197E+02  0.7561462E-02  0.1333678E+00
          1   -1    0    0  501    0  0.00000000000E+00  0.00000000000E+00  0.29472643261E+03  0.29472643261E+03  0.00000000000E+00 0. -1.
         -1   -1    0    0    0  501 -0.00000000000E+00 -0.00000000000E+00 -0.36798669918E+02  0.36798669918E+02  0.00000000000E+00 0.  1.
         25    2    1    2    0    0 -0.18754141036E+01 -0.51890842658E+01  0.19325544546E+03  0.23027325303E+03  0.12509060752E+03 0.  0.
         23    2    1    2    0    0  0.18754141036E+01  0.51890842658E+01  0.64672317233E+02  0.10125184950E+03  0.77710904232E+02 0.  0.
          5    1    3    3  502    0 -0.59263725396E+02 -0.24685052099E+02  0.10450162631E+03  0.12271757514E+03  0.41800000000E+01 0. -1.
         -5    1    3    3    0  502  0.57388311292E+02  0.19495967833E+02  0.88753819143E+02  0.10755567789E+03  0.41800000000E+01 0. -1.
        -11    1    4    4    0    0 -0.96496291025E+01 -0.91504340210E+01 -0.14672475690E+02  0.19802205116E+02  0.00000000000E+00 0.  1.
         11    1    4    4    0    0  0.11525043206E+02  0.14339518287E+02  0.79344792923E+02  0.81449644380E+02  0.00000000000E+00 0. -1.
</event>
<event>
 8    1  0.6380400E-009  0.1539222E+03  0.7561462E-02  0.1195735E+00
         -2   -1    0    0    0  501 -0.00000000000E+00  0.00000000000E+00  0.77285782957E+02  0.77285782957E+02  0.00000000000E+00 0.  1.
          2   -1    0    0  501    0  0.00000000000E+00 -0.00000000000E+00 -0.40357133219E+03  0.40357133219E+03  0.00000000000E+00 0. -1.
         25    2    1    2    0    0  0.11759004748E+03 -0.62142889284E+02 -0.11371611435E+03  0.21509929513E+03  0.12508874509E+03 0.  0.
         23    2    1    2    0    0 -0.11759004748E+03  0.62142889284E+02 -0.21256943489E+03  0.26575782002E+03  0.88047125436E+02 0.  0.
          5    1    3    3  502    0  0.74072858523E+02  0.13314319949E+02 -0.47388519483E+01  0.75524754904E+02  0.41800000000E+01 0. -1.
         -5    1    3    3    0  502  0.43517188955E+02 -0.75457209233E+02 -0.10897726240E+03  0.13957454023E+03  0.41800000000E+01 0. -1.
        -11    1    4    4    0    0 -0.10476538790E+03  0.73624602562E+02 -0.13407503594E+03  0.18539817655E+03  0.00000000000E+00 0.  1.
         11    1    4    4    0    0 -0.12824659580E+02 -0.11481713278E+02 -0.78494398942E+02  0.80359643468E+02  0.00000000000E+00 0. -1.
</event>
<event>
 8    1  0.6380400E-009  0.1190257E+03  0.7561462E-02  0.1244713E+00
          1   -1    0    0  501    0  0.00000000000E+00  0.00000000000E+00  0.31393358615E+03  0.31393358615E+03  0.00000000000E+00 0. -1.
         -1   -1    0    0    0  501 -0.00000000000E+00 -0.00000000000E+00 -0.65928284550E+02  0.65928284550E+02  0.00000000000E+00 0.  1.
         25    2    1    2    0    0  0.15168812625E+02 -0.83018537848E+02  0.18789513072E+03  0.24099008675E+03  0.12509784676E+03 0.  0.
         23    2    1    2    0    0 -0.15168812625E+02  0.83018537848E+02  0.60110170886E+02  0.13887178395E+03  0.92466043659E+02 0.  0.
          5    1    3    3  502    0 -0.36448446744E+02  0.14357097463E+02  0.63646384791E+02  0.74852857090E+02  0.41800000000E+01 0. -1.
         -5    1    3    3    0  502  0.51617259368E+02 -0.97375635311E+02  0.12424874592E+03  0.16613722966E+03  0.41800000000E+01 0. -1.
        -11    1    4    4    0    0  0.54216915718E+01  0.43189890074E+02 -0.19349006082E+02  0.47635547446E+02  0.00000000000E+00 0.  1.
         11    1    4    4    0    0 -0.20590504196E+02  0.39828647774E+02  0.79459176968E+02  0.91236236502E+02  0.00000000000E+00 0. -1.
</event>
<event>
 8    1  0.6380400E-009  0.9612073E+02  0.7561462E-02  0.1288672E+00
          1   -1    0    0  501    0  0.00000000000E+00  0.00000000000E+00  0.32673232026E+03  0.32673232026E+03  0.00000000000E+00 0. -1.
         -1   -1    0    0    0  501 -0.00000000000E+00 -0.00000000000E+00 -0.62177891246E+02  0.62177891246E+02  0.00000000000E+00 0.  1.
         25    2    1    2    0    0  0.59606386766E+02  0.30452807561E+02  0.22659069778E+03  0.26733908937E+03  0.12508616852E+03 0.  0.
         23    2    1    2    0    0 -0.59606386766E+02 -0.30452807561E+02  0.37963731235E+02  0.12157112213E+03  0.94116937983E+02 0.  0.
          5    1    3    3  502    0  0.45871930358E+02  0.22262046153E+01  0.23082759509E+03  0.23538912684E+03  0.41800000000E+01 0.  1.
         -5    1    3    3    0  502  0.13734456408E+02  0.28226602946E+02 -0.42368973129E+01  0.31949962528E+02  0.41800000000E+01 0.  1.
        -11    1    4    4    0    0  0.17959016976E+02 -0.32203636583E+02  0.47570872096E+01  0.37178359010E+02  0.00000000000E+00 0.  1.
         11    1    4    4    0    0 -0.77565403742E+02  0.17508290223E+01  0.33206644026E+02  0.84392763122E+02  0.00000000000E+00 0. -1.
</event>
<event>
 8    1  0.6380400E-009  0.1173165E+03  0.7561462E-02  0.1247591E+00
          1   -1    0    0  501    0  0.00000000000E+00  0.00000000000E+00  0.33796319778E+03  0.33796319778E+03  0.00000000000E+00 0. -1.
         -1   -1    0    0    0  501 -0.00000000000E+00 -0.00000000000E+00 -0.60062406157E+02  0.60062406157E+02  0.00000000000E+00 0.  1.
         25    2    1    2    0    0  0.61824573871E+02  0.45698955868E+02  0.22490657968E+03  0.26859007198E+03  0.12508790780E+03 0.  0.
         23    2    1    2    0    0 -0.61824573871E+02 -0.45698955868E+02  0.52994211942E+02  0.12943553196E+03  0.89635360956E+02 0.  0.
          5    1    3    3  502    0 -0.35938113389E+02 -0.15848575341E+01  0.76574456401E+02  0.84706431518E+02  0.41800000000E+01 0.  1.
         -5    1    3    3    0  502  0.97762687261E+02  0.47283813402E+02  0.14833212328E+03  0.18388364046E+03  0.41800000000E+01 0.  1.
        -11    1    4    4    0    0  0.59546760316E+01 -0.13390559617E+02  0.52333789992E+02  0.54346948658E+02  0.00000000000E+00 0. -1.
         11    1    4    4    0    0 -0.67779249903E+02 -0.32308396250E+02  0.66042194946E+00  0.75088583306E+02  0.00000000000E+00 0.  1.
</event>
<event>
 8    1  0.6380400E-009  0.1773010E+03  0.7561462E-02  0.1170441E+00
         -1   -1    0    0    0  501 -0.00000000000E+00  0.00000000000E+00  0.10203697635E+03  0.10203697635E+03  0.00000000000E+00 0.  1.
          1   -1    0    0  501    0  0.00000000000E+00 -0.00000000000E+00 -0.58989501507E+03  0.58989501507E+03  0.00000000000E+00 0. -1.
         25    2    1    2    0    0  0.11655772554E+03  0.94356490749E+02 -0.24788373883E+02  0.19687725494E+03  0.12512929035E+03 0.  0.
         23    2    1    2    0    0 -0.11655772554E+03 -0.94356490749E+02 -0.46306966484E+03  0.49505473648E+03  0.90315153158E+02 0.  0.
          5    1    3    3  502    0  0.16934136301E+02 -0.26167459871E+02  0.15913394083E+02  0.35244991695E+02  0.41800000000E+01 0.  1.
         -5    1    3    3    0  502  0.99623589237E+02  0.12052395062E+03 -0.40701767965E+02  0.16163226324E+03  0.41800000000E+01 0.  1.
        -11    1    4    4    0    0 -0.19491061124E+01 -0.39714570458E+02 -0.56269189158E+02  0.68900419229E+02  0.00000000000E+00 0.  1.
         11    1    4    4    0    0 -0.11460861943E+03 -0.54641920291E+02 -0.40680047568E+03  0.42615431725E+03  0.00000000000E+00 0. -1.
</event>
<event>
 8    1  0.6380400E-009  0.1151416E+03  0.7561462E-02  0.1251334E+00
         -1   -1    0    0    0  501 -0.00000000000E+00  0.00000000000E+00  0.42426012780E+03  0.42426012780E+03  0.00000000000E+00 0.  1.
          1   -1    0    0  501    0  0.00000000000E+00 -0.00000000000E+00 -0.32691801935E+02  0.32691801935E+02  0.00000000000E+00 0. -1.
         25    2    1    2    0    0 -0.38786072228E+02 -0.19215402763E+02  0.25882428031E+03  0.29070931824E+03  0.12509319938E+03 0.  0.
         23    2    1    2    0    0  0.38786072228E+02  0.19215402763E+02  0.13274404556E+03  0.16624261150E+03  0.90233215307E+02 0.  0.
          5    1    3    3  502    0  0.17960711904E+02  0.42583766152E+02  0.69300524418E+02  0.83402634229E+02  0.41800000000E+01 0.  1.
         -5    1    3    3    0  502 -0.56746784133E+02 -0.61799168915E+02  0.18952375589E+03  0.20730668401E+03  0.41800000000E+01 0.  1.
        -11    1    4    4    0    0  0.31270962974E+02 -0.33962873800E+02  0.66682519716E+02  0.81104305420E+02  0.00000000000E+00 0. -1.
         11    1    4    4    0    0  0.75151092546E+01  0.53178276563E+02  0.66061525846E+02  0.85138306082E+02  0.00000000000E+00 0.  1.
</event>
<event>
 8    1  0.6380400E-009  0.1266439E+03  0.7561462E-02  0.1232522E+00
          3   -1    0    0  501    0  0.00000000000E+00  0.00000000000E+00  0.63685732757E+02  0.63685732757E+02  0.00000000000E+00 0. -1.
         -3   -1    0    0    0  501 -0.00000000000E+00 -0.00000000000E+00 -0.37413437362E+03  0.37413437362E+03  0.00000000000E+00 0.  1.
         25    2    1    2    0    0 -0.76190013076E+02 -0.41268046231E+02 -0.27946817911E+03  0.31820985171E+03  0.12508827625E+03 0.  0.
         23    2    1    2    0    0  0.76190013076E+02  0.41268046231E+02 -0.30980461745E+02  0.11961025466E+03  0.76412396105E+02 0.  0.
          5    1    3    3  502    0 -0.39470628130E+02 -0.77180816105E+02 -0.10465387289E+03  0.13595850239E+03  0.41800000000E+01 0.  1.
         -5    1    3    3    0  502 -0.36719384945E+02  0.35912769874E+02 -0.17481430622E+03  0.18225134932E+03  0.41800000000E+01 0.  1.
        -11    1    4    4    0    0  0.16430469323E+02  0.51749807132E+02 -0.20517643547E+02  0.58042885499E+02  0.00000000000E+00 0.  1.
         11    1    4    4    0    0  0.59759543753E+02 -0.10481760901E+02 -0.10462818199E+02  0.61567369164E+02  0.00000000000E+00 0. -1.
</event>
<event>
 8    1  0.6380400E-009  0.1150214E+03  0.7561462E-02  0.1251544E+00
         -2   -1    0    0    0  501 -0.00000000000E+00  0.00000000000E+00  0.55019339648E+02  0.55019339648E+02  0.00000000000E+00 0.  1.
          2   -1    0    0  501    0  0.00000000000E+00 -0.00000000000E+00 -0.30729219045E+03  0.30729219045E+03  0.00000000000E+00 0. -1.
         25    2    1    2    0    0  0.20762278551E+02 -0.32914835269E+02 -0.21954633033E+03  0.25566002984E+03  0.12508797346E+03 0.  0.
         23    2    1    2    0    0 -0.20762278551E+02  0.32914835269E+02 -0.32726520475E+02  0.10665150026E+03  0.93749980127E+02 0.  0.
          5    1    3    3  502    0  0.72892982758E+02 -0.28254619531E+02 -0.12429475530E+03  0.14689577616E+03  0.41800000000E+01 0.  1.
         -5    1    3    3    0  502 -0.52130704207E+02 -0.46602157374E+01 -0.95251575031E+02  0.10876425368E+03  0.41800000000E+01 0.  1.
        -11    1    4    4    0    0  0.28266595021E+02 -0.13864068890E+02 -0.21090113781E+02  0.37894665845E+02  0.00000000000E+00 0. -1.
         11    1    4    4    0    0 -0.49028873572E+02  0.46778904158E+02 -0.11636406694E+02  0.68756834415E+02  0.00000000000E+00 0.  1.
</event>
<event>
 8    1  0.6380400E-009  0.1108897E+03  0.7561462E-02  0.1258931E+00
          2   -1    0    0  501    0  0.00000000000E+00  0.00000000000E+00  0.15318343772E+04  0.15318343772E+04  0.00000000000E+00 0. -1.
         -2   -1    0    0    0  501 -0.00000000000E+00 -0.00000000000E+00 -0.19830235890E+02  0.19830235890E+02  0.00000000000E+00 0.  1.
         25    2    1    2    0    0  0.25343928126E+02  0.35139174922E+02  0.13601397204E+04  0.13665666411E+04  0.12508896494E+03 0.  0.
         23    2    1    2    0    0 -0.25343928126E+02 -0.35139174922E+02  0.15186442092E+03  0.18509797204E+03  0.96547297238E+02 0.  0.
          5    1    3    3  502    0  0.22637344411E+02  0.79464034553E+02  0.10473874237E+04  0.10506497370E+04  0.41800000000E+01 0.  1.
         -5    1    3    3    0  502  0.27065837153E+01 -0.44324859631E+02  0.31275229673E+03  0.31591690408E+03  0.41800000000E+01 0.  1.
        -11    1    4    4    0    0 -0.37244275368E+02  0.17017071544E+02  0.26442413787E+02  0.48743389485E+02  0.00000000000E+00 0.  1.
         11    1    4    4    0    0  0.11900347242E+02 -0.52156246466E+02  0.12542200713E+03  0.13635458255E+03  0.00000000000E+00 0. -1.
</event>
<event>
 8    1  0.6380400E-009  0.1366708E+03  0.7561462E-02  0.1217880E+00
          2   -1    0    0  501    0  0.00000000000E+00  0.00000000000E+00  0.25666308452E+03  0.25666308452E+03  0.00000000000E+00 0.  1.
         -2   -1    0    0    0  501 -0.00000000000E+00 -0.00000000000E+00 -0.92982410888E+02  0.92982410888E+02  0.00000000000E+00 0. -1.
         25    2    1    2    0    0  0.87113387736E+02  0.60960163785E+02  0.59998322140E+02  0.17478942501E+03  0.12508661218E+03 0.  0.
         23    2    1    2    0    0 -0.87113387736E+02 -0.60960163785E+02  0.10368235149E+03  0.17485607039E+03  0.92302391359E+02 0.  0.
          5    1    3    3  502    0  0.77230737725E+02 -0.20416343688E+02  0.15705268899E+02  0.81520192654E+02  0.41800000000E+01 0.  1.
         -5    1    3    3    0  502  0.98826500109E+01  0.81376507473E+02  0.44293053241E+02  0.93269232361E+02  0.41800000000E+01 0.  1.
        -11    1    4    4    0    0 -0.71545240447E+02 -0.31973207251E+02  0.11577354022E+03  0.13980171682E+03  0.00000000000E+00 0.  1.
         11    1    4    4    0    0 -0.15568147289E+02 -0.28986956534E+02 -0.12091188728E+02  0.35054353567E+02  0.00000000000E+00 0. -1.
</event>
<event>
 8    1  0.6380400E-009  0.1370850E+03  0.7561462E-02  0.1217306E+00
         -2   -1    0    0    0  501 -0.00000000000E+00  0.00000000000E+00  0.33209663957E+03  0.33209663957E+03  0.00000000000E+00 0.  1.
          2   -1    0    0  501    0  0.00000000000E+00 -0.00000000000E+00 -0.77083255054E+02  0.77083255054E+02  0.00000000000E+00 0. -1.
         25    2    1    2    0    0 -0.97276997700E+02 -0.35771247962E+02  0.66069259562E+02  0.17538628299E+03  0.12511116952E+03 0.  0.
         23    2    1    2    0    0  0.97276997700E+02  0.35771247962E+02  0.18894412495E+03  0.23379361163E+03  0.90648629475E+02 0.  0.
          5    1    3    3  502    0 -0.38544139889E+01 -0.63706628497E+02  0.17181170448E+02  0.66227305846E+02  0.41800000000E+01 0. -1.
         -5    1    3    3    0  502 -0.93422583711E+02  0.27935380535E+02  0.48888089114E+02  0.10915897714E+03  0.41800000000E+01 0. -1.
        -11    1    4    4    0    0  0.23380805859E+02  0.30632900998E+02  0.13952019022E+03  0.14474432695E+03  0.00000000000E+00 0.  1.
         11    1    4    4    0    0  0.73896191841E+02  0.51383469644E+01  0.49423934731E+02  0.89049284682E+02  0.00000000000E+00 0. -1.
</event>
<event>
 8    1  0.6380400E-009  0.1378938E+03  0.7561462E-02  0.1216191E+00
         -2   -1    0    0    0  501 -0.00000000000E+00  0.00000000000E+00  0.19660014232E+02  0.19660014232E+02  0.00000000000E+00 0.  1.
          2   -1    0    0  501    0  0.00000000000E+00 -0.00000000000E+00 -0.10360929736E+04  0.10360929736E+04  0.00000000000E+00 0. -1.
         25    2    1    2    0    0 -0.73500749365E+02  0.46115622457E+02 -0.67494642202E+03  0.69190352077E+03  0.12509515845E+03 0.  0.
         23    2    1    2    0    0  0.73500749365E+02 -0.46115622457E+02 -0.34148653739E+03  0.36384946710E+03  0.90798506044E+02 0.  0.
          5    1    3    3  502    0 -0.60016701747E+02  0.87731075187E+02 -0.52407629786E+03  0.53476367156E+03  0.41800000000E+01 0.  1.
         -5    1    3    3    0  502 -0.13484047618E+02 -0.41615452730E+02 -0.15087012416E+03  0.15713984921E+03  0.41800000000E+01 0.  1.
        -11    1    4    4    0    0  0.24648020780E+02  0.27617202031E+02 -0.10835542666E+03  0.11450385697E+03  0.00000000000E+00 0. -1.
         11    1    4    4    0    0  0.48852728584E+02 -0.73732824488E+02 -0.23313111074E+03  0.24934561013E+03  0.00000000000E+00 0.  1.
</event>
<event>
 8    1  0.6380400E-009  0.1256872E+03  0.7561462E-02  0.1233999E+00
         -1   -1    0    0    0  501 -0.00000000000E+00  0.00000000000E+00  0.85068235224E+02  0.85068235224E+02  0.00000000000E+00 0.  1.
          1   -1    0    0  501    0  0.00000000000E+00 -0.00000000000E+00 -0.27056046967E+03  0.27056046967E+03  0.00000000000E+00 0. -1.
         25    2    1    2    0    0 -0.54381680529E+01  0.85568524436E+02 -0.17134248650E+03  0.22881728490E+03  0.12509019204E+03 0.  0.
         23    2    1    2    0    0  0.54381680529E+01 -0.85568524436E+02 -0.14149747949E+02  0.12681141999E+03  0.92354614547E+02 0.  0.
          5    1    3    3  502    0  0.46295968509E+02  0.20010047936E+02 -0.17192073023E+02  0.53448652868E+02  0.41800000000E+01 0.  1.
         -5    1    3    3    0  502 -0.51734136562E+02  0.65558476500E+02 -0.15415041348E+03  0.17536863204E+03  0.41800000000E+01 0.  1.
        -11    1    4    4    0    0 -0.34311422943E+02 -0.62209087977E+02  0.14529050990E+02  0.72514396461E+02  0.00000000000E+00 0.  1.
         11    1    4    4    0    0  0.39749590996E+02 -0.23359436459E+02 -0.28678798939E+02  0.54297023534E+02  0.00000000000E+00 0. -1.
</event>
<event>
 8    1  0.6380400E-009  0.6591207E+02  0.7561462E-02  0.1374573E+00
         -2   -1    0    0    0  501 -0.00000000000E+00  0.00000000000E+00  0.33952419723E+02  0.33952419723E+02  0.00000000000E+00 0. -1.
          2   -1    0    0  501    0  0.00000000000E+00 -0.00000000000E+00 -0.41416048228E+03  0.41416048228E+03  0.00000000000E+00 0.  1.
         25    2    1    2    0    0 -0.16395868213E+02  0.34668674603E+02 -0.27585507449E+03  0.30531073652E+03  0.12509149537E+03 0.  0.
         23    2    1    2    0    0  0.16395868213E+02 -0.34668674603E+02 -0.10435298806E+03  0.14280216548E+03  0.89622379218E+02 0.  0.
          5    1    3    3  502    0  0.19269339662E+02  0.27474174006E+02 -0.77214713584E+01  0.34687623272E+02  0.41800000000E+01 0.  1.
         -5    1    3    3    0  502 -0.35665207874E+02  0.71945005974E+01 -0.26813360313E+03  0.27062311324E+03  0.41800000000E+01 0.  1.
        -11    1    4    4    0    0  0.24151444994E+02  0.16869043340E+01 -0.10278254015E+03  0.10559540000E+03  0.00000000000E+00 0.  1.
         11    1    4    4    0    0 -0.77555767811E+01 -0.36355578937E+02 -0.15704479089E+01  0.37206765483E+02  0.00000000000E+00 0. -1.
</event>
<event>
 8    1  0.6380400E-009  0.7788935E+02  0.7561462E-02  0.1335150E+00
          2   -1    0    0  501    0  0.00000000000E+00  0.00000000000E+00  0.58978027353E+03  0.58978027353E+03  0.00000000000E+00 0. -1.
         -2   -1    0    0    0  501 -0.00000000000E+00 -0.00000000000E+00 -0.22642746518E+02  0.22642746518E+02  0.00000000000E+00 0.  1.
         25    2    1    2    0    0 -0.29542994680E+02 -0.12724808684E+01  0.41791443767E+03  0.43723575038E+03  0.12509283135E+03 0.  0.
         23    2    1    2    0    0  0.29542994680E+02  0.12724808684E+01  0.14922308934E+03  0.17518726966E+03  0.86882917296E+02 0.  0.
          5    1    3    3  502    0 -0.30860973705E+02 -0.40818793249E+02  0.37582759927E+03  0.37931837597E+03  0.41800000000E+01 0. -1.
         -5    1    3    3    0  502  0.13179790244E+01  0.39546312380E+02  0.42086838406E+02  0.57917374411E+02  0.41800000000E+01 0. -1.
        -11    1    4    4    0    0 -0.13598715009E+02 -0.13388093526E+02 -0.82987237292E-01  0.19083316930E+02  0.00000000000E+00 0.  1.
         11    1    4    4    0    0  0.43141709689E+02  0.14660574394E+02  0.14930607657E+03  0.15610395273E+03  0.00000000000E+00 0. -1.
</event>
<event>
 8    1  0.6380400E-009  0.1271880E+03  0.7561462E-02  0.1231689E+00
          1   -1    0    0  501    0  0.00000000000E+00  0.00000000000E+00  0.60814538298E+03  0.60814538298E+03  0.00000000000E+00 0. -1.
         -1   -1    0    0    0  501 -0.00000000000E+00 -0.00000000000E+00 -0.33642407542E+02  0.33642407542E+02  0.00000000000E+00 0.  1.
         25    2    1    2    0    0 -0.89843825135E+02  0.27205835476E+02  0.33678955144E+03  0.37133364376E+03  0.12509757246E+03 0.  0.
         23    2    1    2    0    0  0.89843825135E+02 -0.27205835476E+02  0.23771342400E+03  0.27045414676E+03  0.88463004410E+02 0.  0.
          5    1    3    3  502    0  0.19143335255E+02 -0.64563572141E+01  0.61223083965E+01  0.21519918524E+02  0.41800000000E+01 0. -1.
         -5    1    3    3    0  502 -0.10898716039E+03  0.33662192690E+02  0.33066724304E+03  0.34981372524E+03  0.41800000000E+01 0. -1.
        -11    1    4    4    0    0  0.10302130230E+03 -0.21495228666E+02  0.16056671719E+03  0.19198204148E+03  0.00000000000E+00 0.  1.
         11    1    4    4    0    0 -0.13177477163E+02 -0.57106068100E+01  0.77146706812E+02  0.78472105276E+02  0.00000000000E+00 0. -1.
</event>
<event>
 8    1  0.6380400E-009  0.1190563E+03  0.7561462E-02  0.1244662E+00
         -2   -1    0    0    0  501 -0.00000000000E+00  0.00000000000E+00  0.30564985698E+02  0.30564985698E+02  0.00000000000E+00 0.  1.
          2   -1    0    0  501    0  0.00000000000E+00 -0.00000000000E+00 -0.67074122184E+03  0.67074122184E+03  0.00000000000E+00 0. -1.
         25    2    1    2    0    0 -0.30786864640E+02 -0.85436025603E+02 -0.40062666638E+03  0.42941454757E+03  0.12509189558E+03 0.  0.
         23    2    1    2    0    0  0.30786864640E+02  0.85436025603E+02 -0.23954956976E+03  0.27189165997E+03  0.91071032083E+02 0.  0.
          5    1    3    3  502    0 -0.11202316652E+02 -0.88565680328E+02 -0.12843067079E+03  0.15646495208E+03  0.41800000000E+01 0.  1.
         -5    1    3    3    0  502 -0.19584547988E+02  0.31296547249E+01 -0.27219599559E+03  0.27294959548E+03  0.41800000000E+01 0.  1.
        -11    1    4    4    0    0  0.58672013196E+02  0.28829049580E+02 -0.11560445537E+03  0.13280779093E+03  0.00000000000E+00 0.  1.
         11    1    4    4    0    0 -0.27885148556E+02  0.56606976023E+02 -0.12394511439E+03  0.13908386904E+03  0.00000000000E+00 0. -1.
</event>
<event>
 8    1  0.6380400E-009  0.1030145E+03  0.7561462E-02  0.1274082E+00
         -1   -1    0    0    0  501 -0.00000000000E+00  0.00000000000E+00  0.12825903112E+03  0.12825903112E+03  0.00000000000E+00 0.  1.
          1   -1    0    0  501    0  0.00000000000E+00 -0.00000000000E+00 -0.94559425186E+02  0.94559425186E+02  0.00000000000E+00 0. -1.
         25    2    1    2    0    0  0.14093520064E+02  0.13607383375E+01  0.38778622079E+02  0.13172741565E+03  0.12509137295E+03 0.  0.
         23    2    1    2    0    0 -0.14093520064E+02 -0.13607383375E+01 -0.50790161433E+01  0.91091040662E+02  0.89840427244E+02 0.  0.
          5    1    3    3  502    0 -0.52936894460E+02 -0.59518262248E+01 -0.78040007879E+00  0.53439877009E+02  0.41800000000E+01 0.  1.
         -5    1    3    3    0  502  0.67030414523E+02  0.73125645623E+01  0.39559022158E+02  0.78287538636E+02  0.41800000000E+01 0.  1.
        -11    1    4    4    0    0 -0.21807298246E+02  0.38602560859E+02  0.13505652107E+02  0.46347800385E+02  0.00000000000E+00 0.  1.
         11    1    4    4    0    0  0.77137781826E+01 -0.39963299196E+02 -0.18584668251E+02  0.44743240277E+02  0.00000000000E+00 0. -1.
</event>
<event>
 8    1  0.6380400E-009  0.1404428E+03  0.7561462E-02  0.1212734E+00
         -2   -1    0    0    0  501 -0.00000000000E+00  0.00000000000E+00  0.80950910521E+02  0.80950910521E+02  0.00000000000E+00 0.  1.
          2   -1    0    0  501    0  0.00000000000E+00 -0.00000000000E+00 -0.35987739965E+03  0.35987739965E+03  0.00000000000E+00 0. -1.
         25    2    1    2    0    0  0.16166194917E+02 -0.11406361779E+03 -0.10667205309E+03  0.20074399555E+03  0.12508944831E+03 0.  0.
         23    2    1    2    0    0 -0.16166194917E+02  0.11406361779E+03 -0.17225443604E+03  0.24008431462E+03  0.12123131868E+03 0.  0.
          5    1    3    3  502    0 -0.40143560133E+02 -0.42399570168E+02  0.23470484364E+01  0.58585066416E+02  0.41800000000E+01 0.  1.
         -5    1    3    3    0  502  0.56309755051E+02 -0.71664047623E+02 -0.10901910153E+03  0.14215892914E+03  0.41800000000E+01 0.  1.
        -11    1    4    4    0    0  0.17437178696E+02  0.84731429623E+02 -0.30901238527E+02  0.91860529660E+02  0.00000000000E+00 0. -1.
         11    1    4    4    0    0 -0.33603373614E+02  0.29332188167E+02 -0.14135319751E+03  0.14822378496E+03  0.00000000000E+00 0.  1.
</event>
<event>
 8    1  0.6380400E-009  0.2007321E+03  0.7561462E-02  0.1149123E+00
         -2   -1    0    0    0  501 -0.00000000000E+00  0.00000000000E+00  0.12128942451E+03  0.12128942451E+03  0.00000000000E+00 0.  1.
          2   -1    0    0  501    0  0.00000000000E+00 -0.00000000000E+00 -0.39073162516E+03  0.39073162516E+03  0.00000000000E+00 0. -1.
         25    2    1    2    0    0  0.17284010806E+03 -0.29839009258E+02 -0.67167516611E+02  0.22566062587E+03  0.12508866197E+03 0.  0.
         23    2    1    2    0    0 -0.17284010806E+03  0.29839009258E+02 -0.20227468404E+03  0.28636042381E+03  0.10160302698E+03 0.  0.
          5    1    3    3  502    0  0.36959670541E+02  0.46405647248E+02 -0.21547469682E+02  0.63255570448E+02  0.41800000000E+01 0.  1.
         -5    1    3    3    0  502  0.13588043752E+03 -0.76244656506E+02 -0.45620046930E+02  0.16240505542E+03  0.41800000000E+01 0.  1.
        -11    1    4    4    0    0 -0.24242253967E+02  0.28640670890E+02 -0.97678504434E+02  0.10463778063E+03  0.00000000000E+00 0. -1.
         11    1    4    4    0    0 -0.14859785409E+03  0.11983383673E+01 -0.10459617961E+03  0.18172264318E+03  0.00000000000E+00 0.  1.
</event>
<event>
 8    1  0.6380400E-009  0.1558234E+03  0.7561462E-02  0.1193494E+00
         -1   -1    0    0    0  501 -0.00000000000E+00  0.00000000000E+00  0.99674055738E+02  0.99674055738E+02  0.00000000000E+00 0.  1.
          1   -1    0    0  501    0  0.00000000000E+00 -0.00000000000E+00 -0.46979362126E+03  0.46979362126E+03  0.00000000000E+00 0. -1.
         25    2    1    2    0    0 -0.12650468797E+03 -0.70450235291E+02 -0.36720038984E+02  0.19483943641E+03  0.12508945993E+03 0.  0.
         23    2    1    2    0    0  0.12650468797E+03  0.70450235291E+02 -0.33339952653E+03  0.37462824058E+03  0.90688492210E+02 0.  0.
          5    1    3    3  502    0 -0.35310032877E+01 -0.35447141258E+01  0.36305794487E+02  0.36886530004E+02  0.41800000000E+01 0. -1.
         -5    1    3    3    0  502 -0.12297368469E+03 -0.66905521165E+02 -0.73025833471E+02  0.15795290640E+03  0.41800000000E+01 0. -1.
        -11    1    4    4    0    0  0.91635921435E+02  0.60507298480E+01 -0.13619184383E+03  0.16426189989E+03  0.00000000000E+00 0.  1.
         11    1    4    4    0    0  0.34868766539E+02  0.64399505443E+02 -0.19720768270E+03  0.21036634070E+03  0.00000000000E+00 0. -1.
</event>
<event>
 8    1  0.6380400E-009  0.1084539E+03  0.7561462E-02  0.1263460E+00
          2   -1    0    0  501    0  0.00000000000E+00  0.00000000000E+00  0.84933217224E+03  0.84933217224E+03  0.00000000000E+00 0. -1.
         -2   -1    0    0    0  501 -0.00000000000E+00 -0.00000000000E+00 -0.22099403604E+02  0.22099403604E+02  0.00000000000E+00 0.  1.
         25    2    1    2    0    0 -0.75765690452E+02 -0.15263227188E+02  0.56662194813E+03  0.58538985230E+03  0.12508973226E+03 0.  0.
         23    2    1    2    0    0  0.75765690452E+02  0.15263227188E+02  0.26061082051E+03  0.28604172355E+03  0.89041910864E+02 0.  0.
          5    1    3    3  502    0 -0.58048734386E+02  0.36319485941E+02  0.46451940373E+03  0.46955778075E+03  0.41800000000E+01 0.  1.
         -5    1    3    3    0  502 -0.17716956066E+02 -0.51582713129E+02  0.10210254440E+03  0.11583207155E+03  0.41800000000E+01 0.  1.
        -11    1    4    4    0    0  0.52356615196E+02  0.35007013588E+02  0.24232114718E+03  0.25037221197E+03  0.00000000000E+00 0. -1.
         11    1    4    4    0    0  0.23409075256E+02 -0.19743786400E+02  0.18289673323E+02  0.35669511575E+02  0.00000000000E+00 0.  1.
</event>
<event>
 8    1  0.6380400E-009  0.1744803E+03  0.7561462E-02  0.1173255E+00
         -2   -1    0    0    0  501 -0.00000000000E+00  0.00000000000E+00  0.18572477961E+03  0.18572477961E+03  0.00000000000E+00 0.  1.
          2   -1    0    0  501    0  0.00000000000E+00 -0.00000000000E+00 -0.28169017848E+03  0.28169017848E+03  0.00000000000E+00 0. -1.
         25    2    1    2    0    0  0.10991557394E+03 -0.11090920624E+03  0.77903401128E+02  0.21470428540E+03  0.12508678922E+03 0.  0.
         23    2    1    2    0    0 -0.10991557394E+03  0.11090920624E+03 -0.17386879999E+03  0.25271067269E+03  0.96177123364E+02 0.  0.
          5    1    3    3  502    0  0.66511701318E+02 -0.12849250830E+03  0.30472843195E+02  0.14791956488E+03  0.41800000000E+01 0.  1.
         -5    1    3    3    0  502  0.43403872618E+02  0.17583302056E+02  0.47430557933E+02  0.66784720522E+02  0.41800000000E+01 0.  1.
        -11    1    4    4    0    0 -0.44636843425E+02  0.57887417954E+02 -0.17504608292E+02  0.75165233052E+02  0.00000000000E+00 0.  1.
         11    1    4    4    0    0 -0.65278730511E+02  0.53021788286E+02 -0.15636419170E+03  0.17754543964E+03  0.00000000000E+00 0. -1.
</event>
<event>
 8    1  0.6380400E-009  0.1344197E+03  0.7561462E-02  0.1221041E+00
         -1   -1    0    0    0  501 -0.00000000000E+00  0.00000000000E+00  0.16535922209E+02  0.16535922209E+02  0.00000000000E+00 0. -1.
          1   -1    0    0  501    0  0.00000000000E+00 -0.00000000000E+00 -0.12048112852E+04  0.12048112852E+04  0.00000000000E+00 0.  1.
         25    2    1    2    0    0 -0.42519760044E+02  0.76845278205E+02 -0.82921461649E+03  0.84318314941E+03  0.12509123260E+03 0.  0.
         23    2    1    2    0    0  0.42519760044E+02 -0.76845278205E+02 -0.35906074653E+03  0.37816405803E+03  0.79814211195E+02 0.  0.
          5    1    3    3  502    0 -0.86178392680E+02  0.59942680401E+02 -0.53189587746E+03  0.54217205494E+03  0.41800000000E+01 0. -1.
         -5    1    3    3    0  502  0.43658632635E+02  0.16902597804E+02 -0.29731873903E+03  0.30101109447E+03  0.41800000000E+01 0. -1.
        -11    1    4    4    0    0  0.11559425862E+02 -0.84172606104E+02 -0.28874235628E+03  0.30098304978E+03  0.00000000000E+00 0.  1.
         11    1    4    4    0    0  0.30960334182E+02  0.73273278993E+01 -0.70318390254E+02  0.77181008252E+02  0.00000000000E+00 0. -1.
</event>
<event>
 8    1  0.6380400E-009  0.8287718E+02  0.7561462E-02  0.1321079E+00
          1   -1    0    0  501    0  0.00000000000E+00  0.00000000000E+00  0.24819712554E+03  0.24819712554E+03  0.00000000000E+00 0. -1.
         -1   -1    0    0    0  501 -0.00000000000E+00 -0.00000000000E+00 -0.49102319137E+02  0.49102319137E+02  0.00000000000E+00 0.  1.
         25    2    1    2    0    0 -0.36198211153E+02 -0.13769234980E+02  0.11546836588E+03  0.17458602323E+03  0.12508970248E+03 0.  0.
         23    2    1    2    0    0  0.36198211153E+02  0.13769234980E+02  0.83626440526E+02  0.12271342145E+03  0.81026538401E+02 0.  0.
          5    1    3    3  502    0 -0.45072941153E+02  0.19516035830E+02 -0.46905055303E+01  0.49516854916E+02  0.41800000000E+01 0.  1.
         -5    1    3    3    0  502  0.88747300000E+01 -0.33285270810E+02  0.12015887141E+03  0.12506916832E+03  0.41800000000E+01 0.  1.
        -11    1    4    4    0    0  0.42026940453E+02  0.38108453343E+02  0.31500813262E+02  0.64890825054E+02  0.00000000000E+00 0.  1.
         11    1    4    4    0    0 -0.58287293001E+01 -0.24339218363E+02  0.52125627265E+02  0.57822596392E+02  0.00000000000E+00 0. -1.
</event>
<event>
 8    1  0.6380400E-009  0.6834127E+02  0.7561462E-02  0.1365826E+00
         -3   -1    0    0    0  501 -0.00000000000E+00  0.00000000000E+00  0.42943680254E+03  0.42943680254E+03  0.00000000000E+00 0.  1.
          3   -1    0    0  501    0  0.00000000000E+00 -0.00000000000E+00 -0.34052584616E+02  0.34052584616E+02  0.00000000000E+00 0. -1.
         25    2    1    2    0    0 -0.23218248089E+02  0.28174858313E+02  0.15001216739E+03  0.19870864940E+03  0.12509423366E+03 0.  0.
         23    2    1    2    0    0  0.23218248089E+02 -0.28174858313E+02  0.24537205052E+03  0.26478073775E+03  0.92566118093E+02 0.  0.
          5    1    3    3  502    0 -0.18068161707E+02 -0.47321436631E+00  0.16476736444E+03  0.16580844123E+03  0.41800000000E+01 0.  1.
         -5    1    3    3    0  502 -0.51500863815E+01  0.28648072679E+02 -0.14755197044E+02  0.32900208172E+02  0.41800000000E+01 0.  1.
        -11    1    4    4    0    0 -0.38823418390E+01 -0.52298921045E+02  0.19959078831E+03  0.20636553128E+03  0.00000000000E+00 0.  1.
         11    1    4    4    0    0  0.27100589928E+02  0.24124062733E+02  0.45781262211E+02  0.58415206468E+02  0.00000000000E+00 0. -1.
</event>
<event>
 8    1  0.6380400E-009  0.7089538E+02  0.7561462E-02  0.1357074E+00
          1   -1    0    0  501    0  0.00000000000E+00  0.00000000000E+00  0.16321101542E+03  0.16321101542E+03  0.00000000000E+00 0. -1.
         -1   -1    0    0    0  501 -0.00000000000E+00 -0.00000000000E+00 -0.99480703876E+02  0.99480703876E+02  0.00000000000E+00 0.  1.
         25    2    1    2    0    0 -0.24087314752E+02 -0.78289014678E+01 -0.28396425294E+02  0.13075251196E+03  0.12509345300E+03 0.  0.
         23    2    1    2    0    0  0.24087314752E+02  0.78289014678E+01  0.92126736840E+02  0.13193920734E+03  0.90989715699E+02 0.  0.
          5    1    3    3  502    0  0.29044509226E+02 -0.13271256732E+00  0.36235912937E+02  0.46627405194E+02  0.41800000000E+01 0.  1.
         -5    1    3    3    0  502 -0.53131823978E+02 -0.76961889005E+01 -0.64632338230E+02  0.84125106763E+02  0.41800000000E+01 0.  1.
        -11    1    4    4    0    0 -0.16563016478E+02  0.68838756152E+01 -0.11030894656E+02  0.21057110325E+02  0.00000000000E+00 0.  1.
         11    1    4    4    0    0  0.40650331230E+02  0.94502585259E+00  0.10315763150E+03  0.11088209702E+03  0.00000000000E+00 0. -1.
</event>
<event>
 8    1  0.6380400E-009  0.9204362E+02  0.7561462E-02  0.1297977E+00
         -2   -1    0    0    0  501 -0.00000000000E+00  0.00000000000E+00  0.89919038864E+02  0.89919038864E+02  0.00000000000E+00 0. -1.
          2   -1    0    0  501    0  0.00000000000E+00 -0.00000000000E+00 -0.16046387456E+03  0.16046387456E+03  0.00000000000E+00 0.  1.
         25    2    1    2    0    0 -0.49319699195E+02 -0.99446042863E+01 -0.52037585534E+02  0.14452270224E+03  0.12509026050E+03 0.  0.
         23    2    1    2    0    0  0.49319699195E+02  0.99446042863E+01 -0.18507250158E+02  0.10586021118E+03  0.91282737248E+02 0.  0.
          5    1    3    3  502    0 -0.23349005438E+02 -0.59862130803E+02  0.46271691440E+01  0.64556439288E+02  0.41800000000E+01 0.  1.
         -5    1    3    3    0  502 -0.25970693757E+02  0.49917526517E+02 -0.56664754678E+02  0.79966262952E+02  0.41800000000E+01 0.  1.
        -11    1    4    4    0    0  0.34962466372E+02  0.24605191616E+02 -0.51545551125E+02  0.66968151759E+02  0.00000000000E+00 0.  1.
         11    1    4    4    0    0  0.14357232823E+02 -0.14660587329E+02  0.33038300967E+02  0.38892059421E+02  0.00000000000E+00 0. -1.
</event>
<event>
 7    1  0.6380400E-009  0.8829569E+02  0.7561462E-02  0.1307032E+00
          2   -1    0    0  501    0  0.00000000000E+00  0.00000000000E+00  0.13420935204E+03  0.13420935204E+03  0.00000000000E+00 0. -1.
         -2   -1    0    0    0  501 -0.00000000000E+00 -0.00000000000E+00 -0.16311390103E+03  0.16311390103E+03  0.00000000000E+00 0.  1.
         23    2    1    2    0    0  0.48880281598E+02  0.14663772603E+02 -0.10069655472E+03  0.14391918513E+03  0.89267169552E+02 0.  0.
          5    1    1    2  502    0  0.23032439842E+02 -0.56246941916E+01 -0.23476316435E+02  0.33626482171E+02  0.41800000000E+01 0.  1.
         -5    1    1    2    0  502 -0.71912721440E+02 -0.90390784114E+01  0.95268322171E+02  0.11977758577E+03  0.41800000000E+01 0.  1.
        -11    1    3    3    0    0  0.39483852578E+02 -0.19817953111E+02 -0.98686314644E+02  0.10812360787E+03  0.00000000000E+00 0.  1.
         11    1    3    3    0    0  0.93964290196E+01  0.34481725714E+02 -0.20102400771E+01  0.35795577265E+02  0.00000000000E+00 0. -1.
</event>
<event>
 8    1  0.6380400E-009  0.8330477E+02  0.7561462E-02  0.1319926E+00
          2   -1    0    0  501    0  0.00000000000E+00  0.00000000000E+00  0.80766599155E+03  0.80766599155E+03  0.00000000000E+00 0. -1.
         -2   -1    0    0    0  501 -0.00000000000E+00 -0.00000000000E+00 -0.19525108162E+02  0.19525108162E+02  0.00000000000E+00 0.  1.
         25    2    1    2    0    0  0.37636134424E+02  0.25135568803E+02  0.59164509470E+03  0.60641530717E+03  0.12508929316E+03 0.  0.
         23    2    1    2    0    0 -0.37636134424E+02 -0.25135568803E+02  0.19649578869E+03  0.22077579254E+03  0.89905951771E+02 0.  0.
          5    1    3    3  502    0  0.55068171231E+02 -0.11100219964E+02  0.52812912122E+03  0.53112480590E+03  0.41800000000E+01 0. -1.
         -5    1    3    3    0  502 -0.17432036807E+02  0.36235788767E+02  0.63515973481E+02  0.75290501273E+02  0.41800000000E+01 0. -1.
        -11    1    4    4    0    0 -0.38699073478E+02  0.55955241919E+01  0.18311130575E+03  0.18723962848E+03  0.00000000000E+00 0. -1.
         11    1    4    4    0    0  0.10629390539E+01 -0.30731092995E+02  0.13384482937E+02  0.33536164056E+02  0.00000000000E+00 0.  1.
</event>
<event>
 8    1  0.6380400E-009  0.8098204E+02  0.7561462E-02  0.1326287E+00
         -2   -1    0    0    0  501 -0.00000000000E+00  0.00000000000E+00  0.23979846306E+02  0.23979846306E+02  0.00000000000E+00 0.  1.
          2   -1    0    0  501    0  0.00000000000E+00 -0.00000000000E+00 -0.57841712230E+03  0.57841712230E+03  0.00000000000E+00 0. -1.
         25    2    1    2    0    0 -0.72156696004E+01 -0.22773147188E+02 -0.41888397508E+03  0.43781115230E+03  0.12507653006E+03 0.  0.
         23    2    1    2    0    0  0.72156696004E+01  0.22773147188E+02 -0.13555330091E+03  0.16458581631E+03  0.90239190055E+02 0.  0.
          5    1    3    3  502    0 -0.10383565985E+02  0.46407656832E+02 -0.92029493721E+02  0.10367443836E+03  0.41800000000E+01 0.  1.
         -5    1    3    3    0  502  0.31678963843E+01 -0.69180804020E+02 -0.32685448136E+03  0.33413671393E+03  0.41800000000E+01 0.  1.
        -11    1    4    4    0    0  0.16918607916E+02 -0.31119051950E+01  0.75865550471E+01  0.18801038940E+02  0.00000000000E+00 0.  1.
         11    1    4    4    0    0 -0.97029383155E+01  0.25885052383E+02 -0.14313985596E+03  0.14578477737E+03  0.00000000000E+00 0. -1.
</event>
<event>
 8    1  0.6380400E-009  0.6034136E+02  0.7561462E-02  0.1396405E+00
          2   -1    0    0  501    0  0.00000000000E+00  0.00000000000E+00  0.69165816700E+03  0.69165816700E+03  0.00000000000E+00 0.  1.
         -2   -1    0    0    0  501 -0.00000000000E+00 -0.00000000000E+00 -0.22773986579E+02  0.22773986579E+02  0.00000000000E+00 0. -1.
         25    2    1    2    0    0 -0.14431645372E+02  0.18979372868E+02  0.53252799188E+03  0.54754174448E+03  0.12508961121E+03 0.  0.
         23    2    1    2    0    0  0.14431645372E+02 -0.18979372868E+02  0.13635618854E+03  0.16689040910E+03  0.93225047666E+02 0.  0.
          5    1    3    3  502    0  0.10755007080E+01  0.79848317197E+01 -0.45209021026E+01  0.10140275893E+02  0.41800000000E+01 0.  1.
         -5    1    3    3    0  502 -0.15507146080E+02  0.10994541148E+02  0.53704889398E+03  0.53740146859E+03  0.41800000000E+01 0.  1.
        -11    1    4    4    0    0  0.34405225629E+02  0.25870313364E+02  0.88075793855E+02  0.98032332051E+02  0.00000000000E+00 0.  1.
         11    1    4    4    0    0 -0.19973580256E+02 -0.44849686232E+02  0.48280394687E+02  0.68858077046E+02  0.00000000000E+00 0. -1.
</event>
<event>
 8    1  0.6380400E-009  0.8984311E+02  0.7561462E-02  0.1303232E+00
         -2   -1    0    0    0  501 -0.00000000000E+00  0.00000000000E+00  0.49769853932E+02  0.49769853932E+02  0.00000000000E+00 0.  1.
          2   -1    0    0  501    0  0.00000000000E+00 -0.00000000000E+00 -0.32432936513E+03  0.32432936513E+03  0.00000000000E+00 0. -1.
         25    2    1    2    0    0  0.59024439564E+02  0.12622066016E+02 -0.17634788091E+03  0.22447368560E+03  0.12508660763E+03 0.  0.
         23    2    1    2    0    0 -0.59024439564E+02 -0.12622066016E+02 -0.98211630291E+02  0.14962553347E+03  0.95389071303E+02 0.  0.
          5    1    3    3  502    0  0.51484556924E+02  0.23766596065E+02 -0.10245792353E+02  0.57775075518E+02  0.41800000000E+01 0.  1.
         -5    1    3    3    0  502  0.75398826402E+01 -0.11144530049E+02 -0.16610208856E+03  0.16669861008E+03  0.41800000000E+01 0.  1.
        -11    1    4    4    0    0 -0.82593843039E+02 -0.13354574775E+01 -0.55378442005E+02  0.99449978349E+02  0.00000000000E+00 0. -1.
         11    1    4    4    0    0  0.23569403475E+02 -0.11286608539E+02 -0.42833188286E+02  0.50175555117E+02  0.00000000000E+00 0.  1.
</event>
<event>
 8    1  0.6380400E-009  0.1006255E+03  0.7561462E-02  0.1278986E+00
         -1   -1    0    0    0  501 -0.00000000000E+00  0.00000000000E+00  0.20021998569E+02  0.20021998569E+02  0.00000000000E+00 0.  1.
          1   -1    0    0  501    0  0.00000000000E+00 -0.00000000000E+00 -0.66474758018E+03  0.66474758018E+03  0.00000000000E+00 0. -1.
         25    2    1    2    0    0  0.13820108725E+02  0.13501819221E+01 -0.47531940381E+03  0.49170022734E+03  0.12509100499E+03 0.  0.
         23    2    1    2    0    0 -0.13820108725E+02 -0.13501819221E+01 -0.16940617779E+03  0.19306935140E+03  0.91566931696E+02 0.  0.
          5    1    3    3  502    0  0.43012596665E+02 -0.46180894026E+02 -0.17186173413E+03  0.18313024465E+03  0.41800000000E+01 0.  1.
         -5    1    3    3    0  502 -0.29192487940E+02  0.47531075948E+02 -0.30345766968E+03  0.30856998270E+03  0.41800000000E+01 0.  1.
        -11    1    4    4    0    0 -0.79731106342E+01  0.39755870483E+02 -0.39178687148E+02  0.56383235609E+02  0.00000000000E+00 0.  1.
         11    1    4    4    0    0 -0.58469980904E+01 -0.41106052406E+02 -0.13022749065E+03  0.13668611579E+03  0.00000000000E+00 0. -1.
</event>
<event>
 8    1  0.6380400E-009  0.8408938E+02  0.7561462E-02  0.1317831E+00
         -1   -1    0    0    0  501 -0.00000000000E+00  0.00000000000E+00  0.96853246210E+02  0.96853246210E+02  0.00000000000E+00 0.  1.
          1   -1    0    0  501    0  0.00000000000E+00 -0.00000000000E+00 -0.15217032543E+03  0.15217032543E+03  0.00000000000E+00 0. -1.
         25    2    1    2    0    0  0.42495735512E+01 -0.36572026777E+02  0.10106460117E+02  0.13078540514E+03  0.12508840731E+03 0.  0.
         23    2    1    2    0    0 -0.42495735512E+01  0.36572026777E+02 -0.65423539332E+02  0.11823816650E+03  0.91347974803E+02 0.  0.
          5    1    3    3  502    0 -0.45271407498E+02 -0.22513813913E+02  0.45521750455E+02  0.68162117912E+02  0.41800000000E+01 0.  1.
         -5    1    3    3    0  502  0.49520981049E+02 -0.14058212864E+02 -0.35415290338E+02  0.62623287224E+02  0.41800000000E+01 0.  1.
        -11    1    4    4    0    0 -0.27314958182E+02  0.32367814881E+02 -0.80078842480E+02  0.90589201308E+02  0.00000000000E+00 0. -1.
         11    1    4    4    0    0  0.23065384631E+02  0.42042118962E+01  0.14655303148E+02  0.27648965192E+02  0.00000000000E+00 0.  1.
</event>
<event>
 8    1  0.6380400E-009  0.1486249E+03  0.7561462E-02  0.1202173E+00
          1   -1    0    0  501    0  0.00000000000E+00  0.00000000000E+00  0.25952356186E+03  0.25952356186E+03  0.00000000000E+00 0. -1.
         -1   -1    0    0    0  501 -0.00000000000E+00 -0.00000000000E+00 -0.13030650468E+03  0.13030650468E+03  0.00000000000E+00 0.  1.
         25    2    1    2    0    0 -0.29177451408E+02  0.13965373236E+03  0.26503888858E+02  0.19161629023E+03  0.12513935402E+03 0.  0.
         23    2    1    2    0    0  0.29177451408E+02 -0.13965373236E+03  0.10271316832E+03  0.19821377631E+03  0.91565373038E+02 0.  0.
          5    1    3    3  502    0 -0.36291100048E+02  0.46528903285E+02 -0.44661611900E+02  0.74122295979E+02  0.41800000000E+01 0.  1.
         -5    1    3    3    0  502  0.71136486403E+01  0.93124829070E+02  0.71165500758E+02  0.11749399425E+03  0.41800000000E+01 0.  1.
        -11    1    4    4    0    0 -0.19132205999E+01 -0.43638323314E+02 -0.12123332992E+02  0.45331433659E+02  0.00000000000E+00 0.  1.
         11    1    4    4    0    0  0.31090672008E+02 -0.96015409041E+02  0.11483650131E+03  0.15288234265E+03  0.00000000000E+00 0. -1.
</event>
<event>
 8    1  0.6380400E-009  0.7915300E+02  0.7561462E-02  0.1331472E+00
         -1   -1    0    0    0  501 -0.00000000000E+00  0.00000000000E+00  0.23263199311E+03  0.23263199311E+03  0.00000000000E+00 0.  1.
          1   -1    0    0  501    0  0.00000000000E+00 -0.00000000000E+00 -0.10732104015E+03  0.10732104015E+03  0.00000000000E+00 0. -1.
         25    2    1    2    0    0 -0.16231406961E+02 -0.55860927525E+02 -0.38675802655E+02  0.14327947215E+03  0.12509711281E+03 0.  0.
         23    2    1    2    0    0  0.16231406961E+02  0.55860927525E+02  0.16398675562E+03  0.19667356110E+03  0.91678415244E+02 0.  0.
          5    1    3    3  502    0  0.41285230580E+01 -0.40908617682E+02 -0.82642775255E+02  0.92400543316E+02  0.41800000000E+01 0. -1.
         -5    1    3    3    0  502 -0.20359930019E+02 -0.14952309843E+02  0.43966972600E+02  0.50878928837E+02  0.41800000000E+01 0. -1.
        -11    1    4    4    0    0  0.40040723568E+02  0.54362696215E+02  0.61106448959E+02  0.91063496463E+02  0.00000000000E+00 0. -1.
         11    1    4    4    0    0 -0.23809316607E+02  0.14982313094E+01  0.10288030666E+03  0.10561006464E+03  0.00000000000E+00 0.  1.
</event>
<event>
 8    1  0.6380400E-009  0.8986400E+02  0.7561462E-02  0.1303181E+00
         -1   -1    0    0    0  501 -0.00000000000E+00  0.00000000000E+00  0.47340652913E+02  0.47340652913E+02  0.00000000000E+00 0.  1.
          1   -1    0    0  501    0  0.00000000000E+00 -0.00000000000E+00 -0.24650788330E+03  0.24650788330E+03  0.00000000000E+00 0. -1.
         25    2    1    2    0    0  0.92458556949E+01 -0.13326856372E+02 -0.10052455127E+03  0.16129237355E+03  0.12508778281E+03 0.  0.
         23    2    1    2    0    0 -0.92458556949E+01  0.13326856372E+02 -0.98642679109E+02  0.13255616266E+03  0.87049797068E+02 0.  0.
          5    1    3    3  502    0 -0.21619282367E+02  0.36108519092E+02  0.30190759298E+01  0.42400539390E+02  0.41800000000E+01 0.  1.
         -5    1    3    3    0  502  0.30865138062E+02 -0.49435375464E+02 -0.10354362720E+03  0.11889183416E+03  0.41800000000E+01 0.  1.
        -11    1    4    4    0    0 -0.98901343129E+01 -0.32092468698E+02 -0.13775817639E+02  0.36297581950E+02  0.00000000000E+00 0.  1.
         11    1    4    4    0    0  0.64427861800E+00  0.45419325070E+02 -0.84866861471E+02  0.96258580712E+02  0.00000000000E+00 0. -1.
</event>
<event>
 8    1  0.6380400E-009  0.1033285E+03  0.7561462E-02  0.1273448E+00
         -1   -1    0    0    0  501 -0.00000000000E+00  0.00000000000E+00  0.23412389257E+03  0.23412389257E+03  0.00000000000E+00 0.  1.
          1   -1    0    0  501    0  0.00000000000E+00 -0.00000000000E+00 -0.70970063491E+02  0.70970063491E+02  0.00000000000E+00 0. -1.
         25    2    1    2    0    0 -0.43935262337E+02  0.61873045039E+01  0.15504948268E+03  0.20409914833E+03  0.12509008857E+03 0.  0.
         23    2    1    2    0    0  0.43935262337E+02 -0.61873045039E+01  0.81043464017E+01  0.10099480772E+03  0.90364156295E+02 0.  0.
          5    1    3    3  502    0  0.20901786117E+02 -0.31573548253E+02  0.79498005696E+01  0.38915875183E+02  0.41800000000E+01 0. -1.
         -5    1    3    3    0  502 -0.64837048455E+02  0.37760852757E+02  0.14709968211E+03  0.16518327315E+03  0.41800000000E+01 0. -1.
        -11    1    4    4    0    0  0.58419855248E+02 -0.29900316089E+02 -0.11977170720E+02  0.66711026134E+02  0.00000000000E+00 0.  1.
         11    1    4    4    0    0 -0.14484592910E+02  0.23713011585E+02  0.20081517122E+02  0.34283781590E+02  0.00000000000E+00 0. -1.
</event>
<event>
 8    1  0.6380400E-009  0.9287425E+02  0.7561462E-02  0.1296037E+00
         -4   -1    0    0    0  501 -0.00000000000E+00  0.00000000000E+00  0.19259162986E+03  0.19259162986E+03  0.00000000000E+00 0.  1.
          4   -1    0    0  501    0  0.00000000000E+00 -0.00000000000E+00 -0.88127392625E+02  0.88127392625E+02  0.00000000000E+00 0. -1.
         25    2    1    2    0    0 -0.14182421240E+02 -0.44740048684E+01 -0.22354194553E+02  0.12793770474E+03  0.12508872246E+03 0.  0.
         23    2    1    2    0    0  0.14182421240E+02  0.44740048684E+01  0.12681843179E+03  0.15278131775E+03  0.83893138100E+02 0.  0.
          5    1    3    3  502    0 -0.50774340760E+02  0.40450546968E+02 -0.25233717486E+02  0.69774589413E+02  0.41800000000E+01 0. -1.
         -5    1    3    3    0  502  0.36591919519E+02 -0.44924551836E+02  0.28795229338E+01  0.58163115324E+02  0.41800000000E+01 0. -1.
        -11    1    4    4    0    0  0.28769733007E+02 -0.19348600102E+02  0.11874651340E+03  0.12370448782E+03  0.00000000000E+00 0.  1.
         11    1    4    4    0    0 -0.14587311766E+02  0.23822604971E+02  0.80719183918E+01  0.29076829929E+02  0.00000000000E+00 0. -1.
</event>
<event>
 7    1  0.6380400E-009  0.1014804E+03  0.7561462E-02  0.1277213E+00
         -2   -1    0    0    0  501 -0.00000000000E+00  0.00000000000E+00  0.41630866035E+02  0.41630866035E+02  0.00000000000E+00 0.  1.
          2   -1    0    0  501    0  0.00000000000E+00 -0.00000000000E+00 -0.72219437995E+03  0.72219437995E+03  0.00000000000E+00 0. -1.
         23    2    1    2    0    0  0.40164856235E+02  0.50297258047E+02 -0.58075471747E+02  0.12566103991E+03  0.90966514105E+02 0.  0.
          5    1    1    2  502    0  0.12538083151E+02  0.31188877185E+02 -0.77379296990E+02  0.84468796558E+02  0.41800000000E+01 0. -1.
         -5    1    1    2    0  502 -0.52702939387E+02 -0.81486135232E+02 -0.54510874518E+03  0.55369540952E+03  0.41800000000E+01 0. -1.
        -11    1    3    3    0    0 -0.38199580026E+01  0.15225551939E+02  0.22473094790E+02  0.27412579237E+02  0.00000000000E+00 0.  1.
         11    1    3    3    0    0  0.43984814238E+02  0.35071706108E+02 -0.80548566537E+02  0.98248460670E+02  0.00000000000E+00 0. -1.
</event>
<event>
 8    1  0.6380400E-009  0.1942097E+03  0.7561462E-02  0.1154718E+00
          1   -1    0    0  501    0  0.00000000000E+00  0.00000000000E+00  0.11319960450E+04  0.11319960450E+04  0.00000000000E+00 0. -1.
         -1   -1    0    0    0  501 -0.00000000000E+00 -0.00000000000E+00 -0.37287008544E+02  0.37287008544E+02  0.00000000000E+00 0.  1.
         25    2    1    2    0    0 -0.12422297118E+03  0.12018346295E+03  0.62885076621E+03  0.66406083338E+03  0.12509233765E+03 0.  0.
         23    2    1    2    0    0  0.12422297118E+03 -0.12018346295E+03  0.46585827022E+03  0.50522222013E+03  0.91379168562E+02 0.  0.
          5    1    3    3  502    0 -0.10615742775E+02 -0.22579269700E+02  0.13975879501E+03  0.14202996374E+03  0.41800000000E+01 0. -1.
         -5    1    3    3    0  502 -0.11360722840E+03  0.14276273265E+03  0.48909197119E+03  0.52203086965E+03  0.41800000000E+01 0. -1.
        -11    1    4    4    0    0  0.10615905289E+03 -0.69672684526E+02  0.40327825693E+03  0.42279709081E+03  0.00000000000E+00 0. -1.
         11    1    4    4    0    0  0.18063918290E+02 -0.50510778427E+02  0.62580013284E+02  0.82425129323E+02  0.00000000000E+00 0.  1.
</event>
<event>
 8    1  0.6380400E-009  0.1142063E+03  0.7561462E-02  0.1252973E+00
         -1   -1    0    0    0  501 -0.00000000000E+00  0.00000000000E+00  0.22103874757E+03  0.22103874757E+03  0.00000000000E+00 0.  1.
          1   -1    0    0  501    0  0.00000000000E+00 -0.00000000000E+00 -0.78330911366E+02  0.78330911366E+02  0.00000000000E+00 0. -1.
         25    2    1    2    0    0 -0.57534936688E+02  0.33883947371E+02  0.50664673573E+02  0.15055628327E+03  0.12506755956E+03 0.  0.
         23    2    1    2    0    0  0.57534936688E+02 -0.33883947371E+02  0.92043162635E+02  0.14881337567E+03  0.95995240307E+02 0.  0.
          5    1    3    3  502    0 -0.75983406611E+02  0.33963619908E+01 -0.13194203693E+02  0.77308296877E+02  0.41800000000E+01 0.  1.
         -5    1    3    3    0  502  0.18448469923E+02  0.30487585381E+02  0.63858877266E+02  0.73247986393E+02  0.41800000000E+01 0.  1.
        -11    1    4    4    0    0  0.69627901061E+02 -0.57189106809E+02  0.77197148232E+02  0.11865090914E+03  0.00000000000E+00 0.  1.
         11    1    4    4    0    0 -0.12092964374E+02  0.23305159438E+02  0.14846014403E+02  0.30162466534E+02  0.00000000000E+00 0. -1.
</event>
<event>
 8    1  0.6380400E-009  0.1511202E+03  0.7561462E-02  0.1199103E+00
          2   -1    0    0  501    0  0.00000000000E+00  0.00000000000E+00  0.22103352766E+03  0.22103352766E+03  0.00000000000E+00 0. -1.
         -2   -1    0    0    0  501 -0.00000000000E+00 -0.00000000000E+00 -0.13426244697E+03  0.13426244697E+03  0.00000000000E+00 0.  1.
         25    2    1    2    0    0  0.33002803174E+02 -0.12431680186E+03  0.92065555374E+01  0.17965569345E+03  0.12509018858E+03 0.  0.
         23    2    1    2    0    0 -0.33002803174E+02  0.12431680186E+03  0.77564525151E+02  0.17564028119E+03  0.91046145283E+02 0.  0.
          5    1    3    3  502    0 -0.26417534574E+02 -0.50380844705E+02  0.50439416271E+02  0.76142778777E+02  0.41800000000E+01 0.  1.
         -5    1    3    3    0  502  0.59420337748E+02 -0.73935957157E+02 -0.41232860734E+02  0.10351291467E+03  0.41800000000E+01 0.  1.
        -11    1    4    4    0    0 -0.54403490094E+02  0.53608872232E+02  0.65841716932E+02  0.10084038182E+03  0.00000000000E+00 0.  1.
         11    1    4    4    0    0  0.21400686920E+02  0.70707929631E+02  0.11722808219E+02  0.74799899371E+02  0.00000000000E+00 0. -1.
</event>
<event>
 8    1  0.6380400E-009  0.2170814E+03  0.7561462E-02  0.1136078E+00
         -2   -1    0    0    0  501 -0.00000000000E+00  0.00000000000E+00  0.83778907767E+02  0.83778907767E+02  0.00000000000E+00 0. -1.
          2   -1    0    0  501    0  0.00000000000E+00 -0.00000000000E+00 -0.62768434201E+03  0.62768434201E+03  0.00000000000E+00 0.  1.
         25    2    1    2    0    0 -0.33791255251E+02 -0.19814134975E+03 -0.25800135984E+03  0.35016684189E+03  0.12510104744E+03 0.  0.
         23    2    1    2    0    0  0.33791255251E+02  0.19814134975E+03 -0.28590407441E+03  0.36129640789E+03  0.91608466730E+02 0.  0.
          5    1    3    3  502    0  0.21533709416E+01  0.79987086776E+01 -0.64390887317E+02  0.65055938364E+02  0.41800000000E+01 0.  1.
         -5    1    3    3    0  502 -0.35944626192E+02 -0.20614005843E+03 -0.19361047252E+03  0.28511090353E+03  0.41800000000E+01 0.  1.
        -11    1    4    4    0    0  0.43668895523E+02  0.47103270872E+02 -0.51769622748E+02  0.82497178149E+02  0.00000000000E+00 0.  1.
         11    1    4    4    0    0 -0.98776402719E+01  0.15103807888E+03 -0.23413445166E+03  0.27879922974E+03  0.00000000000E+00 0. -1.
</event>
<event>
 8    1  0.6380400E-009  0.7613166E+02  0.7561462E-02  0.1340402E+00
          1   -1    0    0  501    0  0.00000000000E+00  0.00000000000E+00  0.15682878351E+03  0.15682878351E+03  0.00000000000E+00 0. -1.
         -1   -1    0    0    0  501 -0.00000000000E+00 -0.00000000000E+00 -0.81919693968E+02  0.81919693968E+02  0.00000000000E+00 0.  1.
         25    2    1    2    0    0 -0.11434041244E+02  0.30649527252E+02  0.40410826693E+02  0.13546120422E+03  0.12508625870E+03 0.  0.
         23    2    1    2    0    0  0.11434041244E+02 -0.30649527252E+02  0.34498262854E+02  0.10328727326E+03  0.91695146316E+02 0.  0.
          5    1    3    3  502    0  0.33921786368E+02 -0.63942104943E+01  0.63481809811E+02  0.72380840663E+02  0.41800000000E+01 0.  1.
         -5    1    3    3    0  502 -0.45355827612E+02  0.37043737747E+02 -0.23070983118E+02  0.63080363558E+02  0.41800000000E+01 0.  1.
        -11    1    4    4    0    0  0.24947232852E+02  0.36664961368E+00  0.57294799287E+02  0.62491542502E+02  0.00000000000E+00 0. -1.
         11    1    4    4    0    0 -0.13513191608E+02 -0.31016176866E+02 -0.22796536433E+02  0.40795730759E+02  0.00000000000E+00 0.  1.
</event>
<event>
 8    1  0.6380400E-009  0.9272932E+02  0.7561462E-02  0.1296374E+00
          4   -1    0    0  501    0  0.00000000000E+00  0.00000000000E+00  0.38952307328E+02  0.38952307328E+02  0.00000000000E+00 0. -1.
         -4   -1    0    0    0  501 -0.00000000000E+00 -0.00000000000E+00 -0.31655280767E+03  0.31655280767E+03  0.00000000000E+00 0.  1.
         25    2    1    2    0    0 -0.51281840548E+01  0.23563566051E+02 -0.15424915801E+03  0.20005490609E+03  0.12509045842E+03 0.  0.
         23    2    1    2    0    0  0.51281840548E+01 -0.23563566051E+02 -0.12335134233E+03  0.15545020890E+03  0.91474990450E+02 0.  0.
          5    1    3    3  502    0  0.26737527538E+02 -0.22511361003E+02 -0.13676197907E+03  0.14121957397E+03  0.41800000000E+01 0. -1.
         -5    1    3    3    0  502 -0.31865711593E+02  0.46074927054E+02 -0.17487178942E+02  0.58835332121E+02  0.41800000000E+01 0. -1.
        -11    1    4    4    0    0 -0.23417862275E+02 -0.49975731159E+02 -0.64232331419E+02  0.84686258495E+02  0.00000000000E+00 0.  1.
         11    1    4    4    0    0  0.28546046330E+02  0.26412165108E+02 -0.59119010907E+02  0.70763950409E+02  0.00000000000E+00 0. -1.
</event>
<event>
 7    1  0.6380400E-009  0.2508536E+03  0.7561462E-02  0.1112767E+00
          2   -1    0    0  501    0  0.00000000000E+00  0.00000000000E+00  0.35296111944E+03  0.35296111944E+03  0.00000000000E+00 0. -1.
         -2   -1    0    0    0  501 -0.00000000000E+00 -0.00000000000E+00 -0.20319092813E+03  0.20319092813E+03  0.00000000000E+00 0.  1.
         23    2    1    2    0    0  0.18477672836E+02  0.23829779183E+03  0.11834094551E+03  0.28461176812E+03  0.99358025262E+02 0.  0.
          5    1    1    2  502    0 -0.34227677426E+02 -0.17537171871E+03  0.74424135306E+02  0.19360577972E+03  0.41800000000E+01 0.  1.
         -5    1    1    2    0  502  0.15750004590E+02 -0.62926073123E+02 -0.42994889507E+02  0.77934499723E+02  0.41800000000E+01 0.  1.
        -11    1    3    3    0    0 -0.39879081683E+02  0.83227017612E+02  0.53603450862E+02  0.10672585235E+03  0.00000000000E+00 0.  1.
         11    1    3    3    0    0  0.58356754519E+02  0.15507077422E+03  0.64737494644E+02  0.17788591577E+03  0.00000000000E+00 0. -1.
</event>
<event>
 8    1  0.6380400E-009  0.1150231E+03  0.7561462E-02  0.1251541E+00
          1   -1    0    0  501    0  0.00000000000E+00  0.00000000000E+00  0.18060202236E+02  0.18060202236E+02  0.00000000000E+00 0. -1.
         -1   -1    0    0    0  501 -0.00000000000E+00 -0.00000000000E+00 -0.81107728037E+03  0.81107728037E+03  0.00000000000E+00 0.  1.
         25    2    1    2    0    0  0.38079480972E+02 -0.37220213600E+02 -0.47901064915E+03  0.49792949346E+03  0.12508871765E+03 0.  0.
         23    2    1    2    0    0 -0.38079480972E+02  0.37220213600E+02 -0.31400642899E+03  0.33120798915E+03  0.90902714267E+02 0.  0.
          5    1    3    3  502    0  0.57551594017E+02 -0.67374429248E+02 -0.41544241969E+03  0.42480745776E+03  0.41800000000E+01 0.  1.
         -5    1    3    3    0  502 -0.19472113045E+02  0.30154215649E+02 -0.63568229459E+02  0.73122035696E+02  0.41800000000E+01 0.  1.
        -11    1    4    4    0    0 -0.46518301663E+02 -0.17599370980E+02 -0.13969081258E+03  0.14828085975E+03  0.00000000000E+00 0. -1.
         11    1    4    4    0    0  0.84388206911E+01  0.54819584580E+02 -0.17431561640E+03  0.18292712940E+03  0.00000000000E+00 0.  1.
</event>
<event>
 8    1  0.6380400E-009  0.1181897E+03  0.7561462E-02  0.1246114E+00
         -2   -1    0    0    0  501 -0.00000000000E+00  0.00000000000E+00  0.76107165682E+02  0.76107165682E+02  0.00000000000E+00 0.  1.
          2   -1    0    0  501    0  0.00000000000E+00 -0.00000000000E+00 -0.58008700030E+03  0.58008700030E+03  0.00000000000E+00 0. -1.
         25    2    1    2    0    0  0.77794685603E+02  0.13473977679E+02 -0.51242022090E+03  0.53334419910E+03  0.12509192918E+03 0.  0.
         23    2    1    2    0    0 -0.77794685603E+02 -0.13473977679E+02  0.84403862808E+01  0.12284996688E+03  0.93740669188E+02 0.  0.
          5    1    3    3  502    0  0.52123189870E+00  0.51016591368E+02 -0.10339407940E+03  0.11537232048E+03  0.41800000000E+01 0.  1.
         -5    1    3    3    0  502  0.77273453704E+02 -0.37542613689E+02 -0.40902614150E+03  0.41797187863E+03  0.41800000000E+01 0.  1.
        -11    1    4    4    0    0  0.46551680408E+01 -0.16025139926E+02 -0.28059014187E+02  0.32646347059E+02  0.00000000000E+00 0. -1.
         11    1    4    4    0    0 -0.82449853643E+02  0.25511622474E+01  0.36499400468E+02  0.90203619823E+02  0.00000000000E+00 0.  1.
</event>
<event>
 8    1  0.6380400E-009  0.1891856E+03  0.7561462E-02  0.1159198E+00
          2   -1    0    0  501    0  0.00000000000E+00  0.00000000000E+00  0.31464593367E+03  0.31464593367E+03  0.00000000000E+00 0. -1.
         -2   -1    0    0    0  501 -0.00000000000E+00 -0.00000000000E+00 -0.15467400530E+03  0.15467400530E+03  0.00000000000E+00 0.  1.
         25    2    1    2    0    0 -0.15370661966E+03  0.10713578331E+03  0.12606001289E+03  0.25813138906E+03  0.12504753566E+03 0.  0.
         23    2    1    2    0    0  0.15370661966E+03 -0.10713578331E+03  0.33911915471E+02  0.21118854991E+03  0.91360738895E+02 0.  0.
          5    1    3    3  502    0 -0.72049317555E+02  0.72202719448E+02  0.13445793599E+03  0.16882163903E+03  0.41800000000E+01 0. -1.
         -5    1    3    3    0  502 -0.81657302101E+02  0.34933063862E+02 -0.83979230941E+01  0.89309750025E+02  0.41800000000E+01 0. -1.
        -11    1    4    4    0    0  0.66277455143E+02 -0.47358792012E+02 -0.30783160528E+02  0.87081336767E+02  0.00000000000E+00 0.  1.
         11    1    4    4    0    0  0.87429164513E+02 -0.59776991298E+02  0.64695075999E+02  0.12410721314E+03  0.00000000000E+00 0. -1.
</event>
<event>
 8    1  0.6380400E-009  0.1064189E+03  0.7561462E-02  0.1267349E+00
          2   -1    0    0  501    0  0.00000000000E+00  0.00000000000E+00  0.41644851171E+03  0.41644851171E+03  0.00000000000E+00 0. -1.
         -2   -1    0    0    0  501 -0.00000000000E+00 -0.00000000000E+00 -0.33872171894E+02  0.33872171894E+02  0.00000000000E+00 0.  1.
         25    2    1    2    0    0 -0.28884902364E+02 -0.20393770108E+02  0.28462707166E+03  0.31290660707E+03  0.12509089247E+03 0.  0.
         23    2    1    2    0    0  0.28884902364E+02  0.20393770108E+02  0.97949268151E+02  0.13741407653E+03  0.89656711152E+02 0.  0.
          5    1    3    3  502    0 -0.34096382126E+02 -0.67559754575E+02  0.12365836647E+03  0.14503705634E+03  0.41800000000E+01 0. -1.
         -5    1    3    3    0  502  0.52114797615E+01  0.47165984467E+02  0.16096870519E+03  0.16786955073E+03  0.41800000000E+01 0. -1.
        -11    1    4    4    0    0 -0.25161365454E+02 -0.10377295585E+02  0.85857674706E+01  0.28539410965E+02  0.00000000000E+00 0.  1.
         11    1    4    4    0    0  0.54046267818E+02  0.30771065694E+02  0.89363500680E+02  0.10887466557E+03  0.00000000000E+00 0. -1.
</event>
<event>
 8    1  0.6380400E-009  0.8468346E+02  0.7561462E-02  0.1316262E+00
         -1   -1    0    0    0  501 -0.00000000000E+00  0.00000000000E+00  0.21647043977E+02  0.21647043977E+02  0.00000000000E+00 0.  1.
          1   -1    0    0  501    0  0.00000000000E+00 -0.00000000000E+00 -0.81463343897E+03  0.81463343897E+03  0.00000000000E+00 0. -1.
         25    2    1    2    0    0  0.30756350254E+02  0.25757804895E+02 -0.64869558576E+03  0.66186238848E+03  0.12508573345E+03 0.  0.
         23    2    1    2    0    0 -0.30756350254E+02 -0.25757804895E+02 -0.14429080923E+03  0.17441809446E+03  0.89400315731E+02 0.  0.
          5    1    3    3  502    0  0.57221299103E+02 -0.71282269920E+01 -0.14092966274E+03  0.15232770901E+03  0.41800000000E+01 0. -1.
         -5    1    3    3    0  502 -0.26464948849E+02  0.32886031887E+02 -0.50776592302E+03  0.50953467948E+03  0.41800000000E+01 0. -1.
        -11    1    4    4    0    0  0.16421391024E+02 -0.10744910252E+02  0.22377592562E+01  0.19751525156E+02  0.00000000000E+00 0.  1.
         11    1    4    4    0    0 -0.47177741278E+02 -0.15012894643E+02 -0.14652856849E+03  0.15466656930E+03  0.00000000000E+00 0. -1.
</event>
<event>
 8    1  0.6380400E-009  0.2325686E+03  0.7561462E-02  0.1124845E+00
         -2   -1    0    0    0  501 -0.00000000000E+00  0.00000000000E+00  0.57354326425E+02  0.57354326425E+02  0.00000000000E+00 0.  1.
          2   -1    0    0  501    0  0.00000000000E+00 -0.00000000000E+00 -0.11233312078E+04  0.11233312078E+04  0.00000000000E+00 0. -1.
         25    2    1    2    0    0 -0.21427698557E+03 -0.58392350047E+02 -0.67765891285E+03  0.72401318806E+03  0.12509676750E+03 0.  0.
         23    2    1    2    0    0  0.21427698557E+03  0.58392350047E+02 -0.38831796851E+03  0.45667234614E+03  0.91839501177E+02 0.  0.
          5    1    3    3  502    0 -0.30958180892E+02 -0.32672826017E+02 -0.30020598014E+03  0.30359022618E+03  0.41800000000E+01 0.  1.
         -5    1    3    3    0  502 -0.18331880468E+03 -0.25719524030E+02 -0.37745293271E+03  0.42042296188E+03  0.41800000000E+01 0.  1.
        -11    1    4    4    0    0  0.10243273378E+03 -0.11201052539E+02 -0.21999769765E+03  0.24293397354E+03  0.00000000000E+00 0.  1.
         11    1    4    4    0    0  0.11184425179E+03  0.69593402586E+02 -0.16832027086E+03  0.21373837260E+03  0.00000000000E+00 0. -1.
</event>
<event>
 7    1  0.6380400E-009  0.1363898E+03  0.7561462E-02  0.1218271E+00
          2   -1    0    0  501    0  0.00000000000E+00  0.00000000000E+00  0.48702529740E+03  0.48702529740E+03  0.00000000000E+00 0. -1.
         -2   -1    0    0    0  501 -0.00000000000E+00 -0.00000000000E+00 -0.65832931975E+02  0.65832931975E+02  0.00000000000E+00 0.  1.
         23    2    1    2    0    0 -0.92825361091E+02  0.84917908578E+02  0.29883931142E+03  0.33738979228E+03  0.93270247273E+02 0.  0.
          5    1    1    2  502    0  0.44031005805E+02 -0.17244293704E+02 -0.19117017230E+02  0.51176438771E+02  0.41800000000E+01 0.  1.
         -5    1    1    2    0  502  0.48794355286E+02 -0.67673614874E+02  0.14147007124E+03  0.16429199832E+03  0.41800000000E+01 0.  1.
        -11    1    3    3    0    0 -0.69577047012E+02  0.19367933506E+02  0.80065348570E+02  0.10782644555E+03  0.00000000000E+00 0.  1.
         11    1    3    3    0    0 -0.23248314080E+02  0.65549975072E+02  0.21877396285E+03  0.22956334672E+03  0.00000000000E+00 0. -1.
</event>
<event>
 8    1  0.6380400E-009  0.1131024E+03  0.7561462E-02  0.1254930E+00
         -1   -1    0    0    0  501 -0.00000000000E+00  0.00000000000E+00  0.95256103961E+02  0.95256103961E+02  0.00000000000E+00 0.  1.
          1   -1    0    0  501    0  0.00000000000E+00 -0.00000000000E+00 -0.16659994125E+03  0.16659994125E+03  0.00000000000E+00 0. -1.
         25    2    1    2    0    0  0.74699174755E+01 -0.38794940442E+02 -0.91769034588E+02  0.16009465914E+03  0.12509155489E+03 0.  0.
         23    2    1    2    0    0 -0.74699174755E+01  0.38794940442E+02  0.20425197295E+02  0.10176138607E+03  0.91527831506E+02 0.  0.
          5    1    3    3  502    0 -0.16453598499E+02  0.42796275685E+02 -0.33281901237E+02  0.56810205650E+02  0.41800000000E+01 0. -1.
         -5    1    3    3    0  502  0.23923515974E+02 -0.81591216127E+02 -0.58487133351E+02  0.10328445349E+03  0.41800000000E+01 0. -1.
        -11    1    4    4    0    0  0.33090213436E+02 -0.70404957110E+01  0.22314834763E+02  0.40527554276E+02  0.00000000000E+00 0.  1.
         11    1    4    4    0    0 -0.40560130911E+02  0.45835436153E+02 -0.18896374684E+01  0.61233831798E+02  0.00000000000E+00 0. -1.
</event>
<event>
 8    1  0.6380400E-009  0.5840547E+02  0.7561462E-02  0.1404648E+00
         -1   -1    0    0    0  501 -0.00000000000E+00  0.00000000000E+00  0.18488802302E+02  0.18488802302E+02  0.00000000000E+00 0.  1.
          1   -1    0    0  501    0  0.00000000000E+00 -0.00000000000E+00 -0.67533883590E+03  0.67533883590E+03  0.00000000000E+00 0. -1.
         25    2    1    2    0    0 -0.30155039014E+02  0.44560218399E+01 -0.39211062421E+03  0.41270758514E+03  0.12509047407E+03 0.  0.
         23    2    1    2    0    0  0.30155039014E+02 -0.44560218399E+01 -0.26473940938E+03  0.28112005306E+03  0.89511713449E+02 0.  0.
          5    1    3    3  502    0 -0.27653849178E+02 -0.11130275477E+01 -0.40052562498E+03  0.40150245687E+03  0.41800000000E+01 0. -1.
         -5    1    3    3    0  502 -0.25011898357E+01  0.55690493876E+01  0.84150007670E+01  0.11205128272E+02  0.41800000000E+01 0. -1.
        -11    1    4    4    0    0  0.45715260150E+02  0.21996777075E+02 -0.86677591426E+02  0.10043280374E+03  0.00000000000E+00 0.  1.
         11    1    4    4    0    0 -0.15560221137E+02 -0.26452798915E+02 -0.17806181796E+03  0.18068724932E+03  0.00000000000E+00 0. -1.
</event>
<event>
 8    1  0.6380400E-009  0.1208427E+03  0.7561462E-02  0.1241713E+00
         -2   -1    0    0    0  501 -0.00000000000E+00  0.00000000000E+00  0.15720163063E+02  0.15720163063E+02  0.00000000000E+00 0. -1.
          2   -1    0    0  501    0  0.00000000000E+00 -0.00000000000E+00 -0.98009049653E+03  0.98009049653E+03  0.00000000000E+00 0.  1.
         25    2    1    2    0    0 -0.62705343643E+02 -0.15444193435E+02 -0.50177680059E+03  0.52115044740E+03  0.12508935999E+03 0.  0.
         23    2    1    2    0    0  0.62705343643E+02  0.15444193435E+02 -0.46259353288E+03  0.47466021220E+03  0.84492941412E+02 0.  0.
          5    1    3    3  502    0 -0.22810706150E+02 -0.66548766223E+02 -0.18932919037E+03  0.20202000229E+03  0.41800000000E+01 0.  1.
         -5    1    3    3    0  502 -0.39894637492E+02  0.51104572788E+02 -0.31244761022E+03  0.31913044511E+03  0.41800000000E+01 0.  1.
        -11    1    4    4    0    0  0.21891946099E+02 -0.35045935590E+02 -0.19013704385E+03  0.19457535905E+03  0.00000000000E+00 0.  1.
         11    1    4    4    0    0  0.40813397543E+02  0.50490129025E+02 -0.27245648904E+03  0.28008485316E+03  0.00000000000E+00 0. -1.
</event>
<event>
 8    1  0.6380400E-009  0.1276467E+03  0.7561462E-02  0.1230990E+00
          3   -1    0    0  501    0  0.00000000000E+00  0.00000000000E+00  0.13110806488E+02  0.13110806488E+02  0.00000000000E+00 0. -1.
         -3   -1    0    0    0  501 -0.00000000000E+00 -0.00000000000E+00 -0.14658527601E+04  0.14658527601E+04  0.00000000000E+00 0.  1.
         25    2    1    2    0    0  0.58146055277E+02  0.39656259727E+02 -0.10585732181E+04  0.10682600501E+04  0.12509473958E+03 0.  0.
         23    2    1    2    0    0 -0.58146055277E+02 -0.39656259727E+02 -0.39416873547E+03  0.41070351645E+03  0.91404615442E+02 0.  0.
          5    1    3    3  502    0 -0.38245718797E+02  0.49082393042E+01 -0.21428642780E+03  0.21776815965E+03  0.41800000000E+01 0.  1.
         -5    1    3    3    0  502  0.96391774074E+02  0.34748020423E+02 -0.84428679033E+03  0.85049189048E+03  0.41800000000E+01 0.  1.
        -11    1    4    4    0    0 -0.17523998096E+02  0.29175927578E+02 -0.14892857554E+03  0.15276794779E+03  0.00000000000E+00 0.  1.
         11    1    4    4    0    0 -0.40622057180E+02 -0.68832187305E+02 -0.24524015993E+03  0.25793556866E+03  0.00000000000E+00 0. -1.
</event>
<event>
 8    1  0.6380400E-009  0.1173699E+03  0.7561462E-02  0.1247500E+00
         -2   -1    0    0    0  501 -0.00000000000E+00  0.00000000000E+00  0.45386282908E+02  0.45386282908E+02  0.00000000000E+00 0.  1.
          2   -1    0    0  501    0  0.00000000000E+00 -0.00000000000E+00 -0.57200090090E+03  0.57200090090E+03  0.00000000000E+00 0. -1.
         25    2    1    2    0    0  0.68450958735E+02  0.55230180468E+02 -0.12864322928E+03  0.19983284016E+03  0.12509267357E+03 0.  0.
         23    2    1    2    0    0 -0.68450958735E+02 -0.55230180468E+02 -0.39797138872E+03  0.41755434365E+03  0.90744129707E+02 0.  0.
          5    1    3    3  502    0 -0.10723930927E+02  0.16524629105E+02 -0.10714759769E+03  0.10902360364E+03  0.41800000000E+01 0.  1.
         -5    1    3    3    0  502  0.79174889663E+02  0.38705551364E+02 -0.21495631593E+02  0.90809236518E+02  0.41800000000E+01 0.  1.
        -11    1    4    4    0    0 -0.86616986315E+02 -0.23396761422E+02 -0.28189845717E+03  0.29583213301E+03  0.00000000000E+00 0.  1.
         11    1    4    4    0    0  0.18166027579E+02 -0.31833419046E+02 -0.11607293155E+03  0.12172221064E+03  0.00000000000E+00 0. -1.
</event>
<event>
 8    1  0.6380400E-009  0.1230736E+03  0.7561462E-02  0.1238111E+00
         -2   -1    0    0    0  501 -0.00000000000E+00  0.00000000000E+00  0.34734262388E+03  0.34734262388E+03  0.00000000000E+00 0.  1.
          2   -1    0    0  501    0  0.00000000000E+00 -0.00000000000E+00 -0.44263655935E+02  0.44263655935E+02  0.00000000000E+00 0. -1.
         25    2    1    2    0    0  0.81362269393E+01 -0.57943345902E+02  0.14662946797E+03  0.20142402035E+03  0.12509118903E+03 0.  0.
         23    2    1    2    0    0 -0.81362269393E+01  0.57943345902E+02  0.15644949998E+03  0.19018225947E+03  0.90935231079E+02 0.  0.
          5    1    3    3  502    0 -0.58322567267E+02 -0.31055420269E+02  0.66954497823E+02  0.94161234908E+02  0.41800000000E+01 0.  1.
         -5    1    3    3    0  502  0.66458794206E+02 -0.26887925633E+02  0.79674970148E+02  0.10726278544E+03  0.41800000000E+01 0.  1.
        -11    1    4    4    0    0 -0.48488879518E+02  0.19097720141E+02  0.76520323098E+02  0.92581068251E+02  0.00000000000E+00 0. -1.
         11    1    4    4    0    0  0.40352652579E+02  0.38845625761E+02  0.79929176881E+02  0.97601191221E+02  0.00000000000E+00 0.  1.
</event>
<event>
 8    1  0.6380400E-009  0.1068608E+03  0.7561462E-02  0.1266496E+00
         -2   -1    0    0    0  501 -0.00000000000E+00  0.00000000000E+00  0.77908888450E+02  0.77908888450E+02  0.00000000000E+00 0.  1.
          2   -1    0    0  501    0  0.00000000000E+00 -0.00000000000E+00 -0.20304221499E+03  0.20304221499E+03  0.00000000000E+00 0. -1.
         25    2    1    2    0    0  0.18488204328E+02  0.54054433284E+02 -0.38449703417E+02  0.14278874630E+03  0.12508617398E+03 0.  0.
         23    2    1    2    0    0 -0.18488204328E+02 -0.54054433284E+02 -0.86683623128E+02  0.13816235714E+03  0.91165184995E+02 0.  0.
          5    1    3    3  502    0  0.28676342203E+02 -0.26706316125E+02 -0.46419749052E+02  0.60891915926E+02  0.41800000000E+01 0.  1.
         -5    1    3    3    0  502 -0.10188137875E+02  0.80760749409E+02  0.79700456356E+01  0.81896830377E+02  0.41800000000E+01 0.  1.
        -11    1    4    4    0    0  0.13763821859E+02 -0.58635526459E+02 -0.19179855656E+02  0.63209450387E+02  0.00000000000E+00 0.  1.
         11    1    4    4    0    0 -0.32252026188E+02  0.45810931746E+01 -0.67503767472E+02  0.74952906754E+02  0.00000000000E+00 0. -1.
</event>
<event>
 8    1  0.6380400E-009  0.1088677E+03  0.7561462E-02  0.1262681E+00
          2   -1    0    0  501    0  0.00000000000E+00  0.00000000000E+00  0.61946495752E+03  0.61946495752E+03  0.00000000000E+00 0. -1.
         -2   -1    0    0    0  501 -0.00000000000E+00 -0.00000000000E+00 -0.29458569467E+02  0.29458569467E+02  0.00000000000E+00 0.  1.
         25    2    1    2    0    0 -0.66518577858E+02  0.39702499254E+02  0.38929066394E+03  0.41617016009E+03  0.12509744792E+03 0.  0.
         23    2    1    2    0    0  0.66518577858E+02 -0.39702499254E+02  0.20071572411E+03  0.23275336689E+03  0.88804944939E+02 0.  0.
          5    1    3    3  502    0  0.12736435327E+02  0.49635982176E+02  0.69032335766E+02  0.86074870275E+02  0.41800000000E+01 0.  1.
         -5    1    3    3    0  502 -0.79255013186E+02 -0.99334829219E+01  0.32025832817E+03  0.33009528982E+03  0.41800000000E+01 0. -1.
        -11    1    4    4    0    0  0.46095657550E+02 -0.53945943671E+01  0.18349194527E+03  0.18927019118E+03  0.00000000000E+00 0. -1.
         11    1    4    4    0    0  0.20422920309E+02 -0.34307904887E+02  0.17223778844E+02  0.43483175705E+02  0.00000000000E+00 0.  1.
</event>
<event>
 8    1  0.6380400E-009  0.1028842E+03  0.7561462E-02  0.1274345E+00
          2   -1    0    0  501    0  0.00000000000E+00  0.00000000000E+00  0.62868730718E+02  0.62868730718E+02  0.00000000000E+00 0. -1.
         -2   -1    0    0    0  501 -0.00000000000E+00 -0.00000000000E+00 -0.28654888950E+03  0.28654888950E+03  0.00000000000E+00 0.  1.
         25    2    1    2    0    0  0.63419397147E+01  0.60681464681E+02 -0.60714418106E+02  0.15184590557E+03  0.12509387722E+03 0.  0.
         23    2    1    2    0    0 -0.63419397147E+01 -0.60681464681E+02 -0.16296574068E+03  0.19757171465E+03  0.93564359885E+02 0.  0.
          5    1    3    3  502    0 -0.41744918377E+02  0.39368726045E+02  0.15096752960E+02  0.59480409805E+02  0.41800000000E+01 0. -1.
         -5    1    3    3    0  502  0.48086858091E+02  0.21312738636E+02 -0.75811171066E+02  0.92365495763E+02  0.41800000000E+01 0. -1.
        -11    1    4    4    0    0 -0.27351101755E+02  0.38368412835E+01 -0.10423358157E+03  0.10783062480E+03  0.00000000000E+00 0.  1.
         11    1    4    4    0    0  0.21009162040E+02 -0.64518305964E+02 -0.58732159108E+02  0.89741089851E+02  0.00000000000E+00 0. -1.
</event>
<event>
 8    1  0.6380400E-009  0.1512334E+03  0.7561462E-02  0.1198966E+00
          3   -1    0    0  501    0  0.00000000000E+00  0.00000000000E+00  0.11231449847E+03  0.11231449847E+03  0.00000000000E+00 0. -1.
         -3   -1    0    0    0  501 -0.00000000000E+00 -0.00000000000E+00 -0.24936907726E+03  0.24936907726E+03  0.00000000000E+00 0.  1.
         25    2    1    2    0    0 -0.98917999190E+02 -0.70132443731E+02 -0.41381204597E+02  0.17906430150E+03  0.12509312431E+03 0.  0.
         23    2    1    2    0    0  0.98917999190E+02  0.70132443731E+02 -0.95673374194E+02  0.18261927423E+03  0.97432410237E+02 0.  0.
          5    1    3    3  502    0 -0.66853605062E+02 -0.10484857430E+03 -0.42871784184E+02  0.13159821550E+03  0.41800000000E+01 0. -1.
         -5    1    3    3    0  502 -0.32064394127E+02  0.34716130571E+02  0.14905795871E+01  0.47466085999E+02  0.41800000000E+01 0. -1.
        -11    1    4    4    0    0  0.51195343339E+02  0.73138876380E+01  0.80138971450E+01  0.52332386525E+02  0.00000000000E+00 0. -1.
         11    1    4    4    0    0  0.47722655851E+02  0.62818556093E+02 -0.10368727134E+03  0.13028688771E+03  0.00000000000E+00 0.  1.
</event>
<event>
 8    1  0.6380400E-009  0.1469284E+03  0.7561462E-02  0.1204299E+00
          2   -1    0    0  501    0  0.00000000000E+00  0.00000000000E+00  0.11366192498E+03  0.11366192498E+03  0.00000000000E+00 0. -1.
         -2   -1    0    0    0  501 -0.00000000000E+00 -0.00000000000E+00 -0.21090646446E+03  0.21090646446E+03  0.00000000000E+00 0.  1.
         25    2    1    2    0    0 -0.80400506798E+02 -0.71948080096E+02 -0.79713933354E+02  0.18342117363E+03  0.12509295761E+03 0.  0.
         23    2    1    2    0    0  0.80400506798E+02  0.71948080096E+02 -0.17530606127E+02  0.14114721581E+03  0.89299757322E+02 0.  0.
          5    1    3    3  502    0  0.29608649547E+02 -0.22255960915E+02  0.24244409320E+01  0.37354387133E+02  0.41800000000E+01 0.  1.
         -5    1    3    3    0  502 -0.11000915635E+03 -0.49692119181E+02 -0.82138374285E+02  0.14606678650E+03  0.41800000000E+01 0.  1.
        -11    1    4    4    0    0  0.97674261209E+02  0.64061872938E+02 -0.23429943619E+01  0.11683182139E+03  0.00000000000E+00 0.  1.
         11    1    4    4    0    0 -0.17273754411E+02  0.78862071577E+01 -0.15187611765E+02  0.24315394422E+02  0.00000000000E+00 0. -1.
</event>
<event>
 8    1  0.6380400E-009  0.1531859E+03  0.7561462E-02  0.1196612E+00
         -2   -1    0    0    0  501 -0.00000000000E+00  0.00000000000E+00  0.35864915165E+02  0.35864915165E+02  0.00000000000E+00 0.  1.
          2   -1    0    0  501    0  0.00000000000E+00 -0.00000000000E+00 -0.81400681805E+03  0.81400681805E+03  0.00000000000E+00 0. -1.
         25    2    1    2    0    0  0.89962500940E+02 -0.90991144193E+02 -0.33545274462E+03  0.38019540973E+03  0.12508943124E+03 0.  0.
         23    2    1    2    0    0 -0.89962500940E+02  0.90991144193E+02 -0.44268915827E+03  0.46967632349E+03  0.90826857832E+02 0.  0.
          5    1    3    3  502    0  0.35406057855E+02  0.24784062767E+02 -0.43827267882E+02  0.61693926039E+02  0.41800000000E+01 0. -1.
         -5    1    3    3    0  502  0.54556443085E+02 -0.11577520696E+03 -0.29162547674E+03  0.31850148369E+03  0.41800000000E+01 0. -1.
        -11    1    4    4    0    0 -0.41540405576E+02  0.71518018063E+02 -0.14068218685E+03  0.16319286106E+03  0.00000000000E+00 0.  1.
         11    1    4    4    0    0 -0.48422095364E+02  0.19473126130E+02 -0.30200697142E+03  0.30648346244E+03  0.00000000000E+00 0. -1.
</event>
<event>
 8    1  0.6380400E-009  0.1084607E+03  0.7561462E-02  0.1263447E+00
          2   -1    0    0  501    0  0.00000000000E+00  0.00000000000E+00  0.14538955316E+03  0.14538955316E+03  0.00000000000E+00 0. -1.
         -2   -1    0    0    0  501 -0.00000000000E+00 -0.00000000000E+00 -0.93564922445E+02  0.93564922445E+02  0.00000000000E+00 0.  1.
         25    2    1    2    0    0 -0.27506957625E+02  0.21191783980E+02  0.63066591144E+02  0.14432886718E+03  0.12509077727E+03 0.  0.
         23    2    1    2    0    0  0.27506957625E+02 -0.21191783980E+02 -0.11241960432E+02  0.94625608418E+02  0.87303491729E+02 0.  0.
          5    1    3    3  502    0 -0.75584625173E+02  0.72823518788E+01  0.21214837972E+02  0.78953213751E+02  0.41800000000E+01 0.  1.
         -5    1    3    3    0  502  0.48077667548E+02  0.13909432101E+02  0.41851753172E+02  0.65375653434E+02  0.41800000000E+01 0.  1.
        -11    1    4    4    0    0 -0.18653797583E+02  0.21015554532E+02 -0.15208510897E+02  0.31951783992E+02  0.00000000000E+00 0.  1.
         11    1    4    4    0    0  0.46160755208E+02 -0.42207338512E+02  0.39665504647E+01  0.62673824426E+02  0.00000000000E+00 0. -1.
</event>
<event>
 8    1  0.6380400E-009  0.9389235E+02  0.7561462E-02  0.1293690E+00
         -1   -1    0    0    0  501 -0.00000000000E+00  0.00000000000E+00  0.24836708682E+02  0.24836708682E+02  0.00000000000E+00 0.  1.
          1   -1    0    0  501    0  0.00000000000E+00 -0.00000000000E+00 -0.58469105621E+03  0.58469105621E+03  0.00000000000E+00 0. -1.
         25    2    1    2    0    0  0.52139778412E+02 -0.40878552946E+01 -0.32561326703E+03  0.35271311538E+03  0.12508906841E+03 0.  0.
         23    2    1    2    0    0 -0.52139778412E+02  0.40878552946E+01 -0.23424108050E+03  0.25681464952E+03  0.91376218797E+02 0.  0.
          5    1    3    3  502    0  0.12281693397E+02  0.47875173736E+02 -0.23875161339E+03  0.24384970278E+03  0.41800000000E+01 0. -1.
         -5    1    3    3    0  502  0.39858085014E+02 -0.51963029030E+02 -0.86861653648E+02  0.10886341259E+03  0.41800000000E+01 0. -1.
        -11    1    4    4    0    0 -0.16304906467E+02  0.25903160883E+02 -0.15922013518E+02  0.34501220748E+02  0.00000000000E+00 0.  1.
         11    1    4    4    0    0 -0.35834871945E+02 -0.21815305589E+02 -0.21831906698E+03  0.22231342877E+03  0.00000000000E+00 0. -1.
</event>
<event>
 8    1  0.6380400E-009  0.1072662E+03  0.7561462E-02  0.1265718E+00
          2   -1    0    0  501    0  0.00000000000E+00  0.00000000000E+00  0.15003186712E+04  0.15003186712E+04  0.00000000000E+00 0. -1.
         -2   -1    0    0    0  501 -0.00000000000E+00 -0.00000000000E+00 -0.10837220119E+02  0.10837220119E+02  0.00000000000E+00 0.  1.
         25    2    1    2    0    0  0.10181529917E+02  0.30889761278E+02  0.11651964140E+04  0.11723428097E+04  0.12508852629E+03 0.  0.
         23    2    1    2    0    0 -0.10181529917E+02 -0.30889761278E+02  0.32428503704E+03  0.33881308156E+03  0.92604957104E+02 0.  0.
          5    1    3    3  502    0  0.54473333963E+01  0.73899049292E+02  0.94415041217E+03  0.94706294201E+03  0.41800000000E+01 0. -1.
         -5    1    3    3    0  502  0.47341965207E+01 -0.43009288014E+02  0.22104600182E+03  0.22527986770E+03  0.41800000000E+01 0. -1.
        -11    1    4    4    0    0  0.24329662690E+02 -0.51280607429E+02  0.21646536515E+03  0.22378312603E+03  0.00000000000E+00 0.  1.
         11    1    4    4    0    0 -0.34511192607E+02  0.20390846151E+02  0.10781967189E+03  0.11502995552E+03  0.00000000000E+00 0. -1.
</event>
<event>
 8    1  0.6380400E-009  0.7830982E+02  0.7561462E-02  0.1333918E+00
         -2   -1    0    0    0  501 -0.00000000000E+00  0.00000000000E+00  0.76317315875E+02  0.76317315875E+02  0.00000000000E+00 0.  1.
          2   -1    0    0  501    0  0.00000000000E+00 -0.00000000000E+00 -0.16485910509E+03  0.16485910509E+03  0.00000000000E+00 0. -1.
         25    2    1    2    0    0  0.75243216557E+01  0.22604390041E+02 -0.35581655054E+02  0.13221445508E+03  0.12508810531E+03 0.  0.
         23    2    1    2    0    0 -0.75243216557E+01 -0.22604390041E+02 -0.52960134157E+02  0.10896196588E+03  0.92197398736E+02 0.  0.
          5    1    3    3  502    0  0.64824742482E+01  0.67909948516E+02  0.84786190513E+01  0.68870479603E+02  0.41800000000E+01 0. -1.
         -5    1    3    3    0  502  0.10418474076E+01 -0.45305558475E+02 -0.44060274106E+02  0.63343975475E+02  0.41800000000E+01 0. -1.
        -11    1    4    4    0    0 -0.17333842078E+02  0.83492144355E+00  0.23029899780E+02  0.28836356546E+02  0.00000000000E+00 0.  1.
         11    1    4    4    0    0  0.98095204223E+01 -0.23439311485E+02 -0.75990033937E+02  0.80125609337E+02  0.00000000000E+00 0. -1.
</event>
<event>
 8    1  0.6380400E-009  0.1013919E+03  0.7561462E-02  0.1277396E+00
         -4   -1    0    0    0  501 -0.00000000000E+00  0.00000000000E+00  0.86510123505E+02  0.86510123505E+02  0.00000000000E+00 0.  1.
          4   -1    0    0  501    0  0.00000000000E+00 -0.00000000000E+00 -0.18070021497E+03  0.18070021497E+03  0.00000000000E+00 0. -1.
         25    2    1    2    0    0  0.58411962781E+02  0.22378934014E+02 -0.61376490482E+02  0.15273062012E+03  0.12508714824E+03 0.  0.
         23    2    1    2    0    0 -0.58411962781E+02 -0.22378934014E+02 -0.32813600987E+02  0.11447971836E+03  0.90089396834E+02 0.  0.
          5    1    3    3  502    0  0.48123940855E+02  0.70688831139E+02 -0.57239271023E+02  0.10298849974E+03  0.41800000000E+01 0.  1.
         -5    1    3    3    0  502  0.10288021926E+02 -0.48309897124E+02 -0.41372194584E+01  0.49742120383E+02  0.41800000000E+01 0.  1.
        -11    1    4    4    0    0 -0.22095318986E+02  0.43308342851E+01  0.29784969562E+02  0.37337697553E+02  0.00000000000E+00 0.  1.
         11    1    4    4    0    0 -0.36316643795E+02 -0.26709768300E+02 -0.62598570549E+02  0.77142020805E+02  0.00000000000E+00 0. -1.
</event>
<event>
 8    1  0.6380400E-009  0.2771154E+03  0.7561462E-02  0.1097275E+00
         -2   -1    0    0    0  501 -0.00000000000E+00  0.00000000000E+00  0.45874453012E+03  0.45874453012E+03  0.00000000000E+00 0. -1.
          2   -1    0    0  501    0  0.00000000000E+00 -0.00000000000E+00 -0.21535541862E+03  0.21535541862E+03  0.00000000000E+00 0.  1.
         25    2    1    2    0    0 -0.69988640408E+02 -0.25628668726E+03  0.24652613706E+03  0.38341035046E+03  0.12508830773E+03 0.  0.
         23    2    1    2    0    0  0.69988640408E+02  0.25628668726E+03 -0.31370255543E+01  0.29068959828E+03  0.11793780464E+03 0.  0.
          5    1    3    3  502    0 -0.65084697166E+02 -0.17280625107E+03  0.23498949860E+03  0.29889054028E+03  0.41800000000E+01 0.  1.
         -5    1    3    3    0  502 -0.49039432420E+01 -0.83480436192E+02  0.11536638460E+02  0.84519810182E+02  0.41800000000E+01 0.  1.
        -11    1    4    4    0    0 -0.19516488032E+02  0.12736979367E+03 -0.27801802541E+02  0.13182146209E+03  0.00000000000E+00 0.  1.
         11    1    4    4    0    0  0.89505128440E+02  0.12891689360E+03  0.24664776987E+02  0.15886813619E+03  0.00000000000E+00 0. -1.
</event>
<event>
 8    1  0.6380400E-009  0.2068065E+03  0.7561462E-02  0.1144120E+00
         -2   -1    0    0    0  501 -0.00000000000E+00  0.00000000000E+00  0.65568108156E+02  0.65568108156E+02  0.00000000000E+00 0.  1.
          2   -1    0    0  501    0  0.00000000000E+00 -0.00000000000E+00 -0.75831635705E+03  0.75831635705E+03  0.00000000000E+00 0. -1.
         25    2    1    2    0    0  0.18560800250E+03  0.57249222386E+02 -0.34930193643E+03  0.41879388305E+03  0.12509464268E+03 0.  0.
         23    2    1    2    0    0 -0.18560800250E+03 -0.57249222386E+02 -0.34344631246E+03  0.40509058215E+03  0.91734432742E+02 0.  0.
          5    1    3    3  502    0  0.17832955447E+02  0.38647777190E+02 -0.16944994588E+02  0.46002937116E+02  0.41800000000E+01 0.  1.
         -5    1    3    3    0  502  0.16777504706E+03  0.18601445196E+02 -0.33235694185E+03  0.37279094594E+03  0.41800000000E+01 0.  1.
        -11    1    4    4    0    0 -0.12556560089E+03 -0.65097102682E+02 -0.16867382709E+03  0.22012544798E+03  0.00000000000E+00 0.  1.
         11    1    4    4    0    0 -0.60042401613E+02  0.78478802955E+01 -0.17477248537E+03  0.18496513417E+03  0.00000000000E+00 0. -1.
</event>
<event>
 8    1  0.6380400E-009  0.1229717E+03  0.7561462E-02  0.1238274E+00
          3   -1    0    0  501    0  0.00000000000E+00  0.00000000000E+00  0.90089476571E+02  0.90089476571E+02  0.00000000000E+00 0. -1.
         -3   -1    0    0    0  501 -0.00000000000E+00 -0.00000000000E+00 -0.25829219303E+03  0.25829219303E+03  0.00000000000E+00 0.  1.
         25    2    1    2    0    0  0.95984517859E+02  0.31492057654E+02 -0.55094937493E+02  0.16996372266E+03  0.12508971788E+03 0.  0.
         23    2    1    2    0    0 -0.95984517859E+02 -0.31492057654E+02 -0.11310777896E+03  0.17841794694E+03  0.93993705977E+02 0.  0.
          5    1    3    3  502    0 -0.21507693428E+02  0.10068509846E+02 -0.43710277517E+02  0.49920101439E+02  0.41800000000E+01 0.  1.
         -5    1    3    3    0  502  0.11749221129E+03  0.21423547808E+02 -0.11384659976E+02  0.12004362122E+03  0.41800000000E+01 0.  1.
        -11    1    4    4    0    0 -0.17613016601E+02  0.64123866078E+00 -0.88463926118E+02  0.90202526378E+02  0.00000000000E+00 0.  1.
         11    1    4    4    0    0 -0.78371501257E+02 -0.32133296315E+02 -0.24643852847E+02  0.88215420560E+02  0.00000000000E+00 0. -1.
</event>
<event>
 8    1  0.6380400E-009  0.1046861E+03  0.7561462E-02  0.1270739E+00
          2   -1    0    0  501    0  0.00000000000E+00  0.00000000000E+00  0.60932421616E+03  0.60932421616E+03  0.00000000000E+00 0. -1.
         -2   -1    0    0    0  501 -0.00000000000E+00 -0.00000000000E+00 -0.34889869332E+02  0.34889869332E+02  0.00000000000E+00 0.  1.
         25    2    1    2    0    0  0.70884205124E+02 -0.42985079450E+02  0.20157537833E+03  0.25130219145E+03  0.12509144930E+03 0.  0.
         23    2    1    2    0    0 -0.70884205124E+02  0.42985079450E+02  0.37285896850E+03  0.39291189405E+03  0.92106777700E+02 0.  0.
          5    1    3    3  502    0  0.29459537363E+02 -0.37097859071E+02  0.22710089582E+01  0.47610349410E+02  0.41800000000E+01 0. -1.
         -5    1    3    3    0  502  0.41424667761E+02 -0.58872203788E+01  0.19930436937E+03  0.20369184204E+03  0.41800000000E+01 0. -1.
        -11    1    4    4    0    0 -0.59490621662E+02  0.69155990653E+02  0.32107114544E+03  0.33377891716E+03  0.00000000000E+00 0. -1.
         11    1    4    4    0    0 -0.11393583461E+02 -0.26170911203E+02  0.51787823063E+02  0.59132976882E+02  0.00000000000E+00 0.  1.
</event>
<event>
 8    1  0.6380400E-009  0.1514383E+03  0.7561462E-02  0.1198717E+00
         -2   -1    0    0    0  501 -0.00000000000E+00  0.00000000000E+00  0.93487259552E+02  0.93487259552E+02  0.00000000000E+00 0.  1.
          2   -1    0    0  501    0  0.00000000000E+00 -0.00000000000E+00 -0.31406054901E+03  0.31406054901E+03  0.00000000000E+00 0. -1.
         25    2    1    2    0    0  0.12751565081E+03  0.54601655782E+01 -0.75564379267E+02  0.19402769638E+03  0.12508683759E+03 0.  0.
         23    2    1    2    0    0 -0.12751565081E+03 -0.54601655782E+01 -0.14500891019E+03  0.21352011218E+03  0.90957130906E+02 0.  0.
          5    1    3    3  502    0  0.11452752737E+03  0.52204010768E+02 -0.72327267172E+02  0.14522575269E+03  0.41800000000E+01 0. -1.
         -5    1    3    3    0  502  0.12988123436E+02 -0.46743845190E+02 -0.32371120952E+01  0.48801943693E+02  0.41800000000E+01 0. -1.
        -11    1    4    4    0    0 -0.86730550274E+02  0.21606541068E+01 -0.30889923521E+02  0.92092584675E+02  0.00000000000E+00 0.  1.
         11    1    4    4    0    0 -0.40785100535E+02 -0.76208196849E+01 -0.11411898667E+03  0.12142752751E+03  0.00000000000E+00 0. -1.
</event>
<event>
 8    1  0.6380400E-009  0.2679740E+03  0.7561462E-02  0.1102445E+00
         -1   -1    0    0    0  501 -0.00000000000E+00  0.00000000000E+00  0.82078277045E+02  0.82078277045E+02  0.00000000000E+00 0.  1.
          1   -1    0    0  501    0  0.00000000000E+00 -0.00000000000E+00 -0.96154227998E+03  0.96154227998E+03  0.00000000000E+00 0. -1.
         25    2    1    2    0    0  0.20876026045E+03  0.15370928521E+03 -0.40892473089E+03  0.50007560223E+03  0.12509509066E+03 0.  0.
         23    2    1    2    0    0 -0.20876026045E+03 -0.15370928521E+03 -0.47053927204E+03  0.54354495479E+03  0.82622761062E+02 0.  0.
          5    1    3    3  502    0  0.11972626544E+03  0.32403144554E+02 -0.26111885793E+03  0.28911048542E+03  0.41800000000E+01 0.  1.
         -5    1    3    3    0  502  0.89033995014E+02  0.12130614066E+03 -0.14780587296E+03  0.21096511681E+03  0.41800000000E+01 0.  1.
        -11    1    4    4    0    0 -0.22026587322E+02 -0.30391649296E+02 -0.13582419965E+03  0.14091499603E+03  0.00000000000E+00 0. -1.
         11    1    4    4    0    0 -0.18673367313E+03 -0.12331763592E+03 -0.33471507240E+03  0.40262995877E+03  0.00000000000E+00 0.  1.
</event>
<event>
 8    1  0.6380400E-009  0.1217603E+03  0.7561462E-02  0.1240221E+00
          2   -1    0    0  501    0  0.00000000000E+00  0.00000000000E+00  0.40958604335E+03  0.40958604335E+03  0.00000000000E+00 0. -1.
         -2   -1    0    0    0  501 -0.00000000000E+00 -0.00000000000E+00 -0.37283230982E+02  0.37283230982E+02  0.00000000000E+00 0.  1.
         25    2    1    2    0    0 -0.31566238095E+02  0.50393448131E+02  0.22696205032E+03  0.26588625996E+03  0.12509118255E+03 0.  0.
         23    2    1    2    0    0  0.31566238095E+02 -0.50393448131E+02  0.14534076205E+03  0.18098301437E+03  0.89972147769E+02 0.  0.
          5    1    3    3  502    0  0.40097849869E+02 -0.12025946872E+02  0.53592407480E+02  0.68132807823E+02  0.41800000000E+01 0. -1.
         -5    1    3    3    0  502 -0.71664087964E+02  0.62419395003E+02  0.17336964284E+03  0.19775345214E+03  0.41800000000E+01 0. -1.
        -11    1    4    4    0    0  0.53945161551E+02 -0.61106125983E+02  0.12323513454E+03  0.14775296096E+03  0.00000000000E+00 0. -1.
         11    1    4    4    0    0 -0.22378923456E+02  0.10712677852E+02  0.22105627508E+02  0.33230053406E+02  0.00000000000E+00 0.  1.
</event>
<event>
 8    1  0.6380400E-009  0.9671902E+02  0.7561462E-02  0.1287351E+00
         -1   -1    0    0    0  501 -0.00000000000E+00  0.00000000000E+00  0.22869690896E+02  0.22869690896E+02  0.00000000000E+00 0.  1.
          1   -1    0    0  501    0  0.00000000000E+00 -0.00000000000E+00 -0.71315821974E+03  0.71315821974E+03  0.00000000000E+00 0. -1.
         25    2    1    2    0    0 -0.68705795859E+01 -0.12554729910E+02 -0.58070500568E+03  0.59419735319E+03  0.12508942727E+03 0.  0.
         23    2    1    2    0    0  0.68705795859E+01  0.12554729910E+02 -0.10958352317E+03  0.14183055744E+03  0.88896188716E+02 0.  0.
          5    1    3    3  502    0  0.54677376102E+02 -0.28978292841E+02 -0.27830026374E+03  0.28512780662E+03  0.41800000000E+01 0.  1.
         -5    1    3    3    0  502 -0.61547955688E+02  0.16423562931E+02 -0.30240474194E+03  0.30906954657E+03  0.41800000000E+01 0.  1.
        -11    1    4    4    0    0  0.33971972177E+02  0.20063613606E+02 -0.13474822220E+02  0.41691897515E+02  0.00000000000E+00 0.  1.
         11    1    4    4    0    0 -0.27101392591E+02 -0.75088836962E+01 -0.96108700947E+02  0.10013865993E+03  0.00000000000E+00 0. -1.
</event>
<event>
 8    1  0.6380400E-009  0.1281796E+03  0.7561462E-02  0.1230182E+00
          2   -1    0    0  501    0  0.00000000000E+00  0.00000000000E+00  0.15921598565E+03  0.15921598565E+03  0.00000000000E+00 0. -1.
         -2   -1    0    0    0  501 -0.00000000000E+00 -0.00000000000E+00 -0.11283551785E+03  0.11283551785E+03  0.00000000000E+00 0.  1.
         25    2    1    2    0    0  0.19670926645E+02 -0.74109855186E+02  0.43172719011E+02  0.15293726051E+03  0.12508679385E+03 0.  0.
         23    2    1    2    0    0 -0.19670926645E+02  0.74109855186E+02  0.32077487834E+01  0.11911424300E+03  0.91097185694E+02 0.  0.
          5    1    3    3  502    0 -0.58621902826E+01 -0.10369255440E+03  0.16021505408E+02  0.10516973019E+03  0.41800000000E+01 0.  1.
         -5    1    3    3    0  502  0.25533116928E+02  0.29582699213E+02  0.27151213603E+02  0.47767530320E+02  0.41800000000E+01 0.  1.
        -11    1    4    4    0    0 -0.13915895016E+02  0.92657259466E+02 -0.11982098966E+02  0.94459465177E+02  0.00000000000E+00 0.  1.
         11    1    4    4    0    0 -0.57550316291E+01 -0.18547404281E+02  0.15189847750E+02  0.24654777818E+02  0.00000000000E+00 0. -1.
</event>
<event>
 8    1  0.6380400E-009  0.1281846E+03  0.7561462E-02  0.1230175E+00
         -2   -1    0    0    0  501 -0.00000000000E+00  0.00000000000E+00  0.45991110084E+02  0.45991110084E+02  0.00000000000E+00 0.  1.
          2   -1    0    0  501    0  0.00000000000E+00 -0.00000000000E+00 -0.36437491745E+03  0.36437491745E+03  0.00000000000E+00 0. -1.
         25    2    1    2    0    0  0.15456205886E+02 -0.47693073133E+02 -0.17336204760E+03  0.21958471164E+03  0.12509805159E+03 0.  0.
         23    2    1    2    0    0 -0.15456205886E+02  0.47693073133E+02 -0.14502175976E+03  0.19078131589E+03  0.11336964392E+03 0.  0.
          5    1    3    3  502    0 -0.28176876832E+01  0.41936269561E+02 -0.67375100819E+02  0.79520228111E+02  0.41800000000E+01 0.  1.
         -5    1    3    3    0  502  0.18273893570E+02 -0.89629342694E+02 -0.10598694678E+03  0.14006448353E+03  0.41800000000E+01 0.  1.
        -11    1    4    4    0    0  0.43373428651E+02  0.46685155289E+02 -0.89611980759E+02  0.10995937947E+03  0.00000000000E+00 0. -1.
         11    1    4    4    0    0 -0.58829634537E+02  0.10079178441E+01 -0.55409779002E+02  0.80821936423E+02  0.00000000000E+00 0.  1.
</event>
<event>
 8    1  0.6380400E-009  0.1652952E+03  0.7561462E-02  0.1182845E+00
          2   -1    0    0  501    0  0.00000000000E+00  0.00000000000E+00  0.83244992940E+02  0.83244992940E+02  0.00000000000E+00 0. -1.
         -2   -1    0    0    0  501 -0.00000000000E+00 -0.00000000000E+00 -0.43696856616E+03  0.43696856616E+03  0.00000000000E+00 0.  1.
         25    2    1    2    0    0  0.18561322497E+02 -0.15500922493E+03 -0.19452159781E+03  0.27903136598E+03  0.12508984243E+03 0.  0.
         23    2    1    2    0    0 -0.18561322497E+02  0.15500922493E+03 -0.15920197541E+03  0.24118219312E+03  0.91930401936E+02 0.  0.
          5    1    3    3  502    0 -0.19039901916E+02 -0.38361061457E+02  0.65397155901E+01  0.43523892071E+02  0.41800000000E+01 0. -1.
         -5    1    3    3    0  502  0.37601224413E+02 -0.11664816347E+03 -0.20106131340E+03  0.23550747390E+03  0.41800000000E+01 0. -1.
        -11    1    4    4    0    0  0.67849101259E+01  0.12690099371E+03 -0.15872458837E+03  0.20333074574E+03  0.00000000000E+00 0.  1.
         11    1    4    4    0    0 -0.25346232623E+02  0.28108231221E+02 -0.47738703494E+00  0.37851447382E+02  0.00000000000E+00 0. -1.
</event>
<event>
 8    1  0.6380400E-009  0.3312283E+03  0.7561462E-02  0.1070595E+00
          1   -1    0    0  501    0  0.00000000000E+00  0.00000000000E+00  0.18304558121E+04  0.18304558121E+04  0.00000000000E+00 0. -1.
         -1   -1    0    0    0  501 -0.00000000000E+00 -0.00000000000E+00 -0.66192545415E+02  0.66192545415E+02  0.00000000000E+00 0.  1.
         25    2    1    2    0    0  0.28269938473E+03  0.16114357510E+03  0.10452664227E+04  0.11018690625E+04  0.12508933791E+03 0.  0.
         23    2    1    2    0    0 -0.28269938473E+03 -0.16114357510E+03  0.71899684390E+03  0.79477929498E+03  0.93975913168E+02 0.  0.
          5    1    3    3  502    0  0.16203880072E+03  0.10401090719E+03  0.41370224514E+03  0.45633525153E+03  0.41800000000E+01 0.  1.
         -5    1    3    3    0  502  0.12066058401E+03  0.57132667909E+02  0.63156417760E+03  0.64553381097E+03  0.41800000000E+01 0.  1.
        -11    1    4    4    0    0 -0.10675651325E+03 -0.10949995081E+03  0.37450915578E+03  0.40452972710E+03  0.00000000000E+00 0.  1.
         11    1    4    4    0    0 -0.17594287148E+03 -0.51643624288E+02  0.34448768813E+03  0.39024956787E+03  0.00000000000E+00 0. -1.
</event>
<event>
 8    1  0.6380400E-009  0.1193015E+03  0.7561462E-02  0.1244254E+00
         -1   -1    0    0    0  501 -0.00000000000E+00  0.00000000000E+00  0.41581905228E+03  0.41581905228E+03  0.00000000000E+00 0.  1.
          1   -1    0    0  501    0  0.00000000000E+00 -0.00000000000E+00 -0.41503696686E+02  0.41503696686E+02  0.00000000000E+00 0. -1.
         25    2    1    2    0    0  0.20190220797E+02 -0.70303041668E+02  0.18992033239E+03  0.23888454148E+03  0.12508368726E+03 0.  0.
         23    2    1    2    0    0 -0.20190220797E+02  0.70303041668E+02  0.18439502320E+03  0.21843820749E+03  0.91452518965E+02 0.  0.
          5    1    3    3  502    0  0.44449575985E+02 -0.93560705266E+02  0.10542748949E+03  0.14785735800E+03  0.41800000000E+01 0.  1.
         -5    1    3    3    0  502 -0.24259355188E+02  0.23257663598E+02  0.84492842900E+02  0.91027183475E+02  0.41800000000E+01 0.  1.
        -11    1    4    4    0    0  0.25123233575E+02  0.37465375238E+02  0.29895730782E+02  0.54116410875E+02  0.00000000000E+00 0. -1.
         11    1    4    4    0    0 -0.45313454372E+02  0.32837666430E+02  0.15449929242E+03  0.16432179661E+03  0.00000000000E+00 0.  1.
</event>
<event>
 8    1  0.6380400E-009  0.8054118E+02  0.7561462E-02  0.1327523E+00
         -1   -1    0    0    0  501 -0.00000000000E+00  0.00000000000E+00  0.14784020424E+03  0.14784020424E+03  0.00000000000E+00 0.  1.
          1   -1    0    0  501    0  0.00000000000E+00 -0.00000000000E+00 -0.96290156500E+02  0.96290156500E+02  0.00000000000E+00 0. -1.
         25    2    1    2    0    0  0.12362146517E+02  0.49774171802E+02  0.35799640406E+02  0.13985310233E+03  0.12508790962E+03 0.  0.
         23    2    1    2    0    0 -0.12362146517E+02 -0.49774171802E+02  0.15750407336E+02  0.10427725841E+03  0.89416891274E+02 0.  0.
          5    1    3    3  502    0  0.29492798244E+02  0.25177724854E+02 -0.41432941579E+02  0.56902583641E+02  0.41800000000E+01 0.  1.
         -5    1    3    3    0  502 -0.17130651727E+02  0.24596446948E+02  0.77232581985E+02  0.82950518691E+02  0.41800000000E+01 0.  1.
        -11    1    4    4    0    0 -0.41235532452E+02 -0.95938191900E+01 -0.16254299825E+02  0.45349892680E+02  0.00000000000E+00 0. -1.
         11    1    4    4    0    0  0.28873385935E+02 -0.40180352612E+02  0.32004707161E+02  0.58927365730E+02  0.00000000000E+00 0.  1.
</event>
<event>
 8    1  0.6380400E-009  0.8697139E+02  0.7561462E-02  0.1310356E+00
          3   -1    0    0  501    0  0.00000000000E+00  0.00000000000E+00  0.18983763990E+03  0.18983763990E+03  0.00000000000E+00 0. -1.
         -3   -1    0    0    0  501 -0.00000000000E+00 -0.00000000000E+00 -0.69301853305E+02  0.69301853305E+02  0.00000000000E+00 0.  1.
         25    2    1    2    0    0 -0.16171998477E+02 -0.21108230645E+02  0.98620142995E+02  0.16149448037E+03  0.12508974238E+03 0.  0.
         23    2    1    2    0    0  0.16171998477E+02  0.21108230645E+02  0.21915643603E+02  0.97645012840E+02  0.91362805136E+02 0.  0.
          5    1    3    3  502    0  0.68469291279E+01  0.25608948221E+02 -0.18940180339E+02  0.32846636034E+02  0.41800000000E+01 0.  1.
         -5    1    3    3    0  502 -0.23018927605E+02 -0.46717178867E+02  0.11756032333E+03  0.12864784433E+03  0.41800000000E+01 0.  1.
        -11    1    4    4    0    0 -0.34040142781E+02  0.28128807287E+02  0.63750006464E+01  0.44616160225E+02  0.00000000000E+00 0.  1.
         11    1    4    4    0    0  0.50212141259E+02 -0.70205766415E+01  0.15540642957E+02  0.53028852615E+02  0.00000000000E+00 0. -1.
</event>
<event>
 8    1  0.6380400E-009  0.8250763E+02  0.7561462E-02  0.1322082E+00
          1   -1    0    0  501    0  0.00000000000E+00  0.00000000000E+00  0.24021555293E+03  0.24021555293E+03  0.00000000000E+00 0. -1.
         -1   -1    0    0    0  501 -0.00000000000E+00 -0.00000000000E+00 -0.56384495163E+02  0.56384495163E+02  0.00000000000E+00 0.  1.
         25    2    1    2    0    0 -0.27404183596E+02 -0.16763147293E+02  0.69453606443E+02  0.14666566791E+03  0.12512003161E+03 0.  0.
         23    2    1    2    0    0  0.27404183596E+02  0.16763147293E+02  0.11437745133E+03  0.14993438018E+03  0.91466521762E+02 0.  0.
          5    1    3    3  502    0 -0.59817766183E+01 -0.68539609911E+02  0.19886567798E+02  0.71738467764E+02  0.41800000000E+01 0.  1.
         -5    1    3    3    0  502 -0.21422406978E+02  0.51776462618E+02  0.49567038646E+02  0.74927200148E+02  0.41800000000E+01 0.  1.
        -11    1    4    4    0    0  0.61396089091E+01  0.17577788330E+02 -0.11755010469E+02  0.22019393980E+02  0.00000000000E+00 0.  1.
         11    1    4    4    0    0  0.21264574687E+02 -0.81464103649E+00  0.12613246180E+03  0.12791498620E+03  0.00000000000E+00 0. -1.
</event>
<event>
 8    1  0.6380400E-009  0.9803912E+02  0.7561462E-02  0.1284474E+00
          2   -1    0    0  501    0  0.00000000000E+00  0.00000000000E+00  0.31412659032E+03  0.31412659032E+03  0.00000000000E+00 0. -1.
         -2   -1    0    0    0  501 -0.00000000000E+00 -0.00000000000E+00 -0.57435526897E+02  0.57435526897E+02  0.00000000000E+00 0.  1.
         25    2    1    2    0    0  0.35387995871E+02 -0.70444586434E+02  0.15569017963E+03  0.21471203826E+03  0.12508827814E+03 0.  0.
         23    2    1    2    0    0 -0.35387995871E+02  0.70444586434E+02  0.10100088379E+03  0.15685007896E+03  0.90476619820E+02 0.  0.
          5    1    3    3  502    0  0.33020574343E+02 -0.63414740623E+02  0.17744355478E+03  0.19135170549E+03  0.41800000000E+01 0.  1.
         -5    1    3    3    0  502  0.23674215283E+01 -0.70298458107E+01 -0.21753375149E+02  0.23360332771E+02  0.41800000000E+01 0.  1.
        -11    1    4    4    0    0  0.28079151277E+02  0.15953866321E+02  0.47897210837E+02  0.57767701988E+02  0.00000000000E+00 0. -1.
         11    1    4    4    0    0 -0.63467147148E+02  0.54490720113E+02  0.53103672954E+02  0.99082376974E+02  0.00000000000E+00 0.  1.
</event>
<event>
 8    1  0.6380400E-009  0.1851875E+03  0.7561462E-02  0.1162875E+00
         -2   -1    0    0    0  501 -0.00000000000E+00  0.00000000000E+00  0.49158015752E+03  0.49158015752E+03  0.00000000000E+00 0.  1.
          2   -1    0    0  501    0  0.00000000000E+00 -0.00000000000E+00 -0.70275045400E+02  0.70275045400E+02  0.00000000000E+00 0. -1.
         25    2    1    2    0    0  0.17351135867E+02 -0.14847705745E+03  0.20048715532E+03  0.27961820055E+03  0.12507893557E+03 0.  0.
         23    2    1    2    0    0 -0.17351135867E+02  0.14847705745E+03  0.22081795680E+03  0.28223700237E+03  0.92469762397E+02 0.  0.
          5    1    3    3  502    0 -0.18086801412E+02  0.17174289269E+02  0.22206757889E+02  0.33655624985E+02  0.41800000000E+01 0.  1.
         -5    1    3    3    0  502  0.35437937279E+02 -0.16565134672E+03  0.17828039743E+03  0.24596257556E+03  0.41800000000E+01 0.  1.
        -11    1    4    4    0    0  0.38220121676E+02  0.62603051895E+02  0.86662279607E+02  0.11353532716E+03  0.00000000000E+00 0.  1.
         11    1    4    4    0    0 -0.55571257543E+02  0.85874005556E+02  0.13415567719E+03  0.16870167521E+03  0.00000000000E+00 0. -1.
</event>
<event>
 8    1  0.6380400E-009  0.8897162E+02  0.7561462E-02  0.1305361E+00
         -2   -1    0    0    0  501 -0.00000000000E+00  0.00000000000E+00  0.15558099470E+03  0.15558099470E+03  0.00000000000E+00 0. -1.
          2   -1    0    0  501    0  0.00000000000E+00 -0.00000000000E+00 -0.11398626638E+03  0.11398626638E+03  0.00000000000E+00 0.  1.
         25    2    1    2    0    0 -0.64210022814E+01  0.94118136220E+01 -0.53852390689E+02  0.13666762313E+03  0.12509255663E+03 0.  0.
         23    2    1    2    0    0  0.64210022814E+01 -0.94118136220E+01  0.95447119017E+02  0.13289963795E+03  0.91773360694E+02 0.  0.
          5    1    3    3  502    0 -0.65336530205E+02  0.11513011500E+02 -0.26903742568E+02  0.71712588694E+02  0.41800000000E+01 0.  1.
         -5    1    3    3    0  502  0.58915527923E+02 -0.21011978784E+01 -0.26948648121E+02  0.64955034436E+02  0.41800000000E+01 0.  1.
        -11    1    4    4    0    0 -0.18608287553E+02 -0.18015975935E+02 -0.72100964876E+01  0.26885483925E+02  0.00000000000E+00 0.  1.
         11    1    4    4    0    0  0.25029289834E+02  0.86041623131E+01  0.10265721550E+03  0.10601415403E+03  0.00000000000E+00 0. -1.
</event>
<event>
 8    1  0.6380400E-009  0.1968126E+03  0.7561462E-02  0.1152456E+00
         -1   -1    0    0    0  501 -0.00000000000E+00  0.00000000000E+00  0.71003773662E+02  0.71003773662E+02  0.00000000000E+00 0.  1.
          1   -1    0    0  501    0  0.00000000000E+00 -0.00000000000E+00 -0.64212686210E+03  0.64212686210E+03  0.00000000000E+00 0. -1.
         25    2    1    2    0    0 -0.11256717978E+03  0.14239507079E+03 -0.25034780113E+03  0.33357075929E+03  0.12509078213E+03 0.  0.
         23    2    1    2    0    0  0.11256717978E+03 -0.14239507079E+03 -0.32077528731E+03  0.37955987647E+03  0.90670771078E+02 0.  0.
          5    1    3    3  502    0  0.10891698636E+02 -0.67608531258E+01  0.38316394981E+01  0.14017563818E+02  0.41800000000E+01 0.  1.
         -5    1    3    3    0  502 -0.12345887842E+03  0.14915592392E+03 -0.25417944062E+03  0.31955319547E+03  0.41800000000E+01 0.  1.
        -11    1    4    4    0    0  0.65769544792E+02 -0.11435402534E+03 -0.28574384751E+03  0.31472531281E+03  0.00000000000E+00 0. -1.
         11    1    4    4    0    0  0.46797634993E+02 -0.28041045452E+02 -0.35031439805E+02  0.64834563666E+02  0.00000000000E+00 0.  1.
</event>
<event>
 8    1  0.6380400E-009  0.7428186E+02  0.7561462E-02  0.1346109E+00
          2   -1    0    0  501    0  0.00000000000E+00  0.00000000000E+00  0.11081837683E+04  0.11081837683E+04  0.00000000000E+00 0. -1.
         -2   -1    0    0    0  501 -0.00000000000E+00 -0.00000000000E+00 -0.10855792765E+02  0.10855792765E+02  0.00000000000E+00 0.  1.
         25    2    1    2    0    0  0.17479616800E+02 -0.53646623612E+01  0.85331382190E+03  0.86262815438E+03  0.12509411449E+03 0.  0.
         23    2    1    2    0    0 -0.17479616800E+02  0.53646623612E+01  0.24401415361E+03  0.25641140666E+03  0.76613221423E+02 0.  0.
          5    1    3    3  502    0 -0.10754614294E+02 -0.34033656431E+02  0.73993064926E+02  0.82258115440E+02  0.41800000000E+01 0.  1.
         -5    1    3    3    0  502  0.28234231094E+02  0.28668994070E+02  0.77932075697E+03  0.78037003894E+03  0.41800000000E+01 0.  1.
        -11    1    4    4    0    0 -0.44396426668E+02  0.80579543188E+01  0.97682630386E+02  0.10760050933E+03  0.00000000000E+00 0.  1.
         11    1    4    4    0    0  0.26916809868E+02 -0.26932919576E+01  0.14633152322E+03  0.14881089733E+03  0.00000000000E+00 0. -1.
</event>
<event>
 8    1  0.6380400E-009  0.1272981E+03  0.7561462E-02  0.1231521E+00
          2   -1    0    0  501    0  0.00000000000E+00  0.00000000000E+00  0.56048924675E+03  0.56048924675E+03  0.00000000000E+00 0. -1.
         -2   -1    0    0    0  501 -0.00000000000E+00 -0.00000000000E+00 -0.55217223356E+02  0.55217223356E+02  0.00000000000E+00 0.  1.
         25    2    1    2    0    0  0.54181806074E+02  0.90786213422E+02  0.10203308916E+03  0.19296508498E+03  0.12508784146E+03 0.  0.
         23    2    1    2    0    0 -0.54181806074E+02 -0.90786213422E+02  0.40323893424E+03  0.42274138512E+03  0.70219911394E+02 0.  0.
          5    1    3    3  502    0  0.72727818464E+02  0.83598670278E+02  0.25500503995E+02  0.11377970537E+03  0.41800000000E+01 0.  1.
         -5    1    3    3    0  502 -0.18546012391E+02  0.71875431441E+01  0.76532585164E+02  0.79185379610E+02  0.41800000000E+01 0.  1.
        -11    1    4    4    0    0 -0.28230673391E+02 -0.93144113930E+02  0.35266663270E+03  0.36585044855E+03  0.00000000000E+00 0. -1.
         11    1    4    4    0    0 -0.25951132682E+02  0.23579005079E+01  0.50572301531E+02  0.56890936575E+02  0.00000000000E+00 0.  1.
</event>
<event>
 7    1  0.6380400E-009  0.1040394E+03  0.7561462E-02  0.1272024E+00
         -1   -1    0    0    0  501 -0.00000000000E+00  0.00000000000E+00  0.36755417919E+02  0.36755417919E+02  0.00000000000E+00 0.  1.
          1   -1    0    0  501    0  0.00000000000E+00 -0.00000000000E+00 -0.33846223019E+03  0.33846223019E+03  0.00000000000E+00 0. -1.
         23    2    1    2    0    0  0.18718970278E+01 -0.21894129100E+02 -0.91390300954E+02  0.12944106757E+03  0.88994078324E+02 0.  0.
          5    1    1    2  502    0  0.54123248485E+02  0.34557759938E+02 -0.75608803984E+02  0.99286093882E+02  0.41800000000E+01 0. -1.
         -5    1    1    2    0  502 -0.55995145513E+02 -0.12663630838E+02 -0.13470770734E+03  0.14649048666E+03  0.41800000000E+01 0. -1.
        -11    1    3    3    0    0  0.25325403744E+02  0.23832564303E+02 -0.59625473655E+02  0.69025823462E+02  0.00000000000E+00 0.  1.
         11    1    3    3    0    0 -0.23453506716E+02 -0.45726693403E+02 -0.31764827299E+02  0.60415244104E+02  0.00000000000E+00 0. -1.
</event>
<event>
 8    1  0.6380400E-009  0.1016090E+03  0.7561462E-02  0.1276948E+00
         -1   -1    0    0    0  501 -0.00000000000E+00  0.00000000000E+00  0.13262752345E+03  0.13262752345E+03  0.00000000000E+00 0.  1.
          1   -1    0    0  501    0  0.00000000000E+00 -0.00000000000E+00 -0.24554981370E+03  0.24554981370E+03  0.00000000000E+00 0. -1.
         25    2    1    2    0    0  0.52292135370E+02  0.17617389682E+02  0.79810284790E+02  0.15830962343E+03  0.12508962975E+03 0.  0.
         23    2    1    2    0    0 -0.52292135370E+02 -0.17617389682E+02 -0.19273257503E+03  0.21986771372E+03  0.90283587754E+02 0.  0.
          5    1    3    3  502    0 -0.21299219440E+01 -0.45567124313E+02  0.47826961537E+01  0.46056986095E+02  0.41800000000E+01 0. -1.
         -5    1    3    3    0  502  0.54422057314E+02  0.63184513995E+02  0.75027588637E+02  0.11225263733E+03  0.41800000000E+01 0. -1.
        -11    1    4    4    0    0 -0.61295471124E+02 -0.99688174990E+01 -0.19757154811E+03  0.20710149378E+03  0.00000000000E+00 0. -1.
         11    1    4    4    0    0  0.90033357537E+01 -0.76485721832E+01  0.48389730792E+01  0.12766219942E+02  0.00000000000E+00 0.  1.
</event>
<event>
 8    1  0.6380400E-009  0.8881525E+02  0.7561462E-02  0.1305746E+00
          1   -1    0    0  501    0  0.00000000000E+00  0.00000000000E+00  0.20562118935E+04  0.20562118935E+04  0.00000000000E+00 0. -1.
         -1   -1    0    0    0  501 -0.00000000000E+00 -0.00000000000E+00 -0.18477074938E+02  0.18477074938E+02  0.00000000000E+00 0.  1.
         25    2    1    2    0    0  0.43423498901E+02  0.44278195077E+02  0.18605856722E+04  0.18658183923E+04  0.12511223200E+03 0.  0.
         23    2    1    2    0    0 -0.43423498901E+02 -0.44278195077E+02  0.17714914634E+03  0.20887057612E+03  0.91645723881E+02 0.  0.
          5    1    3    3  502    0  0.11414413988E+02  0.68739619562E+02  0.16438086685E+04  0.16452901979E+04  0.41800000000E+01 0.  1.
         -5    1    3    3    0  502  0.32009084913E+02 -0.24461424485E+02  0.21677700371E+03  0.22052819444E+03  0.41800000000E+01 0.  1.
        -11    1    4    4    0    0 -0.11246433872E+02 -0.30151760775E+02  0.16998749798E+03  0.17300682190E+03  0.00000000000E+00 0. -1.
         11    1    4    4    0    0 -0.32177065029E+02 -0.14126434302E+02  0.71616483542E+01  0.35863754225E+02  0.00000000000E+00 0.  1.
</event>
<event>
 8    1  0.6380400E-009  0.9508247E+02  0.7561462E-02  0.1290990E+00
         -1   -1    0    0    0  501 -0.00000000000E+00  0.00000000000E+00  0.24483509713E+03  0.24483509713E+03  0.00000000000E+00 0.  1.
          1   -1    0    0  501    0  0.00000000000E+00 -0.00000000000E+00 -0.53606170882E+02  0.53606170882E+02  0.00000000000E+00 0. -1.
         25    2    1    2    0    0 -0.19162350092E+02  0.17547289982E+02  0.77019905183E+02  0.14918102843E+03  0.12509120834E+03 0.  0.
         23    2    1    2    0    0  0.19162350092E+02 -0.17547289982E+02  0.11420902107E+03  0.14926023958E+03  0.92519271397E+02 0.  0.
          5    1    3    3  502    0 -0.50558078185E+02 -0.10447550787E+02 -0.97105668912E+01  0.52697609970E+02  0.41800000000E+01 0. -1.
         -5    1    3    3    0  502  0.31395728093E+02  0.27994840769E+02  0.86730472074E+02  0.96483418463E+02  0.41800000000E+01 0. -1.
        -11    1    4    4    0    0 -0.35182109737E+02  0.79508669732E+01  0.43008390907E+02  0.56131264190E+02  0.00000000000E+00 0.  1.
         11    1    4    4    0    0  0.54344459829E+02 -0.25498156956E+02  0.71200630163E+02  0.93128975394E+02  0.00000000000E+00 0. -1.
</event>
<event>
 8    1  0.6380400E-009  0.1157506E+03  0.7561462E-02  0.1250277E+00
         -2   -1    0    0    0  501 -0.00000000000E+00  0.00000000000E+00  0.28433400755E+02  0.28433400755E+02  0.00000000000E+00 0.  1.
          2   -1    0    0  501    0  0.00000000000E+00 -0.00000000000E+00 -0.53470890674E+03  0.53470890674E+03  0.00000000000E+00 0. -1.
         25    2    1    2    0    0 -0.58152687140E+02 -0.32860668412E+01 -0.32324827882E+03  0.35146588336E+03  0.12508510761E+03 0.  0.
         23    2    1    2    0    0  0.58152687140E+02  0.32860668412E+01 -0.18302722716E+03  0.21167642413E+03  0.88968586569E+02 0.  0.
          5    1    3    3  502    0 -0.85310985795E+02  0.21913585810E+02 -0.14785152637E+03  0.17215027096E+03  0.41800000000E+01 0.  1.
         -5    1    3    3    0  502  0.27158298655E+02 -0.25199652651E+02 -0.17539675245E+03  0.17931561240E+03  0.41800000000E+01 0.  1.
        -11    1    4    4    0    0  0.80652819194E+02  0.12702145675E+02 -0.14735272439E+03  0.16846081780E+03  0.00000000000E+00 0.  1.
         11    1    4    4    0    0 -0.22500132054E+02 -0.94160788341E+01 -0.35674502762E+02  0.43215606328E+02  0.00000000000E+00 0. -1.
</event>
<event>
 8    1  0.6380400E-009  0.9147243E+02  0.7561462E-02  0.1299325E+00
          2   -1    0    0  501    0  0.00000000000E+00  0.00000000000E+00  0.45057260670E+03  0.45057260670E+03  0.00000000000E+00 0. -1.
         -2   -1    0    0    0  501 -0.00000000000E+00 -0.00000000000E+00 -0.28875692170E+02  0.28875692170E+02  0.00000000000E+00 0.  1.
         25    2    1    2    0    0  0.89369617924E+01  0.19700178202E+02  0.31337046536E+03  0.33810311430E+03  0.12507877931E+03 0.  0.
         23    2    1    2    0    0 -0.89369617924E+01 -0.19700178202E+02  0.10832644917E+03  0.14134518457E+03  0.88180923696E+02 0.  0.
          5    1    3    3  502    0  0.57056450490E+02  0.31494114284E+02  0.24507219448E+03  0.25362407355E+03  0.41800000000E+01 0. -1.
         -5    1    3    3    0  502 -0.48119488698E+02 -0.11793936082E+02  0.68298270881E+02  0.84479040751E+02  0.41800000000E+01 0. -1.
        -11    1    4    4    0    0 -0.29984229485E+02  0.99205466000E+01  0.52047840360E+01  0.32008765042E+02  0.00000000000E+00 0.  1.
         11    1    4    4    0    0  0.21047267692E+02 -0.29620724802E+02  0.10312166513E+03  0.10933641953E+03  0.00000000000E+00 0. -1.
</event>
<event>
 8    1  0.6380400E-009  0.1362475E+03  0.7561462E-02  0.1218469E+00
         -2   -1    0    0    0  501 -0.00000000000E+00  0.00000000000E+00  0.41803238631E+03  0.41803238631E+03  0.00000000000E+00 0.  1.
          2   -1    0    0  501    0  0.00000000000E+00 -0.00000000000E+00 -0.14012260224E+03  0.14012260224E+03  0.00000000000E+00 0. -1.
         25    2    1    2    0    0 -0.86675928886E+02 -0.57071527088E+02 -0.75040008696E+02  0.17901663741E+03  0.12508428243E+03 0.  0.
         23    2    1    2    0    0  0.86675928886E+02  0.57071527088E+02  0.35294979276E+03  0.37913835114E+03  0.91664918251E+02 0.  0.
          5    1    3    3  502    0 -0.34612573452E+02 -0.76179496342E+02 -0.88426855835E+02  0.12181185138E+03  0.41800000000E+01 0. -1.
         -5    1    3    3    0  502 -0.52063355434E+02  0.19107969254E+02  0.13386847139E+02  0.57204786027E+02  0.41800000000E+01 0. -1.
        -11    1    4    4    0    0  0.58267672365E+02 -0.11037818313E+02  0.10675423199E+03  0.12212051885E+03  0.00000000000E+00 0.  1.
         11    1    4    4    0    0  0.28408256521E+02  0.68109345401E+02  0.24619556077E+03  0.25701783229E+03  0.00000000000E+00 0. -1.
</event>
<event>
 8    1  0.6380400E-009  0.1032420E+03  0.7561462E-02  0.1273622E+00
          1   -1    0    0  501    0  0.00000000000E+00  0.00000000000E+00  0.10929922792E+03  0.10929922792E+03  0.00000000000E+00 0. -1.
         -1   -1    0    0    0  501 -0.00000000000E+00 -0.00000000000E+00 -0.22365010806E+03  0.22365010806E+03  0.00000000000E+00 0.  1.
         25    2    1    2    0    0 -0.69021170408E+01 -0.20991412224E+02 -0.17947829263E+03  0.21988868390E+03  0.12510114779E+03 0.  0.
         23    2    1    2    0    0  0.69021170408E+01  0.20991412224E+02  0.65127412484E+02  0.11306065207E+03  0.89737687645E+02 0.  0.
          5    1    3    3  502    0  0.57934531172E+02 -0.48549429902E+01 -0.65286194702E+02  0.87519940540E+02  0.41800000000E+01 0. -1.
         -5    1    3    3    0  502 -0.64836648213E+02 -0.16136469234E+02 -0.11419209792E+03  0.13236874336E+03  0.41800000000E+01 0. -1.
        -11    1    4    4    0    0 -0.21331939403E+02  0.41291934483E+02  0.62909211415E+02  0.78215371717E+02  0.00000000000E+00 0.  1.
         11    1    4    4    0    0  0.28234056443E+02 -0.20300522259E+02  0.22182010693E+01  0.34845280358E+02  0.00000000000E+00 0. -1.
</event>
<event>
 8    1  0.6380400E-009  0.1163139E+03  0.7561462E-02  0.1249305E+00
         -1   -1    0    0    0  501 -0.00000000000E+00  0.00000000000E+00  0.42180012420E+02  0.42180012420E+02  0.00000000000E+00 0. -1.
          1   -1    0    0  501    0  0.00000000000E+00 -0.00000000000E+00 -0.80913263741E+03  0.80913263741E+03  0.00000000000E+00 0.  1.
         25    2    1    2    0    0 -0.97804344471E+01  0.46275841568E+02 -0.72665729997E+03  0.73886081405E+03  0.12508941013E+03 0.  0.
         23    2    1    2    0    0  0.97804344471E+01 -0.46275841568E+02 -0.40295325021E+02  0.11245183578E+03  0.93726152921E+02 0.  0.
          5    1    3    3  502    0  0.38424753515E+02 -0.21608090797E+02 -0.15659725000E+03  0.16273764893E+03  0.41800000000E+01 0. -1.
         -5    1    3    3    0  502 -0.48205187962E+02  0.67883932365E+02 -0.57006004997E+03  0.57612316512E+03  0.41800000000E+01 0. -1.
        -11    1    4    4    0    0 -0.28912542029E+02 -0.57785068667E+02 -0.25068872281E+02  0.69307269495E+02  0.00000000000E+00 0.  1.
         11    1    4    4    0    0  0.38692976476E+02  0.11509227099E+02 -0.15226452740E+02  0.43144566287E+02  0.00000000000E+00 0. -1.
</event>
<event>
 8    1  0.6380400E-009  0.2033305E+03  0.7561462E-02  0.1146959E+00
          1   -1    0    0  501    0  0.00000000000E+00  0.00000000000E+00  0.10017064073E+04  0.10017064073E+04  0.00000000000E+00 0. -1.
         -1   -1    0    0    0  501 -0.00000000000E+00 -0.00000000000E+00 -0.43645392516E+02  0.43645392516E+02  0.00000000000E+00 0.  1.
         25    2    1    2    0    0  0.15645882135E+03  0.88703309598E+02  0.52844768668E+03  0.57205977231E+03  0.12509110928E+03 0.  0.
         23    2    1    2    0    0 -0.15645882135E+03 -0.88703309598E+02  0.42961332813E+03  0.47329202754E+03  0.84202682312E+02 0.  0.
          5    1    3    3  502    0  0.30412675758E+02  0.86329187444E+02  0.25376046795E+03  0.26979530564E+03  0.41800000000E+01 0.  1.
         -5    1    3    3    0  502  0.12604614559E+03  0.23741221537E+01  0.27468721873E+03  0.30226446666E+03  0.41800000000E+01 0.  1.
        -11    1    4    4    0    0 -0.10836243241E+03 -0.89881624323E+02  0.24557643387E+03  0.28307050009E+03  0.00000000000E+00 0.  1.
         11    1    4    4    0    0 -0.48096388948E+02  0.11783147252E+01  0.18403689426E+03  0.19022152745E+03  0.00000000000E+00 0. -1.
</event>
<event>
 8    1  0.6380400E-009  0.1996016E+03  0.7561462E-02  0.1150076E+00
         -2   -1    0    0    0  501 -0.00000000000E+00  0.00000000000E+00  0.20452810857E+03  0.20452810857E+03  0.00000000000E+00 0.  1.
          2   -1    0    0  501    0  0.00000000000E+00 -0.00000000000E+00 -0.24925529119E+03  0.24925529119E+03  0.00000000000E+00 0. -1.
         25    2    1    2    0    0  0.13822809168E+03 -0.10969690316E+03 -0.11037264116E+03  0.24283772047E+03  0.12509045796E+03 0.  0.
         23    2    1    2    0    0 -0.13822809168E+03  0.10969690316E+03  0.65645458546E+02  0.21094567929E+03  0.95122749604E+02 0.  0.
          5    1    3    3  502    0  0.81370097472E+02 -0.12762622786E+03 -0.10181343672E+03  0.18246368159E+03  0.41800000000E+01 0. -1.
         -5    1    3    3    0  502  0.56857994211E+02  0.17929324707E+02 -0.85592044426E+01  0.60374038881E+02  0.41800000000E+01 0. -1.
        -11    1    4    4    0    0 -0.19249140205E+00  0.27225427574E+02 -0.14972804823E+02  0.31071624415E+02  0.00000000000E+00 0.  1.
         11    1    4    4    0    0 -0.13803560028E+03  0.82471475584E+02  0.80618263369E+02  0.17987405488E+03  0.00000000000E+00 0. -1.
</event>
<event>
 8    1  0.6380400E-009  0.1660086E+03  0.7561462E-02  0.1182075E+00
         -2   -1    0    0    0  501 -0.00000000000E+00  0.00000000000E+00  0.26010037710E+02  0.26010037710E+02  0.00000000000E+00 0.  1.
          2   -1    0    0  501    0  0.00000000000E+00 -0.00000000000E+00 -0.12719357450E+04  0.12719357450E+04  0.00000000000E+00 0. -1.
         25    2    1    2    0    0 -0.83541935746E+02  0.10441089596E+03 -0.80070870376E+03  0.82137867597E+03  0.12509041063E+03 0.  0.
         23    2    1    2    0    0  0.83541935746E+02 -0.10441089596E+03 -0.44521700354E+03  0.47656710676E+03  0.10496254940E+03 0.  0.
          5    1    3    3  502    0 -0.94126097593E+02  0.12672680138E+03 -0.67942541060E+03  0.69753549401E+03  0.41800000000E+01 0. -1.
         -5    1    3    3    0  502  0.10584161847E+02 -0.22315905425E+02 -0.12128329316E+03  0.12384318195E+03  0.41800000000E+01 0. -1.
        -11    1    4    4    0    0  0.18625109599E+02  0.71738328589E+01 -0.94551180659E+01  0.22085240390E+02  0.00000000000E+00 0.  1.
         11    1    4    4    0    0  0.64916826147E+02 -0.11158472882E+03 -0.43576188548E+03  0.45448186637E+03  0.00000000000E+00 0. -1.
</event>
<event>
 8    1  0.6380400E-009  0.1679782E+03  0.7561462E-02  0.1179973E+00
         -2   -1    0    0    0  501 -0.00000000000E+00  0.00000000000E+00  0.35159280661E+02  0.35159280661E+02  0.00000000000E+00 0.  1.
          2   -1    0    0  501    0  0.00000000000E+00 -0.00000000000E+00 -0.92092435626E+03  0.92092435626E+03  0.00000000000E+00 0. -1.
         25    2    1    2    0    0 -0.27633713264E+01  0.13469130480E+03 -0.33841822220E+03  0.38512854750E+03  0.12509085166E+03 0.  0.
         23    2    1    2    0    0  0.27633713264E+01 -0.13469130480E+03 -0.54734685339E+03  0.57095508942E+03  0.90839156788E+02 0.  0.
          5    1    3    3  502    0  0.56652479150E+02  0.36183555972E+02 -0.14826112983E+03  0.16284221852E+03  0.41800000000E+01 0. -1.
         -5    1    3    3    0  502 -0.59415850476E+02  0.98507748828E+02 -0.19015709238E+03  0.22228632897E+03  0.41800000000E+01 0. -1.
        -11    1    4    4    0    0 -0.32350328304E+02 -0.95690296556E+02 -0.44027939642E+03  0.45171796899E+03  0.00000000000E+00 0.  1.
         11    1    4    4    0    0  0.35113699631E+02 -0.39001008244E+02 -0.10706745697E+03  0.11923712043E+03  0.00000000000E+00 0. -1.
</event>
<event>
 8    1  0.6380400E-009  0.1040443E+03  0.7561462E-02  0.1272014E+00
         -2   -1    0    0    0  501 -0.00000000000E+00  0.00000000000E+00  0.26247185865E+02  0.26247185865E+02  0.00000000000E+00 0.  1.
          2   -1    0    0  501    0  0.00000000000E+00 -0.00000000000E+00 -0.59109113060E+03  0.59109113060E+03  0.00000000000E+00 0. -1.
         25    2    1    2    0    0  0.32388631093E+02  0.21834767998E+02 -0.20546125298E+03  0.24369490663E+03  0.12508837085E+03 0.  0.
         23    2    1    2    0    0 -0.32388631093E+02 -0.21834767998E+02 -0.35938269175E+03  0.37364340984E+03  0.94486496733E+02 0.  0.
          5    1    3    3  502    0 -0.12124392653E+02 -0.37902293800E+02 -0.22048699759E+02  0.45685909573E+02  0.41800000000E+01 0.  1.
         -5    1    3    3    0  502  0.44513023746E+02  0.59737061797E+02 -0.18341255322E+03  0.19800899706E+03  0.41800000000E+01 0.  1.
        -11    1    4    4    0    0  0.18483774699E+01 -0.49443783364E+02 -0.11288006504E+03  0.12324777197E+03  0.00000000000E+00 0.  1.
         11    1    4    4    0    0 -0.34237008563E+02  0.27609015367E+02 -0.24650262672E+03  0.25039563787E+03  0.00000000000E+00 0. -1.
</event>
<event>
 8    1  0.6380400E-009  0.1053483E+03  0.7561462E-02  0.1269435E+00
         -4   -1    0    0    0  501 -0.00000000000E+00  0.00000000000E+00  0.45083392745E+03  0.45083392745E+03  0.00000000000E+00 0. -1.
          4   -1    0    0  501    0  0.00000000000E+00 -0.00000000000E+00 -0.38423873865E+02  0.38423873865E+02  0.00000000000E+00 0.  1.
         25    2    1    2    0    0  0.64018843337E+02 -0.60403847929E+01  0.15570913141E+03  0.20982776804E+03  0.12508980808E+03 0.  0.
         23    2    1    2    0    0 -0.64018843337E+02  0.60403847929E+01  0.25670092217E+03  0.27943003327E+03  0.89726704495E+02 0.  0.
          5    1    3    3  502    0  0.64120482858E+02 -0.50721432548E+02  0.52412366537E+02  0.97204056540E+02  0.41800000000E+01 0.  1.
         -5    1    3    3    0  502 -0.10163952175E+00  0.44681047755E+02  0.10329676487E+03  0.11262371150E+03  0.41800000000E+01 0.  1.
        -11    1    4    4    0    0 -0.60523000694E+02  0.24408359894E+02  0.25177399070E+03  0.26009410612E+03  0.00000000000E+00 0. -1.
         11    1    4    4    0    0 -0.34958426430E+01 -0.18367975101E+02  0.49269314733E+01  0.19335927152E+02  0.00000000000E+00 0.  1.
</event>
<event>
 8    1  0.6380400E-009  0.9397758E+02  0.7561462E-02  0.1293496E+00
          2   -1    0    0  501    0  0.00000000000E+00  0.00000000000E+00  0.22448926716E+03  0.22448926716E+03  0.00000000000E+00 0. -1.
         -2   -1    0    0    0  501 -0.00000000000E+00 -0.00000000000E+00 -0.72053414929E+02  0.72053414929E+02  0.00000000000E+00 0.  1.
         25    2    1    2    0    0  0.46304552658E+02 -0.22019032193E+02  0.36032535662E+02  0.13991362638E+03  0.12509408398E+03 0.  0.
         23    2    1    2    0    0 -0.46304552658E+02  0.22019032193E+02  0.11640331657E+03  0.15662905570E+03  0.91400107261E+02 0.  0.
          5    1    3    3  502    0 -0.31025659341E+02 -0.44551739471E+02  0.17010638824E+02  0.57046325567E+02  0.41800000000E+01 0.  1.
         -5    1    3    3    0  502  0.77330211999E+02  0.22532707278E+02  0.19021896837E+02  0.82867300815E+02  0.41800000000E+01 0.  1.
        -11    1    4    4    0    0 -0.33950788354E+02  0.22073529367E+02  0.13122651846E+03  0.13733279242E+03  0.00000000000E+00 0. -1.
         11    1    4    4    0    0 -0.12353764304E+02 -0.54497174201E-01 -0.14823201888E+02  0.19296263282E+02  0.00000000000E+00 0.  1.
</event>
<event>
 8    1  0.6380400E-009  0.1939517E+03  0.7561462E-02  0.1154945E+00
          2   -1    0    0  501    0  0.00000000000E+00  0.00000000000E+00  0.27755003868E+03  0.27755003868E+03  0.00000000000E+00 0.  1.
         -2   -1    0    0    0  501 -0.00000000000E+00 -0.00000000000E+00 -0.18908813214E+03  0.18908813214E+03  0.00000000000E+00 0. -1.
         25    2    1    2    0    0  0.13315379397E+03 -0.13104183363E+03  0.12176619111E+03  0.25569045381E+03  0.12509479550E+03 0.  0.
         23    2    1    2    0    0 -0.13315379397E+03  0.13104183363E+03 -0.33304284573E+02  0.21094771702E+03  0.92129631150E+02 0.  0.
          5    1    3    3  502    0  0.81547294225E+02 -0.30660912399E+02  0.11251844331E+03  0.14236546361E+03  0.41800000000E+01 0. -1.
         -5    1    3    3    0  502  0.51606499741E+02 -0.10038092123E+03  0.92477478033E+01  0.11332499020E+03  0.41800000000E+01 0. -1.
        -11    1    4    4    0    0 -0.35244998043E+02  0.46704677093E+02 -0.54542225207E+02  0.79989943617E+02  0.00000000000E+00 0.  1.
         11    1    4    4    0    0 -0.97908795923E+02  0.84337156540E+02  0.21237940634E+02  0.13095777340E+03  0.00000000000E+00 0. -1.
</event>
<event>
 8    1  0.6380400E-009  0.9987662E+02  0.7561462E-02  0.1280556E+00
          2   -1    0    0  501    0  0.00000000000E+00  0.00000000000E+00  0.25177110556E+03  0.25177110556E+03  0.00000000000E+00 0. -1.
         -2   -1    0    0    0  501 -0.00000000000E+00 -0.00000000000E+00 -0.70551374434E+02  0.70551374434E+02  0.00000000000E+00 0.  1.
         25    2    1    2    0    0 -0.21384822304E+02 -0.68957754514E+02  0.61078328254E+02  0.15683495811E+03  0.12511658311E+03 0.  0.
         23    2    1    2    0    0  0.21384822304E+02  0.68957754514E+02  0.12014140288E+03  0.16548752189E+03  0.87975455007E+02 0.  0.
          5    1    3    3  502    0  0.31697573147E+02 -0.43859576157E+02  0.78508297856E+02  0.95443301475E+02  0.41800000000E+01 0. -1.
         -5    1    3    3    0  502 -0.53082395451E+02 -0.25098178357E+02 -0.17429969603E+02  0.61391656632E+02  0.41800000000E+01 0. -1.
        -11    1    4    4    0    0 -0.15258871261E+02  0.15074067025E+02 -0.70479192050E+01  0.22577285354E+02  0.00000000000E+00 0.  1.
         11    1    4    4    0    0  0.36643693565E+02  0.53883687489E+02  0.12718932208E+03  0.14291023654E+03  0.00000000000E+00 0. -1.
</event>
<event>
 8    1  0.6380400E-009  0.1162040E+03  0.7561462E-02  0.1249494E+00
          2   -1    0    0  501    0  0.00000000000E+00  0.00000000000E+00  0.48415371894E+02  0.48415371894E+02  0.00000000000E+00 0. -1.
         -2   -1    0    0    0  501 -0.00000000000E+00 -0.00000000000E+00 -0.41328129764E+03  0.41328129764E+03  0.00000000000E+00 0.  1.
         25    2    1    2    0    0  0.30945853542E+02 -0.61478112822E+02 -0.10398309094E+03  0.17662818897E+03  0.12509128558E+03 0.  0.
         23    2    1    2    0    0 -0.30945853542E+02  0.61478112822E+02 -0.26088283481E+03  0.28506848057E+03  0.92016199165E+02 0.  0.
          5    1    3    3  502    0  0.22289462859E+02  0.25067233333E+02 -0.79169665156E+02  0.86084229813E+02  0.41800000000E+01 0.  1.
         -5    1    3    3    0  502  0.86563906831E+01 -0.86545346155E+02 -0.24813425788E+02  0.90543959158E+02  0.41800000000E+01 0.  1.
        -11    1    4    4    0    0 -0.19024479661E+02  0.83955549222E+02 -0.22641086218E+03  0.24222374694E+03  0.00000000000E+00 0.  1.
         11    1    4    4    0    0 -0.11921373881E+02 -0.22477436400E+02 -0.34471972626E+02  0.42844733621E+02  0.00000000000E+00 0. -1.
</event>
<event>
 8    1  0.6380400E-009  0.8238589E+02  0.7561462E-02  0.1322414E+00
          1   -1    0    0  501    0  0.00000000000E+00  0.00000000000E+00  0.55878236790E+02  0.55878236790E+02  0.00000000000E+00 0. -1.
         -1   -1    0    0    0  501 -0.00000000000E+00 -0.00000000000E+00 -0.27409869516E+03  0.27409869516E+03  0.00000000000E+00 0.  1.
         25    2    1    2    0    0 -0.35846150873E+02 -0.22646687046E+01 -0.18397781655E+03  0.22535698458E+03  0.12509139961E+03 0.  0.
         23    2    1    2    0    0  0.35846150873E+02  0.22646687046E+01 -0.34242641816E+02  0.10461994737E+03  0.92101572260E+02 0.  0.
          5    1    3    3  502    0 -0.56712662417E+02  0.17619972564E+02 -0.18683608629E+03  0.19609177711E+03  0.41800000000E+01 0. -1.
         -5    1    3    3    0  502  0.20866511544E+02 -0.19884641268E+02  0.28582697309E+01  0.29265207469E+02  0.41800000000E+01 0. -1.
        -11    1    4    4    0    0  0.15592916734E+02 -0.32404670943E+02 -0.49913292363E+02  0.61518602924E+02  0.00000000000E+00 0.  1.
         11    1    4    4    0    0  0.20253234139E+02  0.34669339647E+02  0.15670650547E+02  0.43101344448E+02  0.00000000000E+00 0. -1.
</event>
<event>
 8    1  0.6380400E-009  0.1466768E+03  0.7561462E-02  0.1204617E+00
          1   -1    0    0  501    0  0.00000000000E+00  0.00000000000E+00  0.38380445127E+03  0.38380445127E+03  0.00000000000E+00 0. -1.
         -1   -1    0    0    0  501 -0.00000000000E+00 -0.00000000000E+00 -0.80896261570E+02  0.80896261570E+02  0.00000000000E+00 0.  1.
         25    2    1    2    0    0  0.74244999098E+02  0.88154902730E+02  0.26247052923E+03  0.31276400529E+03  0.12508771931E+03 0.  0.
         23    2    1    2    0    0 -0.74244999098E+02 -0.88154902730E+02  0.40437660468E+02  0.15193670755E+03  0.90365656920E+02 0.  0.
          5    1    3    3  502    0  0.12270386823E+02  0.10460542656E+03  0.15215433155E+03  0.18509800287E+03  0.41800000000E+01 0. -1.
         -5    1    3    3    0  502  0.61974612276E+02 -0.16450523833E+02  0.11031619768E+03  0.12766600241E+03  0.41800000000E+01 0. -1.
        -11    1    4    4    0    0 -0.51346003598E+02 -0.26209083166E+02  0.59851592084E+02  0.83099586045E+02  0.00000000000E+00 0. -1.
         11    1    4    4    0    0 -0.22898995500E+02 -0.61945819564E+02 -0.19413931615E+02  0.68837121506E+02  0.00000000000E+00 0.  1.
</event>
<event>
 8    1  0.6380400E-009  0.1123779E+03  0.7561462E-02  0.1256229E+00
          1   -1    0    0  501    0  0.00000000000E+00  0.00000000000E+00  0.38365738087E+03  0.38365738087E+03  0.00000000000E+00 0. -1.
         -1   -1    0    0    0  501 -0.00000000000E+00 -0.00000000000E+00 -0.92745183796E+02  0.92745183796E+02  0.00000000000E+00 0.  1.
         25    2    1    2    0    0  0.76721102579E+02  0.65093259986E+02  0.54612208352E+01  0.16062568672E+03  0.12509007244E+03 0.  0.
         23    2    1    2    0    0 -0.76721102579E+02 -0.65093259986E+02  0.28545097624E+03  0.31577687795E+03  0.90052855233E+02 0.  0.
          5    1    3    3  502    0  0.42912321424E+02  0.44517926648E+02 -0.58545834116E+02  0.85254913145E+02  0.41800000000E+01 0. -1.
         -5    1    3    3    0  502  0.33808781156E+02  0.20575333338E+02  0.64007054952E+02  0.75370773572E+02  0.41800000000E+01 0. -1.
        -11    1    4    4    0    0 -0.14690860194E+02  0.15452325561E+02  0.11776973170E+03  0.11968419045E+03  0.00000000000E+00 0. -1.
         11    1    4    4    0    0 -0.62030242385E+02 -0.80545585548E+02  0.16768124454E+03  0.19609268750E+03  0.00000000000E+00 0.  1.
</event>
<event>
 8    1  0.6380400E-009  0.1327002E+03  0.7561462E-02  0.1223503E+00
         -1   -1    0    0    0  501 -0.00000000000E+00  0.00000000000E+00  0.18284635781E+02  0.18284635781E+02  0.00000000000E+00 0. -1.
          1   -1    0    0  501    0  0.00000000000E+00 -0.00000000000E+00 -0.10270902563E+04  0.10270902563E+04  0.00000000000E+00 0.  1.
         25    2    1    2    0    0 -0.13449117917E+02  0.77072489551E+02 -0.67941990032E+03  0.69525601293E+03  0.12509386534E+03 0.  0.
         23    2    1    2    0    0  0.13449117917E+02 -0.77072489551E+02 -0.32938572021E+03  0.35011887916E+03  0.89259338159E+02 0.  0.
          5    1    3    3  502    0  0.50276660095E+02  0.64330751917E+02 -0.41070838018E+03  0.41876608524E+03  0.41800000000E+01 0.  1.
         -5    1    3    3    0  502 -0.63725778012E+02  0.12741737634E+02 -0.26871152014E+03  0.27648992769E+03  0.41800000000E+01 0.  1.
        -11    1    4    4    0    0  0.51122132145E+02 -0.34483010316E+02 -0.16202714965E+03  0.17336478195E+03  0.00000000000E+00 0.  1.
         11    1    4    4    0    0 -0.37673014227E+02 -0.42589479235E+02 -0.16735857056E+03  0.17675409721E+03  0.00000000000E+00 0. -1.
</event>
<event>
 8    1  0.6380400E-009  0.1348997E+03  0.7561462E-02  0.1220361E+00
         -3   -1    0    0    0  501 -0.00000000000E+00  0.00000000000E+00  0.57697560354E+02  0.57697560354E+02  0.00000000000E+00 0.  1.
          3   -1    0    0  501    0  0.00000000000E+00 -0.00000000000E+00 -0.41064297349E+03  0.41064297349E+03  0.00000000000E+00 0. -1.
         25    2    1    2    0    0  0.10819043641E+03 -0.55792701884E+01 -0.17419355596E+03  0.24027185160E+03  0.12510343300E+03 0.  0.
         23    2    1    2    0    0 -0.10819043641E+03  0.55792701884E+01 -0.17875185718E+03  0.22806868224E+03  0.91251293633E+02 0.  0.
          5    1    3    3  502    0  0.76909809780E+02 -0.59919500563E+02 -0.75984843708E+02  0.12367956283E+03  0.41800000000E+01 0. -1.
         -5    1    3    3    0  502  0.31280626628E+02  0.54340230375E+02 -0.98208712249E+02  0.11659228877E+03  0.41800000000E+01 0. -1.
        -11    1    4    4    0    0 -0.20625032543E+02  0.70495581253E+01  0.68455490787E+01  0.22846220242E+02  0.00000000000E+00 0.  1.
         11    1    4    4    0    0 -0.87565403866E+02 -0.14702879370E+01 -0.18559740626E+03  0.20522246200E+03  0.00000000000E+00 0. -1.
</event>
<event>
 8    1  0.6380400E-009  0.9847965E+02  0.7561462E-02  0.1283526E+00
         -2   -1    0    0    0  501 -0.00000000000E+00  0.00000000000E+00  0.27396649208E+02  0.27396649208E+02  0.00000000000E+00 0.  1.
          2   -1    0    0  501    0  0.00000000000E+00 -0.00000000000E+00 -0.82747750358E+03  0.82747750358E+03  0.00000000000E+00 0. -1.
         25    2    1    2    0    0  0.43550372776E+02  0.37842642045E+02 -0.67942069236E+03  0.69324509322E+03  0.12509029355E+03 0.  0.
         23    2    1    2    0    0 -0.43550372776E+02 -0.37842642045E+02 -0.12066016202E+03  0.16162905957E+03  0.90754491209E+02 0.  0.
          5    1    3    3  502    0 -0.24049113133E+02  0.26593827119E+02 -0.49737456013E+03  0.49868278188E+03  0.41800000000E+01 0.  1.
         -5    1    3    3    0  502  0.67599485909E+02  0.11248814926E+02 -0.18204613223E+03  0.19456231134E+03  0.41800000000E+01 0.  1.
        -11    1    4    4    0    0 -0.61789442906E+02 -0.16153115004E+02 -0.11667535898E+03  0.13301126934E+03  0.00000000000E+00 0. -1.
         11    1    4    4    0    0  0.18239070130E+02 -0.21689527041E+02 -0.39848030385E+01  0.28617790232E+02  0.00000000000E+00 0.  1.
</event>
<event>
 8    1  0.6380400E-009  0.1551765E+03  0.7561462E-02  0.1194253E+00
         -1   -1    0    0    0  501 -0.00000000000E+00  0.00000000000E+00  0.15473297540E+03  0.15473297540E+03  0.00000000000E+00 0.  1.
          1   -1    0    0  501    0  0.00000000000E+00 -0.00000000000E+00 -0.25295655245E+03  0.25295655245E+03  0.00000000000E+00 0. -1.
         25    2    1    2    0    0 -0.15384213949E+03  0.90690821756E+01  0.98427641557E+01  0.19873725502E+03  0.12509981772E+03 0.  0.
         23    2    1    2    0    0  0.15384213949E+03 -0.90690821756E+01 -0.10806634121E+03  0.20895227282E+03  0.90736244584E+02 0.  0.
          5    1    3    3  502    0 -0.14691449040E+03  0.10623696954E+02 -0.36383406674E+02  0.15178259158E+03  0.41800000000E+01 0.  1.
         -5    1    3    3    0  502 -0.69276490890E+01 -0.15546147785E+01  0.46226170830E+02  0.46954663439E+02  0.41800000000E+01 0.  1.
        -11    1    4    4    0    0  0.10864806559E+03 -0.12846035865E+02 -0.11966674349E+03  0.16214053254E+03  0.00000000000E+00 0.  1.
         11    1    4    4    0    0  0.45194073903E+02  0.37769536896E+01  0.11600402288E+02  0.46811740284E+02  0.00000000000E+00 0. -1.
</event>
<event>
 8    1  0.6380400E-009  0.1788531E+03  0.7561462E-02  0.1168918E+00
         -2   -1    0    0    0  501 -0.00000000000E+00  0.00000000000E+00  0.36984936385E+02  0.36984936385E+02  0.00000000000E+00 0.  1.
          2   -1    0    0  501    0  0.00000000000E+00 -0.00000000000E+00 -0.11549235333E+04  0.11549235333E+04  0.00000000000E+00 0. -1.
         25    2    1    2    0    0  0.51649147565E+02 -0.16137021679E+03 -0.71187011489E+03  0.74237112034E+03  0.12509132075E+03 0.  0.
         23    2    1    2    0    0 -0.51649147565E+02  0.16137021679E+03 -0.40606848205E+03  0.44953734937E+03  0.92109907478E+02 0.  0.
          5    1    3    3  502    0  0.16693748506E+02 -0.24593050856E+02 -0.19618597695E+02  0.35858906357E+02  0.41800000000E+01 0. -1.
         -5    1    3    3    0  502  0.34955399059E+02 -0.13677716593E+03 -0.69225151720E+03  0.70651221398E+03  0.41800000000E+01 0. -1.
        -11    1    4    4    0    0 -0.63151642232E+02  0.69654147386E+02 -0.14723538247E+03  0.17469427013E+03  0.00000000000E+00 0.  1.
         11    1    4    4    0    0  0.11502494667E+02  0.91716069403E+02 -0.25883309957E+03  0.27484307924E+03  0.00000000000E+00 0. -1.
</event>
<event>
 8    1  0.6380400E-009  0.1700090E+03  0.7561462E-02  0.1177838E+00
         -2   -1    0    0    0  501 -0.00000000000E+00  0.00000000000E+00  0.16885315986E+03  0.16885315986E+03  0.00000000000E+00 0.  1.
          2   -1    0    0  501    0  0.00000000000E+00 -0.00000000000E+00 -0.25552798491E+03  0.25552798491E+03  0.00000000000E+00 0. -1.
         25    2    1    2    0    0 -0.14743273267E+03 -0.78549729627E+02  0.12348426790E+02  0.20906601716E+03  0.12509854196E+03 0.  0.
         23    2    1    2    0    0  0.14743273267E+03  0.78549729627E+02 -0.99023251840E+02  0.21531512760E+03  0.92997468149E+02 0.  0.
          5    1    3    3  502    0 -0.28811027721E+02 -0.22880614311E+01  0.54491467833E+02  0.61823159172E+02  0.41800000000E+01 0.  1.
         -5    1    3    3    0  502 -0.11862170495E+03 -0.76261668196E+02 -0.42143041043E+02  0.14724285799E+03  0.41800000000E+01 0.  1.
        -11    1    4    4    0    0  0.66481168400E+02  0.18706507630E+02  0.66299003493E+01  0.69380362915E+02  0.00000000000E+00 0.  1.
         11    1    4    4    0    0  0.80951564272E+02  0.59843221997E+02 -0.10565315219E+03  0.14593476469E+03  0.00000000000E+00 0. -1.
</event>
<event>
 8    1  0.6380400E-009  0.1829566E+03  0.7561462E-02  0.1164972E+00
         -1   -1    0    0    0  501 -0.00000000000E+00  0.00000000000E+00  0.84316823812E+02  0.84316823812E+02  0.00000000000E+00 0.  1.
          1   -1    0    0  501    0  0.00000000000E+00 -0.00000000000E+00 -0.51071513547E+03  0.51071513547E+03  0.00000000000E+00 0. -1.
         25    2    1    2    0    0  0.38664110351E+01 -0.17585703021E+03 -0.20667945679E+03  0.29883808717E+03  0.12508860968E+03 0.  0.
         23    2    1    2    0    0 -0.38664110351E+01  0.17585703021E+03 -0.21971885487E+03  0.29619387212E+03  0.92270203687E+02 0.  0.
          5    1    3    3  502    0 -0.77987447176E+01 -0.13639632239E+03 -0.65201110073E+02  0.15143788937E+03  0.41800000000E+01 0. -1.
         -5    1    3    3    0  502  0.11665155753E+02 -0.39460707814E+02 -0.14147834672E+03  0.14740019780E+03  0.41800000000E+01 0. -1.
        -11    1    4    4    0    0  0.23348517319E+02  0.14439340320E+03 -0.12374513822E+03  0.19159192932E+03  0.00000000000E+00 0.  1.
         11    1    4    4    0    0 -0.27214928354E+02  0.31463627011E+02 -0.95973716646E+02  0.10460194280E+03  0.00000000000E+00 0. -1.
</event>
<event>
 8    1  0.6380400E-009  0.1210667E+03  0.7561462E-02  0.1241348E+00
         -2   -1    0    0    0  501 -0.00000000000E+00  0.00000000000E+00  0.46279806787E+02  0.46279806787E+02  0.00000000000E+00 0. -1.
          2   -1    0    0  501    0  0.00000000000E+00 -0.00000000000E+00 -0.41446195989E+03  0.41446195989E+03  0.00000000000E+00 0.  1.
         25    2    1    2    0    0 -0.14549536116E+02  0.84490339594E+02 -0.19075335443E+03  0.24368193717E+03  0.12507492869E+03 0.  0.
         23    2    1    2    0    0  0.14549536116E+02 -0.84490339594E+02 -0.17742879866E+03  0.21705982950E+03  0.91014748825E+02 0.  0.
          5    1    3    3  502    0 -0.37735235796E+01 -0.32504857172E+02 -0.30489972003E+02  0.44921220071E+02  0.41800000000E+01 0. -1.
         -5    1    3    3    0  502 -0.10776012536E+02  0.11699519677E+03 -0.16026338243E+03  0.19876071710E+03  0.41800000000E+01 0. -1.
        -11    1    4    4    0    0 -0.10277988948E+02 -0.29653603240E+02 -0.14564620180E+03  0.14898922558E+03  0.00000000000E+00 0.  1.
         11    1    4    4    0    0  0.24827525064E+02 -0.54836736354E+02 -0.31782596867E+02  0.68070603922E+02  0.00000000000E+00 0. -1.
</event>
<event>
 8    1  0.6380400E-009  0.1335860E+03  0.7561462E-02  0.1222230E+00
          2   -1    0    0  501    0  0.00000000000E+00  0.00000000000E+00  0.80065950978E+02  0.80065950978E+02  0.00000000000E+00 0. -1.
         -2   -1    0    0    0  501 -0.00000000000E+00 -0.00000000000E+00 -0.26710236856E+03  0.26710236856E+03  0.00000000000E+00 0.  1.
         25    2    1    2    0    0  0.64629401610E+02 -0.70762391958E+02 -0.10335725634E+03  0.18846425834E+03  0.12510706840E+03 0.  0.
         23    2    1    2    0    0 -0.64629401610E+02  0.70762391958E+02 -0.83679161244E+02  0.15870406120E+03  0.94870972101E+02 0.  0.
          5    1    3    3  502    0  0.48547516641E+02 -0.96991009380E+02 -0.11227074002E+03  0.15616116270E+03  0.41800000000E+01 0.  1.
         -5    1    3    3    0  502  0.16081884969E+02  0.26228617421E+02  0.89134836833E+01  0.32303095631E+02  0.41800000000E+01 0.  1.
        -11    1    4    4    0    0  0.44198753074E+01  0.57001780972E+02 -0.63535214087E+02  0.85471994014E+02  0.00000000000E+00 0.  1.
         11    1    4    4    0    0 -0.69049276917E+02  0.13760610986E+02 -0.20143947157E+02  0.73232067188E+02  0.00000000000E+00 0. -1.
</event>
<event>
 8    1  0.6380400E-009  0.1548560E+03  0.7561462E-02  0.1194630E+00
         -1   -1    0    0    0  501 -0.00000000000E+00  0.00000000000E+00  0.96459530827E+02  0.96459530827E+02  0.00000000000E+00 0.  1.
          1   -1    0    0  501    0  0.00000000000E+00 -0.00000000000E+00 -0.34493343538E+03  0.34493343538E+03  0.00000000000E+00 0. -1.
         25    2    1    2    0    0 -0.24596801227E+02  0.12332552323E+03 -0.22025103728E+03  0.28279325145E+03  0.12508923350E+03 0.  0.
         23    2    1    2    0    0  0.24596801227E+02 -0.12332552323E+03 -0.28222867275E+02  0.15859971475E+03  0.92429172733E+02 0.  0.
          5    1    3    3  502    0 -0.56923198568E+02  0.97093409802E+02 -0.21212625967E+03  0.24017161199E+03  0.41800000000E+01 0.  1.
         -5    1    3    3    0  502  0.32326397342E+02  0.26232113425E+02 -0.81247776059E+01  0.42621639469E+02  0.41800000000E+01 0.  1.
        -11    1    4    4    0    0 -0.76324660997E+01 -0.12277389894E+03 -0.15658299937E+02  0.12400349655E+03  0.00000000000E+00 0.  1.
         11    1    4    4    0    0  0.32229267326E+02 -0.55162429180E+00 -0.12564567338E+02  0.34596218206E+02  0.00000000000E+00 0. -1.
</event>
<event>
 8    1  0.6380400E-009  0.1040074E+03  0.7561462E-02  0.1272088E+00
          2   -1    0    0  501    0  0.00000000000E+00  0.00000000000E+00  0.22002537777E+03  0.22002537777E+03  0.00000000000E+00 0. -1.
         -2   -1    0    0    0  501 -0.00000000000E+00 -0.00000000000E+00 -0.69748595783E+02  0.69748595783E+02  0.00000000000E+00 0.  1.
         25    2    1    2    0    0 -0.26571695203E+02 -0.34944894061E+02  0.33161324146E+02  0.13665719762E+03  0.12509322777E+03 0.  0.
         23    2    1    2    0    0  0.26571695203E+02  0.34944894061E+02  0.11711545784E+03  0.15311677594E+03  0.88326190915E+02 0.  0.
          5    1    3    3  502    0 -0.21416992684E+02  0.40185404543E+02 -0.13854354392E+02  0.47780433752E+02  0.41800000000E+01 0.  1.
         -5    1    3    3    0  502 -0.51547025189E+01 -0.75130298604E+02  0.47015678538E+02  0.88876763863E+02  0.41800000000E+01 0.  1.
        -11    1    4    4    0    0  0.49715932907E+02  0.64164646467E+01  0.29627601893E+02  0.58229200555E+02  0.00000000000E+00 0.  1.
         11    1    4    4    0    0 -0.23144237704E+02  0.28528429414E+02  0.87487855947E+02  0.94887575382E+02  0.00000000000E+00 0. -1.
</event>
<event>
 8    1  0.6380400E-009  0.1644509E+03  0.7561462E-02  0.1183761E+00
         -2   -1    0    0    0  501 -0.00000000000E+00  0.00000000000E+00  0.78190028548E+02  0.78190028548E+02  0.00000000000E+00 0.  1.
          2   -1    0    0  501    0  0.00000000000E+00 -0.00000000000E+00 -0.35895872051E+03  0.35895872051E+03  0.00000000000E+00 0. -1.
         25    2    1    2    0    0 -0.10935523437E+03 -0.61185343393E+02 -0.17712094338E+03  0.25044275895E+03  0.12509010111E+03 0.  0.
         23    2    1    2    0    0  0.10935523437E+03  0.61185343393E+02 -0.10364774858E+03  0.18670599011E+03  0.91728171384E+02 0.  0.
          5    1    3    3  502    0 -0.75876424941E+02  0.28403921772E+02 -0.75324348421E+02  0.11070340780E+03  0.41800000000E+01 0.  1.
         -5    1    3    3    0  502 -0.33478809432E+02 -0.89589265165E+02 -0.10179659496E+03  0.13973935115E+03  0.41800000000E+01 0.  1.
        -11    1    4    4    0    0  0.92574416673E+02  0.42333531337E+01 -0.44146048667E+02  0.10264900152E+03  0.00000000000E+00 0.  1.
         11    1    4    4    0    0  0.16780817700E+02  0.56951990259E+02 -0.59501699912E+02  0.84056988583E+02  0.00000000000E+00 0. -1.
</event>
<event>
 8    1  0.6380400E-009  0.8756848E+02  0.7561462E-02  0.1308849E+00
          2   -1    0    0  501    0  0.00000000000E+00  0.00000000000E+00  0.38550748586E+03  0.38550748586E+03  0.00000000000E+00 0. -1.
         -2   -1    0    0    0  501 -0.00000000000E+00 -0.00000000000E+00 -0.35055357342E+02  0.35055357342E+02  0.00000000000E+00 0.  1.
         25    2    1    2    0    0  0.25344178901E+02 -0.19416265026E+02  0.14096718887E+03  0.19115226255E+03  0.12509244737E+03 0.  0.
         23    2    1    2    0    0 -0.25344178901E+02  0.19416265026E+02  0.20948493965E+03  0.22941058065E+03  0.87897416484E+02 0.  0.
          5    1    3    3  502    0 -0.27520447092E+02 -0.16340233648E+02 -0.77824937600E+01  0.33202678400E+02  0.41800000000E+01 0. -1.
         -5    1    3    3    0  502  0.52864625993E+02 -0.30760313777E+01  0.14874968263E+03  0.15794958415E+03  0.41800000000E+01 0. -1.
        -11    1    4    4    0    0 -0.45752140239E+02 -0.16329800660E+02  0.14487788766E+03  0.15280550729E+03  0.00000000000E+00 0.  1.
         11    1    4    4    0    0  0.20407961338E+02  0.35746065686E+02  0.64607051985E+02  0.76605073358E+02  0.00000000000E+00 0. -1.
</event>
<event>
 8    1  0.6380400E-009  0.1612800E+03  0.7561462E-02  0.1187259E+00
         -1   -1    0    0    0  501 -0.00000000000E+00  0.00000000000E+00  0.10091552744E+04  0.10091552744E+04  0.00000000000E+00 0.  1.
          1   -1    0    0  501    0  0.00000000000E+00 -0.00000000000E+00 -0.34099488314E+02  0.34099488314E+02  0.00000000000E+00 0. -1.
         25    2    1    2    0    0  0.11890398380E+03  0.81576104976E+02  0.64223264599E+03  0.67000535338E+03  0.12510628968E+03 0.  0.
         23    2    1    2    0    0 -0.11890398380E+03 -0.81576104976E+02  0.33282314013E+03  0.37324940936E+03  0.88040108585E+02 0.  0.
          5    1    3    3  502    0  0.12536912945E+02  0.51731553427E+02  0.40230125904E+03  0.40582890882E+03  0.41800000000E+01 0.  1.
         -5    1    3    3    0  502  0.10636707085E+03  0.29844551549E+02  0.23993138695E+03  0.26417644457E+03  0.41800000000E+01 0.  1.
        -11    1    4    4    0    0 -0.22046317663E+02 -0.53351592135E+02  0.18864277843E+03  0.19727779997E+03  0.00000000000E+00 0.  1.
         11    1    4    4    0    0 -0.96857666137E+02 -0.28224512841E+02  0.14418036170E+03  0.17597160940E+03  0.00000000000E+00 0. -1.
</event>
<event>
 8    1  0.6380400E-009  0.1164067E+03  0.7561462E-02  0.1249145E+00
         -1   -1    0    0    0  501 -0.00000000000E+00  0.00000000000E+00  0.21871214010E+02  0.21871214010E+02  0.00000000000E+00 0.  1.
          1   -1    0    0  501    0  0.00000000000E+00 -0.00000000000E+00 -0.73130499554E+03  0.73130499554E+03  0.00000000000E+00 0. -1.
         25    2    1    2    0    0 -0.37227604636E+01 -0.63877860891E+02 -0.35391226039E+03  0.38078279712E+03  0.12508960978E+03 0.  0.
         23    2    1    2    0    0  0.37227604636E+01  0.63877860891E+02 -0.35552152114E+03  0.37239341243E+03  0.90482382622E+02 0.  0.
          5    1    3    3  502    0 -0.60454564612E+02 -0.15272240710E+02 -0.12160735464E+03  0.13672533350E+03  0.41800000000E+01 0.  1.
         -5    1    3    3    0  502  0.56731804149E+02 -0.48605620181E+02 -0.23230490575E+03  0.24405746362E+03  0.41800000000E+01 0.  1.
        -11    1    4    4    0    0  0.28398065604E+01 -0.15679387173E+02 -0.12462552349E+02  0.20229258376E+02  0.00000000000E+00 0.  1.
         11    1    4    4    0    0  0.88295390316E+00  0.79557248064E+02 -0.34305896880E+03  0.35216415405E+03  0.00000000000E+00 0. -1.
</event>
<event>
 8    1  0.6380400E-009  0.7823593E+02  0.7561462E-02  0.1334133E+00
          2   -1    0    0  501    0  0.00000000000E+00  0.00000000000E+00  0.22331560907E+03  0.22331560907E+03  0.00000000000E+00 0. -1.
         -2   -1    0    0    0  501 -0.00000000000E+00 -0.00000000000E+00 -0.65280962788E+02  0.65280962788E+02  0.00000000000E+00 0.  1.
         25    2    1    2    0    0  0.36800892093E+02  0.15606623759E+02  0.12798882167E+03  0.18337687845E+03  0.12509224082E+03 0.  0.
         23    2    1    2    0    0 -0.36800892093E+02 -0.15606623759E+02  0.30045824607E+02  0.10521969341E+03  0.92577318714E+02 0.  0.
          5    1    3    3  502    0  0.30534991095E+02  0.55641862503E+02  0.12767038046E+03  0.14263800682E+03  0.41800000000E+01 0.  1.
         -5    1    3    3    0  502  0.62659009978E+01 -0.40035238744E+02  0.31844121575E+00  0.40738871627E+02  0.41800000000E+01 0.  1.
        -11    1    4    4    0    0  0.43826047402E+01 -0.95407899702E+01 -0.30210203326E+02  0.31982655965E+02  0.00000000000E+00 0.  1.
         11    1    4    4    0    0 -0.41183496833E+02 -0.60658337892E+01  0.60256027933E+02  0.73237037441E+02  0.00000000000E+00 0. -1.
</event>
<event>
 8    1  0.6380400E-009  0.1185393E+03  0.7561462E-02  0.1245526E+00
         -2   -1    0    0    0  501 -0.00000000000E+00  0.00000000000E+00  0.30916215653E+02  0.30916215653E+02  0.00000000000E+00 0.  1.
          2   -1    0    0  501    0  0.00000000000E+00 -0.00000000000E+00 -0.64234492384E+03  0.64234492384E+03  0.00000000000E+00 0. -1.
         25    2    1    2    0    0  0.83296685542E+02  0.32149809138E+02 -0.35271934737E+03  0.38474811197E+03  0.12509285991E+03 0.  0.
         23    2    1    2    0    0 -0.83296685542E+02 -0.32149809138E+02 -0.25870936081E+03  0.28851302752E+03  0.91308737969E+02 0.  0.
          5    1    3    3  502    0 -0.28578796056E+02  0.13123606064E+02 -0.14070196581E+03  0.14423415755E+03  0.41800000000E+01 0. -1.
         -5    1    3    3    0  502  0.11187548160E+03  0.19026203074E+02 -0.21201738156E+03  0.24051395442E+03  0.41800000000E+01 0. -1.
        -11    1    4    4    0    0 -0.18890831337E+02  0.18228469938E+01  0.78591477936E+00  0.18994839873E+02  0.00000000000E+00 0.  1.
         11    1    4    4    0    0 -0.64405854205E+02 -0.33972656132E+02 -0.25949527559E+03  0.26951818765E+03  0.00000000000E+00 0. -1.
</event>
<event>
 8    1  0.6380400E-009  0.1377087E+03  0.7561462E-02  0.1216446E+00
         -1   -1    0    0    0  501 -0.00000000000E+00  0.00000000000E+00  0.31379990935E+03  0.31379990935E+03  0.00000000000E+00 0.  1.
          1   -1    0    0  501    0  0.00000000000E+00 -0.00000000000E+00 -0.72763009112E+02  0.72763009112E+02  0.00000000000E+00 0. -1.
         25    2    1    2    0    0 -0.31286790408E+02 -0.94260619590E+02  0.13052186206E+03  0.20627146850E+03  0.12509210440E+03 0.  0.
         23    2    1    2    0    0  0.31286790408E+02  0.94260619590E+02  0.11051503818E+03  0.18029144996E+03  0.10211515855E+03 0.  0.
          5    1    3    3  502    0  0.28081433313E+02  0.17324898655E+02  0.27037045399E+02  0.42862492160E+02  0.41800000000E+01 0. -1.
         -5    1    3    3    0  502 -0.59368223721E+02 -0.11158551825E+03  0.10348481666E+03  0.16340897634E+03  0.41800000000E+01 0. -1.
        -11    1    4    4    0    0  0.10145400387E+02 -0.69500991261E+01  0.66988584758E+02  0.68108028270E+02  0.00000000000E+00 0.  1.
         11    1    4    4    0    0  0.21141390020E+02  0.10121071872E+03  0.43526453420E+02  0.11218342169E+03  0.00000000000E+00 0. -1.
</event>
<event>
 8    1  0.6380400E-009  0.8286014E+02  0.7561462E-02  0.1321125E+00
         -4   -1    0    0    0  501 -0.00000000000E+00  0.00000000000E+00  0.65732231297E+02  0.65732231297E+02  0.00000000000E+00 0.  1.
          4   -1    0    0  501    0  0.00000000000E+00 -0.00000000000E+00 -0.19527016649E+03  0.19527016649E+03  0.00000000000E+00 0. -1.
         25    2    1    2    0    0 -0.12303901939E+01 -0.19542760701E+02 -0.38876066793E+02  0.13244818930E+03  0.12509093062E+03 0.  0.
         23    2    1    2    0    0  0.12303901939E+01  0.19542760701E+02 -0.90661868401E+02  0.12855420849E+03  0.89012228275E+02 0.  0.
          5    1    3    3  502    0  0.60128516926E+02  0.23352998937E+01 -0.27060722791E+02  0.66110871203E+02  0.41800000000E+01 0. -1.
         -5    1    3    3    0  502 -0.61358907120E+02 -0.21878060595E+02 -0.11815344002E+02  0.66337318096E+02  0.41800000000E+01 0. -1.
        -11    1    4    4    0    0  0.12788634877E+02  0.24430700281E+02 -0.10554421691E+03  0.10908707540E+03  0.00000000000E+00 0. -1.
         11    1    4    4    0    0 -0.11558244684E+02 -0.48879395797E+01  0.14882348505E+02  0.19467133084E+02  0.00000000000E+00 0.  1.
</event>
<event>
 8    1  0.6380400E-009  0.1657634E+03  0.7561462E-02  0.1182339E+00
          1   -1    0    0  501    0  0.00000000000E+00  0.00000000000E+00  0.51561229606E+03  0.51561229606E+03  0.00000000000E+00 0.  1.
         -1   -1    0    0    0  501 -0.00000000000E+00 -0.00000000000E+00 -0.56354327114E+02  0.56354327114E+02  0.00000000000E+00 0. -1.
         25    2    1    2    0    0 -0.11430144252E+03  0.64822888540E+02  0.22256184627E+03  0.28713849598E+03  0.12509162169E+03 0.  0.
         23    2    1    2    0    0  0.11430144252E+03 -0.64822888540E+02  0.23669612267E+03  0.28482812719E+03  0.88516557262E+02 0.  0.
          5    1    3    3  502    0 -0.44179543970E+02 -0.35269985867E+02  0.49641885884E+02  0.75349805856E+02  0.41800000000E+01 0. -1.
         -5    1    3    3    0  502 -0.70121898554E+02  0.10009287441E+03  0.17291996038E+03  0.21178869012E+03  0.41800000000E+01 0. -1.
        -11    1    4    4    0    0 -0.94157979357E+01 -0.17929805159E+02  0.64921691349E+02  0.68007067069E+02  0.00000000000E+00 0.  1.
         11    1    4    4    0    0  0.12371724046E+03 -0.46893083381E+02  0.17177443132E+03  0.21682106012E+03  0.00000000000E+00 0. -1.
</event>
<event>
 8    1  0.6380400E-009  0.1000333E+03  0.7561462E-02  0.1280226E+00
          2   -1    0    0  501    0  0.00000000000E+00  0.00000000000E+00  0.32518944153E+03  0.32518944153E+03  0.00000000000E+00 0. -1.
         -2   -1    0    0    0  501 -0.00000000000E+00 -0.00000000000E+00 -0.39796911126E+02  0.39796911126E+02  0.00000000000E+00 0.  1.
         25    2    1    2    0    0 -0.96388771947E+01 -0.13141974887E+02  0.20623672250E+03  0.24175715913E+03  0.12508924345E+03 0.  0.
         23    2    1    2    0    0  0.96388771947E+01  0.13141974887E+02  0.79155807908E+02  0.12322919353E+03  0.93027806348E+02 0.  0.
          5    1    3    3  502    0  0.37711525418E+02 -0.36589352064E+02  0.36962624180E+02  0.64378939259E+02  0.41800000000E+01 0.  1.
         -5    1    3    3    0  502 -0.47350402613E+02  0.23447377178E+02  0.16927409832E+03  0.17737821987E+03  0.41800000000E+01 0.  1.
        -11    1    4    4    0    0 -0.32195003640E+02  0.34663069897E+02  0.36974071498E+02  0.60042723433E+02  0.00000000000E+00 0.  1.
         11    1    4    4    0    0  0.41833880835E+02 -0.21521095011E+02  0.42181736410E+02  0.63186470093E+02  0.00000000000E+00 0. -1.
</event>
<event>
 8    1  0.6380400E-009  0.4432927E+03  0.7561462E-02  0.1029741E+00
          1   -1    0    0  501    0  0.00000000000E+00  0.00000000000E+00  0.38120831920E+03  0.38120831920E+03  0.00000000000E+00 0. -1.
         -1   -1    0    0    0  501 -0.00000000000E+00 -0.00000000000E+00 -0.54495077463E+03  0.54495077463E+03  0.00000000000E+00 0.  1.
         25    2    1    2    0    0  0.40826262458E+03  0.16172829592E+03 -0.27247109559E+02  0.45741042905E+03  0.12508990085E+03 0.  0.
         23    2    1    2    0    0 -0.40826262458E+03 -0.16172829592E+03 -0.13649534588E+03  0.46874866478E+03  0.90884096275E+02 0.  0.
          5    1    3    3  502    0  0.22700649228E+02 -0.37690177728E+00  0.27122657033E+02  0.35617024790E+02  0.41800000000E+01 0. -1.
         -5    1    3    3    0  502  0.38556197536E+03  0.16210519769E+03 -0.54369766592E+02  0.42179340426E+03  0.41800000000E+01 0. -1.
        -11    1    4    4    0    0 -0.26449600472E+03 -0.66329255291E+02 -0.11066598919E+03  0.29428671017E+03  0.00000000000E+00 0.  1.
         11    1    4    4    0    0 -0.14376661987E+03 -0.95399040624E+02 -0.25829356686E+02  0.17446195461E+03  0.00000000000E+00 0. -1.
</event>
<event>
 8    1  0.6380400E-009  0.9293632E+02  0.7561462E-02  0.1295893E+00
          1   -1    0    0  501    0  0.00000000000E+00  0.00000000000E+00  0.88190059947E+02  0.88190059947E+02  0.00000000000E+00 0. -1.
         -1   -1    0    0    0  501 -0.00000000000E+00 -0.00000000000E+00 -0.15742116109E+03  0.15742116109E+03  0.00000000000E+00 0.  1.
         25    2    1    2    0    0  0.35531862432E+02 -0.11136200149E+02 -0.69033394661E+02  0.14764499887E+03  0.12508760095E+03 0.  0.
         23    2    1    2    0    0 -0.35531862432E+02  0.11136200149E+02 -0.19770648111E+00  0.97966222164E+02  0.90613538699E+02 0.  0.
          5    1    3    3  502    0  0.58189369268E+02  0.72319792687E+01  0.13236461810E+02  0.60257618118E+02  0.41800000000E+01 0.  1.
         -5    1    3    3    0  502 -0.22657506836E+02 -0.18368179417E+02 -0.82269856471E+02  0.87387380753E+02  0.41800000000E+01 0.  1.
        -11    1    4    4    0    0 -0.40907637510E+02  0.46452948394E+02 -0.40824857618E+01  0.62032071633E+02  0.00000000000E+00 0. -1.
         11    1    4    4    0    0  0.53757750779E+01 -0.35316748245E+02  0.38847792807E+01  0.35934150531E+02  0.00000000000E+00 0.  1.
</event>
<event>
 7    1  0.6380400E-009  0.9900093E+02  0.7561462E-02  0.1282411E+00
         -1   -1    0    0    0  501 -0.00000000000E+00  0.00000000000E+00  0.17747803753E+02  0.17747803753E+02  0.00000000000E+00 0.  1.
          1   -1    0    0  501    0  0.00000000000E+00 -0.00000000000E+00 -0.90970667127E+03  0.90970667127E+03  0.00000000000E+00 0. -1.
         25    2    1    2    0    0 -0.44891216920E+02  0.37554751807E+02 -0.77822288754E+03  0.79038247822E+03  0.12509203985E+03 0.  0.
          5    1    3    3  502    0 -0.86425459401E+02  0.41379104969E+02 -0.56393852513E+03  0.57203646989E+03  0.41800000000E+01 0. -1.
         -5    1    3    3    0  502  0.41534242481E+02 -0.38243531624E+01 -0.21428436241E+03  0.21834600832E+03  0.41800000000E+01 0. -1.
        -11    1    1    2    0    0  0.14448734724E+02 -0.21080899078E+02 -0.95444503396E+01  0.27281253148E+02  0.00000000000E+00 0.  1.
         11    1    1    2    0    0  0.30442482197E+02 -0.16473852729E+02 -0.10419152964E+03  0.10979074366E+03  0.00000000000E+00 0. -1.
</event>
<event>
 8    1  0.6380400E-009  0.1107231E+03  0.7561462E-02  0.1259237E+00
          2   -1    0    0  501    0  0.00000000000E+00  0.00000000000E+00  0.37272118771E+03  0.37272118771E+03  0.00000000000E+00 0. -1.
         -2   -1    0    0    0  501 -0.00000000000E+00 -0.00000000000E+00 -0.70980489189E+02  0.70980489189E+02  0.00000000000E+00 0.  1.
         25    2    1    2    0    0  0.65569946791E+02  0.16497869837E+02  0.29931481473E+03  0.33137102972E+03  0.12508318588E+03 0.  0.
         23    2    1    2    0    0 -0.65569946791E+02 -0.16497869837E+02  0.24258837875E+01  0.11233064717E+03  0.89669904378E+02 0.  0.
          5    1    3    3  502    0  0.48951987476E+02 -0.32002631153E+02  0.50772057091E+02  0.77561199448E+02  0.41800000000E+01 0.  1.
         -5    1    3    3    0  502  0.16617959314E+02  0.48500500991E+02  0.24854275764E+03  0.25380983027E+03  0.41800000000E+01 0.  1.
        -11    1    4    4    0    0 -0.71636207593E+02  0.19999562673E+02 -0.51912627809E+01  0.74556541998E+02  0.00000000000E+00 0. -1.
         11    1    4    4    0    0  0.60662608029E+01 -0.36497432511E+02  0.76171465685E+01  0.37774105176E+02  0.00000000000E+00 0.  1.
</event>
<event>
 8    1  0.6380400E-009  0.9544521E+02  0.7561462E-02  0.1290177E+00
         -1   -1    0    0    0  501 -0.00000000000E+00  0.00000000000E+00  0.69352623415E+02  0.69352623415E+02  0.00000000000E+00 0.  1.
          1   -1    0    0  501    0  0.00000000000E+00 -0.00000000000E+00 -0.30213181521E+03  0.30213181521E+03  0.00000000000E+00 0. -1.
         25    2    1    2    0    0 -0.52863173879E+02 -0.85144685971E+01 -0.22975040570E+03  0.26701924788E+03  0.12508804295E+03 0.  0.
         23    2    1    2    0    0  0.52863173879E+02  0.85144685971E+01 -0.30287860929E+01  0.10446519075E+03  0.89648152266E+02 0.  0.
          5    1    3    3  502    0 -0.67973502801E+02 -0.14620316575E+02 -0.48232026883E+02  0.84722792430E+02  0.41800000000E+01 0. -1.
         -5    1    3    3    0  502  0.15110328922E+02  0.61058479779E+01 -0.18151837882E+03  0.18229645545E+03  0.41800000000E+01 0. -1.
        -11    1    4    4    0    0 -0.23445853518E+02  0.14990782702E+02 -0.19067719360E+00  0.27829264651E+02  0.00000000000E+00 0.  1.
         11    1    4    4    0    0  0.76309027397E+02 -0.64763141045E+01 -0.28381088993E+01  0.76635926098E+02  0.00000000000E+00 0. -1.
</event>
<event>
 8    1  0.6380400E-009  0.7059899E+02  0.7561462E-02  0.1358068E+00
         -1   -1    0    0    0  501 -0.00000000000E+00  0.00000000000E+00  0.56533735372E+03  0.56533735372E+03  0.00000000000E+00 0.  1.
          1   -1    0    0  501    0  0.00000000000E+00 -0.00000000000E+00 -0.20382388407E+02  0.20382388407E+02  0.00000000000E+00 0. -1.
         25    2    1    2    0    0  0.89279804494E+01  0.29063704003E-02  0.32408415501E+03  0.34750166832E+03  0.12508861306E+03 0.  0.
         23    2    1    2    0    0 -0.89279804494E+01 -0.29063704003E-02  0.22087081031E+03  0.23821807380E+03  0.88793169766E+02 0.  0.
          5    1    3    3  502    0 -0.24072872444E+02  0.13508871114E+02  0.75278310509E+01  0.28915971829E+02  0.41800000000E+01 0.  1.
         -5    1    3    3    0  502  0.33000852893E+02 -0.13505964743E+02  0.31655632395E+03  0.31858569650E+03  0.41800000000E+01 0.  1.
        -11    1    4    4    0    0 -0.22328719620E+02  0.34086349159E+02  0.17413323846E+03  0.17883745596E+03  0.00000000000E+00 0.  1.
         11    1    4    4    0    0  0.13400739171E+02 -0.34089255529E+02  0.46737571849E+02  0.59380617841E+02  0.00000000000E+00 0. -1.
</event>
<event>
 8    1  0.6380400E-009  0.1370471E+03  0.7561462E-02  0.1217358E+00
         -1   -1    0    0    0  501 -0.00000000000E+00  0.00000000000E+00  0.46157751883E+03  0.46157751883E+03  0.00000000000E+00 0.  1.
          1   -1    0    0  501    0  0.00000000000E+00 -0.00000000000E+00 -0.57837367233E+02  0.57837367233E+02  0.00000000000E+00 0. -1.
         25    2    1    2    0    0  0.20070268610E+02  0.96746798703E+02  0.32823036395E+03  0.36489286106E+03  0.12509544154E+03 0.  0.
         23    2    1    2    0    0 -0.20070268610E+02 -0.96746798703E+02  0.75509787645E+02  0.15452202500E+03  0.91720060174E+02 0.  0.
          5    1    3    3  502    0 -0.52942908886E+02  0.38875235976E+02  0.12429034812E+03  0.14064067196E+03  0.41800000000E+01 0. -1.
         -5    1    3    3    0  502  0.73013177496E+02  0.57871562727E+02  0.20394001583E+03  0.22425218910E+03  0.41800000000E+01 0. -1.
        -11    1    4    4    0    0  0.12215113378E+02 -0.75239984059E+02  0.85418155240E+02  0.11448373439E+03  0.00000000000E+00 0.  1.
         11    1    4    4    0    0 -0.32285381988E+02 -0.21506814644E+02 -0.99083675951E+01  0.40038290606E+02  0.00000000000E+00 0. -1.
</event>
<event>
 8    1  0.6380400E-009  0.1179754E+03  0.7561462E-02  0.1246475E+00
          2   -1    0    0  501    0  0.00000000000E+00  0.00000000000E+00  0.13808986834E+04  0.13808986834E+04  0.00000000000E+00 0. -1.
         -2   -1    0    0    0  501 -0.00000000000E+00 -0.00000000000E+00 -0.13177843840E+02  0.13177843840E+02  0.00000000000E+00 0.  1.
         25    2    1    2    0    0 -0.30910917890E+02 -0.21947008531E+02  0.10703974843E+04  0.10783495539E+04  0.12509928080E+03 0.  0.
         23    2    1    2    0    0  0.30910917890E+02  0.21947008531E+02  0.29732335527E+03  0.31572697331E+03  0.99222921038E+02 0.  0.
          5    1    3    3  502    0  0.48346232833E+02 -0.56068275721E+01  0.46327842105E+03  0.46584671573E+03  0.41800000000E+01 0. -1.
         -5    1    3    3    0  502 -0.79257150724E+02 -0.16340180959E+02  0.60711906325E+03  0.61250283821E+03  0.41800000000E+01 0. -1.
        -11    1    4    4    0    0 -0.28373346625E+02  0.35310567568E+02  0.13530117988E+03  0.14268248757E+03  0.00000000000E+00 0.  1.
         11    1    4    4    0    0  0.59284264516E+02 -0.13363559037E+02  0.16202217539E+03  0.17304448574E+03  0.00000000000E+00 0. -1.
</event>
<event>
 7    1  0.6380400E-009  0.1823357E+03  0.7561462E-02  0.1165562E+00
          1   -1    0    0  501    0  0.00000000000E+00  0.00000000000E+00  0.27918736859E+03  0.27918736859E+03  0.00000000000E+00 0. -1.
         -1   -1    0    0    0  501 -0.00000000000E+00 -0.00000000000E+00 -0.18306901257E+03  0.18306901257E+03  0.00000000000E+00 0.  1.
         23    2    1    2    0    0  0.10129540676E+03 -0.10849530266E+03 -0.87668379334E+02  0.19490685432E+03  0.90944746939E+02 0.  0.
          5    1    1    2  502    0  0.26399303874E+02  0.42890630998E+02  0.48164918206E+02  0.69813044757E+02  0.41800000000E+01 0.  1.
         -5    1    1    2    0  502 -0.12769471064E+03  0.65604671664E+02  0.13562181714E+03  0.19753648208E+03  0.41800000000E+01 0.  1.
        -11    1    3    3    0    0  0.66607437297E+02 -0.11620014628E+02 -0.15915230105E+02  0.69461284126E+02  0.00000000000E+00 0.  1.
         11    1    3    3    0    0  0.34687969465E+02 -0.96875288034E+02 -0.71753149229E+02  0.12544557020E+03  0.00000000000E+00 0. -1.
</event>
<event>
 8    1  0.6380400E-009  0.1889302E+03  0.7561462E-02  0.1159430E+00
          2   -1    0    0  501    0  0.00000000000E+00  0.00000000000E+00  0.11129785841E+04  0.11129785841E+04  0.00000000000E+00 0. -1.
         -2   -1    0    0    0  501 -0.00000000000E+00 -0.00000000000E+00 -0.38403507584E+02  0.38403507584E+02  0.00000000000E+00 0.  1.
         25    2    1    2    0    0  0.15865638272E+03 -0.63407462233E+02  0.44550381093E+03  0.49327210381E+03  0.12510543074E+03 0.  0.
         23    2    1    2    0    0 -0.15865638272E+03  0.63407462233E+02  0.62907126563E+03  0.65810998792E+03  0.90475106585E+02 0.  0.
          5    1    3    3  502    0 -0.87958590831E+01 -0.31145912992E+02  0.30873284382E+02  0.44922901973E+02  0.41800000000E+01 0. -1.
         -5    1    3    3    0  502  0.16745224180E+03 -0.32261549241E+02  0.41463052655E+03  0.44834920184E+03  0.41800000000E+01 0. -1.
        -11    1    4    4    0    0 -0.69833803941E+02  0.88193881362E+01  0.12579841264E+03  0.14415194207E+03  0.00000000000E+00 0. -1.
         11    1    4    4    0    0 -0.88822578776E+02  0.54588074097E+02  0.50327285299E+03  0.51395804585E+03  0.00000000000E+00 0.  1.
</event>
<event>
 8    1  0.6380400E-009  0.1033240E+03  0.7561462E-02  0.1273457E+00
          2   -1    0    0  501    0  0.00000000000E+00  0.00000000000E+00  0.69416391953E+02  0.69416391953E+02  0.00000000000E+00 0. -1.
         -2   -1    0    0    0  501 -0.00000000000E+00 -0.00000000000E+00 -0.18787955471E+03  0.18787955471E+03  0.00000000000E+00 0.  1.
         25    2    1    2    0    0  0.32273827452E+02  0.12319792929E+02 -0.69955088902E+02  0.14742904889E+03  0.12509289651E+03 0.  0.
         23    2    1    2    0    0 -0.32273827452E+02 -0.12319792929E+02 -0.48508073859E+02  0.10986689778E+03  0.92327269872E+02 0.  0.
          5    1    3    3  502    0  0.68402259514E+02 -0.32085389066E+01 -0.17959202786E+01  0.68628431122E+02  0.41800000000E+01 0.  1.
         -5    1    3    3    0  502 -0.36128432063E+02  0.15528331836E+02 -0.68159168624E+02  0.78800617767E+02  0.41800000000E+01 0.  1.
        -11    1    4    4    0    0 -0.35637421236E+02  0.35651137888E+02 -0.22597533379E+02  0.55241994351E+02  0.00000000000E+00 0. -1.
         11    1    4    4    0    0  0.33635937848E+01 -0.47970930817E+02 -0.25910540480E+02  0.54624903428E+02  0.00000000000E+00 0.  1.
</event>
<event>
 8    1  0.6380400E-009  0.9782868E+02  0.7561462E-02  0.1284929E+00
          2   -1    0    0  501    0  0.00000000000E+00  0.00000000000E+00  0.13598176545E+03  0.13598176545E+03  0.00000000000E+00 0.  1.
         -2   -1    0    0    0  501 -0.00000000000E+00 -0.00000000000E+00 -0.12554500173E+03  0.12554500173E+03  0.00000000000E+00 0. -1.
         25    2    1    2    0    0  0.60949224208E+01 -0.35075910692E+02  0.67330962765E+02  0.14645455597E+03  0.12509200944E+03 0.  0.
         23    2    1    2    0    0 -0.60949224208E+01  0.35075910692E+02 -0.56894199048E+02  0.11507221122E+03  0.93472971064E+02 0.  0.
          5    1    3    3  502    0  0.60249753309E+02  0.74455304889E+01  0.27245643793E+02  0.66672829577E+02  0.41800000000E+01 0.  1.
         -5    1    3    3    0  502 -0.54154830888E+02 -0.42521441181E+02  0.40085318972E+02  0.79781726390E+02  0.41800000000E+01 0.  1.
        -11    1    4    4    0    0  0.12053542061E+02  0.43985886062E+02 -0.75101077317E+02  0.87864770318E+02  0.00000000000E+00 0. -1.
         11    1    4    4    0    0 -0.18148464481E+02 -0.89099753698E+01  0.18206878269E+02  0.27207440902E+02  0.00000000000E+00 0.  1.
</event>
<event>
 8    1  0.6380400E-009  0.1027993E+03  0.7561462E-02  0.1274517E+00
          1   -1    0    0  501    0  0.00000000000E+00  0.00000000000E+00  0.17008103425E+03  0.17008103425E+03  0.00000000000E+00 0. -1.
         -1   -1    0    0    0  501 -0.00000000000E+00 -0.00000000000E+00 -0.12350665921E+03  0.12350665921E+03  0.00000000000E+00 0.  1.
         25    2    1    2    0    0 -0.79687201731E+02  0.31002332006E+02  0.82680237723E+02  0.17261134848E+03  0.12508981256E+03 0.  0.
         23    2    1    2    0    0  0.79687201731E+02 -0.31002332006E+02 -0.36105862687E+02  0.12097634498E+03  0.77591546027E+02 0.  0.
          5    1    3    3  502    0 -0.51287911007E+02  0.46106919284E+02 -0.14120466098E+02  0.70520619568E+02  0.41800000000E+01 0.  1.
         -5    1    3    3    0  502 -0.28399290724E+02 -0.15104587279E+02  0.96800703821E+02  0.10209072892E+03  0.41800000000E+01 0.  1.
        -11    1    4    4    0    0  0.67434011742E+02  0.34306218092E+01 -0.47657651212E+02  0.82646033327E+02  0.00000000000E+00 0.  1.
         11    1    4    4    0    0  0.12253189989E+02 -0.34432953815E+02  0.11551788525E+02  0.38330311653E+02  0.00000000000E+00 0. -1.
</event>
<event>
 8    1  0.6380400E-009  0.1179814E+03  0.7561462E-02  0.1246465E+00
         -1   -1    0    0    0  501 -0.00000000000E+00  0.00000000000E+00  0.34940672377E+02  0.34940672377E+02  0.00000000000E+00 0.  1.
          1   -1    0    0  501    0  0.00000000000E+00 -0.00000000000E+00 -0.53144572208E+03  0.53144572208E+03  0.00000000000E+00 0. -1.
         25    2    1    2    0    0  0.67457215160E+02  0.50463147782E+02 -0.28012075561E+03  0.31813851319E+03  0.12508985046E+03 0.  0.
         23    2    1    2    0    0 -0.67457215160E+02 -0.50463147782E+02 -0.21638429409E+03  0.24824788127E+03  0.87794320222E+02 0.  0.
          5    1    3    3  502    0  0.10418839975E+03  0.32766147896E+02 -0.19142813133E+03  0.22043376546E+03  0.41800000000E+01 0.  1.
         -5    1    3    3    0  502 -0.36731184593E+02  0.17696999886E+02 -0.88692624281E+02  0.97704747727E+02  0.41800000000E+01 0.  1.
        -11    1    4    4    0    0 -0.19551453344E+02 -0.63541613801E+01  0.17197765745E+01  0.20629889146E+02  0.00000000000E+00 0.  1.
         11    1    4    4    0    0 -0.47905761816E+02 -0.44108986402E+02 -0.21810407067E+03  0.22761799212E+03  0.00000000000E+00 0. -1.
</event>
<event>
 8    1  0.6380400E-009  0.1045673E+03  0.7561462E-02  0.1270974E+00
          2   -1    0    0  501    0  0.00000000000E+00  0.00000000000E+00  0.13798904362E+03  0.13798904362E+03  0.00000000000E+00 0. -1.
         -2   -1    0    0    0  501 -0.00000000000E+00 -0.00000000000E+00 -0.99901823500E+02  0.99901823500E+02  0.00000000000E+00 0.  1.
         25    2    1    2    0    0  0.15582036393E+02 -0.16309053933E+02  0.65475830030E+02  0.14298256403E+03  0.12509254254E+03 0.  0.
         23    2    1    2    0    0 -0.15582036393E+02  0.16309053933E+02 -0.27388609913E+02  0.94908303091E+02  0.88026501375E+02 0.  0.
          5    1    3    3  502    0 -0.63122648606E+01 -0.65181662011E+02  0.11105681729E+02  0.66553003815E+02  0.41800000000E+01 0. -1.
         -5    1    3    3    0  502  0.21894301254E+02  0.48872608078E+02  0.54370148301E+02  0.76429560211E+02  0.41800000000E+01 0. -1.
        -11    1    4    4    0    0 -0.18878028589E+02 -0.34263210063E+02 -0.19178954130E+02  0.43568105407E+02  0.00000000000E+00 0.  1.
         11    1    4    4    0    0  0.32959921957E+01  0.50572263995E+02 -0.82096557836E+01  0.51340197684E+02  0.00000000000E+00 0. -1.
</event>
<event>
 8    1  0.6380400E-009  0.2470666E+03  0.7561462E-02  0.1115173E+00
          1   -1    0    0  501    0  0.00000000000E+00  0.00000000000E+00  0.33196054791E+03  0.33196054791E+03  0.00000000000E+00 0. -1.
         -1   -1    0    0    0  501 -0.00000000000E+00 -0.00000000000E+00 -0.21389805951E+03  0.21389805951E+03  0.00000000000E+00 0.  1.
         25    2    1    2    0    0 -0.91877553795E+02 -0.21081767091E+03 -0.20440316906E+02  0.26258688378E+03  0.12509392359E+03 0.  0.
         23    2    1    2    0    0  0.91877553795E+02  0.21081767091E+03  0.13850280531E+03  0.28327172364E+03  0.90411653437E+02 0.  0.
          5    1    3    3  502    0 -0.11713399101E+03 -0.19208912043E+03 -0.32095550015E+00  0.22502483741E+03  0.41800000000E+01 0.  1.
         -5    1    3    3    0  502  0.25256437219E+02 -0.18728550472E+02 -0.20119361406E+02  0.37562046365E+02  0.41800000000E+01 0.  1.
        -11    1    4    4    0    0 -0.28323239229E+01  0.54812606734E+02  0.68563518893E+02  0.87825964491E+02  0.00000000000E+00 0. -1.
         11    1    4    4    0    0  0.94709877718E+02  0.15600506417E+03  0.69939286420E+02  0.19544575915E+03  0.00000000000E+00 0.  1.
</event>
<event>
 8    1  0.6380400E-009  0.1020465E+03  0.7561462E-02  0.1276050E+00
          2   -1    0    0  501    0  0.00000000000E+00  0.00000000000E+00  0.65176850298E+03  0.65176850298E+03  0.00000000000E+00 0. -1.
         -2   -1    0    0    0  501 -0.00000000000E+00 -0.00000000000E+00 -0.21927940024E+02  0.21927940024E+02  0.00000000000E+00 0.  1.
         25    2    1    2    0    0 -0.38595796236E+02 -0.14318450807E+02  0.26900226139E+03  0.29950596469E+03  0.12508778010E+03 0.  0.
         23    2    1    2    0    0  0.38595796236E+02  0.14318450807E+02  0.36083830156E+03  0.37419047831E+03  0.90108715809E+02 0.  0.
          5    1    3    3  502    0  0.20729554873E+02 -0.50665675844E+02  0.16835384166E+03  0.17707968137E+03  0.41800000000E+01 0. -1.
         -5    1    3    3    0  502 -0.59325351109E+02  0.36347225037E+02  0.10064841973E+03  0.12242628332E+03  0.41800000000E+01 0. -1.
        -11    1    4    4    0    0 -0.80921091730E+01 -0.19981726093E+02  0.23406803681E+02  0.31821848895E+02  0.00000000000E+00 0.  1.
         11    1    4    4    0    0  0.46687905409E+02  0.34300176900E+02  0.33743149788E+03  0.34236862941E+03  0.00000000000E+00 0. -1.
</event>
<event>
 8    1  0.6380400E-009  0.1302307E+03  0.7561462E-02  0.1227114E+00
          1   -1    0    0  501    0  0.00000000000E+00  0.00000000000E+00  0.39064251809E+02  0.39064251809E+02  0.00000000000E+00 0. -1.
         -1   -1    0    0    0  501 -0.00000000000E+00 -0.00000000000E+00 -0.63531713636E+03  0.63531713636E+03  0.00000000000E+00 0.  1.
         25    2    1    2    0    0 -0.10660476929E+03 -0.34287424078E+02 -0.35853223458E+03  0.39588007300E+03  0.12504185174E+03 0.  0.
         23    2    1    2    0    0  0.10660476929E+03  0.34287424078E+02 -0.23772064998E+03  0.27850131517E+03  0.92258716867E+02 0.  0.
          5    1    3    3  502    0 -0.74578819564E+02 -0.68433658417E+02 -0.14278149341E+03  0.17506910976E+03  0.41800000000E+01 0.  1.
         -5    1    3    3    0  502 -0.32025949728E+02  0.34146234338E+02 -0.21575074116E+03  0.22081096324E+03  0.41800000000E+01 0.  1.
        -11    1    4    4    0    0  0.58612314547E+02  0.15595542224E+02 -0.36486166236E+02  0.70780397572E+02  0.00000000000E+00 0. -1.
         11    1    4    4    0    0  0.47992454745E+02  0.18691881855E+02 -0.20123448374E+03  0.20772091759E+03  0.00000000000E+00 0.  1.
</event>
<event>
 8    1  0.6380400E-009  0.9810770E+02  0.7561462E-02  0.1284326E+00
         -2   -1    0    0    0  501 -0.00000000000E+00  0.00000000000E+00  0.52599858348E+02  0.52599858348E+02  0.00000000000E+00 0.  1.
          2   -1    0    0  501    0  0.00000000000E+00 -0.00000000000E+00 -0.35178582359E+03  0.35178582359E+03  0.00000000000E+00 0. -1.
         25    2    1    2    0    0 -0.40251425918E+02  0.70834071576E+02 -0.17951402623E+03  0.23347507399E+03  0.12509069339E+03 0.  0.
         23    2    1    2    0    0  0.40251425918E+02 -0.70834071576E+02 -0.11967193901E+03  0.17091060795E+03  0.90837326799E+02 0.  0.
          5    1    3    3  502    0 -0.62756986392E+02  0.41045509449E+02 -0.32670987628E+02  0.81902619124E+02  0.41800000000E+01 0. -1.
         -5    1    3    3    0  502  0.22505560474E+02  0.29788562127E+02 -0.14684303861E+03  0.15157245486E+03  0.41800000000E+01 0. -1.
        -11    1    4    4    0    0  0.37038776197E+02 -0.48737097999E+02 -0.13192873800E+03  0.14543853538E+03  0.00000000000E+00 0. -1.
         11    1    4    4    0    0  0.32126497212E+01 -0.22096973577E+02  0.12256798992E+02  0.25472072571E+02  0.00000000000E+00 0.  1.
</event>
<event>
 8    1  0.6380400E-009  0.1043014E+03  0.7561462E-02  0.1271502E+00
         -1   -1    0    0    0  501 -0.00000000000E+00  0.00000000000E+00  0.21877170216E+02  0.21877170216E+02  0.00000000000E+00 0.  1.
          1   -1    0    0  501    0  0.00000000000E+00 -0.00000000000E+00 -0.73031578313E+03  0.73031578313E+03  0.00000000000E+00 0. -1.
         25    2    1    2    0    0  0.54253169574E+02 -0.38862259685E+02 -0.34410292234E+03  0.37216669984E+03  0.12509016615E+03 0.  0.
         23    2    1    2    0    0 -0.54253169574E+02  0.38862259685E+02 -0.36433569057E+03  0.38002625350E+03  0.85004566308E+02 0.  0.
          5    1    3    3  502    0  0.80976792567E+02 -0.42896210361E+02 -0.14769353257E+03  0.17386252546E+03  0.41800000000E+01 0. -1.
         -5    1    3    3    0  502 -0.26723622993E+02  0.40339506758E+01 -0.19640938977E+03  0.19830417438E+03  0.41800000000E+01 0. -1.
        -11    1    4    4    0    0  0.12216085050E+02  0.13939078339E+02 -0.15861610824E+02  0.24395108871E+02  0.00000000000E+00 0.  1.
         11    1    4    4    0    0 -0.66469254625E+02  0.24923181346E+02 -0.34847407975E+03  0.35563114463E+03  0.00000000000E+00 0. -1.
</event>
<event>
 8    1  0.6380400E-009  0.9900216E+02  0.7561462E-02  0.1282408E+00
          2   -1    0    0  501    0  0.00000000000E+00  0.00000000000E+00  0.92435249533E+02  0.92435249533E+02  0.00000000000E+00 0. -1.
         -2   -1    0    0    0  501 -0.00000000000E+00 -0.00000000000E+00 -0.17490981292E+03  0.17490981292E+03  0.00000000000E+00 0.  1.
         25    2    1    2    0    0 -0.56632777997E+02 -0.22043569518E+02 -0.67818700002E+02  0.15472654352E+03  0.12509091374E+03 0.  0.
         23    2    1    2    0    0  0.56632777997E+02  0.22043569518E+02 -0.14655863384E+02  0.11261851893E+03  0.93674681603E+02 0.  0.
          5    1    3    3  502    0 -0.52654141668E+02  0.38031120436E+02 -0.68337274858E+02  0.94373090928E+02  0.41800000000E+01 0.  1.
         -5    1    3    3    0  502 -0.39786363289E+01 -0.60074689955E+02  0.51857485595E+00  0.60353452594E+02  0.41800000000E+01 0.  1.
        -11    1    4    4    0    0  0.27167922675E+02  0.31522281252E+02 -0.50384169087E+02  0.65347645194E+02  0.00000000000E+00 0.  1.
         11    1    4    4    0    0  0.29464855322E+02 -0.94787117333E+01  0.35728305703E+02  0.47270873735E+02  0.00000000000E+00 0. -1.
</event>
<event>
 8    1  0.6380400E-009  0.1050024E+03  0.7561462E-02  0.1270115E+00
         -1   -1    0    0    0  501 -0.00000000000E+00  0.00000000000E+00  0.55160129548E+03  0.55160129548E+03  0.00000000000E+00 0.  1.
          1   -1    0    0  501    0  0.00000000000E+00 -0.00000000000E+00 -0.30371664031E+02  0.30371664031E+02  0.00000000000E+00 0. -1.
         25    2    1    2    0    0 -0.39117382543E+02 -0.58456553824E+02  0.32010461645E+03  0.35080381933E+03  0.12509602664E+03 0.  0.
         23    2    1    2    0    0  0.39117382543E+02  0.58456553824E+02  0.20112501500E+03  0.23116914019E+03  0.89669177607E+02 0.  0.
          5    1    3    3  502    0  0.15659032490E+02  0.97773754636E+01  0.20640925167E+03  0.20727530954E+03  0.41800000000E+01 0.  1.
         -5    1    3    3    0  502 -0.54776415033E+02 -0.68233929288E+02  0.11369536478E+03  0.14352850979E+03  0.41800000000E+01 0.  1.
        -11    1    4    4    0    0 -0.13623855534E+02  0.47755106694E+02  0.14563468257E+03  0.15386884162E+03  0.00000000000E+00 0.  1.
         11    1    4    4    0    0  0.52741238077E+02  0.10701447130E+02  0.55490332431E+02  0.77300298562E+02  0.00000000000E+00 0. -1.
</event>
<event>
 8    1  0.6380400E-009  0.1348794E+03  0.7561462E-02  0.1220390E+00
         -1   -1    0    0    0  501 -0.00000000000E+00  0.00000000000E+00  0.43504123706E+02  0.43504123706E+02  0.00000000000E+00 0.  1.
          1   -1    0    0  501    0  0.00000000000E+00 -0.00000000000E+00 -0.54988002378E+03  0.54988002378E+03  0.00000000000E+00 0. -1.
         25    2    1    2    0    0 -0.45138514302E+02  0.98136141393E+02 -0.28290790840E+03  0.32764846883E+03  0.12509375193E+03 0.  0.
         23    2    1    2    0    0  0.45138514302E+02 -0.98136141393E+02 -0.22346799168E+03  0.26573567866E+03  0.94917437212E+02 0.  0.
          5    1    3    3  502    0 -0.12427424235E+02  0.12060854706E+03 -0.17804705958E+03  0.21545090003E+03  0.41800000000E+01 0. -1.
         -5    1    3    3    0  502 -0.32711090068E+02 -0.22472405671E+02 -0.10486084881E+03  0.11219756880E+03  0.41800000000E+01 0. -1.
        -11    1    4    4    0    0  0.24582999700E+02 -0.40912525192E+02 -0.19086549197E+03  0.19674296587E+03  0.00000000000E+00 0. -1.
         11    1    4    4    0    0  0.20555514602E+02 -0.57223616202E+02 -0.32602499709E+02  0.68992712797E+02  0.00000000000E+00 0.  1.
</event>
<event>
 8    1  0.6380400E-009  0.1041174E+03  0.7561462E-02  0.1271868E+00
         -1   -1    0    0    0  501 -0.00000000000E+00  0.00000000000E+00  0.32545213424E+02  0.32545213424E+02  0.00000000000E+00 0.  1.
          1   -1    0    0  501    0  0.00000000000E+00 -0.00000000000E+00 -0.57843790119E+03  0.57843790119E+03  0.00000000000E+00 0. -1.
         25    2    1    2    0    0 -0.18872199891E+02 -0.72660912965E+02 -0.38675386371E+03  0.41335403551E+03  0.12508892589E+03 0.  0.
         23    2    1    2    0    0  0.18872199891E+02  0.72660912965E+02 -0.15913882405E+03  0.19762907910E+03  0.89979549797E+02 0.  0.
          5    1    3    3  502    0 -0.48579084121E+02 -0.73583058829E+02 -0.14508045208E+03  0.16982403816E+03  0.41800000000E+01 0. -1.
         -5    1    3    3    0  502  0.29706884230E+02  0.92214586376E+00 -0.24167341163E+03  0.24352999735E+03  0.41800000000E+01 0. -1.
        -11    1    4    4    0    0 -0.12587896141E+02  0.48983104019E+02 -0.14845096397E+03  0.15682948802E+03  0.00000000000E+00 0. -1.
         11    1    4    4    0    0  0.31460096032E+02  0.23677808946E+02 -0.10687860082E+02  0.40799591076E+02  0.00000000000E+00 0.  1.
</event>
<event>
 8    1  0.6380400E-009  0.7077950E+02  0.7561462E-02  0.1357462E+00
         -3   -1    0    0    0  501 -0.00000000000E+00  0.00000000000E+00  0.56267248819E+02  0.56267248819E+02  0.00000000000E+00 0.  1.
          3   -1    0    0  501    0  0.00000000000E+00 -0.00000000000E+00 -0.26090900563E+03  0.26090900563E+03  0.00000000000E+00 0. -1.
         25    2    1    2    0    0  0.45538673103E+02 -0.32479762011E+02 -0.10423864284E+03  0.17217353043E+03  0.12509725909E+03 0.  0.
         23    2    1    2    0    0 -0.45538673103E+02  0.32479762011E+02 -0.10040311397E+03  0.14500272402E+03  0.88409835369E+02 0.  0.
          5    1    3    3  502    0  0.51596082826E+01  0.18399379132E+02 -0.10527401973E+03  0.10707590924E+03  0.41800000000E+01 0. -1.
         -5    1    3    3    0  502  0.40379064821E+02 -0.50879141143E+02  0.10353768873E+01  0.65097621189E+02  0.41800000000E+01 0. -1.
        -11    1    4    4    0    0 -0.17862126376E+02  0.19156802807E+02  0.11758901052E+02  0.28710806440E+02  0.00000000000E+00 0.  1.
         11    1    4    4    0    0 -0.27676546727E+02  0.13322959203E+02 -0.11216201502E+03  0.11629191758E+03  0.00000000000E+00 0. -1.
</event>
<event>
 8    1  0.6380400E-009  0.8861641E+02  0.7561462E-02  0.1306237E+00
          1   -1    0    0  501    0  0.00000000000E+00  0.00000000000E+00  0.48887302877E+03  0.48887302877E+03  0.00000000000E+00 0. -1.
         -1   -1    0    0    0  501 -0.00000000000E+00 -0.00000000000E+00 -0.33529304961E+02  0.33529304961E+02  0.00000000000E+00 0.  1.
         25    2    1    2    0    0 -0.44659907880E+02  0.11315182940E+02  0.14616816538E+03  0.19782542903E+03  0.12508887666E+03 0.  0.
         23    2    1    2    0    0  0.44659907880E+02 -0.11315182940E+02  0.30917555843E+03  0.32457690470E+03  0.87396226460E+02 0.  0.
          5    1    3    3  502    0 -0.60648962011E+02  0.12836474731E+02  0.16284614330E+03  0.17429690320E+03  0.41800000000E+01 0. -1.
         -5    1    3    3    0  502  0.15989054131E+02 -0.15212917906E+01 -0.16677977914E+02  0.23528525836E+02  0.41800000000E+01 0. -1.
        -11    1    4    4    0    0 -0.17150214808E+02 -0.29456915888E+02  0.11914784320E+03  0.12392759298E+03  0.00000000000E+00 0.  1.
         11    1    4    4    0    0  0.61810122688E+02  0.18141732948E+02  0.19002771522E+03  0.20064931172E+03  0.00000000000E+00 0. -1.
</event>
<event>
 8    1  0.6380400E-009  0.1973259E+03  0.7561462E-02  0.1152015E+00
          2   -1    0    0  501    0  0.00000000000E+00  0.00000000000E+00  0.80729727861E+03  0.80729727861E+03  0.00000000000E+00 0. -1.
         -2   -1    0    0    0  501 -0.00000000000E+00 -0.00000000000E+00 -0.59077823323E+02  0.59077823323E+02  0.00000000000E+00 0.  1.
         25    2    1    2    0    0 -0.11595737361E+03 -0.14089241123E+03  0.28722159630E+03  0.36254738664E+03  0.12509027997E+03 0.  0.
         23    2    1    2    0    0  0.11595737361E+03  0.14089241123E+03  0.46099785898E+03  0.50382771529E+03  0.89591052404E+02 0.  0.
          5    1    3    3  502    0  0.97671226481E+01 -0.43761497915E+02  0.13564563409E+03  0.14292542053E+03  0.41800000000E+01 0. -1.
         -5    1    3    3    0  502 -0.12572449625E+03 -0.97130913315E+02  0.15157596221E+03  0.21962196611E+03  0.41800000000E+01 0. -1.
        -11    1    4    4    0    0  0.41537936588E+02  0.14462917374E+02  0.19655649351E+03  0.20141755459E+03  0.00000000000E+00 0. -1.
         11    1    4    4    0    0  0.74419437019E+02  0.12642949386E+03  0.26444136547E+03  0.30241016070E+03  0.00000000000E+00 0.  1.
</event>
<event>
 8    1  0.6380400E-009  0.1266484E+03  0.7561462E-02  0.1232515E+00
         -2   -1    0    0    0  501 -0.00000000000E+00  0.00000000000E+00  0.13430294218E+02  0.13430294218E+02  0.00000000000E+00 0.  1.
          2   -1    0    0  501    0  0.00000000000E+00 -0.00000000000E+00 -0.12482139859E+04  0.12482139859E+04  0.00000000000E+00 0. -1.
         25    2    1    2    0    0 -0.63961103549E+02 -0.29084792534E+02 -0.72734643263E+03  0.74136172068E+03  0.12508964747E+03 0.  0.
         23    2    1    2    0    0  0.63961103549E+02  0.29084792534E+02 -0.50743725901E+03  0.52028255940E+03  0.90908865670E+02 0.  0.
          5    1    3    3  502    0 -0.83055424449E+01  0.44875625240E+02 -0.15751968182E+03  0.16405098700E+03  0.41800000000E+01 0.  1.
         -5    1    3    3    0  502 -0.55655561104E+02 -0.73960417774E+02 -0.56982675081E+03  0.57731073367E+03  0.41800000000E+01 0.  1.
        -11    1    4    4    0    0  0.27162995067E+02  0.60570353191E+02 -0.28343533570E+03  0.29110511076E+03  0.00000000000E+00 0.  1.
         11    1    4    4    0    0  0.36798108482E+02 -0.31485560657E+02 -0.22400192331E+03  0.22917744864E+03  0.00000000000E+00 0. -1.
</event>
<event>
 8    1  0.6380400E-009  0.1363422E+03  0.7561462E-02  0.1218337E+00
          2   -1    0    0  501    0  0.00000000000E+00  0.00000000000E+00  0.54388918320E+03  0.54388918320E+03  0.00000000000E+00 0. -1.
         -2   -1    0    0    0  501 -0.00000000000E+00 -0.00000000000E+00 -0.86424223454E+02  0.86424223454E+02  0.00000000000E+00 0.  1.
         25    2    1    2    0    0  0.93792874428E+02  0.20608603375E+02  0.39093126319E+01  0.15775008262E+03  0.12509191827E+03 0.  0.
         23    2    1    2    0    0 -0.93792874428E+02 -0.20608603375E+02  0.45355564711E+03  0.47256332403E+03  0.91550818469E+02 0.  0.
          5    1    3    3  502    0 -0.40274667814E+01  0.40722234289E+02  0.33998000485E+02  0.53365319179E+02  0.41800000000E+01 0.  1.
         -5    1    3    3    0  502  0.97820341209E+02 -0.20113630913E+02 -0.30088687853E+02  0.10438476345E+03  0.41800000000E+01 0.  1.
        -11    1    4    4    0    0 -0.51684649512E+02 -0.56278626149E+02  0.23304220279E+03  0.24524937317E+03  0.00000000000E+00 0. -1.
         11    1    4    4    0    0 -0.42108224916E+02  0.35670022774E+02  0.22051344432E+03  0.22731395086E+03  0.00000000000E+00 0.  1.
</event>
<event>
 8    1  0.6380400E-009  0.1046752E+03  0.7561462E-02  0.1270761E+00
          2   -1    0    0  501    0  0.00000000000E+00  0.00000000000E+00  0.35021274519E+02  0.35021274519E+02  0.00000000000E+00 0. -1.
         -2   -1    0    0    0  501 -0.00000000000E+00 -0.00000000000E+00 -0.39975827772E+03  0.39975827772E+03  0.00000000000E+00 0.  1.
         25    2    1    2    0    0 -0.31821620481E+02  0.21232144421E+02 -0.15510958401E+03  0.20291963508E+03  0.12511584937E+03 0.  0.
         23    2    1    2    0    0  0.31821620481E+02 -0.21232144421E+02 -0.20962741919E+03  0.23185991716E+03  0.91388986319E+02 0.  0.
          5    1    3    3  502    0 -0.44648643345E+02  0.59939942715E+02 -0.49791016641E+02  0.89905037809E+02  0.41800000000E+01 0.  1.
         -5    1    3    3    0  502  0.12827022864E+02 -0.38707798294E+02 -0.10531856737E+03  0.11301459727E+03  0.41800000000E+01 0.  1.
        -11    1    4    4    0    0 -0.28319053553E+02 -0.17401090744E+02 -0.11470786902E+03  0.11942638724E+03  0.00000000000E+00 0.  1.
         11    1    4    4    0    0  0.60140674034E+02 -0.38310536769E+01 -0.94919550168E+02  0.11243352992E+03  0.00000000000E+00 0. -1.
</event>
<event>
 8    1  0.6380400E-009  0.1177596E+03  0.7561462E-02  0.1246839E+00
         -2   -1    0    0    0  501 -0.00000000000E+00  0.00000000000E+00  0.16290409260E+03  0.16290409260E+03  0.00000000000E+00 0. -1.
          2   -1    0    0  501    0  0.00000000000E+00 -0.00000000000E+00 -0.12011004440E+03  0.12011004440E+03  0.00000000000E+00 0.  1.
         25    2    1    2    0    0 -0.57964073264E+02  0.65940157539E+02  0.28501027823E+02  0.15546102867E+03  0.12509150524E+03 0.  0.
         23    2    1    2    0    0  0.57964073264E+02 -0.65940157539E+02  0.14293020384E+02  0.12755310833E+03  0.91419728976E+02 0.  0.
          5    1    3    3  502    0 -0.86363359063E+02  0.62047948951E+02  0.51729620211E+02  0.11833006281E+03  0.41800000000E+01 0. -1.
         -5    1    3    3    0  502  0.28399285798E+02  0.38922085882E+01 -0.23228592388E+02  0.37130965862E+02  0.41800000000E+01 0. -1.
        -11    1    4    4    0    0 -0.28496090981E+01 -0.28649393965E+02 -0.31584711345E+02  0.42737595127E+02  0.00000000000E+00 0.  1.
         11    1    4    4    0    0  0.60813682363E+02 -0.37290763574E+02  0.45877731728E+02  0.84815513198E+02  0.00000000000E+00 0. -1.
</event>
<event>
 8    1  0.6380400E-009  0.1063546E+03  0.7561462E-02  0.1267474E+00
          2   -1    0    0  501    0  0.00000000000E+00  0.00000000000E+00  0.90517096945E+02  0.90517096945E+02  0.00000000000E+00 0. -1.
         -2   -1    0    0    0  501 -0.00000000000E+00 -0.00000000000E+00 -0.22305944430E+03  0.22305944430E+03  0.00000000000E+00 0.  1.
         25    2    1    2    0    0 -0.85129753157E+02  0.33352070421E+02 -0.55360629826E+02  0.16453532013E+03  0.12509051427E+03 0.  0.
         23    2    1    2    0    0  0.85129753157E+02 -0.33352070421E+02 -0.77181717524E+02  0.14904122111E+03  0.88864124356E+02 0.  0.
          5    1    3    3  502    0 -0.68104182440E+02 -0.13184949582E+02 -0.82510479508E+02  0.10787712542E+03  0.41800000000E+01 0. -1.
         -5    1    3    3    0  502 -0.17025570716E+02  0.46537020003E+02  0.27149849682E+02  0.56658194700E+02  0.41800000000E+01 0. -1.
        -11    1    4    4    0    0  0.22699360642E+02  0.10270913099E-01 -0.74851056262E+02  0.78217272406E+02  0.00000000000E+00 0.  1.
         11    1    4    4    0    0  0.62430392515E+02 -0.33362341334E+02 -0.23306612624E+01  0.70823948709E+02  0.00000000000E+00 0. -1.
</event>
<event>
 8    1  0.6380400E-009  0.1612731E+03  0.7561462E-02  0.1187267E+00
         -3   -1    0    0    0  501 -0.00000000000E+00  0.00000000000E+00  0.24740685001E+03  0.24740685001E+03  0.00000000000E+00 0.  1.
          3   -1    0    0  501    0  0.00000000000E+00 -0.00000000000E+00 -0.12596808056E+03  0.12596808056E+03  0.00000000000E+00 0. -1.
         25    2    1    2    0    0 -0.45157560643E+02 -0.11643289786E+03 -0.41384006157E+00  0.17676000190E+03  0.12509237396E+03 0.  0.
         23    2    1    2    0    0  0.45157560643E+02  0.11643289786E+03  0.12185260951E+03  0.19661492867E+03  0.90628619889E+02 0.  0.
          5    1    3    3  502    0 -0.85281024018E+02 -0.55096359627E+02  0.11935351317E+02  0.10231513531E+03  0.41800000000E+01 0. -1.
         -5    1    3    3    0  502  0.40123463375E+02 -0.61336538228E+02 -0.12349191379E+02  0.74444866598E+02  0.41800000000E+01 0. -1.
        -11    1    4    4    0    0 -0.22459732430E+02  0.36068746770E+02  0.63680541782E+02  0.76554591476E+02  0.00000000000E+00 0.  1.
         11    1    4    4    0    0  0.67617293073E+02  0.80364151086E+02  0.58172067730E+02  0.12006033719E+03  0.00000000000E+00 0. -1.
</event>
<event>
 8    1  0.6380400E-009  0.1206379E+03  0.7561462E-02  0.1242048E+00
          1   -1    0    0  501    0  0.00000000000E+00  0.00000000000E+00  0.42310650647E+03  0.42310650647E+03  0.00000000000E+00 0.  1.
         -1   -1    0    0    0  501 -0.00000000000E+00 -0.00000000000E+00 -0.50604146351E+02  0.50604146351E+02  0.00000000000E+00 0. -1.
         25    2    1    2    0    0  0.78864742476E+02  0.86737365985E+01  0.30409526580E+03  0.33825469742E+03  0.12508968116E+03 0.  0.
         23    2    1    2    0    0 -0.78864742476E+02 -0.86737365985E+01  0.68407094319E+02  0.13545595540E+03  0.85871438724E+02 0.  0.
          5    1    3    3  502    0  0.67619373450E+01 -0.40986712149E+02  0.32626154982E+02  0.52986533745E+02  0.41800000000E+01 0. -1.
         -5    1    3    3    0  502  0.72102805131E+02  0.49660448747E+02  0.27146911081E+03  0.28526816367E+03  0.41800000000E+01 0. -1.
        -11    1    4    4    0    0  0.94439284448E+01 -0.20699387069E+02 -0.56791552610E+00  0.22759062757E+02  0.00000000000E+00 0.  1.
         11    1    4    4    0    0 -0.88308670920E+02  0.12025650471E+02  0.68975009845E+02  0.11269689265E+03  0.00000000000E+00 0. -1.
</event>
<event>
 8    1  0.6380400E-009  0.9351389E+02  0.7561462E-02  0.1294559E+00
          3   -1    0    0  501    0  0.00000000000E+00  0.00000000000E+00  0.51894143927E+03  0.51894143927E+03  0.00000000000E+00 0. -1.
         -3   -1    0    0    0  501 -0.00000000000E+00 -0.00000000000E+00 -0.26689391804E+02  0.26689391804E+02  0.00000000000E+00 0.  1.
         25    2    1    2    0    0 -0.18364906507E+02  0.39170856740E+02  0.31869680726E+03  0.34509123970E+03  0.12509469595E+03 0.  0.
         23    2    1    2    0    0  0.18364906507E+02 -0.39170856740E+02  0.17355524021E+03  0.20053959137E+03  0.90681202542E+02 0.  0.
          5    1    3    3  502    0  0.47067289029E+02 -0.32155614562E+01  0.17790289061E+03  0.18409937648E+03  0.41800000000E+01 0.  1.
         -5    1    3    3    0  502 -0.65432195536E+02  0.42386418196E+02  0.14079391665E+03  0.16099186322E+03  0.41800000000E+01 0.  1.
        -11    1    4    4    0    0  0.23019964555E+02 -0.89780237372E+00  0.29287393497E+00  0.23039327081E+02  0.00000000000E+00 0.  1.
         11    1    4    4    0    0 -0.46550580479E+01 -0.38273054367E+02  0.17326236627E+03  0.17750026429E+03  0.00000000000E+00 0. -1.
</event>
<event>
 8    1  0.6380400E-009  0.3802465E+03  0.7561462E-02  0.1050843E+00
          2   -1    0    0  501    0  0.00000000000E+00  0.00000000000E+00  0.92594038197E+03  0.92594038197E+03  0.00000000000E+00 0. -1.
         -2   -1    0    0    0  501 -0.00000000000E+00 -0.00000000000E+00 -0.16733708677E+03  0.16733708677E+03  0.00000000000E+00 0.  1.
         25    2    1    2    0    0  0.34213025724E+03 -0.15751429523E+03  0.43146858573E+03  0.58623939437E+03  0.12509045095E+03 0.  0.
         23    2    1    2    0    0 -0.34213025724E+03  0.15751429523E+03  0.32713470948E+03  0.50703807437E+03  0.90590422173E+02 0.  0.
          5    1    3    3  502    0  0.24461748392E+03 -0.79517256855E+02  0.35947810039E+03  0.44204375874E+03  0.41800000000E+01 0. -1.
         -5    1    3    3    0  502  0.97512773329E+02 -0.77997038373E+02  0.71990485334E+02  0.14419563563E+03  0.41800000000E+01 0. -1.
        -11    1    4    4    0    0 -0.10013841312E+03  0.64154858622E+02  0.15652905660E+03  0.19658304410E+03  0.00000000000E+00 0. -1.
         11    1    4    4    0    0 -0.24199184412E+03  0.93359436607E+02  0.17060565288E+03  0.31045503027E+03  0.00000000000E+00 0.  1.
</event>
<event>
 8    1  0.6380400E-009  0.1258503E+03  0.7561462E-02  0.1233746E+00
         -2   -1    0    0    0  501 -0.00000000000E+00  0.00000000000E+00  0.50782545386E+03  0.50782545386E+03  0.00000000000E+00 0. -1.
          2   -1    0    0  501    0  0.00000000000E+00 -0.00000000000E+00 -0.33827010058E+02  0.33827010058E+02  0.00000000000E+00 0.  1.
         25    2    1    2    0    0 -0.55866664026E+02 -0.35234941957E+02  0.25750330633E+03  0.29379816124E+03  0.12508725552E+03 0.  0.
         23    2    1    2    0    0  0.55866664026E+02  0.35234941957E+02  0.21649513747E+03  0.24785430268E+03  0.10099022488E+03 0.  0.
          5    1    3    3  502    0 -0.58740034710E+02 -0.73232149775E+02  0.22389909386E+03  0.24282013110E+03  0.41800000000E+01 0. -1.
         -5    1    3    3    0  502  0.28733706837E+01  0.37997207818E+02  0.33604212473E+02  0.50978030140E+02  0.41800000000E+01 0. -1.
        -11    1    4    4    0    0 -0.11242058647E+02 -0.26138020226E+02  0.68173396450E+02  0.73872809392E+02  0.00000000000E+00 0. -1.
         11    1    4    4    0    0  0.67108722673E+02  0.61372962183E+02  0.14832174102E+03  0.17398149328E+03  0.00000000000E+00 0.  1.
</event>
<event>
 8    1  0.6380400E-009  0.1318554E+03  0.7561462E-02  0.1224728E+00
          2   -1    0    0  501    0  0.00000000000E+00  0.00000000000E+00  0.93152025949E+03  0.93152025949E+03  0.00000000000E+00 0. -1.
         -2   -1    0    0    0  501 -0.00000000000E+00 -0.00000000000E+00 -0.25007041632E+02  0.25007041632E+02  0.00000000000E+00 0.  1.
         25    2    1    2    0    0  0.88765675030E+02 -0.18440721178E+02  0.66892760536E+03  0.68653517484E+03  0.12508796832E+03 0.  0.
         23    2    1    2    0    0 -0.88765675030E+02  0.18440721178E+02  0.23758561250E+03  0.26999212628E+03  0.90716149206E+02 0.  0.
          5    1    3    3  502    0  0.78543007793E+02  0.31211702524E+02  0.23760614077E+03  0.25222475092E+03  0.41800000000E+01 0. -1.
         -5    1    3    3    0  502  0.10222667238E+02 -0.49652423702E+02  0.43132146459E+03  0.43431042392E+03  0.41800000000E+01 0. -1.
        -11    1    4    4    0    0 -0.46564823658E+02 -0.36344798457E+02  0.10660957889E+03  0.12188039009E+03  0.00000000000E+00 0.  1.
         11    1    4    4    0    0 -0.42200851373E+02  0.54785519635E+02  0.13097603361E+03  0.14811173620E+03  0.00000000000E+00 0. -1.
</event>
<event>
 8    1  0.6380400E-009  0.1330299E+03  0.7561462E-02  0.1223028E+00
         -1   -1    0    0    0  501 -0.00000000000E+00  0.00000000000E+00  0.39268315730E+02  0.39268315730E+02  0.00000000000E+00 0.  1.
          1   -1    0    0  501    0  0.00000000000E+00 -0.00000000000E+00 -0.64296658652E+03  0.64296658652E+03  0.00000000000E+00 0. -1.
         25    2    1    2    0    0  0.11227704150E+03 -0.25444924845E+02 -0.34319458496E+03  0.38299749817E+03  0.12510388567E+03 0.  0.
         23    2    1    2    0    0 -0.11227704150E+03  0.25444924845E+02 -0.26050368584E+03  0.29923740409E+03  0.91800192926E+02 0.  0.
          5    1    3    3  502    0 -0.61545429900E+01  0.21843185257E+02 -0.81367921999E+01  0.24467998056E+02  0.41800000000E+01 0. -1.
         -5    1    3    3    0  502  0.11843158449E+03 -0.47288110102E+02 -0.33505779276E+03  0.35852950011E+03  0.41800000000E+01 0. -1.
        -11    1    4    4    0    0 -0.56432330805E+02  0.87565587026E+01 -0.22237026735E+03  0.22958619532E+03  0.00000000000E+00 0.  1.
         11    1    4    4    0    0 -0.55844710696E+02  0.16688366143E+02 -0.38133418490E+02  0.69651208769E+02  0.00000000000E+00 0. -1.
</event>
<event>
 8    1  0.6380400E-009  0.1105436E+03  0.7561462E-02  0.1259567E+00
          1   -1    0    0  501    0  0.00000000000E+00  0.00000000000E+00  0.16750079471E+03  0.16750079471E+03  0.00000000000E+00 0. -1.
         -1   -1    0    0    0  501 -0.00000000000E+00 -0.00000000000E+00 -0.12120168500E+03  0.12120168500E+03  0.00000000000E+00 0.  1.
         25    2    1    2    0    0  0.70520513674E+02 -0.67056097325E+01 -0.32539897400E+02  0.14739210772E+03  0.12508988946E+03 0.  0.
         23    2    1    2    0    0 -0.70520513674E+02  0.67056097325E+01  0.78839007111E+02  0.14131037200E+03  0.93460816077E+02 0.  0.
          5    1    3    3  502    0  0.17170313502E+02 -0.59595598859E+02 -0.36434396008E+02  0.72051319777E+02  0.41800000000E+01 0. -1.
         -5    1    3    3    0  502  0.53350200172E+02  0.52889989127E+02  0.38944986081E+01  0.75340787942E+02  0.41800000000E+01 0. -1.
        -11    1    4    4    0    0 -0.46458879937E+01 -0.13906937821E+02 -0.17478367712E+02  0.22814042445E+02  0.00000000000E+00 0.  1.
         11    1    4    4    0    0 -0.65874625681E+02  0.20612547554E+02  0.96317374823E+02  0.11849632955E+03  0.00000000000E+00 0. -1.
</event>
<event>
 8    1  0.6380400E-009  0.1110128E+03  0.7561462E-02  0.1258706E+00
          1   -1    0    0  501    0  0.00000000000E+00  0.00000000000E+00  0.95606240539E+02  0.95606240539E+02  0.00000000000E+00 0. -1.
         -1   -1    0    0    0  501 -0.00000000000E+00 -0.00000000000E+00 -0.17826999024E+03  0.17826999024E+03  0.00000000000E+00 0.  1.
         25    2    1    2    0    0  0.22777126081E+02  0.20947302617E+02 -0.11350014233E+03  0.17171777217E+03  0.12508846475E+03 0.  0.
         23    2    1    2    0    0 -0.22777126081E+02 -0.20947302617E+02  0.30836392621E+02  0.10215845861E+03  0.92346524549E+02 0.  0.
          5    1    3    3  502    0  0.25846600398E+02 -0.49864987562E+02 -0.37228269338E+02  0.67512814892E+02  0.41800000000E+01 0.  1.
         -5    1    3    3    0  502 -0.30694743176E+01  0.70812290178E+02 -0.76271872989E+02  0.10420495728E+03  0.41800000000E+01 0.  1.
        -11    1    4    4    0    0 -0.49550729167E+02  0.13230644074E+02  0.47454487694E+01  0.51505766547E+02  0.00000000000E+00 0. -1.
         11    1    4    4    0    0  0.26773603086E+02 -0.34177946690E+02  0.26090943852E+02  0.50652692064E+02  0.00000000000E+00 0.  1.
</event>
<event>
 7    1  0.6380400E-009  0.1391454E+03  0.7561462E-02  0.1214484E+00
         -2   -1    0    0    0  501 -0.00000000000E+00  0.00000000000E+00  0.64943694277E+02  0.64943694277E+02  0.00000000000E+00 0. -1.
          2   -1    0    0  501    0  0.00000000000E+00 -0.00000000000E+00 -0.54472666454E+03  0.54472666454E+03  0.00000000000E+00 0.  1.
         23    2    1    2    0    0  0.45429080052E+02 -0.11347806683E+03 -0.76803972996E+02  0.17046234284E+03  0.90650356274E+02 0.  0.
          5    1    1    2  502    0 -0.29113196652E+02 -0.39433885058E+01 -0.14512449349E+02  0.33033499940E+02  0.41800000000E+01 0. -1.
         -5    1    1    2    0  502 -0.16315883400E+02  0.11742145534E+03 -0.38846654792E+03  0.40617451604E+03  0.41800000000E+01 0. -1.
        -11    1    3    3    0    0  0.35755961325E+02 -0.32128721605E+02 -0.74309137776E+02  0.88501929240E+02  0.00000000000E+00 0.  1.
         11    1    3    3    0    0  0.96731187272E+01 -0.81349345228E+02 -0.24948352198E+01  0.81960413602E+02  0.00000000000E+00 0. -1.
</event>
<event>
 8    1  0.6380400E-009  0.1071777E+03  0.7561462E-02  0.1265887E+00
          3   -1    0    0  501    0  0.00000000000E+00  0.00000000000E+00  0.12156554826E+03  0.12156554826E+03  0.00000000000E+00 0. -1.
         -3   -1    0    0    0  501 -0.00000000000E+00 -0.00000000000E+00 -0.30715994851E+03  0.30715994851E+03  0.00000000000E+00 0.  1.
         25    2    1    2    0    0  0.18121344391E+02 -0.34187139147E+02  0.74303851472E+02  0.15058688907E+03  0.12513275035E+03 0.  0.
         23    2    1    2    0    0 -0.18121344391E+02  0.34187139147E+02 -0.25989825173E+03  0.27813860770E+03  0.91196711767E+02 0.  0.
          5    1    3    3  502    0  0.46338655250E+02  0.22908228581E+02 -0.10046657113E+01  0.51870412185E+02  0.41800000000E+01 0.  1.
         -5    1    3    3    0  502 -0.28217310859E+02 -0.57095367728E+02  0.75308517183E+02  0.98716476884E+02  0.41800000000E+01 0.  1.
        -11    1    4    4    0    0  0.12090234304E+02 -0.27467863449E+02 -0.90884715549E+02  0.95711487338E+02  0.00000000000E+00 0. -1.
         11    1    4    4    0    0 -0.30211578694E+02  0.61655002596E+02 -0.16901353618E+03  0.18242712036E+03  0.00000000000E+00 0.  1.
</event>
<event>
 8    1  0.6380400E-009  0.1114437E+03  0.7561462E-02  0.1257919E+00
          1   -1    0    0  501    0  0.00000000000E+00  0.00000000000E+00  0.68741762950E+02  0.68741762950E+02  0.00000000000E+00 0. -1.
         -1   -1    0    0    0  501 -0.00000000000E+00 -0.00000000000E+00 -0.31580456766E+03  0.31580456766E+03  0.00000000000E+00 0.  1.
         25    2    1    2    0    0  0.84277629234E+02  0.57624047350E+02 -0.13331743489E+03  0.20939062699E+03  0.12509055362E+03 0.  0.
         23    2    1    2    0    0 -0.84277629234E+02 -0.57624047350E+02 -0.11374536983E+03  0.17515570362E+03  0.85546839406E+02 0.  0.
          5    1    3    3  502    0  0.67790379219E+02  0.48335507108E+02 -0.15761997227E+03  0.17830699599E+03  0.41800000000E+01 0.  1.
         -5    1    3    3    0  502  0.16487250014E+02  0.92885402417E+01  0.24302537381E+02  0.31083630998E+02  0.41800000000E+01 0.  1.
        -11    1    4    4    0    0 -0.62967766342E+02 -0.71066572336E+02 -0.11594770433E+03  0.14986416330E+03  0.00000000000E+00 0.  1.
         11    1    4    4    0    0 -0.21309862891E+02  0.13442524986E+02  0.22023345093E+01  0.25291540320E+02  0.00000000000E+00 0. -1.
</event>
<event>
 8    1  0.6380400E-009  0.9406585E+02  0.7561462E-02  0.1293294E+00
         -2   -1    0    0    0  501 -0.00000000000E+00  0.00000000000E+00  0.11069090183E+03  0.11069090183E+03  0.00000000000E+00 0. -1.
          2   -1    0    0  501    0  0.00000000000E+00 -0.00000000000E+00 -0.14794992494E+03  0.14794992494E+03  0.00000000000E+00 0.  1.
         25    2    1    2    0    0  0.52305534145E+02  0.18334061346E+02 -0.56977477536E+02  0.14821131361E+03  0.12509258103E+03 0.  0.
         23    2    1    2    0    0 -0.52305534145E+02 -0.18334061346E+02  0.19718454423E+02  0.11042951316E+03  0.93455086671E+02 0.  0.
          5    1    3    3  502    0 -0.24641746669E+02  0.15998947536E+02  0.22683624647E+02  0.37352392537E+02  0.41800000000E+01 0.  1.
         -5    1    3    3    0  502  0.76947280814E+02  0.23351138109E+01 -0.79661102184E+02  0.11085892108E+03  0.41800000000E+01 0.  1.
        -11    1    4    4    0    0 -0.35318589847E+02 -0.40303570753E+02 -0.23935049467E+02  0.58691287234E+02  0.00000000000E+00 0.  1.
         11    1    4    4    0    0 -0.16986944298E+02  0.21969509407E+02  0.43653503891E+02  0.51738225927E+02  0.00000000000E+00 0. -1.
</event>
<event>
 8    1  0.6380400E-009  0.3034989E+03  0.7561462E-02  0.1083505E+00
         -2   -1    0    0    0  501 -0.00000000000E+00  0.00000000000E+00  0.64364993938E+02  0.64364993938E+02  0.00000000000E+00 0.  1.
          2   -1    0    0  501    0  0.00000000000E+00 -0.00000000000E+00 -0.16210717375E+04  0.16210717375E+04  0.00000000000E+00 0. -1.
         25    2    1    2    0    0 -0.30024304835E+02  0.29385781476E+03 -0.60001473375E+03  0.68038216890E+03  0.12509332864E+03 0.  0.
         23    2    1    2    0    0  0.30024304835E+02 -0.29385781476E+03 -0.95669200981E+03  0.10050545625E+04  0.87299472268E+02 0.  0.
          5    1    3    3  502    0  0.23699880153E+02  0.99780413665E+02 -0.31558079630E+03  0.33185317034E+03  0.41800000000E+01 0. -1.
         -5    1    3    3    0  502 -0.53724184988E+02  0.19407740109E+03 -0.28443393745E+03  0.34852899856E+03  0.41800000000E+01 0. -1.
        -11    1    4    4    0    0 -0.18650366510E+02 -0.36202488762E+02 -0.76882815722E+02  0.87002435120E+02  0.00000000000E+00 0.  1.
         11    1    4    4    0    0  0.48674671345E+02 -0.25765532599E+03 -0.87980919409E+03  0.91805212741E+03  0.00000000000E+00 0. -1.
</event>
<event>
 8    1  0.6380400E-009  0.1235681E+03  0.7561462E-02  0.1237324E+00
          2   -1    0    0  501    0  0.00000000000E+00  0.00000000000E+00  0.61126567200E+02  0.61126567200E+02  0.00000000000E+00 0. -1.
         -2   -1    0    0    0  501 -0.00000000000E+00 -0.00000000000E+00 -0.32465646149E+03  0.32465646149E+03  0.00000000000E+00 0.  1.
         25    2    1    2    0    0  0.64763010078E+02  0.50251578770E+02 -0.16698437454E+03  0.22416769382E+03  0.12509158632E+03 0.  0.
         23    2    1    2    0    0 -0.64763010078E+02 -0.50251578770E+02 -0.96545519743E+02  0.16161533487E+03  0.10039427493E+03 0.  0.
          5    1    3    3  502    0  0.76902804624E+02  0.63581564537E+02 -0.17691973789E+03  0.20316181424E+03  0.41800000000E+01 0.  1.
         -5    1    3    3    0  502 -0.12139794546E+02 -0.13329985767E+02  0.99353633496E+01  0.21005879583E+02  0.41800000000E+01 0.  1.
        -11    1    4    4    0    0  0.89825326156E+01 -0.54168680599E+02 -0.50410369848E+02  0.74539501194E+02  0.00000000000E+00 0.  1.
         11    1    4    4    0    0 -0.73745542693E+02  0.39171018288E+01 -0.46135149895E+02  0.87075833672E+02  0.00000000000E+00 0. -1.
</event>
<event>
 8    1  0.6380400E-009  0.1598058E+03  0.7561462E-02  0.1188916E+00
         -2   -1    0    0    0  501 -0.00000000000E+00  0.00000000000E+00  0.27888767608E+03  0.27888767608E+03  0.00000000000E+00 0.  1.
          2   -1    0    0  501    0  0.00000000000E+00 -0.00000000000E+00 -0.16110169900E+03  0.16110169900E+03  0.00000000000E+00 0. -1.
         25    2    1    2    0    0  0.13021438470E+03 -0.18207708699E+02  0.19291592998E+03  0.26486207354E+03  0.12509218728E+03 0.  0.
         23    2    1    2    0    0 -0.13021438470E+03  0.18207708699E+02 -0.75129952899E+02  0.17512730155E+03  0.87964511509E+02 0.  0.
          5    1    3    3  502    0  0.22484238689E+02 -0.61066237835E+02  0.62750683163E+02  0.90497221118E+02  0.41800000000E+01 0. -1.
         -5    1    3    3    0  502  0.10773014601E+03  0.42858529136E+02  0.13016524682E+03  0.17436485242E+03  0.41800000000E+01 0. -1.
        -11    1    4    4    0    0 -0.92263071964E+02 -0.74682636147E+01 -0.67447132496E+01  0.92810239556E+02  0.00000000000E+00 0.  1.
         11    1    4    4    0    0 -0.37951312737E+02  0.25675972314E+02 -0.68385239649E+02  0.82317061990E+02  0.00000000000E+00 0. -1.
</event>
<event>
 8    1  0.6380400E-009  0.1396873E+03  0.7561462E-02  0.1213750E+00
         -1   -1    0    0    0  501 -0.00000000000E+00  0.00000000000E+00  0.29138858454E+03  0.29138858454E+03  0.00000000000E+00 0.  1.
          1   -1    0    0  501    0  0.00000000000E+00 -0.00000000000E+00 -0.90142116823E+02  0.90142116823E+02  0.00000000000E+00 0. -1.
         25    2    1    2    0    0 -0.35473581287E+00  0.11637319729E+03  0.13167280281E+03  0.21570263779E+03  0.12508818516E+03 0.  0.
         23    2    1    2    0    0  0.35473581287E+00 -0.11637319729E+03  0.69573664914E+02  0.16582806357E+03  0.95475677192E+02 0.  0.
          5    1    3    3  502    0  0.58830573107E+00  0.12716800442E+03  0.55782534365E+02  0.13892879829E+03  0.41800000000E+01 0. -1.
         -5    1    3    3    0  502 -0.94304154394E+00 -0.10794807137E+02  0.75890268443E+02  0.76773839508E+02  0.41800000000E+01 0. -1.
        -11    1    4    4    0    0 -0.38556244920E+02 -0.70627190114E+02  0.97408392158E+01  0.81053488230E+02  0.00000000000E+00 0. -1.
         11    1    4    4    0    0  0.38910980732E+02 -0.45746007173E+02  0.59832825698E+02  0.84774575345E+02  0.00000000000E+00 0.  1.
</event>
<event>
 8    1  0.6380400E-009  0.1018985E+03  0.7561462E-02  0.1276354E+00
         -2   -1    0    0    0  501 -0.00000000000E+00  0.00000000000E+00  0.92074269075E+02  0.92074269075E+02  0.00000000000E+00 0.  1.
          2   -1    0    0  501    0  0.00000000000E+00 -0.00000000000E+00 -0.13642336369E+03  0.13642336369E+03  0.00000000000E+00 0. -1.
         25    2    1    2    0    0 -0.41121308000E+01  0.29685889148E+02 -0.18861133786E+02  0.13000723860E+03  0.12509187858E+03 0.  0.
         23    2    1    2    0    0  0.41121308000E+01 -0.29685889148E+02 -0.25487960829E+02  0.98490394165E+02  0.90291527628E+02 0.  0.
          5    1    3    3  502    0  0.41651832295E+02  0.48212502526E+02 -0.40849564877E+02  0.75798943818E+02  0.41800000000E+01 0.  1.
         -5    1    3    3    0  502 -0.45763963095E+02 -0.18526613377E+02  0.21988431091E+02  0.54208294782E+02  0.41800000000E+01 0.  1.
        -11    1    4    4    0    0  0.21905037554E+01 -0.59991952624E+02 -0.19402834759E+01  0.60063278185E+02  0.00000000000E+00 0.  1.
         11    1    4    4    0    0  0.19216270446E+01  0.30306063476E+02 -0.23547677353E+02  0.38427115981E+02  0.00000000000E+00 0. -1.
</event>
<event>
 8    1  0.6380400E-009  0.2484851E+03  0.7561462E-02  0.1114266E+00
         -1   -1    0    0    0  501 -0.00000000000E+00  0.00000000000E+00  0.26802385870E+03  0.26802385870E+03  0.00000000000E+00 0.  1.
          1   -1    0    0  501    0  0.00000000000E+00 -0.00000000000E+00 -0.30346303751E+03  0.30346303751E+03  0.00000000000E+00 0. -1.
         25    2    1    2    0    0  0.17807679104E+03  0.14354033309E+03 -0.13556611719E+03  0.29383771556E+03  0.12508900922E+03 0.  0.
         23    2    1    2    0    0 -0.17807679104E+03 -0.14354033309E+03  0.10012693838E+03  0.27764918065E+03  0.12144337361E+03 0.  0.
          5    1    3    3  502    0  0.89451704752E+02  0.50594825424E+00 -0.68098284959E+02  0.11250205456E+03  0.41800000000E+01 0.  1.
         -5    1    3    3    0  502  0.88625086291E+02  0.14303438483E+03 -0.67467832233E+02  0.18133566100E+03  0.41800000000E+01 0.  1.
        -11    1    4    4    0    0 -0.15757254922E+03 -0.89304370763E+02  0.25134349137E+02  0.18285544677E+03  0.00000000000E+00 0. -1.
         11    1    4    4    0    0 -0.20504241820E+02 -0.54235962324E+02  0.74992589243E+02  0.94793733881E+02  0.00000000000E+00 0.  1.
</event>
<event>
 8    1  0.6380400E-009  0.1149021E+03  0.7561462E-02  0.1251752E+00
         -2   -1    0    0    0  501 -0.00000000000E+00  0.00000000000E+00  0.15356596508E+02  0.15356596508E+02  0.00000000000E+00 0. -1.
          2   -1    0    0  501    0  0.00000000000E+00 -0.00000000000E+00 -0.12594087425E+04  0.12594087425E+04  0.00000000000E+00 0.  1.
         25    2    1    2    0    0  0.89025965668E+02  0.46676653585E+01 -0.67396426624E+03  0.69125683566E+03  0.12514300226E+03 0.  0.
         23    2    1    2    0    0 -0.89025965668E+02 -0.46676653585E+01 -0.57008787976E+03  0.58350850336E+03  0.86801919192E+02 0.  0.
          5    1    3    3  502    0 -0.57651955666E+01 -0.67652141067E+01  0.70941816056E+00  0.98479071867E+01  0.41800000000E+01 0. -1.
         -5    1    3    3    0  502  0.94791161235E+02  0.11432879465E+02 -0.67467368440E+03  0.68140892847E+03  0.41800000000E+01 0. -1.
        -11    1    4    4    0    0 -0.65806905548E+02  0.37887840492E+02 -0.34360653185E+03  0.35189698209E+03  0.00000000000E+00 0. -1.
         11    1    4    4    0    0 -0.23219060120E+02 -0.42555505850E+02 -0.22648134792E+03  0.23161152127E+03  0.00000000000E+00 0.  1.
</event>
<event>
 8    1  0.6380400E-009  0.6741985E+03  0.7561462E-02  0.9762403E-01
         -1   -1    0    0    0  501 -0.00000000000E+00  0.00000000000E+00  0.22326980660E+03  0.22326980660E+03  0.00000000000E+00 0.  1.
          1   -1    0    0  501    0  0.00000000000E+00 -0.00000000000E+00 -0.20968212763E+04  0.20968212763E+04  0.00000000000E+00 0. -1.
         25    2    1    2    0    0 -0.66973464889E+03  0.76611746517E+02 -0.10077262491E+04  0.12188411043E+04  0.12509030612E+03 0.  0.
         23    2    1    2    0    0  0.66973464889E+03 -0.76611746517E+02 -0.86582522064E+03  0.11012499787E+04  0.93189823427E+02 0.  0.
          5    1    3    3  502    0 -0.10544279884E+03  0.92848187721E+01 -0.25129119480E+03  0.27270703817E+03  0.41800000000E+01 0. -1.
         -5    1    3    3    0  502 -0.56429185006E+03  0.67326927745E+02 -0.75643505429E+03  0.94613406608E+03  0.41800000000E+01 0. -1.
        -11    1    4    4    0    0  0.76516278064E+02 -0.11436129375E+02 -0.15408572981E+03  0.17241791668E+03  0.00000000000E+00 0. -1.
         11    1    4    4    0    0  0.59321837083E+03 -0.65175617142E+02 -0.71173949083E+03  0.92883206199E+03  0.00000000000E+00 0.  1.
</event>
<event>
 8    1  0.6380400E-009  0.2186803E+03  0.7561462E-02  0.1134871E+00
         -2   -1    0    0    0  501 -0.00000000000E+00  0.00000000000E+00  0.72177179969E+02  0.72177179969E+02  0.00000000000E+00 0.  1.
          2   -1    0    0  501    0  0.00000000000E+00 -0.00000000000E+00 -0.84081226673E+03  0.84081226673E+03  0.00000000000E+00 0. -1.
         25    2    1    2    0    0 -0.15347286179E+03  0.12932067943E+03 -0.22503675216E+03  0.32644570095E+03  0.12508996128E+03 0.  0.
         23    2    1    2    0    0  0.15347286179E+03 -0.12932067943E+03 -0.54359833460E+03  0.58654374574E+03  0.90866159017E+02 0.  0.
          5    1    3    3  502    0 -0.21857294318E+02 -0.15975455747E+02 -0.74073053018E+02  0.78976237468E+02  0.41800000000E+01 0.  1.
         -5    1    3    3    0  502 -0.13161556747E+03  0.14529613518E+03 -0.15096369914E+03  0.24746946349E+03  0.41800000000E+01 0.  1.
        -11    1    4    4    0    0 -0.43761992315E+00 -0.31517677672E+02 -0.14239571661E+03  0.14584270851E+03  0.00000000000E+00 0. -1.
         11    1    4    4    0    0  0.15391048172E+03 -0.97803001760E+02 -0.40120261800E+03  0.44070103724E+03  0.00000000000E+00 0.  1.
</event>
<event>
 8    1  0.6380400E-009  0.1500309E+03  0.7561462E-02  0.1200435E+00
          2   -1    0    0  501    0  0.00000000000E+00  0.00000000000E+00  0.21740251250E+03  0.21740251250E+03  0.00000000000E+00 0. -1.
         -2   -1    0    0    0  501 -0.00000000000E+00 -0.00000000000E+00 -0.18239701350E+03  0.18239701350E+03  0.00000000000E+00 0.  1.
         25    2    1    2    0    0 -0.13493830771E+03 -0.47552170849E+02 -0.70159283937E+02  0.20258091438E+03  0.12508855226E+03 0.  0.
         23    2    1    2    0    0  0.13493830771E+03  0.47552170849E+02  0.10516478294E+03  0.19721861162E+03  0.85825365464E+02 0.  0.
          5    1    3    3  502    0 -0.27804274834E+02  0.15995856227E+02  0.28898505377E+02  0.43376734876E+02  0.41800000000E+01 0.  1.
         -5    1    3    3    0  502 -0.10713403288E+03 -0.63548027076E+02 -0.99057789315E+02  0.15920417950E+03  0.41800000000E+01 0.  1.
        -11    1    4    4    0    0  0.75834674455E+02  0.25926539964E+02  0.67855917915E+01  0.80430886979E+02  0.00000000000E+00 0.  1.
         11    1    4    4    0    0  0.59103633258E+02  0.21625630885E+02  0.98379191150E+02  0.11678772464E+03  0.00000000000E+00 0. -1.
</event>
<event>
 8    1  0.6380400E-009  0.9522229E+02  0.7561462E-02  0.1290676E+00
         -2   -1    0    0    0  501 -0.00000000000E+00  0.00000000000E+00  0.37450837870E+02  0.37450837870E+02  0.00000000000E+00 0.  1.
          2   -1    0    0  501    0  0.00000000000E+00 -0.00000000000E+00 -0.58009346908E+03  0.58009346908E+03  0.00000000000E+00 0. -1.
         25    2    1    2    0    0 -0.56077417214E+02  0.62856338187E+02 -0.17674011976E+03  0.23233124597E+03  0.12508054184E+03 0.  0.
         23    2    1    2    0    0  0.56077417214E+02 -0.62856338187E+02 -0.36590251145E+03  0.38521306099E+03  0.86074726233E+02 0.  0.
          5    1    3    3  502    0 -0.17941282149E+02 -0.34105785303E+01  0.16190318043E+02  0.24761269140E+02  0.41800000000E+01 0.  1.
         -5    1    3    3    0  502 -0.38136135065E+02  0.66266916717E+02 -0.19293043780E+03  0.20756997683E+03  0.41800000000E+01 0.  1.
        -11    1    4    4    0    0  0.51253782628E+02 -0.25089870641E+02 -0.32236243733E+03  0.32737439247E+03  0.00000000000E+00 0. -1.
         11    1    4    4    0    0  0.48236345861E+01 -0.37766467545E+02 -0.43540074124E+02  0.57838668520E+02  0.00000000000E+00 0.  1.
</event>
<event>
 8    1  0.6380400E-009  0.8899396E+02  0.7561462E-02  0.1305306E+00
         -1   -1    0    0    0  501 -0.00000000000E+00  0.00000000000E+00  0.41889905287E+02  0.41889905287E+02  0.00000000000E+00 0.  1.
          1   -1    0    0  501    0  0.00000000000E+00 -0.00000000000E+00 -0.28943129701E+03  0.28943129701E+03  0.00000000000E+00 0. -1.
         25    2    1    2    0    0  0.98660459301E+01 -0.91546114172E+01 -0.12638361530E+03  0.17833596429E+03  0.12509896950E+03 0.  0.
         23    2    1    2    0    0 -0.98660459301E+01  0.91546114172E+01 -0.12115777642E+03  0.15298523801E+03  0.92434465916E+02 0.  0.
          5    1    3    3  502    0 -0.52713170670E+02 -0.52932626528E+01 -0.93170601998E+02  0.10726103891E+03  0.41800000000E+01 0. -1.
         -5    1    3    3    0  502  0.62579216600E+02 -0.38613487645E+01 -0.33213013306E+02  0.71074925378E+02  0.41800000000E+01 0. -1.
        -11    1    4    4    0    0 -0.35201633948E+02  0.40576046045E+00 -0.12117127736E+03  0.12618160774E+03  0.00000000000E+00 0. -1.
         11    1    4    4    0    0  0.25335588018E+02  0.87488509568E+01  0.13500944299E-01  0.26803630268E+02  0.00000000000E+00 0.  1.
</event>
<event>
 8    1  0.6380400E-009  0.8975154E+02  0.7561462E-02  0.1303454E+00
          1   -1    0    0  501    0  0.00000000000E+00  0.00000000000E+00  0.21935241141E+03  0.21935241141E+03  0.00000000000E+00 0. -1.
         -1   -1    0    0    0  501 -0.00000000000E+00 -0.00000000000E+00 -0.60227332861E+02  0.60227332861E+02  0.00000000000E+00 0.  1.
         25    2    1    2    0    0 -0.71173619221E+01 -0.40299043411E+02  0.95681855644E+02  0.16272001991E+03  0.12509243639E+03 0.  0.
         23    2    1    2    0    0  0.71173619221E+01  0.40299043411E+02  0.63443222907E+02  0.11685972436E+03  0.89199119410E+02 0.  0.
          5    1    3    3  502    0 -0.40824886566E+02  0.31737975877E+02  0.40761148945E+02  0.65976618125E+02  0.41800000000E+01 0.  1.
         -5    1    3    3    0  502  0.33707524644E+02 -0.72037019287E+02  0.54920706699E+02  0.96743401789E+02  0.41800000000E+01 0.  1.
        -11    1    4    4    0    0  0.16398808469E+02  0.29411019129E+02 -0.15185805701E+02  0.36939648891E+02  0.00000000000E+00 0.  1.
         11    1    4    4    0    0 -0.92814465468E+01  0.10888024282E+02  0.78629028608E+02  0.79920075467E+02  0.00000000000E+00 0. -1.
</event>
<event>
 8    1  0.6380400E-009  0.1085575E+03  0.7561462E-02  0.1263265E+00
          2   -1    0    0  501    0  0.00000000000E+00  0.00000000000E+00  0.68749021447E+03  0.68749021447E+03  0.00000000000E+00 0. -1.
         -2   -1    0    0    0  501 -0.00000000000E+00 -0.00000000000E+00 -0.33028259998E+02  0.33028259998E+02  0.00000000000E+00 0.  1.
         25    2    1    2    0    0 -0.43987918090E+01 -0.90771198895E+02  0.22922892097E+03  0.27649943237E+03  0.12508908016E+03 0.  0.
         23    2    1    2    0    0  0.43987918090E+01  0.90771198895E+02  0.42523303350E+03  0.44401904210E+03  0.89838839277E+02 0.  0.
          5    1    3    3  502    0 -0.11217325447E+02  0.78956165270E+01  0.14731716848E+03  0.14801347803E+03  0.41800000000E+01 0.  1.
         -5    1    3    3    0  502  0.68185336380E+01 -0.98666815422E+02  0.81911752485E+02  0.12848595434E+03  0.41800000000E+01 0.  1.
        -11    1    4    4    0    0  0.10283535434E+02 -0.22914748251E+01  0.21128971554E+01  0.10745524291E+02  0.00000000000E+00 0.  1.
         11    1    4    4    0    0 -0.58847436252E+01  0.93062673721E+02  0.42312013635E+03  0.43327351780E+03  0.00000000000E+00 0. -1.
</event>
<event>
 8    1  0.6380400E-009  0.3435005E+03  0.7561462E-02  0.1065315E+00
         -2   -1    0    0    0  501 -0.00000000000E+00  0.00000000000E+00  0.87577314260E+02  0.87577314260E+02  0.00000000000E+00 0.  1.
          2   -1    0    0  501    0  0.00000000000E+00 -0.00000000000E+00 -0.18637261944E+04  0.18637261944E+04  0.00000000000E+00 0. -1.
         25    2    1    2    0    0 -0.25188449524E+03 -0.21248887343E+03 -0.13936719360E+04  0.14375552583E+04  0.12508531187E+03 0.  0.
         23    2    1    2    0    0  0.25188449524E+03  0.21248887343E+03 -0.38247694419E+03  0.51374825040E+03  0.95138486791E+02 0.  0.
          5    1    3    3  502    0 -0.18938209883E+03 -0.21820550177E+03 -0.11102006630E+04  0.11471888270E+04  0.41800000000E+01 0. -1.
         -5    1    3    3    0  502 -0.62502396411E+02  0.57166283328E+01 -0.28347127303E+03  0.29036643130E+03  0.41800000000E+01 0. -1.
        -11    1    4    4    0    0  0.59102151319E+02  0.86776943086E+02 -0.17395826016E+03  0.20318656063E+03  0.00000000000E+00 0.  1.
         11    1    4    4    0    0  0.19278234392E+03  0.12571193035E+03 -0.20851868403E+03  0.31056168977E+03  0.00000000000E+00 0. -1.
</event>
<event>
 8    1  0.6380400E-009  0.9580794E+02  0.7561462E-02  0.1289367E+00
         -4   -1    0    0    0  501 -0.00000000000E+00  0.00000000000E+00  0.28287374312E+02  0.28287374312E+02  0.00000000000E+00 0.  1.
          4   -1    0    0  501    0  0.00000000000E+00 -0.00000000000E+00 -0.45067230746E+03  0.45067230746E+03  0.00000000000E+00 0. -1.
         25    2    1    2    0    0  0.91900969243E+01 -0.34119075261E+02 -0.25626832310E+03  0.28734593941E+03  0.12508263786E+03 0.  0.
         23    2    1    2    0    0 -0.91900969243E+01  0.34119075261E+02 -0.16611661005E+03  0.19161374236E+03  0.88727272861E+02 0.  0.
          5    1    3    3  502    0  0.34101548762E+02  0.18271987055E+02 -0.20844712154E+03  0.21204823983E+03  0.41800000000E+01 0.  1.
         -5    1    3    3    0  502 -0.24911451837E+02 -0.52391062316E+02 -0.47821201563E+02  0.75297699581E+02  0.41800000000E+01 0.  1.
        -11    1    4    4    0    0  0.36910574294E+02  0.31228382101E+02 -0.71337770387E+02  0.86178186493E+02  0.00000000000E+00 0. -1.
         11    1    4    4    0    0 -0.46100671218E+02  0.28906931600E+01 -0.94778839665E+02  0.10543555587E+03  0.00000000000E+00 0.  1.
</event>
<event>
 8    1  0.6380400E-009  0.9460557E+02  0.7561462E-02  0.1292067E+00
         -2   -1    0    0    0  501 -0.00000000000E+00  0.00000000000E+00  0.60465721551E+02  0.60465721551E+02  0.00000000000E+00 0.  1.
          2   -1    0    0  501    0  0.00000000000E+00 -0.00000000000E+00 -0.50420562879E+03  0.50420562879E+03  0.00000000000E+00 0. -1.
         25    2    1    2    0    0 -0.85883135168E+01 -0.63622867395E+02 -0.40504405115E+02  0.14630984376E+03  0.12507731674E+03 0.  0.
         23    2    1    2    0    0  0.85883135168E+01  0.63622867395E+02 -0.40323550212E+03  0.41836150657E+03  0.91136445108E+02 0.  0.
          5    1    3    3  502    0  0.18088998679E+02 -0.22341931067E+02  0.41473633450E+02  0.50635051383E+02  0.41800000000E+01 0. -1.
         -5    1    3    3    0  502 -0.26677312196E+02 -0.41280936329E+02 -0.81978038565E+02  0.95674792381E+02  0.41800000000E+01 0. -1.
        -11    1    4    4    0    0  0.26591131006E+02  0.81339481904E+02 -0.32896688853E+03  0.33991530315E+03  0.00000000000E+00 0.  1.
         11    1    4    4    0    0 -0.18002817490E+02 -0.17716614509E+02 -0.74268613591E+02  0.78446203426E+02  0.00000000000E+00 0. -1.
</event>
<event>
 8    1  0.6380400E-009  0.8411746E+02  0.7561462E-02  0.1317757E+00
         -1   -1    0    0    0  501 -0.00000000000E+00  0.00000000000E+00  0.17702733003E+02  0.17702733003E+02  0.00000000000E+00 0.  1.
          1   -1    0    0  501    0  0.00000000000E+00 -0.00000000000E+00 -0.85143126402E+03  0.85143126402E+03  0.00000000000E+00 0. -1.
         25    2    1    2    0    0  0.37606199006E+02  0.40185335282E+02 -0.41140516270E+03  0.43350967971E+03  0.12508935660E+03 0.  0.
         23    2    1    2    0    0 -0.37606199006E+02 -0.40185335282E+02 -0.42232336832E+03  0.43562431731E+03  0.91555617129E+02 0.  0.
          5    1    3    3  502    0  0.32261089795E+02  0.44641641199E+02 -0.41886095388E+03  0.42248742600E+03  0.41800000000E+01 0. -1.
         -5    1    3    3    0  502  0.53451092116E+01 -0.44563059170E+01  0.74557911772E+01  0.11022253716E+02  0.41800000000E+01 0. -1.
        -11    1    4    4    0    0  0.24131057038E+02  0.91950492567E+01 -0.14372081665E+03  0.14602236124E+03  0.00000000000E+00 0. -1.
         11    1    4    4    0    0 -0.61737256044E+02 -0.49380384538E+02 -0.27860255167E+03  0.28960195607E+03  0.00000000000E+00 0.  1.
</event>
<event>
 8    1  0.6380400E-009  0.8566796E+02  0.7561462E-02  0.1313695E+00
         -2   -1    0    0    0  501 -0.00000000000E+00  0.00000000000E+00  0.33808708035E+02  0.33808708035E+02  0.00000000000E+00 0.  1.
          2   -1    0    0  501    0  0.00000000000E+00 -0.00000000000E+00 -0.38146932128E+03  0.38146932128E+03  0.00000000000E+00 0. -1.
         25    2    1    2    0    0 -0.10722065814E+02 -0.53079580947E+01 -0.25872488748E+03  0.28762772928E+03  0.12509199069E+03 0.  0.
         23    2    1    2    0    0  0.10722065814E+02  0.53079580947E+01 -0.88935725763E+02  0.12765030003E+03  0.90784903298E+02 0.  0.
          5    1    3    3  502    0  0.50611332900E+02 -0.18261907585E+02 -0.67946854397E+02  0.86771260847E+02  0.41800000000E+01 0.  1.
         -5    1    3    3    0  502 -0.61333398714E+02  0.12953949490E+02 -0.19077803308E+03  0.20085646844E+03  0.41800000000E+01 0.  1.
        -11    1    4    4    0    0 -0.21608116763E+02 -0.87922514485E+00  0.96743806844E+01  0.23691293517E+02  0.00000000000E+00 0.  1.
         11    1    4    4    0    0  0.32330182577E+02  0.61871832396E+01 -0.98610106447E+02  0.10395900651E+03  0.00000000000E+00 0. -1.
</event>
<event>
 8    1  0.6380400E-009  0.1745678E+03  0.7561462E-02  0.1173166E+00
         -1   -1    0    0    0  501 -0.00000000000E+00  0.00000000000E+00  0.55307137214E+02  0.55307137214E+02  0.00000000000E+00 0.  1.
          1   -1    0    0  501    0  0.00000000000E+00 -0.00000000000E+00 -0.64210252795E+03  0.64210252795E+03  0.00000000000E+00 0. -1.
         25    2    1    2    0    0 -0.39660655987E+02 -0.14532098579E+03 -0.35982457223E+03  0.40964813740E+03  0.12508683844E+03 0.  0.
         23    2    1    2    0    0  0.39660655987E+02  0.14532098579E+03 -0.22697081851E+03  0.28776152776E+03  0.92735041179E+02 0.  0.
          5    1    3    3  502    0  0.18034576482E+02 -0.13210064901E+03 -0.28034048560E+03  0.31045786781E+03  0.41800000000E+01 0. -1.
         -5    1    3    3    0  502 -0.57695232470E+02 -0.13220336783E+02 -0.79484086629E+02  0.99190269591E+02  0.41800000000E+01 0. -1.
        -11    1    4    4    0    0  0.45998601381E+02  0.93535246579E+02 -0.20725201436E+03  0.23198730814E+03  0.00000000000E+00 0. -1.
         11    1    4    4    0    0 -0.63379453934E+01  0.51785739214E+02 -0.19718804146E+02  0.55774219624E+02  0.00000000000E+00 0.  1.
</event>
<event>
 8    1  0.6380400E-009  0.1068658E+03  0.7561462E-02  0.1266486E+00
          2   -1    0    0  501    0  0.00000000000E+00  0.00000000000E+00  0.69979418123E+03  0.69979418123E+03  0.00000000000E+00 0. -1.
         -2   -1    0    0    0  501 -0.00000000000E+00 -0.00000000000E+00 -0.17963113093E+02  0.17963113093E+02  0.00000000000E+00 0.  1.
         25    2    1    2    0    0 -0.34643834320E+01 -0.26746939912E+01  0.46940725253E+03  0.48580859716E+03  0.12509064076E+03 0.  0.
         23    2    1    2    0    0  0.34643834320E+01  0.26746939912E+01  0.21242381561E+03  0.23194869716E+03  0.93043886091E+02 0.  0.
          5    1    3    3  502    0  0.51556687828E+02  0.30744449844E+02  0.24791865597E+03  0.25511653344E+03  0.41800000000E+01 0. -1.
         -5    1    3    3    0  502 -0.55021071260E+02 -0.33419143836E+02  0.22148859656E+03  0.23069206372E+03  0.41800000000E+01 0. -1.
        -11    1    4    4    0    0 -0.41701342895E+02 -0.84124195825E+01  0.13588274308E+03  0.14238641322E+03  0.00000000000E+00 0. -1.
         11    1    4    4    0    0  0.45165726327E+02  0.11087113574E+02  0.76541072527E+02  0.89562283946E+02  0.00000000000E+00 0.  1.
</event>
<event>
 8    1  0.6380400E-009  0.9175922E+02  0.7561462E-02  0.1298647E+00
         -1   -1    0    0    0  501 -0.00000000000E+00  0.00000000000E+00  0.13568352458E+03  0.13568352458E+03  0.00000000000E+00 0.  1.
          1   -1    0    0  501    0  0.00000000000E+00 -0.00000000000E+00 -0.98031688888E+02  0.98031688888E+02  0.00000000000E+00 0. -1.
         25    2    1    2    0    0  0.33044884521E+02 -0.12751684484E+01 -0.65962918424E+01  0.12955529439E+03  0.12508985887E+03 0.  0.
         23    2    1    2    0    0 -0.33044884521E+02  0.12751684484E+01  0.44248127536E+02  0.10415991908E+03  0.88305161254E+02 0.  0.
          5    1    3    3  502    0 -0.43143075083E+02 -0.10057430560E+02  0.19298459526E+02  0.48501337890E+02  0.41800000000E+01 0.  1.
         -5    1    3    3    0  502  0.76187959604E+02  0.87822621117E+01 -0.25894751368E+02  0.81053956503E+02  0.41800000000E+01 0.  1.
        -11    1    4    4    0    0  0.14576077610E+02  0.64689730159E+00 -0.19644676226E+02  0.24470263968E+02  0.00000000000E+00 0. -1.
         11    1    4    4    0    0 -0.47620962131E+02  0.62827114686E+00  0.63892803761E+02  0.79689655109E+02  0.00000000000E+00 0.  1.
</event>
<event>
 8    1  0.6380400E-009  0.1529855E+03  0.7561462E-02  0.1196852E+00
         -2   -1    0    0    0  501 -0.00000000000E+00  0.00000000000E+00  0.20350781564E+03  0.20350781564E+03  0.00000000000E+00 0.  1.
          2   -1    0    0  501    0  0.00000000000E+00 -0.00000000000E+00 -0.24467289404E+03  0.24467289404E+03  0.00000000000E+00 0. -1.
         25    2    1    2    0    0 -0.92856796510E+02 -0.69462569665E+02 -0.17835799218E+03  0.24679238082E+03  0.12508985817E+03 0.  0.
         23    2    1    2    0    0  0.92856796510E+02  0.69462569665E+02  0.13719291378E+03  0.20138832886E+03  0.91038069887E+02 0.  0.
          5    1    3    3  502    0 -0.55588198902E+02 -0.97292281054E+02 -0.79484559728E+02  0.13744491058E+03  0.41800000000E+01 0.  1.
         -5    1    3    3    0  502 -0.37268597608E+02  0.27829711389E+02 -0.98873432451E+02  0.10934747024E+03  0.41800000000E+01 0.  1.
        -11    1    4    4    0    0  0.86720856522E+02  0.99247642196E+01  0.75143152252E+02  0.11517595770E+03  0.00000000000E+00 0. -1.
         11    1    4    4    0    0  0.61359399875E+01  0.59537805445E+02  0.62049761528E+02  0.86212371168E+02  0.00000000000E+00 0.  1.
</event>
<event>
 8    1  0.6380400E-009  0.1364157E+03  0.7561462E-02  0.1218235E+00
         -1   -1    0    0    0  501 -0.00000000000E+00  0.00000000000E+00  0.23587430009E+03  0.23587430009E+03  0.00000000000E+00 0.  1.
          1   -1    0    0  501    0  0.00000000000E+00 -0.00000000000E+00 -0.11243747779E+03  0.11243747779E+03  0.00000000000E+00 0. -1.
         25    2    1    2    0    0 -0.78426670678E+02  0.90999863209E+02  0.56035989812E+02  0.18226127541E+03  0.12508965817E+03 0.  0.
         23    2    1    2    0    0  0.78426670678E+02 -0.90999863209E+02  0.67400832490E+02  0.16605050247E+03  0.92726368266E+02 0.  0.
          5    1    3    3  502    0 -0.88259102375E+02  0.95291055400E+02  0.51126403909E+01  0.13005255047E+03  0.41800000000E+01 0. -1.
         -5    1    3    3    0  502  0.98324316966E+01 -0.42911921904E+01  0.50923349421E+02  0.52208724939E+02  0.41800000000E+01 0. -1.
        -11    1    4    4    0    0  0.12416624523E+02 -0.54581516905E+02  0.71195188255E+02  0.90565276916E+02  0.00000000000E+00 0.  1.
         11    1    4    4    0    0  0.66010046155E+02 -0.36418346304E+02 -0.37943557651E+01  0.75485225552E+02  0.00000000000E+00 0. -1.
</event>
<event>
 8    1  0.6380400E-009  0.9490808E+02  0.7561462E-02  0.1291383E+00
          2   -1    0    0  501    0  0.00000000000E+00  0.00000000000E+00  0.11012805460E+03  0.11012805460E+03  0.00000000000E+00 0. -1.
         -2   -1    0    0    0  501 -0.00000000000E+00 -0.00000000000E+00 -0.13299813023E+03  0.13299813023E+03  0.00000000000E+00 0.  1.
         25    2    1    2    0    0 -0.93702825244E+01  0.65954752295E+01  0.40703529108E+02  0.13204502503E+03  0.12509120219E+03 0.  0.
         23    2    1    2    0    0  0.93702825244E+01 -0.65954752295E+01 -0.63573604739E+02  0.11108115981E+03  0.90366577652E+02 0.  0.
          5    1    3    3  502    0  0.15738898256E+02  0.50876067960E+02 -0.15967398644E+02  0.55754079930E+02  0.41800000000E+01 0. -1.
         -5    1    3    3    0  502 -0.25109180780E+02 -0.44280592730E+02  0.56670927752E+02  0.76290945100E+02  0.41800000000E+01 0. -1.
        -11    1    4    4    0    0 -0.22382252029E+02  0.29640730895E+02 -0.88719984943E+01  0.38187046118E+02  0.00000000000E+00 0. -1.
         11    1    4    4    0    0  0.31752534553E+02 -0.36236206125E+02 -0.54701606245E+02  0.72894113690E+02  0.00000000000E+00 0.  1.
</event>
<event>
 8    1  0.6380400E-009  0.3836620E+03  0.7561462E-02  0.1049589E+00
          2   -1    0    0  501    0  0.00000000000E+00  0.00000000000E+00  0.38724590495E+03  0.38724590495E+03  0.00000000000E+00 0. -1.
         -2   -1    0    0    0  501 -0.00000000000E+00 -0.00000000000E+00 -0.52637080893E+03  0.52637080893E+03  0.00000000000E+00 0.  1.
         25    2    1    2    0    0 -0.88609705237E+01 -0.37672502875E+03  0.15625152205E+03  0.42668713288E+03  0.12508839729E+03 0.  0.
         23    2    1    2    0    0  0.88609705237E+01  0.37672502875E+03 -0.29537642603E+03  0.48692958100E+03  0.88616701146E+02 0.  0.
          5    1    3    3  502    0 -0.18749864689E+02 -0.16172660782E+02 -0.12959308723E+02  0.28258245968E+02  0.41800000000E+01 0.  1.
         -5    1    3    3    0  502  0.98888941651E+01 -0.36055236797E+03  0.16921083077E+03  0.39842888691E+03  0.41800000000E+01 0. -1.
        -11    1    4    4    0    0 -0.25627642345E+02  0.16885887380E+03 -0.91607926107E+02  0.19380946169E+03  0.00000000000E+00 0.  1.
         11    1    4    4    0    0  0.34488612869E+02  0.20786615495E+03 -0.20376849992E+03  0.29312011932E+03  0.00000000000E+00 0. -1.
</event>
<event>
 8    1  0.6380400E-009  0.9167936E+02  0.7561462E-02  0.1298835E+00
         -2   -1    0    0    0  501 -0.00000000000E+00  0.00000000000E+00  0.54414786704E+02  0.54414786704E+02  0.00000000000E+00 0. -1.
          2   -1    0    0  501    0  0.00000000000E+00 -0.00000000000E+00 -0.30534206663E+03  0.30534206663E+03  0.00000000000E+00 0.  1.
         25    2    1    2    0    0  0.60109366491E+02  0.13764703017E+01 -0.78789783070E+02  0.15959796080E+03  0.12509455849E+03 0.  0.
         23    2    1    2    0    0 -0.60109366491E+02 -0.13764703017E+01 -0.17213749686E+03  0.20015889254E+03  0.82566541816E+02 0.  0.
          5    1    3    3  502    0 -0.14747505223E+02 -0.35831334014E+02  0.71636708592E+01  0.39625294797E+02  0.41800000000E+01 0. -1.
         -5    1    3    3    0  502  0.74856871714E+02  0.37207804316E+02 -0.85953453930E+02  0.11997266600E+03  0.41800000000E+01 0. -1.
        -11    1    4    4    0    0 -0.11660843365E+02  0.30042899931E+01  0.74094138142E+01  0.14138615188E+02  0.00000000000E+00 0. -1.
         11    1    4    4    0    0 -0.48448523125E+02 -0.43807602948E+01 -0.17954691067E+03  0.18602027735E+03  0.00000000000E+00 0.  1.
</event>
<event>
 8    1  0.6380400E-009  0.5775555E+02  0.7561462E-02  0.1407500E+00
         -2   -1    0    0    0  501 -0.00000000000E+00  0.00000000000E+00  0.41322430132E+02  0.41322430132E+02  0.00000000000E+00 0.  1.
          2   -1    0    0  501    0  0.00000000000E+00 -0.00000000000E+00 -0.31819418177E+03  0.31819418177E+03  0.00000000000E+00 0. -1.
         25    2    1    2    0    0 -0.17343800348E+00  0.16183080201E+02 -0.21063215391E+03  0.24550986961E+03  0.12508904689E+03 0.  0.
         23    2    1    2    0    0  0.17343800348E+00 -0.16183080201E+02 -0.66239597731E+02  0.11400674229E+03  0.91367011631E+02 0.  0.
          5    1    3    3  502    0 -0.20961817683E+02 -0.81701798633E+01  0.82003377586E+01  0.24307767872E+02  0.41800000000E+01 0.  1.
         -5    1    3    3    0  502  0.20788379679E+02  0.24353260064E+02 -0.21883249167E+03  0.22120210174E+03  0.41800000000E+01 0.  1.
        -11    1    4    4    0    0  0.25061056918E+02  0.73175910330E+01  0.11905216085E+02  0.28693864892E+02  0.00000000000E+00 0.  1.
         11    1    4    4    0    0 -0.24887618915E+02 -0.23500671234E+02 -0.78144813815E+02  0.85312877398E+02  0.00000000000E+00 0. -1.
</event>
<event>
 8    1  0.6380400E-009  0.9927983E+02  0.7561462E-02  0.1281818E+00
         -3   -1    0    0    0  501 -0.00000000000E+00  0.00000000000E+00  0.44216892343E+03  0.44216892343E+03  0.00000000000E+00 0.  1.
          3   -1    0    0  501    0  0.00000000000E+00 -0.00000000000E+00 -0.28822456072E+02  0.28822456072E+02  0.00000000000E+00 0. -1.
         25    2    1    2    0    0  0.94196413496E+01  0.32064505291E+02  0.22979201157E+03  0.26375992814E+03  0.12509224184E+03 0.  0.
         23    2    1    2    0    0 -0.94196413496E+01 -0.32064505291E+02  0.18355445579E+03  0.20723145136E+03  0.90198525773E+02 0.  0.
          5    1    3    3  502    0  0.65442952978E+02  0.18905145800E+02  0.93505513140E+02  0.11576242059E+03  0.41800000000E+01 0.  1.
         -5    1    3    3    0  502 -0.56023311628E+02  0.13159359490E+02  0.13628649843E+03  0.14799750755E+03  0.41800000000E+01 0.  1.
        -11    1    4    4    0    0  0.23683281291E+02  0.35977209333E+01  0.83070932881E+01  0.25354471154E+02  0.00000000000E+00 0. -1.
         11    1    4    4    0    0 -0.33102922641E+02 -0.35662226224E+02  0.17524736250E+03  0.18187698021E+03  0.00000000000E+00 0.  1.
</event>
<event>
 8    1  0.6380400E-009  0.1146236E+03  0.7561462E-02  0.1252240E+00
          1   -1    0    0  501    0  0.00000000000E+00  0.00000000000E+00  0.33837548988E+03  0.33837548988E+03  0.00000000000E+00 0. -1.
         -1   -1    0    0    0  501 -0.00000000000E+00 -0.00000000000E+00 -0.47882434383E+02  0.47882434383E+02  0.00000000000E+00 0.  1.
         25    2    1    2    0    0  0.57548603185E+02  0.28454154737E+02  0.18628261711E+03  0.23336319796E+03  0.12504274499E+03 0.  0.
         23    2    1    2    0    0 -0.57548603185E+02 -0.28454154737E+02  0.10421043839E+03  0.15289472630E+03  0.91626967709E+02 0.  0.
          5    1    3    3  502    0 -0.82930404627E+01 -0.42420887531E+02  0.50717537254E+02  0.66768609421E+02  0.41800000000E+01 0. -1.
         -5    1    3    3    0  502  0.65841643648E+02  0.70875042267E+02  0.13556507985E+03  0.16659458854E+03  0.41800000000E+01 0. -1.
        -11    1    4    4    0    0  0.99654952896E+01  0.75272635400E+01  0.66387418863E+02  0.67551907272E+02  0.00000000000E+00 0. -1.
         11    1    4    4    0    0 -0.67514098475E+02 -0.35981418277E+02  0.37823019526E+02  0.85342819031E+02  0.00000000000E+00 0.  1.
</event>
<event>
 8    1  0.6380400E-009  0.1042415E+03  0.7561462E-02  0.1271621E+00
          3   -1    0    0  501    0  0.00000000000E+00  0.00000000000E+00  0.53643947042E+02  0.53643947042E+02  0.00000000000E+00 0. -1.
         -3   -1    0    0    0  501 -0.00000000000E+00 -0.00000000000E+00 -0.27164870346E+03  0.27164870346E+03  0.00000000000E+00 0.  1.
         25    2    1    2    0    0  0.44578335946E+02  0.88415798967E+01 -0.84288196039E+02  0.15753515845E+03  0.12508966618E+03 0.  0.
         23    2    1    2    0    0 -0.44578335946E+02 -0.88415798967E+01 -0.13371656038E+03  0.16775749205E+03  0.90537594676E+02 0.  0.
          5    1    3    3  502    0 -0.40701489612E+02  0.98374258666E+00 -0.58813584144E+01  0.41347814729E+02  0.41800000000E+01 0. -1.
         -5    1    3    3    0  502  0.85279825558E+02  0.78578373101E+01 -0.78406837625E+02  0.11618734372E+03  0.41800000000E+01 0. -1.
        -11    1    4    4    0    0 -0.21507763957E+02  0.29834178934E+02 -0.11175985430E+03  0.11765596957E+03  0.00000000000E+00 0.  1.
         11    1    4    4    0    0 -0.23070571989E+02 -0.38675758830E+02 -0.21956706078E+02  0.50101522480E+02  0.00000000000E+00 0. -1.
</event>
<event>
 8    1  0.6380400E-009  0.1052016E+03  0.7561462E-02  0.1269723E+00
         -1   -1    0    0    0  501 -0.00000000000E+00  0.00000000000E+00  0.12997807325E+03  0.12997807325E+03  0.00000000000E+00 0.  1.
          1   -1    0    0  501    0  0.00000000000E+00 -0.00000000000E+00 -0.11286694548E+03  0.11286694548E+03  0.00000000000E+00 0. -1.
         25    2    1    2    0    0 -0.49726632704E+02 -0.41670116387E+02 -0.32475380315E+02  0.14460854142E+03  0.12509133993E+03 0.  0.
         23    2    1    2    0    0  0.49726632704E+02  0.41670116387E+02  0.49586508079E+02  0.98236477303E+02  0.54611785263E+02 0.  0.
          5    1    3    3  502    0 -0.91003250248E+02 -0.32747323452E+02 -0.32674161256E+02  0.10217167887E+03  0.41800000000E+01 0. -1.
         -5    1    3    3    0  502  0.41276617544E+02 -0.89227929349E+01  0.19878094138E+00  0.42436862555E+02  0.41800000000E+01 0. -1.
        -11    1    4    4    0    0  0.15418247019E+02 -0.20851257796E+01 -0.85816287743E+01  0.17768355103E+02  0.00000000000E+00 0. -1.
         11    1    4    4    0    0  0.34308385685E+02  0.43755242167E+02  0.58168136853E+02  0.80468122200E+02  0.00000000000E+00 0.  1.
</event>
<event>
 8    1  0.6380400E-009  0.1532486E+03  0.7561462E-02  0.1196537E+00
         -2   -1    0    0    0  501 -0.00000000000E+00  0.00000000000E+00  0.11046129829E+03  0.11046129829E+03  0.00000000000E+00 0.  1.
          2   -1    0    0  501    0  0.00000000000E+00 -0.00000000000E+00 -0.25324836721E+03  0.25324836721E+03  0.00000000000E+00 0. -1.
         25    2    1    2    0    0 -0.12019377653E+03 -0.23547889753E+02 -0.10481431228E+03  0.20404352247E+03  0.12508665786E+03 0.  0.
         23    2    1    2    0    0  0.12019377653E+03  0.23547889753E+02 -0.37972756637E+02  0.15966614303E+03  0.95133064467E+02 0.  0.
          5    1    3    3  502    0 -0.42672965384E+02  0.36229117848E+02 -0.88371610336E+02  0.10469262089E+03  0.41800000000E+01 0.  1.
         -5    1    3    3    0  502 -0.77520811149E+02 -0.59777007601E+02 -0.16442701948E+02  0.99350901587E+02  0.41800000000E+01 0.  1.
        -11    1    4    4    0    0  0.93247854856E+02  0.57106329961E+02 -0.40376221470E+02  0.11656129125E+03  0.00000000000E+00 0.  1.
         11    1    4    4    0    0  0.26945921678E+02 -0.33558440208E+02  0.24034648333E+01  0.43104851786E+02  0.00000000000E+00 0. -1.
</event>
<event>
 8    1  0.6380400E-009  0.1130000E+03  0.7561462E-02  0.1255113E+00
          2   -1    0    0  501    0  0.00000000000E+00  0.00000000000E+00  0.53134942798E+03  0.53134942798E+03  0.00000000000E+00 0. -1.
         -2   -1    0    0    0  501 -0.00000000000E+00 -0.00000000000E+00 -0.38988214762E+02  0.38988214762E+02  0.00000000000E+00 0.  1.
         25    2    1    2    0    0 -0.60278171562E+01 -0.48721812532E+02  0.42744551811E+03  0.44806937443E+03  0.12508534590E+03 0.  0.
         23    2    1    2    0    0  0.60278171562E+01  0.48721812532E+02  0.64915695115E+02  0.12226826831E+03  0.91243259300E+02 0.  0.
          5    1    3    3  502    0  0.49434783709E+02  0.72863354544E+01  0.10889798839E+03  0.11988800107E+03  0.41800000000E+01 0.  1.
         -5    1    3    3    0  502 -0.55462600866E+02 -0.56008147986E+02  0.31854752971E+03  0.32818137336E+03  0.41800000000E+01 0.  1.
        -11    1    4    4    0    0  0.22998994785E+02 -0.17284580638E+02  0.92926041233E+00  0.28784961592E+02  0.00000000000E+00 0.  1.
         11    1    4    4    0    0 -0.16971177628E+02  0.66006393169E+02  0.63986434703E+02  0.93483306720E+02  0.00000000000E+00 0. -1.
</event>
<event>
 8    1  0.6380400E-009  0.1025782E+03  0.7561462E-02  0.1274966E+00
          3   -1    0    0  501    0  0.00000000000E+00  0.00000000000E+00  0.30860807469E+02  0.30860807469E+02  0.00000000000E+00 0. -1.
         -3   -1    0    0    0  501 -0.00000000000E+00 -0.00000000000E+00 -0.53941848699E+03  0.53941848699E+03  0.00000000000E+00 0.  1.
         25    2    1    2    0    0  0.35916464627E+02  0.78544152240E+01 -0.41373794797E+03  0.43379848435E+03  0.12510136356E+03 0.  0.
         23    2    1    2    0    0 -0.35916464627E+02 -0.78544152240E+01 -0.94819731555E+02  0.13648081011E+03  0.91019480152E+02 0.  0.
          5    1    3    3  502    0  0.22841994303E+02 -0.51079786873E+02 -0.10366527261E+03  0.11787647126E+03  0.41800000000E+01 0.  1.
         -5    1    3    3    0  502  0.13074470324E+02  0.58934202097E+02 -0.31007267536E+03  0.31592201309E+03  0.41800000000E+01 0.  1.
        -11    1    4    4    0    0 -0.61622229211E+02 -0.11134742706E+02 -0.36060510032E+02  0.72260930051E+02  0.00000000000E+00 0. -1.
         11    1    4    4    0    0  0.25705764584E+02  0.32803274817E+01 -0.58759221523E+02  0.64219880062E+02  0.00000000000E+00 0.  1.
</event>
<event>
 8    1  0.6380400E-009  0.2672110E+03  0.7561462E-02  0.1102887E+00
          4   -1    0    0  501    0  0.00000000000E+00  0.00000000000E+00  0.78234822151E+02  0.78234822151E+02  0.00000000000E+00 0. -1.
         -4   -1    0    0    0  501 -0.00000000000E+00 -0.00000000000E+00 -0.10316807766E+04  0.10316807766E+04  0.00000000000E+00 0.  1.
         25    2    1    2    0    0 -0.14940847750E+03  0.20394310795E+03 -0.35035607942E+03  0.44979146438E+03  0.12508914666E+03 0.  0.
         23    2    1    2    0    0  0.14940847750E+03 -0.20394310795E+03 -0.60308987506E+03  0.66012413441E+03  0.90170898798E+02 0.  0.
          5    1    3    3  502    0 -0.52960574991E+02  0.13574271849E+02 -0.13892070291E+03  0.14935031790E+03  0.41800000000E+01 0. -1.
         -5    1    3    3    0  502 -0.96447902512E+02  0.19036883610E+03 -0.21143537651E+03  0.30044114648E+03  0.41800000000E+01 0. -1.
        -11    1    4    4    0    0  0.15907799697E+03 -0.17944519725E+03 -0.56531332036E+03  0.61407290945E+03  0.00000000000E+00 0.  1.
         11    1    4    4    0    0 -0.96695194621E+01 -0.24497910699E+02 -0.37776554698E+02  0.46051224958E+02  0.00000000000E+00 0. -1.
</event>
<event>
 8    1  0.6380400E-009  0.6822070E+02  0.7561462E-02  0.1366250E+00
         -1   -1    0    0    0  501 -0.00000000000E+00  0.00000000000E+00  0.65277808704E+03  0.65277808704E+03  0.00000000000E+00 0.  1.
          1   -1    0    0  501    0  0.00000000000E+00 -0.00000000000E+00 -0.21314380609E+02  0.21314380609E+02  0.00000000000E+00 0. -1.
         25    2    1    2    0    0  0.76858524902E+01 -0.12156197308E+02  0.47856640488E+03  0.49485296606E+03  0.12508720430E+03 0.  0.
         23    2    1    2    0    0 -0.76858524902E+01  0.12156197308E+02  0.15289730156E+03  0.17923950159E+03  0.92424935194E+02 0.  0.
          5    1    3    3  502    0 -0.23747587112E+02 -0.91714580798E+01  0.45373242839E+03  0.45446523795E+03  0.41800000000E+01 0.  1.
         -5    1    3    3    0  502  0.31433439602E+02 -0.29847392287E+01  0.24833976492E+02  0.40387728110E+02  0.41800000000E+01 0.  1.
        -11    1    4    4    0    0  0.23055795484E+02 -0.22673855157E+02  0.11447024106E+03  0.11895002943E+03  0.00000000000E+00 0.  1.
         11    1    4    4    0    0 -0.30741647974E+02  0.34830052466E+02  0.38427060496E+02  0.60289472160E+02  0.00000000000E+00 0. -1.
</event>
<event>
 8    1  0.6380400E-009  0.1113681E+03  0.7561462E-02  0.1258057E+00
         -2   -1    0    0    0  501 -0.00000000000E+00  0.00000000000E+00  0.52473115291E+02  0.52473115291E+02  0.00000000000E+00 0.  1.
          2   -1    0    0  501    0  0.00000000000E+00 -0.00000000000E+00 -0.45665596055E+03  0.45665596055E+03  0.00000000000E+00 0. -1.
         25    2    1    2    0    0 -0.25943443513E+02  0.10922598351E+02 -0.39221777722E+03  0.41264332772E+03  0.12508943094E+03 0.  0.
         23    2    1    2    0    0  0.25943443513E+02 -0.10922598351E+02 -0.11965068036E+02  0.96485748113E+02  0.91509405636E+02 0.  0.
          5    1    3    3  502    0 -0.15818384468E+00 -0.55616998369E+02 -0.19727303074E+03  0.20500584525E+03  0.41800000000E+01 0.  1.
         -5    1    3    3    0  502 -0.25785259669E+02  0.66539596720E+02 -0.19494474648E+03  0.20763748247E+03  0.41800000000E+01 0.  1.
        -11    1    4    4    0    0  0.44084707084E+02  0.28215285569E+02 -0.10107673962E+02  0.53307868193E+02  0.00000000000E+00 0.  1.
         11    1    4    4    0    0 -0.18141263571E+02 -0.39137883920E+02 -0.18573940746E+01  0.43177879920E+02  0.00000000000E+00 0. -1.
</event>
<event>
 8    1  0.6380400E-009  0.1323737E+03  0.7561462E-02  0.1223975E+00
         -1   -1    0    0    0  501 -0.00000000000E+00  0.00000000000E+00  0.34702282578E+02  0.34702282578E+02  0.00000000000E+00 0. -1.
          1   -1    0    0  501    0  0.00000000000E+00 -0.00000000000E+00 -0.61354234192E+03  0.61354234192E+03  0.00000000000E+00 0.  1.
         25    2    1    2    0    0 -0.89801150814E+02 -0.29366435086E+02 -0.26504320191E+03  0.30793171438E+03  0.12508959847E+03 0.  0.
         23    2    1    2    0    0  0.89801150814E+02  0.29366435086E+02 -0.31379685743E+03  0.34031291012E+03  0.91748432470E+02 0.  0.
          5    1    3    3  502    0  0.19213212855E+02  0.16149881712E+01 -0.13043240641E+03  0.13191603685E+03  0.41800000000E+01 0. -1.
         -5    1    3    3    0  502 -0.10901436367E+03 -0.30981423257E+02 -0.13461079550E+03  0.17601567753E+03  0.41800000000E+01 0. -1.
        -11    1    4    4    0    0  0.88979699500E+02 -0.12396617887E+02 -0.21991443079E+03  0.23755719297E+03  0.00000000000E+00 0. -1.
         11    1    4    4    0    0  0.82145131401E+00  0.41763052973E+02 -0.93882426639E+02  0.10275571715E+03  0.00000000000E+00 0.  1.
</event>
<event>
 8    1  0.6380400E-009  0.9033020E+02  0.7561462E-02  0.1302054E+00
         -2   -1    0    0    0  501 -0.00000000000E+00  0.00000000000E+00  0.18290236343E+03  0.18290236343E+03  0.00000000000E+00 0.  1.
          2   -1    0    0  501    0  0.00000000000E+00 -0.00000000000E+00 -0.73157222527E+02  0.73157222527E+02  0.00000000000E+00 0. -1.
         25    2    1    2    0    0  0.18581443071E+02  0.86064809205E+00  0.10428990995E+03  0.16393014260E+03  0.12510274016E+03 0.  0.
         23    2    1    2    0    0 -0.18581443071E+02 -0.86064809205E+00  0.54552309542E+01  0.92129443354E+02  0.90066997542E+02 0.  0.
          5    1    3    3  502    0 -0.22652155543E+02  0.50820037048E+02  0.72966845152E+02  0.91855480009E+02  0.41800000000E+01 0.  1.
         -5    1    3    3    0  502  0.41233598614E+02 -0.49959388956E+02  0.31323064795E+02  0.72074662591E+02  0.41800000000E+01 0.  1.
        -11    1    4    4    0    0 -0.39115718316E+02 -0.33875881532E+01 -0.31125731904E+02  0.50103157180E+02  0.00000000000E+00 0. -1.
         11    1    4    4    0    0  0.20534275245E+02  0.25269400612E+01  0.36580962858E+02  0.42026286174E+02  0.00000000000E+00 0.  1.
</event>
<event>
 8    1  0.6380400E-009  0.1036849E+03  0.7561462E-02  0.1272733E+00
          2   -1    0    0  501    0  0.00000000000E+00  0.00000000000E+00  0.13812577186E+03  0.13812577186E+03  0.00000000000E+00 0.  1.
         -2   -1    0    0    0  501 -0.00000000000E+00 -0.00000000000E+00 -0.95517988771E+02  0.95517988771E+02  0.00000000000E+00 0. -1.
         25    2    1    2    0    0 -0.14794335757E+02 -0.43848384270E+01  0.48316594738E+02  0.13498088223E+03  0.12508895260E+03 0.  0.
         23    2    1    2    0    0  0.14794335757E+02  0.43848384270E+01 -0.57088116474E+01  0.98662878403E+02  0.97281415830E+02 0.  0.
          5    1    3    3  502    0  0.84041358319E+01  0.49644566897E+02 -0.10615610220E+02  0.51627280597E+02  0.41800000000E+01 0. -1.
         -5    1    3    3    0  502 -0.23198471589E+02 -0.54029405324E+02  0.58932204959E+02  0.83353601632E+02  0.41800000000E+01 0. -1.
        -11    1    4    4    0    0  0.91685318107E+01  0.50558427692E+02  0.24331821286E+01  0.51440615875E+02  0.00000000000E+00 0.  1.
         11    1    4    4    0    0  0.56258039467E+01 -0.46173589265E+02 -0.81419937760E+01  0.47222262529E+02  0.00000000000E+00 0. -1.
</event>
<event>
 8    1  0.6380400E-009  0.6841545E+02  0.7561462E-02  0.1365566E+00
          1   -1    0    0  501    0  0.00000000000E+00  0.00000000000E+00  0.77626622921E+02  0.77626622921E+02  0.00000000000E+00 0. -1.
         -1   -1    0    0    0  501 -0.00000000000E+00 -0.00000000000E+00 -0.17352755626E+03  0.17352755626E+03  0.00000000000E+00 0.  1.
         25    2    1    2    0    0  0.15262601683E+02 -0.68993141967E+01 -0.17121507911E+02  0.12736149923E+03  0.12508899994E+03 0.  0.
         23    2    1    2    0    0 -0.15262601683E+02  0.68993141967E+01 -0.78779425424E+02  0.12379267995E+03  0.94010011123E+02 0.  0.
          5    1    3    3  502    0  0.15812123381E+01 -0.21317677664E+02  0.51436465790E+02  0.55858088281E+02  0.41800000000E+01 0.  1.
         -5    1    3    3    0  502  0.13681389345E+02  0.14418363467E+02 -0.68557973701E+02  0.71503410950E+02  0.41800000000E+01 0.  1.
        -11    1    4    4    0    0  0.38253628863E+02  0.14038712447E+02 -0.41647152890E+02  0.58265864039E+02  0.00000000000E+00 0.  1.
         11    1    4    4    0    0 -0.53516230546E+02 -0.71393982504E+01 -0.37132272534E+02  0.65526815906E+02  0.00000000000E+00 0. -1.
</event>
<event>
 8    1  0.6380400E-009  0.1526046E+03  0.7561462E-02  0.1197309E+00
         -3   -1    0    0    0  501 -0.00000000000E+00  0.00000000000E+00  0.43070619848E+03  0.43070619848E+03  0.00000000000E+00 0.  1.
          3   -1    0    0  501    0  0.00000000000E+00 -0.00000000000E+00 -0.10283161203E+03  0.10283161203E+03  0.00000000000E+00 0. -1.
         25    2    1    2    0    0  0.10519248592E+02  0.14091285817E+03  0.29923178808E+02  0.19107575984E+03  0.12508981245E+03 0.  0.
         23    2    1    2    0    0 -0.10519248592E+02 -0.14091285817E+03  0.29795140764E+03  0.34246205067E+03  0.92401983984E+02 0.  0.
          5    1    3    3  502    0  0.15551279187E+02 -0.48955504110E+01  0.41379739016E+02  0.44671734903E+02  0.41800000000E+01 0.  1.
         -5    1    3    3    0  502 -0.50320305951E+01  0.14580840859E+03 -0.11456560208E+02  0.14640402494E+03  0.41800000000E+01 0.  1.
        -11    1    4    4    0    0  0.43795174638E+01 -0.59303986479E+02  0.40428290660E+02  0.71906812412E+02  0.00000000000E+00 0. -1.
         11    1    4    4    0    0 -0.14898766055E+02 -0.81608871695E+02  0.25752311698E+03  0.27055523826E+03  0.00000000000E+00 0.  1.
</event>
<event>
 8    1  0.6380400E-009  0.1662705E+03  0.7561462E-02  0.1181794E+00
         -2   -1    0    0    0  501 -0.00000000000E+00  0.00000000000E+00  0.50955080193E+02  0.50955080193E+02  0.00000000000E+00 0.  1.
          2   -1    0    0  501    0  0.00000000000E+00 -0.00000000000E+00 -0.70106761115E+03  0.70106761115E+03  0.00000000000E+00 0. -1.
         25    2    1    2    0    0 -0.12538172599E+03  0.90368173706E+02 -0.36263045859E+03  0.41356442493E+03  0.12509076720E+03 0.  0.
         23    2    1    2    0    0  0.12538172599E+03 -0.90368173706E+02 -0.28748207236E+03  0.33845826641E+03  0.89560438479E+02 0.  0.
          5    1    3    3  502    0 -0.48849536810E+02  0.44875424291E+02 -0.29304433194E+03  0.30048716085E+03  0.41800000000E+01 0.  1.
         -5    1    3    3    0  502 -0.76532189181E+02  0.45492749415E+02 -0.69586126654E+02  0.11307726408E+03  0.41800000000E+01 0.  1.
        -11    1    4    4    0    0  0.10172168683E+03 -0.21286833165E+02 -0.19119745625E+03  0.21761640130E+03  0.00000000000E+00 0. -1.
         11    1    4    4    0    0  0.23660039165E+02 -0.69081340541E+02 -0.96284616108E+02  0.12084186511E+03  0.00000000000E+00 0.  1.
</event>
<event>
 8    1  0.6380400E-009  0.1043732E+03  0.7561462E-02  0.1271360E+00
         -2   -1    0    0    0  501 -0.00000000000E+00  0.00000000000E+00  0.24288867099E+03  0.24288867099E+03  0.00000000000E+00 0.  1.
          2   -1    0    0  501    0  0.00000000000E+00 -0.00000000000E+00 -0.50341013992E+02  0.50341013992E+02  0.00000000000E+00 0. -1.
         25    2    1    2    0    0  0.20301223981E+02  0.10484956588E+02  0.10262032857E+03  0.16340420819E+03  0.12509168402E+03 0.  0.
         23    2    1    2    0    0 -0.20301223981E+02 -0.10484956588E+02  0.89927328433E+02  0.12982547679E+03  0.90805594623E+02 0.  0.
          5    1    3    3  502    0  0.33840427125E+02  0.62574018476E+02  0.44170864138E+02  0.83840443313E+02  0.41800000000E+01 0. -1.
         -5    1    3    3    0  502 -0.13539203143E+02 -0.52089061888E+02  0.58449464428E+02  0.79563764881E+02  0.41800000000E+01 0. -1.
        -11    1    4    4    0    0 -0.18469164250E+02  0.34153355459E+02  0.13145968150E+02  0.40992416321E+02  0.00000000000E+00 0. -1.
         11    1    4    4    0    0 -0.18320597308E+01 -0.44638312047E+02  0.76781360283E+02  0.88833060469E+02  0.00000000000E+00 0.  1.
</event>
<event>
 8    1  0.6380400E-009  0.9744001E+02  0.7561462E-02  0.1285773E+00
         -1   -1    0    0    0  501 -0.00000000000E+00  0.00000000000E+00  0.34248167163E+02  0.34248167163E+02  0.00000000000E+00 0.  1.
          1   -1    0    0  501    0  0.00000000000E+00 -0.00000000000E+00 -0.34139503312E+03  0.34139503312E+03  0.00000000000E+00 0. -1.
         25    2    1    2    0    0  0.74890357602E+01  0.78273986434E+01 -0.19389545405E+03  0.23100587428E+03  0.12510360915E+03 0.  0.
         23    2    1    2    0    0 -0.74890357602E+01 -0.78273986434E+01 -0.11325141190E+03  0.14463732600E+03  0.89312484851E+02 0.  0.
          5    1    3    3  502    0 -0.40919355118E+02 -0.24492649902E+02 -0.28723569913E+02  0.55828302778E+02  0.41800000000E+01 0. -1.
         -5    1    3    3    0  502  0.48408390878E+02  0.32320048545E+02 -0.16517188414E+03  0.17517757150E+03  0.41800000000E+01 0. -1.
        -11    1    4    4    0    0  0.33880892975E+02 -0.26741786379E+02 -0.42865925200E+02  0.60831945479E+02  0.00000000000E+00 0. -1.
         11    1    4    4    0    0 -0.41369928736E+02  0.18914387736E+02 -0.70385486700E+02  0.83805380525E+02  0.00000000000E+00 0.  1.
</event>
<event>
 8    1  0.6380400E-009  0.1013845E+03  0.7561462E-02  0.1277411E+00
          1   -1    0    0  501    0  0.00000000000E+00  0.00000000000E+00  0.88771017560E+02  0.88771017560E+02  0.00000000000E+00 0. -1.
         -1   -1    0    0    0  501 -0.00000000000E+00 -0.00000000000E+00 -0.16155937902E+03  0.16155937902E+03  0.00000000000E+00 0.  1.
         25    2    1    2    0    0  0.36595876822E+02 -0.48556636940E-01 -0.48976807053E+02  0.13923368051E+03  0.12509208448E+03 0.  0.
         23    2    1    2    0    0 -0.36595876822E+02  0.48556636940E-01 -0.23811554410E+02  0.11109671608E+03  0.10215786628E+03 0.  0.
          5    1    3    3  502    0 -0.34812484415E+02  0.24226576293E+02  0.95509697923E+01  0.43675273257E+02  0.41800000000E+01 0. -1.
         -5    1    3    3    0  502  0.71408361237E+02 -0.24275132930E+02 -0.58527776846E+02  0.95558407249E+02  0.41800000000E+01 0. -1.
        -11    1    4    4    0    0 -0.29593527727E+02  0.36787305616E+02 -0.47381897814E+02  0.66888915212E+02  0.00000000000E+00 0. -1.
         11    1    4    4    0    0 -0.70023490953E+01 -0.36738748979E+02  0.23570343404E+02  0.44207800867E+02  0.00000000000E+00 0.  1.
</event>
<event>
 8    1  0.6380400E-009  0.1845937E+03  0.7561462E-02  0.1163430E+00
         -2   -1    0    0    0  501 -0.00000000000E+00  0.00000000000E+00  0.33442492249E+02  0.33442492249E+02  0.00000000000E+00 0.  1.
          2   -1    0    0  501    0  0.00000000000E+00 -0.00000000000E+00 -0.12404699525E+04  0.12404699525E+04  0.00000000000E+00 0. -1.
         25    2    1    2    0    0  0.81641699776E+02  0.14973791507E+03 -0.55602750049E+03  0.59489693139E+03  0.12509583254E+03 0.  0.
         23    2    1    2    0    0 -0.81641699776E+02 -0.14973791507E+03 -0.65099995971E+03  0.67901551331E+03  0.90411887608E+02 0.  0.
          5    1    3    3  502    0 -0.22671806459E+02  0.42657951817E+02 -0.61877833169E+02  0.78613295943E+02  0.41800000000E+01 0. -1.
         -5    1    3    3    0  502  0.10431350623E+03  0.10707996326E+03 -0.49414966732E+03  0.51628363544E+03  0.41800000000E+01 0. -1.
        -11    1    4    4    0    0 -0.45952232528E+02 -0.98679093380E+02 -0.54748232587E+03  0.55819895046E+03  0.00000000000E+00 0. -1.
         11    1    4    4    0    0 -0.35689467248E+02 -0.51058821694E+02 -0.10351763384E+03  0.12081656286E+03  0.00000000000E+00 0.  1.
</event>
<event>
 8    1  0.6380400E-009  0.1188343E+03  0.7561462E-02  0.1245033E+00
          2   -1    0    0  501    0  0.00000000000E+00  0.00000000000E+00  0.11513652031E+04  0.11513652031E+04  0.00000000000E+00 0. -1.
         -2   -1    0    0    0  501 -0.00000000000E+00 -0.00000000000E+00 -0.12596195042E+02  0.12596195042E+02  0.00000000000E+00 0.  1.
         25    2    1    2    0    0 -0.25915852952E+02  0.44581358807E+02  0.64234144840E+03  0.65643677894E+03  0.12509028512E+03 0.  0.
         23    2    1    2    0    0  0.25915852952E+02 -0.44581358807E+02  0.49642755971E+03  0.50752461925E+03  0.92096623812E+02 0.  0.
          5    1    3    3  502    0 -0.67458385513E+02 -0.49918455544E+01  0.26262075638E+03  0.27122442070E+03  0.41800000000E+01 0.  1.
         -5    1    3    3    0  502  0.41542532560E+02  0.49573204361E+02  0.37972069201E+03  0.38521235825E+03  0.41800000000E+01 0.  1.
        -11    1    4    4    0    0  0.26975509151E+02  0.24232508163E+02  0.14929943621E+03  0.15363988479E+03  0.00000000000E+00 0.  1.
         11    1    4    4    0    0 -0.10596561988E+01 -0.68813866970E+02  0.34712812349E+03  0.35388473445E+03  0.00000000000E+00 0. -1.
</event>
<event>
 8    1  0.6380400E-009  0.1042796E+03  0.7561462E-02  0.1271545E+00
         -2   -1    0    0    0  501 -0.00000000000E+00  0.00000000000E+00  0.30560044324E+03  0.30560044324E+03  0.00000000000E+00 0.  1.
          2   -1    0    0  501    0  0.00000000000E+00 -0.00000000000E+00 -0.39207192923E+02  0.39207192923E+02  0.00000000000E+00 0. -1.
         25    2    1    2    0    0 -0.27255968293E+02 -0.42631764485E+01  0.18419998919E+03  0.22436883874E+03  0.12510266705E+03 0.  0.
         23    2    1    2    0    0  0.27255968293E+02  0.42631764485E+01  0.82193261131E+02  0.12043879742E+03  0.83598500391E+02 0.  0.
          5    1    3    3  502    0  0.39386309161E+02  0.32306260788E+02  0.86997081345E+02  0.10090064617E+03  0.41800000000E+01 0.  1.
         -5    1    3    3    0  502 -0.66642277454E+02 -0.36569437237E+02  0.97202907840E+02  0.12346819257E+03  0.41800000000E+01 0.  1.
        -11    1    4    4    0    0 -0.26471844297E+02  0.74295882864E+01  0.77288474198E+01  0.28560329218E+02  0.00000000000E+00 0. -1.
         11    1    4    4    0    0  0.53727812591E+02 -0.31664118379E+01  0.74464413711E+02  0.91878468202E+02  0.00000000000E+00 0.  1.
</event>
<event>
 8    1  0.6380400E-009  0.1341511E+03  0.7561462E-02  0.1221423E+00
          1   -1    0    0  501    0  0.00000000000E+00  0.00000000000E+00  0.24257601225E+03  0.24257601225E+03  0.00000000000E+00 0. -1.
         -1   -1    0    0    0  501 -0.00000000000E+00 -0.00000000000E+00 -0.94733048913E+02  0.94733048913E+02  0.00000000000E+00 0.  1.
         25    2    1    2    0    0 -0.65666563265E+02 -0.65360472352E+02  0.27832459197E+02  0.15813089382E+03  0.12508654971E+03 0.  0.
         23    2    1    2    0    0  0.65666563265E+02  0.65360472352E+02  0.12001050414E+03  0.17917816734E+03  0.95489296104E+02 0.  0.
          5    1    3    3  502    0 -0.88677727766E+02 -0.70076558405E+02  0.51723005263E+02  0.12436721880E+03  0.41800000000E+01 0.  1.
         -5    1    3    3    0  502  0.23011164501E+02  0.47160860536E+01 -0.23890546066E+02  0.33763675017E+02  0.41800000000E+01 0.  1.
        -11    1    4    4    0    0  0.25993388958E+02 -0.22857535809E+02  0.45004088600E+02  0.56775797691E+02  0.00000000000E+00 0. -1.
         11    1    4    4    0    0  0.39673174308E+02  0.88218008161E+02  0.75006415537E+02  0.12240236965E+03  0.00000000000E+00 0.  1.
</event>
<event>
 8    1  0.6380400E-009  0.1190991E+03  0.7561462E-02  0.1244591E+00
          3   -1    0    0  501    0  0.00000000000E+00  0.00000000000E+00  0.32529265629E+03  0.32529265629E+03  0.00000000000E+00 0. -1.
         -3   -1    0    0    0  501 -0.00000000000E+00 -0.00000000000E+00 -0.93382535930E+02  0.93382535930E+02  0.00000000000E+00 0.  1.
         25    2    1    2    0    0  0.35821863431E+02 -0.55550550078E+02 -0.20184523216E+02  0.14291551830E+03  0.12509340862E+03 0.  0.
         23    2    1    2    0    0 -0.35821863431E+02  0.55550550078E+02  0.25209464358E+03  0.27575967392E+03  0.90125573093E+02 0.  0.
          5    1    3    3  502    0  0.82437433382E+02 -0.32499048350E+02 -0.63321928811E+01  0.88936424669E+02  0.41800000000E+01 0. -1.
         -5    1    3    3    0  502 -0.46615569951E+02 -0.23051501729E+02 -0.13852330335E+02  0.53979093633E+02  0.41800000000E+01 0. -1.
        -11    1    4    4    0    0  0.53731124120E+01  0.55862091358E+02  0.73500498428E+02  0.92475763620E+02  0.00000000000E+00 0.  1.
         11    1    4    4    0    0 -0.41194975843E+02 -0.31154127928E+00  0.17859414515E+03  0.18328391030E+03  0.00000000000E+00 0. -1.
</event>
<event>
 8    1  0.6380400E-009  0.1259855E+03  0.7561462E-02  0.1233537E+00
         -1   -1    0    0    0  501 -0.00000000000E+00  0.00000000000E+00  0.15323825601E+03  0.15323825601E+03  0.00000000000E+00 0.  1.
          1   -1    0    0  501    0  0.00000000000E+00 -0.00000000000E+00 -0.14459117534E+03  0.14459117534E+03  0.00000000000E+00 0. -1.
         25    2    1    2    0    0  0.82072547257E+02 -0.41607308313E+02 -0.35683661908E+02  0.15933747532E+03  0.12509211085E+03 0.  0.
         23    2    1    2    0    0 -0.82072547257E+02  0.41607308313E+02  0.44330742569E+02  0.13849195603E+03  0.93529332458E+02 0.  0.
          5    1    3    3  502    0  0.21184832145E+02  0.41554634304E+02  0.76510103761E+01  0.47450975806E+02  0.41800000000E+01 0.  1.
         -5    1    3    3    0  502  0.60887715112E+02 -0.83161942617E+02 -0.43334672284E+02  0.11188649951E+03  0.41800000000E+01 0.  1.
        -11    1    4    4    0    0 -0.26746375475E+02  0.38098812526E+02  0.64462102667E+02  0.79512582634E+02  0.00000000000E+00 0.  1.
         11    1    4    4    0    0 -0.55326171782E+02  0.35084957866E+01 -0.20131360098E+02  0.58979373395E+02  0.00000000000E+00 0. -1.
</event>
<event>
 8    1  0.6380400E-009  0.9403793E+02  0.7561462E-02  0.1293358E+00
         -1   -1    0    0    0  501 -0.00000000000E+00  0.00000000000E+00  0.37097681736E+02  0.37097681736E+02  0.00000000000E+00 0.  1.
          1   -1    0    0  501    0  0.00000000000E+00 -0.00000000000E+00 -0.55744109012E+03  0.55744109012E+03  0.00000000000E+00 0. -1.
         25    2    1    2    0    0 -0.70017501725E+00  0.48717961848E+02 -0.11790338880E+03  0.17867235606E+03  0.12509465087E+03 0.  0.
         23    2    1    2    0    0  0.70017501725E+00 -0.48717961848E+02 -0.40244001958E+03  0.41586641580E+03  0.92806122511E+02 0.  0.
          5    1    3    3  502    0 -0.40438578708E+02  0.29999841005E+02 -0.12421616322E+03  0.13409845902E+03  0.41800000000E+01 0.  1.
         -5    1    3    3    0  502  0.39738403691E+02  0.18718120844E+02  0.63127744167E+01  0.44573897032E+02  0.41800000000E+01 0.  1.
        -11    1    4    4    0    0  0.27621775563E+02  0.95611920731E+01 -0.52517023121E+02  0.60103382572E+02  0.00000000000E+00 0.  1.
         11    1    4    4    0    0 -0.26921600546E+02 -0.58279153921E+02 -0.34992299646E+03  0.35576303323E+03  0.00000000000E+00 0. -1.
</event>
<event>
 8    1  0.6380400E-009  0.1076276E+03  0.7561462E-02  0.1265027E+00
          3   -1    0    0  501    0  0.00000000000E+00  0.00000000000E+00  0.12077171012E+03  0.12077171012E+03  0.00000000000E+00 0. -1.
         -3   -1    0    0    0  501 -0.00000000000E+00 -0.00000000000E+00 -0.14392567318E+03  0.14392567318E+03  0.00000000000E+00 0.  1.
         25    2    1    2    0    0 -0.39496300867E+02 -0.52817957969E+02 -0.53865533520E+02  0.15134509776E+03  0.12511653947E+03 0.  0.
         23    2    1    2    0    0  0.39496300867E+02  0.52817957969E+02  0.30711570461E+02  0.11335228553E+03  0.86924367175E+02 0.  0.
          5    1    3    3  502    0 -0.77002993533E+02 -0.57683489322E+02 -0.15925647529E+02  0.97611190971E+02  0.41800000000E+01 0.  1.
         -5    1    3    3    0  502  0.37506692667E+02  0.48655313530E+01 -0.37939885991E+02  0.53733906792E+02  0.41800000000E+01 0.  1.
        -11    1    4    4    0    0  0.14905082289E+01  0.41103558552E+02 -0.22529869546E+02  0.46896899281E+02  0.00000000000E+00 0.  1.
         11    1    4    4    0    0  0.38005792638E+02  0.11714399418E+02  0.53241440007E+02  0.66455386251E+02  0.00000000000E+00 0. -1.
</event>
<event>
 8    1  0.6380400E-009  0.9767922E+02  0.7561462E-02  0.1285253E+00
         -2   -1    0    0    0  501 -0.00000000000E+00  0.00000000000E+00  0.33589426258E+02  0.33589426258E+02  0.00000000000E+00 0.  1.
          2   -1    0    0  501    0  0.00000000000E+00 -0.00000000000E+00 -0.30376915620E+03  0.30376915620E+03  0.00000000000E+00 0. -1.
         25    2    1    2    0    0 -0.24868096740E+02 -0.29585523745E+02 -0.17485230121E+03  0.21843789050E+03  0.12509220326E+03 0.  0.
         23    2    1    2    0    0  0.24868096740E+02  0.29585523745E+02 -0.95327428728E+02  0.11892069195E+03  0.59674842740E+02 0.  0.
          5    1    3    3  502    0  0.47970065519E+02 -0.31296031182E+02 -0.86740064874E+02  0.10402826543E+03  0.41800000000E+01 0.  1.
         -5    1    3    3    0  502 -0.72838162259E+02  0.17105074371E+01 -0.88112236336E+02  0.11440962507E+03  0.41800000000E+01 0.  1.
        -11    1    4    4    0    0  0.20128442951E+02  0.44747541804E+02 -0.46598123512E+02  0.67667435506E+02  0.00000000000E+00 0.  1.
         11    1    4    4    0    0  0.47396537885E+01 -0.15162018058E+02 -0.48729305216E+02  0.51253256447E+02  0.00000000000E+00 0. -1.
</event>
<event>
 8    1  0.6380400E-009  0.1763840E+03  0.7561462E-02  0.1171349E+00
         -2   -1    0    0    0  501 -0.00000000000E+00  0.00000000000E+00  0.12745275898E+03  0.12745275898E+03  0.00000000000E+00 0.  1.
          2   -1    0    0  501    0  0.00000000000E+00 -0.00000000000E+00 -0.29269067249E+03  0.29269067249E+03  0.00000000000E+00 0. -1.
         25    2    1    2    0    0 -0.33031164776E+01 -0.14956802747E+03 -0.32219946842E+02  0.19765226897E+03  0.12508712579E+03 0.  0.
         23    2    1    2    0    0  0.33031164776E+01  0.14956802747E+03 -0.13301796666E+03  0.22249116250E+03  0.97092906625E+02 0.  0.
          5    1    3    3  502    0  0.57129455698E+02 -0.46334870286E+02 -0.24762765584E+02  0.77726198107E+02  0.41800000000E+01 0. -1.
         -5    1    3    3    0  502 -0.60432572176E+02 -0.10323315718E+03 -0.74571812583E+01  0.11992607087E+03  0.41800000000E+01 0. -1.
        -11    1    4    4    0    0 -0.20152360193E+02  0.11988044934E+03 -0.13847675109E+03  0.18426407775E+03  0.00000000000E+00 0. -1.
         11    1    4    4    0    0  0.23455476671E+02  0.29687578127E+02  0.54587844343E+01  0.38227084749E+02  0.00000000000E+00 0.  1.
</event>
<event>
 8    1  0.6380400E-009  0.7992487E+02  0.7561462E-02  0.1329265E+00
         -1   -1    0    0    0  501 -0.00000000000E+00  0.00000000000E+00  0.17698825539E+03  0.17698825539E+03  0.00000000000E+00 0.  1.
          1   -1    0    0  501    0  0.00000000000E+00 -0.00000000000E+00 -0.99290608640E+02  0.99290608640E+02  0.00000000000E+00 0. -1.
         25    2    1    2    0    0  0.88022373869E+01  0.41570545328E+02 -0.16111093819E+02  0.13308801260E+03  0.12508901683E+03 0.  0.
         23    2    1    2    0    0 -0.88022373869E+01 -0.41570545328E+02  0.93808740566E+02  0.14319085143E+03  0.99488444076E+02 0.  0.
          5    1    3    3  502    0 -0.30282175613E+02  0.23901993370E+02  0.44292659281E+02  0.58886564793E+02  0.41800000000E+01 0. -1.
         -5    1    3    3    0  502  0.39084413000E+02  0.17668551958E+02 -0.60403753100E+02  0.74201447806E+02  0.41800000000E+01 0. -1.
        -11    1    4    4    0    0 -0.21768145751E+02 -0.55079504001E+02  0.13521343270E+02  0.60748914840E+02  0.00000000000E+00 0. -1.
         11    1    4    4    0    0  0.12965908364E+02  0.13508958672E+02  0.80287397296E+02  0.82441936590E+02  0.00000000000E+00 0.  1.
</event>
<event>
 8    1  0.6380400E-009  0.1018694E+03  0.7561462E-02  0.1276413E+00
         -1   -1    0    0    0  501 -0.00000000000E+00  0.00000000000E+00  0.34054317726E+02  0.34054317726E+02  0.00000000000E+00 0.  1.
          1   -1    0    0  501    0  0.00000000000E+00 -0.00000000000E+00 -0.41296196426E+03  0.41296196426E+03  0.00000000000E+00 0. -1.
         25    2    1    2    0    0 -0.10719936527E+02  0.36577964976E+02 -0.26952276666E+03  0.29956272776E+03  0.12506974676E+03 0.  0.
         23    2    1    2    0    0  0.10719936527E+02 -0.36577964976E+02 -0.10938487987E+03  0.14745355422E+03  0.91239433072E+02 0.  0.
          5    1    3    3  502    0  0.43912485718E+02  0.25689307984E+02 -0.44533266448E+02  0.67741650166E+02  0.41800000000E+01 0. -1.
         -5    1    3    3    0  502 -0.54632422245E+02  0.10888656992E+02 -0.22498950021E+03  0.23182107759E+03  0.41800000000E+01 0. -1.
        -11    1    4    4    0    0  0.14822595389E+02  0.28233388847E+02 -0.50873288291E+02  0.60041027984E+02  0.00000000000E+00 0. -1.
         11    1    4    4    0    0 -0.41026588618E+01 -0.64811353823E+02 -0.58511591580E+02  0.87412526238E+02  0.00000000000E+00 0.  1.
</event>
<event>
 8    1  0.6380400E-009  0.7529633E+02  0.7561462E-02  0.1342956E+00
          2   -1    0    0  501    0  0.00000000000E+00  0.00000000000E+00  0.27929930241E+02  0.27929930241E+02  0.00000000000E+00 0. -1.
         -2   -1    0    0    0  501 -0.00000000000E+00 -0.00000000000E+00 -0.48267311145E+03  0.48267311145E+03  0.00000000000E+00 0.  1.
         25    2    1    2    0    0  0.33417095697E+02 -0.25074995992E+02 -0.25093459368E+03  0.28348304566E+03  0.12509599979E+03 0.  0.
         23    2    1    2    0    0 -0.33417095697E+02  0.25074995992E+02 -0.20380858753E+03  0.22711999603E+03  0.91104854631E+02 0.  0.
          5    1    3    3  502    0  0.50858043779E+01 -0.20458544309E+02  0.79973233249E+01  0.22931354556E+02  0.41800000000E+01 0.  1.
         -5    1    3    3    0  502  0.28331291319E+02 -0.46164516837E+01 -0.25893191700E+03  0.26055169110E+03  0.41800000000E+01 0.  1.
        -11    1    4    4    0    0 -0.65038576882E+02  0.20165203200E+02 -0.14403124488E+03  0.15931619944E+03  0.00000000000E+00 0. -1.
         11    1    4    4    0    0  0.31621481185E+02  0.49097927925E+01 -0.59777342656E+02  0.67803796595E+02  0.00000000000E+00 0.  1.
</event>
<event>
 8    1  0.6380400E-009  0.1140234E+03  0.7561462E-02  0.1253295E+00
         -1   -1    0    0    0  501 -0.00000000000E+00  0.00000000000E+00  0.41921978903E+02  0.41921978903E+02  0.00000000000E+00 0.  1.
          1   -1    0    0  501    0  0.00000000000E+00 -0.00000000000E+00 -0.43512649601E+03  0.43512649601E+03  0.00000000000E+00 0. -1.
         25    2    1    2    0    0 -0.61373803018E+02  0.48548088236E+02 -0.19258402132E+03  0.24261038563E+03  0.12509010103E+03 0.  0.
         23    2    1    2    0    0  0.61373803018E+02 -0.48548088236E+02 -0.20062049579E+03  0.23443808929E+03  0.92676716664E+02 0.  0.
          5    1    3    3  502    0 -0.49568140736E+02  0.88707886432E+02 -0.10925936066E+03  0.14926878436E+03  0.41800000000E+01 0. -1.
         -5    1    3    3    0  502 -0.11805662281E+02 -0.40159798196E+02 -0.83324660663E+02  0.93341601270E+02  0.41800000000E+01 0. -1.
        -11    1    4    4    0    0 -0.55696527759E+00 -0.12712625878E+02  0.72170521178E+01  0.14628974958E+02  0.00000000000E+00 0.  1.
         11    1    4    4    0    0  0.61930768295E+02 -0.35835462358E+02 -0.20783754791E+03  0.21980911433E+03  0.00000000000E+00 0. -1.
</event>
<event>
 8    1  0.6380400E-009  0.1225399E+03  0.7561462E-02  0.1238965E+00
          1   -1    0    0  501    0  0.00000000000E+00  0.00000000000E+00  0.17409893232E+02  0.17409893232E+02  0.00000000000E+00 0. -1.
         -1   -1    0    0    0  501 -0.00000000000E+00 -0.00000000000E+00 -0.13065745453E+04  0.13065745453E+04  0.00000000000E+00 0.  1.
         25    2    1    2    0    0 -0.93629848725E+02 -0.10936717127E+01 -0.78072029530E+03  0.79620308217E+03  0.12508966333E+03 0.  0.
         23    2    1    2    0    0  0.93629848725E+02  0.10936717127E+01 -0.50844435678E+03  0.52778135637E+03  0.10615908583E+03 0.  0.
          5    1    3    3  502    0  0.25155703796E+02 -0.44621231075E+01 -0.29525386311E+03  0.29638663272E+03  0.41800000000E+01 0.  1.
         -5    1    3    3    0  502 -0.11878555252E+03  0.33684513948E+01 -0.48546643219E+03  0.49981644944E+03  0.41800000000E+01 0.  1.
        -11    1    4    4    0    0  0.57245326809E+01  0.10417244657E+02 -0.18084895926E+00  0.11887891613E+02  0.00000000000E+00 0. -1.
         11    1    4    4    0    0  0.87905316044E+02 -0.93235729441E+01 -0.50826350782E+03  0.51589346476E+03  0.00000000000E+00 0.  1.
</event>
<event>
 8    1  0.6380400E-009  0.7528570E+02  0.7561462E-02  0.1342989E+00
          2   -1    0    0  501    0  0.00000000000E+00  0.00000000000E+00  0.11640004021E+04  0.11640004021E+04  0.00000000000E+00 0. -1.
         -2   -1    0    0    0  501 -0.00000000000E+00 -0.00000000000E+00 -0.12303408310E+02  0.12303408310E+02  0.00000000000E+00 0.  1.
         25    2    1    2    0    0 -0.32432513761E+02  0.28298290771E+02  0.76876569113E+03  0.78006436328E+03  0.12508821604E+03 0.  0.
         23    2    1    2    0    0  0.32432513761E+02 -0.28298290771E+02  0.38293130268E+03  0.39623944715E+03  0.92285728559E+02 0.  0.
          5    1    3    3  502    0 -0.34504793627E+02  0.22013753982E+02  0.77086388054E+03  0.77196099698E+03  0.41800000000E+01 0. -1.
         -5    1    3    3    0  502  0.20722798660E+01  0.62845367891E+01 -0.20981894099E+01  0.81033662941E+01  0.41800000000E+01 0. -1.
        -11    1    4    4    0    0  0.37834716833E+02  0.26720539212E+02  0.16146648006E+03  0.16797879984E+03  0.00000000000E+00 0.  1.
         11    1    4    4    0    0 -0.54022030720E+01 -0.55018829983E+02  0.22146482262E+03  0.22826064731E+03  0.00000000000E+00 0. -1.
</event>
<event>
 8    1  0.6380400E-009  0.1138001E+03  0.7561462E-02  0.1253690E+00
          1   -1    0    0  501    0  0.00000000000E+00  0.00000000000E+00  0.91853644853E+03  0.91853644853E+03  0.00000000000E+00 0. -1.
         -1   -1    0    0    0  501 -0.00000000000E+00 -0.00000000000E+00 -0.21806671656E+02  0.21806671656E+02  0.00000000000E+00 0.  1.
         25    2    1    2    0    0 -0.55775604112E+02 -0.67015489809E+02  0.57640109757E+03  0.59622796418E+03  0.12509023184E+03 0.  0.
         23    2    1    2    0    0  0.55775604112E+02  0.67015489809E+02  0.32032867931E+03  0.34411515601E+03  0.90569221705E+02 0.  0.
          5    1    3    3  502    0 -0.62288257509E+02 -0.29839569559E+02  0.53724753499E+03  0.54168497596E+03  0.41800000000E+01 0. -1.
         -5    1    3    3    0  502  0.65126533974E+01 -0.37175920250E+02  0.39153562582E+02  0.54542988216E+02  0.41800000000E+01 0. -1.
        -11    1    4    4    0    0  0.17055721511E+02 -0.19345515794E+02  0.34837977166E+02  0.43345487315E+02  0.00000000000E+00 0.  1.
         11    1    4    4    0    0  0.38719882601E+02  0.86361005603E+02  0.28549070214E+03  0.30076966870E+03  0.00000000000E+00 0. -1.
</event>
<event>
 8    1  0.6380400E-009  0.6316641E+02  0.7561462E-02  0.1385005E+00
         -1   -1    0    0    0  501 -0.00000000000E+00  0.00000000000E+00  0.55387972350E+02  0.55387972350E+02  0.00000000000E+00 0. -1.
          1   -1    0    0  501    0  0.00000000000E+00 -0.00000000000E+00 -0.44918662166E+03  0.44918662166E+03  0.00000000000E+00 0.  1.
         25    2    1    2    0    0  0.20907399855E+02 -0.28946602115E+02 -0.37899847331E+02  0.13549364665E+03  0.12508838760E+03 0.  0.
         23    2    1    2    0    0 -0.20907399855E+02  0.28946602115E+02 -0.35589880198E+03  0.36908094736E+03  0.91004193918E+02 0.  0.
          5    1    3    3  502    0  0.12053562295E+02 -0.81201539650E+01 -0.83263939324E+02  0.84626126321E+02  0.41800000000E+01 0. -1.
         -5    1    3    3    0  502  0.88538375598E+01 -0.20826448150E+02  0.45364091993E+02  0.50867520330E+02  0.41800000000E+01 0. -1.
        -11    1    4    4    0    0  0.15671394006E+02  0.45443806345E+02 -0.27033072229E+03  0.27457135965E+03  0.00000000000E+00 0.  1.
         11    1    4    4    0    0 -0.36578793861E+02 -0.16497204230E+02 -0.85568079695E+02  0.94509587717E+02  0.00000000000E+00 0. -1.
</event>
<event>
 8    1  0.6380400E-009  0.9073244E+02  0.7561462E-02  0.1301088E+00
         -1   -1    0    0    0  501 -0.00000000000E+00  0.00000000000E+00  0.57243053094E+02  0.57243053094E+02  0.00000000000E+00 0.  1.
          1   -1    0    0  501    0  0.00000000000E+00 -0.00000000000E+00 -0.21389567214E+03  0.21389567214E+03  0.00000000000E+00 0. -1.
         25    2    1    2    0    0 -0.11658584776E+02 -0.28776674147E+01 -0.67682078913E+02  0.14271346954E+03  0.12506824942E+03 0.  0.
         23    2    1    2    0    0  0.11658584776E+02  0.28776674147E+01 -0.88970540137E+02  0.12842525570E+03  0.91831833912E+02 0.  0.
          5    1    3    3  502    0 -0.44369231980E+02  0.21902179065E+02  0.13667551519E+02  0.51503481035E+02  0.41800000000E+01 0.  1.
         -5    1    3    3    0  502  0.32710647204E+02 -0.24779846479E+02 -0.81349630431E+02  0.91209988506E+02  0.41800000000E+01 0.  1.
        -11    1    4    4    0    0 -0.29718691496E+02  0.29082772000E+02 -0.27602980859E+02  0.49909245674E+02  0.00000000000E+00 0. -1.
         11    1    4    4    0    0  0.41377276272E+02 -0.26205104585E+02 -0.61367559278E+02  0.78516010022E+02  0.00000000000E+00 0.  1.
</event>
<event>
 8    1  0.6380400E-009  0.9915745E+02  0.7561462E-02  0.1282078E+00
          2   -1    0    0  501    0  0.00000000000E+00  0.00000000000E+00  0.60480593072E+02  0.60480593072E+02  0.00000000000E+00 0. -1.
         -2   -1    0    0    0  501 -0.00000000000E+00 -0.00000000000E+00 -0.24530716768E+03  0.24530716768E+03  0.00000000000E+00 0.  1.
         25    2    1    2    0    0  0.34461745404E+02 -0.41937818663E+02 -0.74561224410E+02  0.15541129869E+03  0.12508758149E+03 0.  0.
         23    2    1    2    0    0 -0.34461745404E+02  0.41937818663E+02 -0.11026535020E+03  0.15037646207E+03  0.86650103048E+02 0.  0.
          5    1    3    3  502    0 -0.63917402167E+01  0.40710392372E+02 -0.37782343170E+02  0.56063965660E+02  0.41800000000E+01 0.  1.
         -5    1    3    3    0  502  0.40853485621E+02 -0.82648211035E+02 -0.36778881240E+02  0.99347333029E+02  0.41800000000E+01 0.  1.
        -11    1    4    4    0    0  0.25403668204E+01  0.22811703979E+02  0.85330284930E+01  0.24487545350E+02  0.00000000000E+00 0. -1.
         11    1    4    4    0    0 -0.37002112225E+02  0.19126114684E+02 -0.11879837869E+03  0.12588891672E+03  0.00000000000E+00 0.  1.
</event>
<event>
 8    1  0.6380400E-009  0.9549135E+02  0.7561462E-02  0.1290073E+00
          2   -1    0    0  501    0  0.00000000000E+00  0.00000000000E+00  0.90174469814E+03  0.90174469814E+03  0.00000000000E+00 0.  1.
         -2   -1    0    0    0  501 -0.00000000000E+00 -0.00000000000E+00 -0.16024825927E+02  0.16024825927E+02  0.00000000000E+00 0. -1.
         25    2    1    2    0    0  0.38478850013E+02 -0.14811400067E+02  0.62536349662E+03  0.63908276511E+03  0.12508908141E+03 0.  0.
         23    2    1    2    0    0 -0.38478850013E+02  0.14811400067E+02  0.26035637559E+03  0.27868675896E+03  0.90448149984E+02 0.  0.
          5    1    3    3  502    0 -0.21325944823E+02  0.15872947643E+02  0.31575367616E+02  0.41487620196E+02  0.41800000000E+01 0.  1.
         -5    1    3    3    0  502  0.59804794836E+02 -0.30684347709E+02  0.59378812901E+03  0.59759514492E+03  0.41800000000E+01 0.  1.
        -11    1    4    4    0    0  0.21406295842E+02  0.28157100010E+02  0.66055995473E+02  0.74929609104E+02  0.00000000000E+00 0. -1.
         11    1    4    4    0    0 -0.59885145855E+02 -0.13345699943E+02  0.19430038012E+03  0.20375714985E+03  0.00000000000E+00 0.  1.
</event>
<event>
 8    1  0.6380400E-009  0.1700279E+03  0.7561462E-02  0.1177819E+00
          2   -1    0    0  501    0  0.00000000000E+00  0.00000000000E+00  0.43932525317E+03  0.43932525317E+03  0.00000000000E+00 0.  1.
         -2   -1    0    0    0  501 -0.00000000000E+00 -0.00000000000E+00 -0.88090320837E+02  0.88090320837E+02  0.00000000000E+00 0. -1.
         25    2    1    2    0    0  0.12998427018E+03 -0.60809601758E+02  0.29216304860E+03  0.34871241169E+03  0.12508949172E+03 0.  0.
         23    2    1    2    0    0 -0.12998427018E+03  0.60809601758E+02  0.59071883735E+02  0.17870316232E+03  0.88609337072E+02 0.  0.
          5    1    3    3  502    0  0.11826315420E+03 -0.67292869252E+01  0.12359300416E+03  0.17124298532E+03  0.41800000000E+01 0. -1.
         -5    1    3    3    0  502  0.11721115973E+02 -0.54080314833E+02  0.16857004444E+03  0.17746942637E+03  0.41800000000E+01 0. -1.
        -11    1    4    4    0    0 -0.55642871393E+01 -0.17942296325E+02 -0.27828280911E+01  0.18990298075E+02  0.00000000000E+00 0. -1.
         11    1    4    4    0    0 -0.12441998304E+03  0.78751898083E+02  0.61854711826E+02  0.15971286425E+03  0.00000000000E+00 0.  1.
</event>
<event>
 8    1  0.6380400E-009  0.1307835E+03  0.7561462E-02  0.1226298E+00
         -2   -1    0    0    0  501 -0.00000000000E+00  0.00000000000E+00  0.34109143063E+03  0.34109143063E+03  0.00000000000E+00 0.  1.
          2   -1    0    0  501    0  0.00000000000E+00 -0.00000000000E+00 -0.64979373788E+02  0.64979373788E+02  0.00000000000E+00 0. -1.
         25    2    1    2    0    0 -0.70449433768E+02 -0.71333549814E+02  0.17974898765E+03  0.24085398919E+03  0.12509735210E+03 0.  0.
         23    2    1    2    0    0  0.70449433768E+02  0.71333549814E+02  0.96363069201E+02  0.16521681523E+03  0.89214106964E+02 0.  0.
          5    1    3    3  502    0 -0.91135084772E+02 -0.59161548763E+01  0.10782788833E+03  0.14136806735E+03  0.41800000000E+01 0. -1.
         -5    1    3    3    0  502  0.20685651003E+02 -0.65417394938E+02  0.71921099320E+02  0.99485921844E+02  0.41800000000E+01 0. -1.
        -11    1    4    4    0    0  0.12368805482E+02  0.52754703396E+01  0.72970321257E+02  0.74198960375E+02  0.00000000000E+00 0.  1.
         11    1    4    4    0    0  0.58080628286E+02  0.66058079474E+02  0.23392747943E+02  0.91017854854E+02  0.00000000000E+00 0. -1.
</event>
<event>
 8    1  0.6380400E-009  0.1207413E+03  0.7561462E-02  0.1241879E+00
         -1   -1    0    0    0  501 -0.00000000000E+00  0.00000000000E+00  0.17917849294E+03  0.17917849294E+03  0.00000000000E+00 0.  1.
          1   -1    0    0  501    0  0.00000000000E+00 -0.00000000000E+00 -0.12455524834E+03  0.12455524834E+03  0.00000000000E+00 0. -1.
         25    2    1    2    0    0  0.72719859448E+02 -0.28097034462E+02  0.97692423872E+02  0.17682912575E+03  0.12508840365E+03 0.  0.
         23    2    1    2    0    0 -0.72719859448E+02  0.28097034462E+02 -0.43069179275E+02  0.12690461553E+03  0.90400254065E+02 0.  0.
          5    1    3    3  502    0 -0.57651181972E+01 -0.52777032927E+02  0.73885824038E+02  0.91078203683E+02  0.41800000000E+01 0. -1.
         -5    1    3    3    0  502  0.78484977645E+02  0.24679998465E+02  0.23806599834E+02  0.85750922070E+02  0.41800000000E+01 0. -1.
        -11    1    4    4    0    0 -0.75357870550E+02  0.45643897112E+02 -0.56488871159E+02  0.10465737701E+03  0.00000000000E+00 0. -1.
         11    1    4    4    0    0  0.26380111025E+01 -0.17546862650E+02  0.13419691884E+02  0.22247238519E+02  0.00000000000E+00 0.  1.
</event>
<event>
 8    1  0.6380400E-009  0.1185670E+03  0.7561462E-02  0.1245480E+00
         -2   -1    0    0    0  501 -0.00000000000E+00  0.00000000000E+00  0.30696254743E+02  0.30696254743E+02  0.00000000000E+00 0.  1.
          2   -1    0    0  501    0  0.00000000000E+00 -0.00000000000E+00 -0.65334914871E+03  0.65334914871E+03  0.00000000000E+00 0. -1.
         25    2    1    2    0    0  0.45600029597E+02  0.56015291333E+02 -0.46900103769E+03  0.49074602892E+03  0.12511041519E+03 0.  0.
         23    2    1    2    0    0 -0.45600029597E+02 -0.56015291333E+02 -0.15365185628E+03  0.19329937454E+03  0.92404976565E+02 0.  0.
          5    1    3    3  502    0 -0.23611478838E+02 -0.20542381123E+02 -0.20217189807E+03  0.20462267745E+03  0.41800000000E+01 0. -1.
         -5    1    3    3    0  502  0.69211508434E+02  0.76557672456E+02 -0.26682913961E+03  0.28612335147E+03  0.41800000000E+01 0. -1.
        -11    1    4    4    0    0  0.11800390194E+02 -0.41384212665E+02 -0.20710433602E+02  0.47757976576E+02  0.00000000000E+00 0.  1.
         11    1    4    4    0    0 -0.57400419791E+02 -0.14631078668E+02 -0.13294142268E+03  0.14554139796E+03  0.00000000000E+00 0. -1.
</event>
<event>
 8    1  0.6380400E-009  0.9238815E+02  0.7561462E-02  0.1297169E+00
         -2   -1    0    0    0  501 -0.00000000000E+00  0.00000000000E+00  0.40964963506E+02  0.40964963506E+02  0.00000000000E+00 0.  1.
          2   -1    0    0  501    0  0.00000000000E+00 -0.00000000000E+00 -0.33175446853E+03  0.33175446853E+03  0.00000000000E+00 0. -1.
         25    2    1    2    0    0  0.74509304124E+01 -0.23590834260E+02 -0.10905296405E+03  0.16778663209E+03  0.12509101132E+03 0.  0.
         23    2    1    2    0    0 -0.74509304124E+01  0.23590834260E+02 -0.18173654097E+03  0.20493279995E+03  0.91417932294E+02 0.  0.
          5    1    3    3  502    0  0.40554234300E+02 -0.62257594054E+02 -0.78982743512E+02  0.10851912324E+03  0.41800000000E+01 0. -1.
         -5    1    3    3    0  502 -0.33103303888E+02  0.38666759793E+02 -0.30070220542E+02  0.59267508845E+02  0.41800000000E+01 0. -1.
        -11    1    4    4    0    0  0.23131358358E+02  0.14813243093E+02 -0.84338466805E+01  0.28733633259E+02  0.00000000000E+00 0.  1.
         11    1    4    4    0    0 -0.30582288771E+02  0.87775911671E+01 -0.17330269429E+03  0.17619916669E+03  0.00000000000E+00 0. -1.
</event>
<event>
 8    1  0.6380400E-009  0.1039711E+03  0.7561462E-02  0.1272160E+00
         -2   -1    0    0    0  501 -0.00000000000E+00  0.00000000000E+00  0.59029161837E+02  0.59029161837E+02  0.00000000000E+00 0.  1.
          2   -1    0    0  501    0  0.00000000000E+00 -0.00000000000E+00 -0.24792587506E+03  0.24792587506E+03  0.00000000000E+00 0. -1.
         25    2    1    2    0    0  0.34288966353E+02  0.11832024397E+02 -0.59416905109E+02  0.14315371061E+03  0.12508751430E+03 0.  0.
         23    2    1    2    0    0 -0.34288966353E+02 -0.11832024397E+02 -0.12947980811E+03  0.16380132629E+03  0.93542096241E+02 0.  0.
          5    1    3    3  502    0 -0.27955051718E+02  0.39352785984E+02  0.58038199551E+01  0.48798395540E+02  0.41800000000E+01 0.  1.
         -5    1    3    3    0  502  0.62244018071E+02 -0.27520761587E+02 -0.65220725064E+02  0.94355315069E+02  0.41800000000E+01 0.  1.
        -11    1    4    4    0    0 -0.25887588249E+02 -0.47804969757E+02 -0.10840145844E+03  0.12126977592E+03  0.00000000000E+00 0.  1.
         11    1    4    4    0    0 -0.84013781040E+01  0.35972945360E+02 -0.21078349671E+02  0.42531550368E+02  0.00000000000E+00 0. -1.
</event>
<event>
 8    1  0.6380400E-009  0.1065412E+03  0.7561462E-02  0.1267113E+00
         -2   -1    0    0    0  501 -0.00000000000E+00  0.00000000000E+00  0.31822328462E+02  0.31822328462E+02  0.00000000000E+00 0. -1.
          2   -1    0    0  501    0  0.00000000000E+00 -0.00000000000E+00 -0.45755315363E+03  0.45755315363E+03  0.00000000000E+00 0.  1.
         25    2    1    2    0    0  0.25394538754E+02  0.17552978537E+02 -0.15660859553E+03  0.20280392747E+03  0.12510072402E+03 0.  0.
         23    2    1    2    0    0 -0.25394538754E+02 -0.17552978537E+02 -0.26912222964E+03  0.28657155463E+03  0.93506640293E+02 0.  0.
          5    1    3    3  502    0  0.76048825471E+02  0.53527753250E+01 -0.98882727652E+02  0.12492934918E+03  0.41800000000E+01 0. -1.
         -5    1    3    3    0  502 -0.50654286717E+02  0.12200203211E+02 -0.57725867876E+02  0.77874578287E+02  0.41800000000E+01 0. -1.
        -11    1    4    4    0    0 -0.48893376843E+01 -0.47728035152E+02 -0.74873059305E+02  0.88926070262E+02  0.00000000000E+00 0. -1.
         11    1    4    4    0    0 -0.20505201070E+02  0.30175056616E+02 -0.19424917034E+03  0.19764548436E+03  0.00000000000E+00 0.  1.
</event>
<event>
 8    1  0.6380400E-009  0.1266773E+03  0.7561462E-02  0.1232471E+00
         -1   -1    0    0    0  501 -0.00000000000E+00  0.00000000000E+00  0.53647405966E+02  0.53647405966E+02  0.00000000000E+00 0.  1.
          1   -1    0    0  501    0  0.00000000000E+00 -0.00000000000E+00 -0.39124007493E+03  0.39124007493E+03  0.00000000000E+00 0. -1.
         25    2    1    2    0    0 -0.49555808604E+02 -0.48367797761E+02 -0.84066711021E+02  0.16585999800E+03  0.12508838878E+03 0.  0.
         23    2    1    2    0    0  0.49555808604E+02  0.48367797761E+02 -0.25352595794E+03  0.27902748290E+03  0.93732080075E+02 0.  0.
          5    1    3    3  502    0 -0.70501151529E+01 -0.82548372022E+02 -0.71996317672E+02  0.10984024766E+03  0.41800000000E+01 0.  1.
         -5    1    3    3    0  502 -0.42505693451E+02  0.34180574261E+02 -0.12070393349E+02  0.56019750340E+02  0.41800000000E+01 0.  1.
        -11    1    4    4    0    0 -0.24140086112E+02  0.32206429524E+02 -0.72804764561E+02  0.83189732557E+02  0.00000000000E+00 0.  1.
         11    1    4    4    0    0  0.73695894716E+02  0.16161368238E+02 -0.18072119338E+03  0.19583775034E+03  0.00000000000E+00 0. -1.
</event>
<event>
 8    1  0.6380400E-009  0.1276913E+03  0.7561462E-02  0.1230922E+00
         -1   -1    0    0    0  501 -0.00000000000E+00  0.00000000000E+00  0.51206099096E+02  0.51206099096E+02  0.00000000000E+00 0.  1.
          1   -1    0    0  501    0  0.00000000000E+00 -0.00000000000E+00 -0.39501593515E+03  0.39501593515E+03  0.00000000000E+00 0. -1.
         25    2    1    2    0    0  0.68807006734E+02 -0.30496773741E+02 -0.10535624229E+03  0.18003318764E+03  0.12509018138E+03 0.  0.
         23    2    1    2    0    0 -0.68807006734E+02  0.30496773741E+02 -0.23845359377E+03  0.26618884661E+03  0.91279396881E+02 0.  0.
          5    1    3    3  502    0  0.80936464525E+02 -0.68164034820E+02 -0.81587996308E+02  0.13368291018E+03  0.41800000000E+01 0.  1.
         -5    1    3    3    0  502 -0.12129457791E+02  0.37667261079E+02 -0.23768245983E+02  0.46350277460E+02  0.41800000000E+01 0.  1.
        -11    1    4    4    0    0 -0.86274014299E+02  0.17782840450E+02 -0.22258938678E+03  0.23938560956E+03  0.00000000000E+00 0. -1.
         11    1    4    4    0    0  0.17467007565E+02  0.12713933291E+02 -0.15864206989E+02  0.26803237051E+02  0.00000000000E+00 0.  1.
</event>
<event>
 8    1  0.6380400E-009  0.1308438E+03  0.7561462E-02  0.1226209E+00
         -2   -1    0    0    0  501 -0.00000000000E+00  0.00000000000E+00  0.15484038875E+02  0.15484038875E+02  0.00000000000E+00 0.  1.
          2   -1    0    0  501    0  0.00000000000E+00 -0.00000000000E+00 -0.12157430464E+04  0.12157430464E+04  0.00000000000E+00 0. -1.
         25    2    1    2    0    0 -0.20886203023E+01 -0.74246187962E+02 -0.68546327814E+03  0.70073129226E+03  0.12509028544E+03 0.  0.
         23    2    1    2    0    0  0.20886203023E+01  0.74246187962E+02 -0.51479572936E+03  0.53049579299E+03  0.10437568994E+03 0.  0.
          5    1    3    3  502    0  0.38763104687E+02 -0.85648722538E+02 -0.56869604922E+03  0.57642948464E+03  0.41800000000E+01 0. -1.
         -5    1    3    3    0  502 -0.40851724990E+02  0.11402534575E+02 -0.11676722892E+03  0.12430180762E+03  0.41800000000E+01 0. -1.
        -11    1    4    4    0    0  0.41256071414E+02  0.26798754078E+00 -0.22928398427E+03  0.23296626513E+03  0.00000000000E+00 0.  1.
         11    1    4    4    0    0 -0.39167451112E+02  0.73978200421E+02 -0.28551174509E+03  0.29752952786E+03  0.00000000000E+00 0. -1.
</event>
<event>
 8    1  0.6380400E-009  0.1104749E+03  0.7561462E-02  0.1259693E+00
         -2   -1    0    0    0  501 -0.00000000000E+00  0.00000000000E+00  0.21248461076E+02  0.21248461076E+02  0.00000000000E+00 0.  1.
          2   -1    0    0  501    0  0.00000000000E+00 -0.00000000000E+00 -0.79312142203E+03  0.79312142203E+03  0.00000000000E+00 0. -1.
         25    2    1    2    0    0 -0.47925075996E+02 -0.13142096954E+02 -0.59021008832E+03  0.60536314622E+03  0.12508822020E+03 0.  0.
         23    2    1    2    0    0  0.47925075996E+02  0.13142096954E+02 -0.18166287263E+03  0.20900673688E+03  0.90624991841E+02 0.  0.
          5    1    3    3  502    0  0.35058594340E+02 -0.17714171138E+02 -0.90122256215E+02  0.98399138012E+02  0.41800000000E+01 0. -1.
         -5    1    3    3    0  502 -0.82983670336E+02  0.45720741845E+01 -0.50008783210E+03  0.50696400821E+03  0.41800000000E+01 0. -1.
        -11    1    4    4    0    0  0.70351051184E+02 -0.32964029358E+01 -0.15603154664E+03  0.17118989521E+03  0.00000000000E+00 0. -1.
         11    1    4    4    0    0 -0.22425975187E+02  0.16438499890E+02 -0.25631325992E+02  0.37816841669E+02  0.00000000000E+00 0.  1.
</event>
<event>
 8    1  0.6380400E-009  0.9231194E+02  0.7561462E-02  0.1297348E+00
          2   -1    0    0  501    0  0.00000000000E+00  0.00000000000E+00  0.11359936308E+04  0.11359936308E+04  0.00000000000E+00 0. -1.
         -2   -1    0    0    0  501 -0.00000000000E+00 -0.00000000000E+00 -0.16530121746E+02  0.16530121746E+02  0.00000000000E+00 0.  1.
         25    2    1    2    0    0 -0.48248625359E+02 -0.45724120745E+02  0.81684881932E+03  0.82904100418E+03  0.12509343673E+03 0.  0.
         23    2    1    2    0    0  0.48248625359E+02  0.45724120745E+02  0.30261468971E+03  0.32348274834E+03  0.92988241099E+02 0.  0.
          5    1    3    3  502    0 -0.47438262477E+02 -0.27195265768E+02  0.12004865802E+03  0.13198152871E+03  0.41800000000E+01 0.  1.
         -5    1    3    3    0  502 -0.81036288179E+00 -0.18528854978E+02  0.69680016130E+03  0.69705947547E+03  0.41800000000E+01 0.  1.
        -11    1    4    4    0    0  0.54291611118E+02 -0.95871064534E+01  0.19055187538E+03  0.19836710629E+03  0.00000000000E+00 0. -1.
         11    1    4    4    0    0 -0.60429857594E+01  0.55311227199E+02  0.11206281433E+03  0.12511564206E+03  0.00000000000E+00 0.  1.
</event>
<event>
 8    1  0.6380400E-009  0.1198934E+03  0.7561462E-02  0.1243273E+00
          2   -1    0    0  501    0  0.00000000000E+00  0.00000000000E+00  0.41183028599E+03  0.41183028599E+03  0.00000000000E+00 0. -1.
         -2   -1    0    0    0  501 -0.00000000000E+00 -0.00000000000E+00 -0.47465701210E+02  0.47465701210E+02  0.00000000000E+00 0.  1.
         25    2    1    2    0    0 -0.38631556831E+01  0.84173862008E+02  0.24520628481E+03  0.28787357902E+03  0.12507962412E+03 0.  0.
         23    2    1    2    0    0  0.38631556831E+01 -0.84173862008E+02  0.11915829997E+03  0.17142240818E+03  0.89926517543E+02 0.  0.
          5    1    3    3  502    0 -0.35070641608E+02  0.10001998940E+03  0.13218080610E+03  0.16947916121E+03  0.41800000000E+01 0. -1.
         -5    1    3    3    0  502  0.31207485925E+02 -0.15846127392E+02  0.11302547871E+03  0.11839441781E+03  0.41800000000E+01 0. -1.
        -11    1    4    4    0    0  0.17087779229E+02 -0.44577601376E+01 -0.90733910794E+01  0.19854224993E+02  0.00000000000E+00 0.  1.
         11    1    4    4    0    0 -0.13224623545E+02 -0.79716101871E+02  0.12823169105E+03  0.15156818318E+03  0.00000000000E+00 0. -1.
</event>
<event>
 8    1  0.6380400E-009  0.1480975E+03  0.7561462E-02  0.1202830E+00
         -1   -1    0    0    0  501 -0.00000000000E+00  0.00000000000E+00  0.54455497710E+02  0.54455497710E+02  0.00000000000E+00 0.  1.
          1   -1    0    0  501    0  0.00000000000E+00 -0.00000000000E+00 -0.60992769280E+03  0.60992769280E+03  0.00000000000E+00 0. -1.
         25    2    1    2    0    0  0.39993691318E+01  0.11512343355E+03 -0.12838719010E+03  0.21307272007E+03  0.12508922235E+03 0.  0.
         23    2    1    2    0    0 -0.39993691318E+01 -0.11512343355E+03 -0.42708500499E+03  0.45131047045E+03  0.89499381798E+02 0.  0.
          5    1    3    3  502    0  0.46517938333E+02  0.12675763919E+02 -0.75297352898E+01  0.48977167039E+02  0.41800000000E+01 0.  1.
         -5    1    3    3    0  502 -0.42518569201E+02  0.10244766963E+03 -0.12085745481E+03  0.16409555303E+03  0.41800000000E+01 0.  1.
        -11    1    4    4    0    0  0.56061357692E+01 -0.12375805042E+03 -0.41673502727E+03  0.43475920549E+03  0.00000000000E+00 0. -1.
         11    1    4    4    0    0 -0.96055049010E+01  0.86346168730E+01 -0.10349977720E+02  0.16551264959E+02  0.00000000000E+00 0.  1.
</event>
<event>
 8    1  0.6380400E-009  0.1259856E+03  0.7561462E-02  0.1233537E+00
         -1   -1    0    0    0  501 -0.00000000000E+00  0.00000000000E+00  0.39385496475E+03  0.39385496475E+03  0.00000000000E+00 0.  1.
          1   -1    0    0  501    0  0.00000000000E+00 -0.00000000000E+00 -0.56246244474E+02  0.56246244474E+02  0.00000000000E+00 0. -1.
         25    2    1    2    0    0  0.12959592182E+02 -0.77601847029E+02  0.84778240455E+02  0.17036672530E+03  0.12508986107E+03 0.  0.
         23    2    1    2    0    0 -0.12959592182E+02  0.77601847029E+02  0.25283047982E+03  0.27973448393E+03  0.90211597256E+02 0.  0.
          5    1    3    3  502    0 -0.39223673328E+02 -0.77048809418E+02  0.23345543293E+02  0.89652118624E+02  0.41800000000E+01 0. -1.
         -5    1    3    3    0  502  0.52183265510E+02 -0.55303761056E+00  0.61432697163E+02  0.80714606674E+02  0.41800000000E+01 0. -1.
        -11    1    4    4    0    0 -0.37023128816E+02  0.80708753113E+02  0.22947982434E+03  0.24606016475E+03  0.00000000000E+00 0.  1.
         11    1    4    4    0    0  0.24063536634E+02 -0.31069060847E+01  0.23350655480E+02  0.33674319179E+02  0.00000000000E+00 0. -1.
</event>
<event>
 8    1  0.6380400E-009  0.1835705E+03  0.7561462E-02  0.1164392E+00
          1   -1    0    0  501    0  0.00000000000E+00  0.00000000000E+00  0.23509812344E+03  0.23509812344E+03  0.00000000000E+00 0. -1.
         -1   -1    0    0    0  501 -0.00000000000E+00 -0.00000000000E+00 -0.17627761276E+03  0.17627761276E+03  0.00000000000E+00 0.  1.
         25    2    1    2    0    0  0.16808139737E+03  0.24202774281E+01  0.65962374671E+02  0.21967188277E+03  0.12508991694E+03 0.  0.
         23    2    1    2    0    0 -0.16808139737E+03 -0.24202774281E+01 -0.71418639931E+01  0.19170385343E+03  0.91881158640E+02 0.  0.
          5    1    3    3  502    0  0.11287224602E+03 -0.22005826931E+02  0.98045012155E+02  0.15117770057E+03  0.41800000000E+01 0.  1.
         -5    1    3    3    0  502  0.55209151347E+02  0.24426104359E+02 -0.32082637485E+02  0.68494182196E+02  0.41800000000E+01 0.  1.
        -11    1    4    4    0    0 -0.16713438886E+03 -0.24963869448E+02 -0.54332293301E+01  0.16907577797E+03  0.00000000000E+00 0.  1.
         11    1    4    4    0    0 -0.94700851248E+00  0.22543592020E+02 -0.17086346630E+01  0.22628075453E+02  0.00000000000E+00 0. -1.
</event>
<event>
 8    1  0.6380400E-009  0.1031266E+03  0.7561462E-02  0.1273855E+00
          2   -1    0    0  501    0  0.00000000000E+00  0.00000000000E+00  0.18859984701E+03  0.18859984701E+03  0.00000000000E+00 0. -1.
         -2   -1    0    0    0  501 -0.00000000000E+00 -0.00000000000E+00 -0.92580921125E+02  0.92580921125E+02  0.00000000000E+00 0.  1.
         25    2    1    2    0    0 -0.73894560689E+02 -0.30862357382E+01  0.35025455798E+02  0.14948055966E+03  0.12509086383E+03 0.  0.
         23    2    1    2    0    0  0.73894560689E+02  0.30862357382E+01  0.60993470087E+02  0.13170020847E+03  0.90303989764E+02 0.  0.
          5    1    3    3  502    0 -0.81103899031E+02 -0.38177630273E+01  0.73807598472E+02  0.10980642852E+03  0.41800000000E+01 0. -1.
         -5    1    3    3    0  502  0.72093383419E+01  0.73152728909E+00 -0.38782142674E+02  0.39674131142E+02  0.41800000000E+01 0. -1.
        -11    1    4    4    0    0  0.23283297824E+02 -0.42507680803E+02  0.28530840930E+02  0.56240766078E+02  0.00000000000E+00 0. -1.
         11    1    4    4    0    0  0.50611262865E+02  0.45593916541E+02  0.32462629156E+02  0.75459442392E+02  0.00000000000E+00 0.  1.
</event>
<event>
 8    1  0.6380400E-009  0.7104455E+02  0.7561462E-02  0.1356577E+00
          1   -1    0    0  501    0  0.00000000000E+00  0.00000000000E+00  0.10082211775E+03  0.10082211775E+03  0.00000000000E+00 0. -1.
         -1   -1    0    0    0  501 -0.00000000000E+00 -0.00000000000E+00 -0.13309926785E+03  0.13309926785E+03  0.00000000000E+00 0.  1.
         25    2    1    2    0    0  0.24736200143E+02  0.21873380283E+02 -0.42551779690E+02  0.13618877681E+03  0.12508558914E+03 0.  0.
         23    2    1    2    0    0 -0.24736200143E+02 -0.21873380283E+02  0.10274629587E+02  0.97732608795E+02  0.91409903436E+02 0.  0.
          5    1    3    3  502    0 -0.73744985059E+01  0.39040227229E+02 -0.76454052819E+02  0.86262489894E+02  0.41800000000E+01 0.  1.
         -5    1    3    3    0  502  0.32110698649E+02 -0.17166846945E+02  0.33902273129E+02  0.49926286914E+02  0.41800000000E+01 0.  1.
        -11    1    4    4    0    0 -0.13374235551E+02 -0.41063774466E+02 -0.29382740760E+02  0.52234559485E+02  0.00000000000E+00 0.  1.
         11    1    4    4    0    0 -0.11361964591E+02  0.19190394182E+02  0.39657370347E+02  0.45498049311E+02  0.00000000000E+00 0. -1.
</event>
<event>
 8    1  0.6380400E-009  0.9521953E+02  0.7561462E-02  0.1290682E+00
          1   -1    0    0  501    0  0.00000000000E+00  0.00000000000E+00  0.25239855682E+03  0.25239855682E+03  0.00000000000E+00 0. -1.
         -1   -1    0    0    0  501 -0.00000000000E+00 -0.00000000000E+00 -0.66911191212E+02  0.66911191212E+02  0.00000000000E+00 0.  1.
         25    2    1    2    0    0 -0.30926065161E+02  0.28719585544E+02  0.19060018486E+03  0.23186156685E+03  0.12510043810E+03 0.  0.
         23    2    1    2    0    0  0.30926065161E+02 -0.28719585544E+02 -0.51128192562E+01  0.87448181179E+02  0.76418632352E+02 0.  0.
          5    1    3    3  502    0 -0.23668620803E+02 -0.43960801646E+02  0.12065677467E+03  0.13064564809E+03  0.41800000000E+01 0. -1.
         -5    1    3    3    0  502 -0.72574443578E+01  0.72680387190E+02  0.69943410191E+02  0.10121591876E+03  0.41800000000E+01 0. -1.
        -11    1    4    4    0    0  0.37031276447E+02 -0.39900237229E+02 -0.28029324144E+02  0.61228974989E+02  0.00000000000E+00 0.  1.
         11    1    4    4    0    0 -0.61052112862E+01  0.11180651685E+02  0.22916504888E+02  0.26219206190E+02  0.00000000000E+00 0. -1.
</event>
<event>
 8    1  0.6380400E-009  0.1239594E+03  0.7561462E-02  0.1236705E+00
         -1   -1    0    0    0  501 -0.00000000000E+00  0.00000000000E+00  0.27461846922E+02  0.27461846922E+02  0.00000000000E+00 0.  1.
          1   -1    0    0  501    0  0.00000000000E+00 -0.00000000000E+00 -0.90874750473E+03  0.90874750473E+03  0.00000000000E+00 0. -1.
         25    2    1    2    0    0 -0.96767956897E+02  0.26584484647E+02 -0.57537317286E+03  0.59730407290E+03  0.12508834937E+03 0.  0.
         23    2    1    2    0    0  0.96767956897E+02 -0.26584484647E+02 -0.30591248495E+03  0.33890527875E+03  0.10584690460E+03 0.  0.
          5    1    3    3  502    0  0.25791783665E+01 -0.31812495843E+02 -0.25075084554E+03  0.25280851645E+03  0.41800000000E+01 0. -1.
         -5    1    3    3    0  502 -0.99347135264E+02  0.58396980490E+02 -0.32462232733E+03  0.34449555645E+03  0.41800000000E+01 0. -1.
        -11    1    4    4    0    0  0.49007211397E+02 -0.15281080566E+02 -0.27747135272E+03  0.28218003079E+03  0.00000000000E+00 0. -1.
         11    1    4    4    0    0  0.47760745501E+02 -0.11303404081E+02 -0.28441132221E+02  0.56725247964E+02  0.00000000000E+00 0.  1.
</event>
<event>
 8    1  0.6380400E-009  0.2443305E+03  0.7561462E-02  0.1116941E+00
          2   -1    0    0  501    0  0.00000000000E+00  0.00000000000E+00  0.31511325499E+03  0.31511325499E+03  0.00000000000E+00 0. -1.
         -2   -1    0    0    0  501 -0.00000000000E+00 -0.00000000000E+00 -0.23221972202E+03  0.23221972202E+03  0.00000000000E+00 0.  1.
         25    2    1    2    0    0  0.20056501121E+03  0.11419755639E+03 -0.48349663736E+02  0.26693167655E+03  0.12508966526E+03 0.  0.
         23    2    1    2    0    0 -0.20056501121E+03 -0.11419755639E+03  0.13124319671E+03  0.28040130046E+03  0.90181522559E+02 0.  0.
          5    1    3    3  502    0  0.77889381481E+02  0.32978387204E+01  0.30321133863E+02  0.83752462928E+02  0.41800000000E+01 0.  1.
         -5    1    3    3    0  502  0.12267562973E+03  0.11089971767E+03 -0.78670797599E+02  0.18317921362E+03  0.41800000000E+01 0.  1.
        -11    1    4    4    0    0 -0.99361212289E+02 -0.10337403765E+03  0.56454245742E+02  0.15409712531E+03  0.00000000000E+00 0. -1.
         11    1    4    4    0    0 -0.10120379892E+03 -0.10823518746E+02  0.74788950965E+02  0.12630417515E+03  0.00000000000E+00 0.  1.
</event>
<event>
 8    1  0.6380400E-009  0.1048899E+03  0.7561462E-02  0.1270337E+00
         -2   -1    0    0    0  501 -0.00000000000E+00  0.00000000000E+00  0.56817281055E+02  0.56817281055E+02  0.00000000000E+00 0.  1.
          2   -1    0    0  501    0  0.00000000000E+00 -0.00000000000E+00 -0.22442536873E+03  0.22442536873E+03  0.00000000000E+00 0. -1.
         25    2    1    2    0    0  0.26658613632E+02 -0.71477145864E+01 -0.10500853174E+03  0.16563608783E+03  0.12508697114E+03 0.  0.
         23    2    1    2    0    0 -0.26658613632E+02  0.71477145864E+01 -0.62599555935E+02  0.11560656195E+03  0.93190134985E+02 0.  0.
          5    1    3    3  502    0  0.27613963147E+01  0.51154343052E+02 -0.11284267476E+02  0.52623181348E+02  0.41800000000E+01 0.  1.
         -5    1    3    3    0  502  0.23897217317E+02 -0.58302057639E+02 -0.93724264265E+02  0.11301290649E+03  0.41800000000E+01 0.  1.
        -11    1    4    4    0    0  0.28464626568E+02  0.24380333285E+02 -0.13609156264E+02  0.39872857321E+02  0.00000000000E+00 0.  1.
         11    1    4    4    0    0 -0.55123240199E+02 -0.17232618698E+02 -0.48990399671E+02  0.75733704631E+02  0.00000000000E+00 0. -1.
</event>
<event>
 8    1  0.6380400E-009  0.1753436E+03  0.7561462E-02  0.1172387E+00
         -2   -1    0    0    0  501 -0.00000000000E+00  0.00000000000E+00  0.32943229506E+03  0.32943229506E+03  0.00000000000E+00 0.  1.
          2   -1    0    0  501    0  0.00000000000E+00 -0.00000000000E+00 -0.10610493682E+03  0.10610493682E+03  0.00000000000E+00 0. -1.
         25    2    1    2    0    0 -0.10557011395E+03 -0.10744183023E+03  0.14579433864E+03  0.24411632946E+03  0.12509195533E+03 0.  0.
         23    2    1    2    0    0  0.10557011395E+03  0.10744183023E+03  0.77533019604E+02  0.19142090242E+03  0.89116759985E+02 0.  0.
          5    1    3    3  502    0 -0.74756341830E+02 -0.80411930944E+01  0.11133962175E+03  0.13441411831E+03  0.41800000000E+01 0.  1.
         -5    1    3    3    0  502 -0.30813772121E+02 -0.99400637136E+02  0.34454716890E+02  0.10970221115E+03  0.41800000000E+01 0.  1.
        -11    1    4    4    0    0  0.97312202958E+02  0.43213910232E+02  0.67030616409E+02  0.12581816410E+03  0.00000000000E+00 0.  1.
         11    1    4    4    0    0  0.82579109923E+01  0.64227919999E+02  0.10502403195E+02  0.65602738313E+02  0.00000000000E+00 0. -1.
</event>
<event>
 8    1  0.6380400E-009  0.1416539E+03  0.7561462E-02  0.1211121E+00
          3   -1    0    0  501    0  0.00000000000E+00  0.00000000000E+00  0.23956015866E+03  0.23956015866E+03  0.00000000000E+00 0. -1.
         -3   -1    0    0    0  501 -0.00000000000E+00 -0.00000000000E+00 -0.90502028527E+02  0.90502028527E+02  0.00000000000E+00 0.  1.
         25    2    1    2    0    0 -0.36295345368E+02  0.89152594148E+02  0.49303954334E+02  0.16537058784E+03  0.12510401381E+03 0.  0.
         23    2    1    2    0    0  0.36295345368E+02 -0.89152594148E+02  0.99754175797E+02  0.16469159934E+03  0.88920695942E+02 0.  0.
          5    1    3    3  502    0 -0.68756134863E+02  0.81347405688E+01  0.31578799498E+02  0.76212027024E+02  0.41800000000E+01 0.  1.
         -5    1    3    3    0  502  0.32460789495E+02  0.81017853579E+02  0.17725154836E+02  0.89158560818E+02  0.41800000000E+01 0.  1.
        -11    1    4    4    0    0 -0.26741169576E+02 -0.28721241525E+02  0.52052267456E+02  0.65187716729E+02  0.00000000000E+00 0. -1.
         11    1    4    4    0    0  0.63036514944E+02 -0.60431352622E+02  0.47701908342E+02  0.99503882615E+02  0.00000000000E+00 0.  1.
</event>
<event>
 8    1  0.6380400E-009  0.1015879E+03  0.7561462E-02  0.1276992E+00
          2   -1    0    0  501    0  0.00000000000E+00  0.00000000000E+00  0.37218222785E+03  0.37218222785E+03  0.00000000000E+00 0. -1.
         -2   -1    0    0    0  501 -0.00000000000E+00 -0.00000000000E+00 -0.98441822969E+02  0.98441822969E+02  0.00000000000E+00 0.  1.
         25    2    1    2    0    0 -0.61478492540E+02 -0.92874526719E+01  0.33697801880E+03  0.36478015326E+03  0.12507802859E+03 0.  0.
         23    2    1    2    0    0  0.61478492540E+02  0.92874526719E+01 -0.63237613915E+02  0.10584389756E+03  0.57776059192E+02 0.  0.
          5    1    3    3  502    0  0.26212101332E+02  0.14693372811E+02  0.23547474221E+02  0.38404757557E+02  0.41800000000E+01 0. -1.
         -5    1    3    3    0  502 -0.87690593872E+02 -0.23980825483E+02  0.31343054458E+03  0.32637539570E+03  0.41800000000E+01 0. -1.
        -11    1    4    4    0    0  0.44710971169E+00  0.19881450167E+02 -0.28716543629E+02  0.34930099425E+02  0.00000000000E+00 0. -1.
         11    1    4    4    0    0  0.61031382828E+02 -0.10593997495E+02 -0.34521070286E+02  0.70913798139E+02  0.00000000000E+00 0.  1.
</event>
<event>
 8    1  0.6380400E-009  0.1535501E+03  0.7561462E-02  0.1196177E+00
          3   -1    0    0  501    0  0.00000000000E+00  0.00000000000E+00  0.65204962520E+02  0.65204962520E+02  0.00000000000E+00 0. -1.
         -3   -1    0    0    0  501 -0.00000000000E+00 -0.00000000000E+00 -0.46488639645E+03  0.46488639645E+03  0.00000000000E+00 0.  1.
         25    2    1    2    0    0  0.15124379981E+02  0.13296588464E+03 -0.18388020084E+03  0.25954578388E+03  0.12507362760E+03 0.  0.
         23    2    1    2    0    0 -0.15124379981E+02 -0.13296588464E+03 -0.21580123308E+03  0.27054557509E+03  0.93359855671E+02 0.  0.
          5    1    3    3  502    0  0.28552599621E+02  0.12733342276E+03 -0.76957627897E+02  0.15155527173E+03  0.41800000000E+01 0. -1.
         -5    1    3    3    0  502 -0.13428219640E+02  0.56324618794E+01 -0.10692257295E+03  0.10799051215E+03  0.41800000000E+01 0. -1.
        -11    1    4    4    0    0  0.27042811839E+02 -0.11019634243E+03 -0.13250754664E+03  0.17444998559E+03  0.00000000000E+00 0. -1.
         11    1    4    4    0    0 -0.42167191820E+02 -0.22769542208E+02 -0.83293686447E+02  0.96095589495E+02  0.00000000000E+00 0.  1.
</event>
<event>
 8    1  0.6380400E-009  0.1471258E+03  0.7561462E-02  0.1204050E+00
         -1   -1    0    0    0  501 -0.00000000000E+00  0.00000000000E+00  0.48674213857E+02  0.48674213857E+02  0.00000000000E+00 0.  1.
          1   -1    0    0  501    0  0.00000000000E+00 -0.00000000000E+00 -0.57645024699E+03  0.57645024699E+03  0.00000000000E+00 0. -1.
         25    2    1    2    0    0  0.41418337891E+02 -0.10955187912E+03 -0.18937771690E+03  0.25540186191E+03  0.12509635676E+03 0.  0.
         23    2    1    2    0    0 -0.41418337891E+02  0.10955187912E+03 -0.33839831624E+03  0.36972259894E+03  0.92001558701E+02 0.  0.
          5    1    3    3  502    0  0.49561753262E+02  0.10605399507E+02 -0.55367126204E+02  0.75178673500E+02  0.41800000000E+01 0. -1.
         -5    1    3    3    0  502 -0.81434153713E+01 -0.12015727863E+03 -0.13401059069E+03  0.18022318841E+03  0.41800000000E+01 0. -1.
        -11    1    4    4    0    0 -0.27891410480E+02  0.25610259140E+02 -0.22405413941E+03  0.22723132165E+03  0.00000000000E+00 0. -1.
         11    1    4    4    0    0 -0.13526927410E+02  0.83941619981E+02 -0.11434417683E+03  0.14249127730E+03  0.00000000000E+00 0.  1.
</event>
<event>
 8    1  0.6380400E-009  0.9479135E+02  0.7561462E-02  0.1291647E+00
          2   -1    0    0  501    0  0.00000000000E+00  0.00000000000E+00  0.18451014645E+03  0.18451014645E+03  0.00000000000E+00 0. -1.
         -2   -1    0    0    0  501 -0.00000000000E+00 -0.00000000000E+00 -0.70720676550E+02  0.70720676550E+02  0.00000000000E+00 0.  1.
         25    2    1    2    0    0  0.25148565031E+02  0.26440286170E+02  0.66204682672E+02  0.14615722122E+03  0.12508930510E+03 0.  0.
         23    2    1    2    0    0 -0.25148565031E+02 -0.26440286170E+02  0.47584787223E+02  0.10907360178E+03  0.91110919070E+02 0.  0.
          5    1    3    3  502    0 -0.17671765721E+02  0.68056318862E+02  0.34988420377E+02  0.78648685947E+02  0.41800000000E+01 0.  1.
         -5    1    3    3    0  502  0.42820330752E+02 -0.41616032692E+02  0.31216262295E+02  0.67508535271E+02  0.41800000000E+01 0.  1.
        -11    1    4    4    0    0  0.69694251033E+01 -0.26259984801E+02  0.66474304471E+02  0.71812205390E+02  0.00000000000E+00 0. -1.
         11    1    4    4    0    0 -0.32117990134E+02 -0.18030136882E+00 -0.18889517248E+02  0.37261396387E+02  0.00000000000E+00 0.  1.
</event>
<event>
 8    1  0.6380400E-009  0.1788378E+03  0.7561462E-02  0.1168933E+00
          1   -1    0    0  501    0  0.00000000000E+00  0.00000000000E+00  0.19165819332E+03  0.19165819332E+03  0.00000000000E+00 0. -1.
         -1   -1    0    0    0  501 -0.00000000000E+00 -0.00000000000E+00 -0.26989081002E+03  0.26989081002E+03  0.00000000000E+00 0.  1.
         25    2    1    2    0    0 -0.90513273651E+02  0.14731051378E+03 -0.14767575419E+03  0.25951266870E+03  0.12508259935E+03 0.  0.
         23    2    1    2    0    0  0.90513273651E+02 -0.14731051378E+03  0.69443137494E+02  0.20203633464E+03  0.78123562334E+02 0.  0.
          5    1    3    3  502    0 -0.76196574724E+02  0.65306898951E+02 -0.14465846654E+03  0.17610920871E+03  0.41800000000E+01 0. -1.
         -5    1    3    3    0  502 -0.14316698927E+02  0.82003614827E+02 -0.30172876520E+01  0.83403459986E+02  0.41800000000E+01 0. -1.
        -11    1    4    4    0    0  0.13874850650E+02 -0.37429028919E+02 -0.16148355706E+02  0.43060574525E+02  0.00000000000E+00 0.  1.
         11    1    4    4    0    0  0.76638423001E+02 -0.10988148486E+03  0.85591493200E+02  0.15897576011E+03  0.00000000000E+00 0. -1.
</event>
<event>
 8    1  0.6380400E-009  0.1390135E+03  0.7561462E-02  0.1214663E+00
          2   -1    0    0  501    0  0.00000000000E+00  0.00000000000E+00  0.23577720527E+03  0.23577720527E+03  0.00000000000E+00 0. -1.
         -2   -1    0    0    0  501 -0.00000000000E+00 -0.00000000000E+00 -0.11255911493E+03  0.11255911493E+03  0.00000000000E+00 0.  1.
         25    2    1    2    0    0 -0.22750951886E+02  0.10972587768E+03  0.11576495923E+03  0.20398228379E+03  0.12509944952E+03 0.  0.
         23    2    1    2    0    0  0.22750951886E+02 -0.10972587768E+03  0.74531311137E+01  0.14435403642E+03  0.90692693319E+02 0.  0.
          5    1    3    3  502    0  0.23558626306E+02  0.99034311050E+02  0.30627694470E+02  0.10638764828E+03  0.41800000000E+01 0. -1.
         -5    1    3    3    0  502 -0.46309578192E+02  0.10691566630E+02  0.85137264757E+02  0.97594635506E+02  0.41800000000E+01 0. -1.
        -11    1    4    4    0    0  0.32495066875E+02 -0.19953210077E+02 -0.28037137276E+02  0.47330128145E+02  0.00000000000E+00 0.  1.
         11    1    4    4    0    0 -0.97441149890E+01 -0.89772667604E+02  0.35490268390E+02  0.97023908270E+02  0.00000000000E+00 0. -1.
</event>
<event>
 8    1  0.6380400E-009  0.9357881E+02  0.7561462E-02  0.1294409E+00
          2   -1    0    0  501    0  0.00000000000E+00  0.00000000000E+00  0.88694406471E+03  0.88694406471E+03  0.00000000000E+00 0. -1.
         -2   -1    0    0    0  501 -0.00000000000E+00 -0.00000000000E+00 -0.22821849752E+02  0.22821849752E+02  0.00000000000E+00 0.  1.
         25    2    1    2    0    0 -0.40007423177E+02  0.26330987519E+02  0.72075311805E+03  0.73309368297E+03  0.12508947206E+03 0.  0.
         23    2    1    2    0    0  0.40007423177E+02 -0.26330987519E+02  0.14336909691E+03  0.17667223149E+03  0.91457447037E+02 0.  0.
          5    1    3    3  502    0  0.14125728136E+01  0.56023428630E+02  0.59042131077E+03  0.59308972047E+03  0.41800000000E+01 0.  1.
         -5    1    3    3    0  502 -0.41419995990E+02 -0.29692441111E+02  0.13033180728E+03  0.14000396250E+03  0.41800000000E+01 0.  1.
        -11    1    4    4    0    0  0.56040708905E+02 -0.29727394918E+02  0.14680671295E+03  0.15992651447E+03  0.00000000000E+00 0. -1.
         11    1    4    4    0    0 -0.16033285728E+02  0.33964073981E+01 -0.34376160425E+01  0.16745717020E+02  0.00000000000E+00 0.  1.
</event>
<event>
 8    1  0.6380400E-009  0.8208457E+02  0.7561462E-02  0.1323238E+00
         -1   -1    0    0    0  501 -0.00000000000E+00  0.00000000000E+00  0.81605912190E+02  0.81605912190E+02  0.00000000000E+00 0.  1.
          1   -1    0    0  501    0  0.00000000000E+00 -0.00000000000E+00 -0.19712658436E+03  0.19712658436E+03  0.00000000000E+00 0. -1.
         25    2    1    2    0    0 -0.30428715150E+01 -0.62802376473E+01 -0.13614158775E+03  0.18501356543E+03  0.12508711774E+03 0.  0.
         23    2    1    2    0    0  0.30428715150E+01  0.62802376473E+01  0.20620915583E+02  0.93718931118E+02  0.91155446565E+02 0.  0.
          5    1    3    3  502    0 -0.18786801664E+02 -0.51107536400E+02 -0.12445175281E+03  0.13590671569E+03  0.41800000000E+01 0.  1.
         -5    1    3    3    0  502  0.15743930149E+02  0.44827298753E+02 -0.11689834944E+02  0.49106849736E+02  0.41800000000E+01 0.  1.
        -11    1    4    4    0    0 -0.15264314943E+02 -0.22836805209E+02 -0.24620921310E+02  0.36887785905E+02  0.00000000000E+00 0. -1.
         11    1    4    4    0    0  0.18307186458E+02  0.29117042856E+02  0.45241836894E+02  0.56831145213E+02  0.00000000000E+00 0.  1.
</event>
<event>
 8    1  0.6380400E-009  0.1118755E+03  0.7561462E-02  0.1257136E+00
         -2   -1    0    0    0  501 -0.00000000000E+00  0.00000000000E+00  0.45924287490E+02  0.45924287490E+02  0.00000000000E+00 0.  1.
          2   -1    0    0  501    0  0.00000000000E+00 -0.00000000000E+00 -0.33690818799E+03  0.33690818799E+03  0.00000000000E+00 0. -1.
         25    2    1    2    0    0 -0.20028216656E+02  0.51273439272E+02 -0.12212693707E+03  0.18328495292E+03  0.12509312600E+03 0.  0.
         23    2    1    2    0    0  0.20028216656E+02 -0.51273439272E+02 -0.16885696343E+03  0.19954752256E+03  0.90974967005E+02 0.  0.
          5    1    3    3  502    0  0.23368543658E+02  0.75406435438E+02 -0.43598361577E+02  0.90280168755E+02  0.41800000000E+01 0.  1.
         -5    1    3    3    0  502 -0.43396760314E+02 -0.24132996165E+02 -0.78528575491E+02  0.93004784169E+02  0.41800000000E+01 0.  1.
        -11    1    4    4    0    0  0.49784368761E+02 -0.35849009545E+02 -0.14764366189E+03  0.15988209954E+03  0.00000000000E+00 0. -1.
         11    1    4    4    0    0 -0.29756152105E+02 -0.15424429728E+02 -0.21213301546E+02  0.39665423015E+02  0.00000000000E+00 0.  1.
</event>
<event>
 8    1  0.6380400E-009  0.1351123E+03  0.7561462E-02  0.1220061E+00
          1   -1    0    0  501    0  0.00000000000E+00  0.00000000000E+00  0.59831696206E+02  0.59831696206E+02  0.00000000000E+00 0. -1.
         -1   -1    0    0    0  501 -0.00000000000E+00 -0.00000000000E+00 -0.38985538565E+03  0.38985538565E+03  0.00000000000E+00 0.  1.
         25    2    1    2    0    0 -0.10297548821E+03 -0.14242527218E+02 -0.14590284904E+03  0.21850110599E+03  0.12509313013E+03 0.  0.
         23    2    1    2    0    0  0.10297548821E+03  0.14242527218E+02 -0.18412084041E+03  0.23118597587E+03  0.93486206540E+02 0.  0.
          5    1    3    3  502    0 -0.12258417880E+03 -0.26848001691E+02 -0.81017746835E+02  0.14942905939E+03  0.41800000000E+01 0. -1.
         -5    1    3    3    0  502  0.19608690593E+02  0.12605474473E+02 -0.64885102202E+02  0.69072046598E+02  0.41800000000E+01 0. -1.
        -11    1    4    4    0    0  0.56520396719E+02 -0.23417784630E+02 -0.15077510781E+03  0.16271472281E+03  0.00000000000E+00 0.  1.
         11    1    4    4    0    0  0.46455091491E+02  0.37660311848E+02 -0.33345732598E+02  0.68471253066E+02  0.00000000000E+00 0. -1.
</event>
<event>
 8    1  0.6380400E-009  0.7650841E+02  0.7561462E-02  0.1339263E+00
         -1   -1    0    0    0  501 -0.00000000000E+00  0.00000000000E+00  0.25865366208E+03  0.25865366208E+03  0.00000000000E+00 0.  1.
          1   -1    0    0  501    0  0.00000000000E+00 -0.00000000000E+00 -0.53525695679E+02  0.53525695679E+02  0.00000000000E+00 0. -1.
         25    2    1    2    0    0 -0.62499210976E+01  0.45955594815E+02  0.11398063412E+03  0.17547049304E+03  0.12508929117E+03 0.  0.
         23    2    1    2    0    0  0.62499210976E+01 -0.45955594815E+02  0.91147332286E+02  0.13670886472E+03  0.90722099302E+02 0.  0.
          5    1    3    3  502    0 -0.21495415474E+02 -0.10831902498E+02  0.11393387072E+03  0.11652374133E+03  0.41800000000E+01 0.  1.
         -5    1    3    3    0  502  0.15245494376E+02  0.56787497313E+02  0.46763401066E-01  0.58946751706E+02  0.41800000000E+01 0.  1.
        -11    1    4    4    0    0  0.18294036305E+02 -0.52735285815E+02  0.10387349637E+03  0.11792109813E+03  0.00000000000E+00 0.  1.
         11    1    4    4    0    0 -0.12044115207E+02  0.67796910002E+01 -0.12726164089E+02  0.18787766594E+02  0.00000000000E+00 0. -1.
</event>
<event>
 8    1  0.6380400E-009  0.1838180E+03  0.7561462E-02  0.1164158E+00
          2   -1    0    0  501    0  0.00000000000E+00  0.00000000000E+00  0.34845689893E+03  0.34845689893E+03  0.00000000000E+00 0.  1.
         -2   -1    0    0    0  501 -0.00000000000E+00 -0.00000000000E+00 -0.12974726090E+03  0.12974726090E+03  0.00000000000E+00 0. -1.
         25    2    1    2    0    0 -0.13940487471E+02  0.17786311908E+03  0.72293037393E+02  0.22957185385E+03  0.12508927414E+03 0.  0.
         23    2    1    2    0    0  0.13940487471E+02 -0.17786311908E+03  0.14641660064E+03  0.24863230599E+03  0.92469326362E+02 0.  0.
          5    1    3    3  502    0 -0.68747006178E+01  0.54257200567E+02 -0.35520726206E+02  0.65347530268E+02  0.41800000000E+01 0.  1.
         -5    1    3    3    0  502 -0.70657868534E+01  0.12360591851E+03  0.10781376360E+03  0.16422432358E+03  0.41800000000E+01 0.  1.
        -11    1    4    4    0    0 -0.16889344597E+02 -0.13530820464E+03  0.63387625482E+02  0.15037137782E+03  0.00000000000E+00 0. -1.
         11    1    4    4    0    0  0.30829832068E+02 -0.42554914441E+02  0.83028975156E+02  0.98260928165E+02  0.00000000000E+00 0.  1.
</event>
<event>
 8    1  0.6380400E-009  0.8404401E+02  0.7561462E-02  0.1317952E+00
         -2   -1    0    0    0  501 -0.00000000000E+00  0.00000000000E+00  0.14402944434E+03  0.14402944434E+03  0.00000000000E+00 0.  1.
          2   -1    0    0  501    0  0.00000000000E+00 -0.00000000000E+00 -0.89610653267E+02  0.89610653267E+02  0.00000000000E+00 0. -1.
         25    2    1    2    0    0  0.17262131438E+02 -0.19778080458E+02  0.59396808146E+02  0.14094266709E+03  0.12509077080E+03 0.  0.
         23    2    1    2    0    0 -0.17262131438E+02  0.19778080458E+02 -0.49780170692E+01  0.92697430522E+02  0.88763051565E+02 0.  0.
          5    1    3    3  502    0  0.59659461029E+02 -0.47681466317E+02  0.41086198651E+02  0.86823508568E+02  0.41800000000E+01 0. -1.
         -5    1    3    3    0  502 -0.42397329591E+02  0.27903385859E+02  0.18310609495E+02  0.54119158521E+02  0.41800000000E+01 0. -1.
        -11    1    4    4    0    0 -0.89248762245E+01 -0.78061331065E+01 -0.43218187984E+02  0.44815186068E+02  0.00000000000E+00 0. -1.
         11    1    4    4    0    0 -0.83372552136E+01  0.27584213564E+02  0.38240170914E+02  0.47882244455E+02  0.00000000000E+00 0.  1.
</event>
<event>
 8    1  0.6380400E-009  0.1287121E+03  0.7561462E-02  0.1229379E+00
          2   -1    0    0  501    0  0.00000000000E+00  0.00000000000E+00  0.71183907220E+03  0.71183907220E+03  0.00000000000E+00 0. -1.
         -2   -1    0    0    0  501 -0.00000000000E+00 -0.00000000000E+00 -0.30937693519E+02  0.30937693519E+02  0.00000000000E+00 0.  1.
         25    2    1    2    0    0  0.19012990808E+02 -0.69994600198E+02  0.54587273230E+03  0.56469914162E+03  0.12508933929E+03 0.  0.
         23    2    1    2    0    0 -0.19012990808E+02  0.69994600198E+02  0.13502864638E+03  0.17807762409E+03  0.90654106273E+02 0.  0.
          5    1    3    3  502    0 -0.33872276940E+01 -0.10373658111E+03  0.39012139530E+03  0.40371391732E+03  0.41800000000E+01 0.  1.
         -5    1    3    3    0  502  0.22400218502E+02  0.33741980909E+02  0.15575133700E+03  0.16098522430E+03  0.41800000000E+01 0.  1.
        -11    1    4    4    0    0  0.63317005347E+01  0.83754489626E+02  0.11713945844E+03  0.14414075651E+03  0.00000000000E+00 0. -1.
         11    1    4    4    0    0 -0.25344691342E+02 -0.13759889427E+02  0.17889187940E+02  0.33936867584E+02  0.00000000000E+00 0.  1.
</event>
<event>
 8    1  0.6380400E-009  0.8853189E+02  0.7561462E-02  0.1306446E+00
          1   -1    0    0  501    0  0.00000000000E+00  0.00000000000E+00  0.23298620317E+03  0.23298620317E+03  0.00000000000E+00 0. -1.
         -1   -1    0    0    0  501 -0.00000000000E+00 -0.00000000000E+00 -0.52941404590E+02  0.52941404590E+02  0.00000000000E+00 0.  1.
         25    2    1    2    0    0  0.19802052105E+02 -0.20713247781E+01  0.12281358472E+03  0.17644039819E+03  0.12510645814E+03 0.  0.
         23    2    1    2    0    0 -0.19802052105E+02  0.20713247781E+01  0.57231213869E+02  0.10948720958E+03  0.91190051904E+02 0.  0.
          5    1    3    3  502    0 -0.49032938998E+02  0.76394767437E+01  0.23307189358E+02  0.54984435866E+02  0.41800000000E+01 0.  1.
         -5    1    3    3    0  502  0.68834991103E+02 -0.97108015218E+01  0.99506395357E+02  0.12145596232E+03  0.41800000000E+01 0.  1.
        -11    1    4    4    0    0 -0.18432905503E+02  0.26979759101E+02  0.72997198895E+02  0.79976686934E+02  0.00000000000E+00 0. -1.
         11    1    4    4    0    0 -0.13691466023E+01 -0.24908434323E+02 -0.15765985026E+02  0.29510522643E+02  0.00000000000E+00 0.  1.
</event>
<event>
 8    1  0.6380400E-009  0.1227348E+03  0.7561462E-02  0.1238652E+00
         -1   -1    0    0    0  501 -0.00000000000E+00  0.00000000000E+00  0.63997071235E+02  0.63997071235E+02  0.00000000000E+00 0.  1.
          1   -1    0    0  501    0  0.00000000000E+00 -0.00000000000E+00 -0.34081156750E+03  0.34081156750E+03  0.00000000000E+00 0. -1.
         25    2    1    2    0    0  0.73947889851E+02  0.70257694383E+02 -0.14426685577E+03  0.21648430669E+03  0.12509234723E+03 0.  0.
         23    2    1    2    0    0 -0.73947889851E+02 -0.70257694383E+02 -0.13254764050E+03  0.18832433205E+03  0.86560631964E+02 0.  0.
          5    1    3    3  502    0  0.43464865887E+02 -0.24203544546E+01 -0.12885092173E+03  0.13607014777E+03  0.41800000000E+01 0.  1.
         -5    1    3    3    0  502  0.30483023964E+02  0.72678048837E+02 -0.15415934035E+02  0.80414158921E+02  0.41800000000E+01 0.  1.
        -11    1    4    4    0    0 -0.66470768439E+02 -0.16431616028E+02 -0.35572114156E+02  0.77160458576E+02  0.00000000000E+00 0.  1.
         11    1    4    4    0    0 -0.74771214116E+01 -0.53826078355E+02 -0.96975526341E+02  0.11116387347E+03  0.00000000000E+00 0. -1.
</event>
<event>
 8    1  0.6380400E-009  0.8323592E+02  0.7561462E-02  0.1320111E+00
         -2   -1    0    0    0  501 -0.00000000000E+00  0.00000000000E+00  0.42438484890E+02  0.42438484890E+02  0.00000000000E+00 0.  1.
          2   -1    0    0  501    0  0.00000000000E+00 -0.00000000000E+00 -0.31496270046E+03  0.31496270046E+03  0.00000000000E+00 0. -1.
         25    2    1    2    0    0  0.33790342585E+02  0.22007336611E+02 -0.15856674002E+03  0.20595443616E+03  0.12509080148E+03 0.  0.
         23    2    1    2    0    0 -0.33790342585E+02 -0.22007336611E+02 -0.11395747555E+03  0.15144674919E+03  0.91234321886E+02 0.  0.
          5    1    3    3  502    0  0.53108488153E+02  0.21464735362E+02 -0.17247079474E+03  0.18178254542E+03  0.41800000000E+01 0.  1.
         -5    1    3    3    0  502 -0.19318145568E+02  0.54260124930E+00  0.13904054724E+02  0.24171890743E+02  0.41800000000E+01 0.  1.
        -11    1    4    4    0    0 -0.22559473245E+01  0.29113135564E+02 -0.90664649933E+01  0.30575558019E+02  0.00000000000E+00 0.  1.
         11    1    4    4    0    0 -0.31534395261E+02 -0.51120472175E+02 -0.10489101055E+03  0.12087119117E+03  0.00000000000E+00 0. -1.
</event>
<event>
 8    1  0.6380400E-009  0.1090584E+03  0.7561462E-02  0.1262324E+00
          1   -1    0    0  501    0  0.00000000000E+00  0.00000000000E+00  0.80420235726E+03  0.80420235726E+03  0.00000000000E+00 0. -1.
         -1   -1    0    0    0  501 -0.00000000000E+00 -0.00000000000E+00 -0.23297408669E+02  0.23297408669E+02  0.00000000000E+00 0.  1.
         25    2    1    2    0    0  0.80658331712E+02  0.23237343560E+02  0.43431422922E+03  0.45969772662E+03  0.12508960605E+03 0.  0.
         23    2    1    2    0    0 -0.80658331712E+02 -0.23237343560E+02  0.34659071937E+03  0.36780203931E+03  0.90041505759E+02 0.  0.
          5    1    3    3  502    0  0.53589996977E+01 -0.31061447262E+02  0.26199967162E+03  0.26392202014E+03  0.41800000000E+01 0. -1.
         -5    1    3    3    0  502  0.75299332014E+02  0.54298790822E+02  0.17231455760E+03  0.19577570648E+03  0.41800000000E+01 0. -1.
        -11    1    4    4    0    0 -0.19383329246E+02 -0.25552750566E+02  0.25683341022E+02  0.41088812592E+02  0.00000000000E+00 0.  1.
         11    1    4    4    0    0 -0.61275002466E+02  0.23154070064E+01  0.32090737835E+03  0.32671322672E+03  0.00000000000E+00 0. -1.
</event>
<event>
 8    1  0.6380400E-009  0.1475862E+03  0.7561462E-02  0.1203471E+00
          2   -1    0    0  501    0  0.00000000000E+00  0.00000000000E+00  0.19475789421E+03  0.19475789421E+03  0.00000000000E+00 0. -1.
         -2   -1    0    0    0  501 -0.00000000000E+00 -0.00000000000E+00 -0.13526812016E+03  0.13526812016E+03  0.00000000000E+00 0.  1.
         25    2    1    2    0    0  0.82976434109E+02  0.84216215690E+02  0.55301888713E+02  0.18078492692E+03  0.12508969303E+03 0.  0.
         23    2    1    2    0    0 -0.82976434109E+02 -0.84216215690E+02  0.41878853421E+01  0.14924108745E+03  0.90982988507E+02 0.  0.
          5    1    3    3  502    0 -0.47281339600E+01  0.56865477488E+02 -0.21345532341E+02  0.61066700677E+02  0.41800000000E+01 0.  1.
         -5    1    3    3    0  502  0.87704568069E+02  0.27350738202E+02  0.76647421054E+02  0.11971822624E+03  0.41800000000E+01 0.  1.
        -11    1    4    4    0    0 -0.24784529236E+02  0.16428889565E+02  0.13409057674E+02  0.32618769589E+02  0.00000000000E+00 0. -1.
         11    1    4    4    0    0 -0.58191904874E+02 -0.10064510526E+03 -0.92211723322E+01  0.11662231786E+03  0.00000000000E+00 0.  1.
</event>
<event>
 8    1  0.6380400E-009  0.1501477E+03  0.7561462E-02  0.1200292E+00
          3   -1    0    0  501    0  0.00000000000E+00  0.00000000000E+00  0.16228871113E+03  0.16228871113E+03  0.00000000000E+00 0. -1.
         -3   -1    0    0    0  501 -0.00000000000E+00 -0.00000000000E+00 -0.17077299225E+03  0.17077299225E+03  0.00000000000E+00 0.  1.
         25    2    1    2    0    0  0.63045510712E+02  0.10838841010E+03 -0.30571009336E+02  0.17973264320E+03  0.12508578079E+03 0.  0.
         23    2    1    2    0    0 -0.63045510712E+02 -0.10838841010E+03  0.22086728215E+02  0.15332906018E+03  0.85435316284E+02 0.  0.
          5    1    3    3  502    0  0.93460499215E+02  0.99200042491E+02 -0.13481337070E+01  0.13636276328E+03  0.41800000000E+01 0. -1.
         -5    1    3    3    0  502 -0.30414988503E+02  0.91883676101E+01 -0.29222875629E+02  0.43369879928E+02  0.41800000000E+01 0. -1.
        -11    1    4    4    0    0 -0.67509419394E+02 -0.87409221415E+02  0.47369422964E+02  0.12017385709E+03  0.00000000000E+00 0. -1.
         11    1    4    4    0    0  0.44639086824E+01 -0.20979188686E+02 -0.25282694749E+02  0.33155203097E+02  0.00000000000E+00 0.  1.
</event>
<event>
 8    1  0.6380400E-009  0.1634315E+03  0.7561462E-02  0.1184876E+00
          1   -1    0    0  501    0  0.00000000000E+00  0.00000000000E+00  0.98870442945E+02  0.98870442945E+02  0.00000000000E+00 0. -1.
         -1   -1    0    0    0  501 -0.00000000000E+00 -0.00000000000E+00 -0.37238929931E+03  0.37238929931E+03  0.00000000000E+00 0.  1.
         25    2    1    2    0    0 -0.30436716468E+02 -0.13653473608E+03 -0.52454943665E+02  0.19482375974E+03  0.12504658483E+03 0.  0.
         23    2    1    2    0    0  0.30436716468E+02  0.13653473608E+03 -0.22106391270E+03  0.27643598251E+03  0.89327885145E+02 0.  0.
          5    1    3    3  502    0  0.30098361158E+02 -0.27885729889E+01 -0.35760994736E+02  0.47010728863E+02  0.41800000000E+01 0.  1.
         -5    1    3    3    0  502 -0.60535077626E+02 -0.13374616309E+03 -0.16693948929E+02  0.14781303088E+03  0.41800000000E+01 0.  1.
        -11    1    4    4    0    0  0.34534522326E+02  0.39943293630E+02 -0.14214876340E+03  0.15163894907E+03  0.00000000000E+00 0.  1.
         11    1    4    4    0    0 -0.40978058584E+01  0.96591442453E+02 -0.78915149296E+02  0.12479703344E+03  0.00000000000E+00 0. -1.
</event>
<event>
 8    1  0.6380400E-009  0.1390029E+03  0.7561462E-02  0.1214677E+00
          1   -1    0    0  501    0  0.00000000000E+00  0.00000000000E+00  0.10428258880E+04  0.10428258880E+04  0.00000000000E+00 0. -1.
         -1   -1    0    0    0  501 -0.00000000000E+00 -0.00000000000E+00 -0.24463301866E+02  0.24463301866E+02  0.00000000000E+00 0.  1.
         25    2    1    2    0    0 -0.60654601957E+02 -0.92171623730E+02  0.66930023567E+03  0.68977158948E+03  0.12508977269E+03 0.  0.
         23    2    1    2    0    0  0.60654601957E+02  0.92171623730E+02  0.34906235042E+03  0.37751760034E+03  0.92197750107E+02 0.  0.
          5    1    3    3  502    0 -0.70228340622E+02 -0.63842919769E+00  0.21481387343E+03  0.22604181037E+03  0.41800000000E+01 0.  1.
         -5    1    3    3    0  502  0.95737386653E+01 -0.91533194532E+02  0.45448636224E+03  0.46372977911E+03  0.41800000000E+01 0.  1.
        -11    1    4    4    0    0  0.15058916284E+02  0.53993464577E+02  0.58844724181E+02  0.81269716012E+02  0.00000000000E+00 0.  1.
         11    1    4    4    0    0  0.45595685673E+02  0.38178159153E+02  0.29021762624E+03  0.29624788433E+03  0.00000000000E+00 0. -1.
</event>
<event>
 8    1  0.6380400E-009  0.1042529E+03  0.7561462E-02  0.1271599E+00
         -2   -1    0    0    0  501 -0.00000000000E+00  0.00000000000E+00  0.49532344396E+02  0.49532344396E+02  0.00000000000E+00 0.  1.
          2   -1    0    0  501    0  0.00000000000E+00 -0.00000000000E+00 -0.35117977982E+03  0.35117977982E+03  0.00000000000E+00 0. -1.
         25    2    1    2    0    0 -0.31852392446E+02 -0.26412557227E+02 -0.26201719300E+03  0.29328440283E+03  0.12510209202E+03 0.  0.
         23    2    1    2    0    0  0.31852392446E+02  0.26412557227E+02 -0.39630242423E+02  0.10742772139E+03  0.90873324608E+02 0.  0.
          5    1    3    3  502    0  0.46308246628E+02 -0.94372755105E+01 -0.13530491639E+03  0.14338203748E+03  0.41800000000E+01 0.  1.
         -5    1    3    3    0  502 -0.78160639075E+02 -0.16975281716E+02 -0.12671227662E+03  0.14990236534E+03  0.41800000000E+01 0.  1.
        -11    1    4    4    0    0  0.40740218865E+02 -0.11255841087E+02  0.11023636776E+02  0.43680429937E+02  0.00000000000E+00 0.  1.
         11    1    4    4    0    0 -0.88878264185E+01  0.37668398314E+02 -0.50653879199E+02  0.63747291455E+02  0.00000000000E+00 0. -1.
</event>
<event>
 8    1  0.6380400E-009  0.2256872E+03  0.7561462E-02  0.1129713E+00
          1   -1    0    0  501    0  0.00000000000E+00  0.00000000000E+00  0.20051135329E+03  0.20051135329E+03  0.00000000000E+00 0. -1.
         -1   -1    0    0    0  501 -0.00000000000E+00 -0.00000000000E+00 -0.30591932320E+03  0.30591932320E+03  0.00000000000E+00 0.  1.
         25    2    1    2    0    0 -0.96370251252E+00  0.20684715129E+03 -0.13767184391E+03  0.27818609014E+03  0.12508913390E+03 0.  0.
         23    2    1    2    0    0  0.96370251252E+00 -0.20684715129E+03  0.32263874000E+02  0.22824458635E+03  0.90928328437E+02 0.  0.
          5    1    3    3  502    0  0.51263683460E+02  0.59905503151E+02 -0.16523948579E+02  0.80666894240E+02  0.41800000000E+01 0. -1.
         -5    1    3    3    0  502 -0.52227385973E+02  0.14694164814E+03 -0.12114789533E+03  0.19751919590E+03  0.41800000000E+01 0. -1.
        -11    1    4    4    0    0 -0.30852152219E+02 -0.83078250982E+02  0.45764152901E+02  0.99740707705E+02  0.00000000000E+00 0. -1.
         11    1    4    4    0    0  0.31815854732E+02 -0.12376890031E+03 -0.13500278901E+02  0.12850387865E+03  0.00000000000E+00 0.  1.
</event>
<event>
 8    1  0.6380400E-009  0.2672793E+03  0.7561462E-02  0.1102847E+00
          1   -1    0    0  501    0  0.00000000000E+00  0.00000000000E+00  0.11224257084E+04  0.11224257084E+04  0.00000000000E+00 0. -1.
         -1   -1    0    0    0  501 -0.00000000000E+00 -0.00000000000E+00 -0.75924094519E+02  0.75924094519E+02  0.00000000000E+00 0.  1.
         25    2    1    2    0    0  0.20626102107E+03  0.15235377400E+03  0.71108941781E+03  0.76619216174E+03  0.12508791840E+03 0.  0.
         23    2    1    2    0    0 -0.20626102107E+03 -0.15235377400E+03  0.33541219610E+03  0.43215764121E+03  0.92214989546E+02 0.  0.
          5    1    3    3  502    0  0.26257746074E+02 -0.10488915811E+02  0.23496682213E+02  0.37000717004E+02  0.41800000000E+01 0. -1.
         -5    1    3    3    0  502  0.18000327500E+03  0.16284268981E+03  0.68759273560E+03  0.72919144474E+03  0.41800000000E+01 0. -1.
        -11    1    4    4    0    0 -0.12408046523E+03 -0.54773269498E+02  0.22842979062E+03  0.26566189442E+03  0.00000000000E+00 0. -1.
         11    1    4    4    0    0 -0.82180555844E+02 -0.97580504500E+02  0.10698240548E+03  0.16649574679E+03  0.00000000000E+00 0.  1.
</event>
<event>
 8    1  0.6380400E-009  0.9768556E+02  0.7561462E-02  0.1285240E+00
          1   -1    0    0  501    0  0.00000000000E+00  0.00000000000E+00  0.39621360723E+03  0.39621360723E+03  0.00000000000E+00 0. -1.
         -1   -1    0    0    0  501 -0.00000000000E+00 -0.00000000000E+00 -0.59050139898E+02  0.59050139898E+02  0.00000000000E+00 0.  1.
         25    2    1    2    0    0 -0.27140206539E+02  0.74944031222E+02  0.28869777303E+03  0.32457258176E+03  0.12509099908E+03 0.  0.
         23    2    1    2    0    0  0.27140206539E+02 -0.74944031222E+02  0.48465694306E+02  0.13069116537E+03  0.91531735235E+02 0.  0.
          5    1    3    3  502    0 -0.37196794515E+02  0.60170452050E+02  0.53833247747E+02  0.88991998433E+02  0.41800000000E+01 0.  1.
         -5    1    3    3    0  502  0.10056587976E+02  0.14773579172E+02  0.23486452528E+03  0.23558058332E+03  0.41800000000E+01 0.  1.
        -11    1    4    4    0    0 -0.23348260462E+01  0.13100526128E+02 -0.13586127102E+02  0.19017309145E+02  0.00000000000E+00 0.  1.
         11    1    4    4    0    0  0.29475032586E+02 -0.88044557350E+02  0.62051821407E+02  0.11167385623E+03  0.00000000000E+00 0. -1.
</event>
<event>
 8    1  0.6380400E-009  0.9344505E+02  0.7561462E-02  0.1294717E+00
         -1   -1    0    0    0  501 -0.00000000000E+00  0.00000000000E+00  0.70447518673E+02  0.70447518673E+02  0.00000000000E+00 0.  1.
          1   -1    0    0  501    0  0.00000000000E+00 -0.00000000000E+00 -0.95119732694E+03  0.95119732694E+03  0.00000000000E+00 0. -1.
         25    2    1    2    0    0  0.22320185878E+02 -0.65158046416E+02 -0.89273099201E+03  0.90407917092E+03  0.12508701569E+03 0.  0.
         23    2    1    2    0    0 -0.22320185878E+02  0.65158046416E+02  0.11981183743E+02  0.11756567469E+03  0.94521835525E+02 0.  0.
          5    1    3    3  502    0 -0.37651579420E+00 -0.63185852852E+01 -0.72175878902E+03  0.72179864797E+03  0.41800000000E+01 0.  1.
         -5    1    3    3    0  502  0.22696701672E+02 -0.58839461130E+02 -0.17097220298E+03  0.18228052295E+03  0.41800000000E+01 0.  1.
        -11    1    4    4    0    0  0.34070116249E+02  0.64080765001E+01  0.10106134529E+02  0.36110527838E+02  0.00000000000E+00 0.  1.
         11    1    4    4    0    0 -0.56390302127E+02  0.58749969916E+02  0.18750492134E+01  0.81455146852E+02  0.00000000000E+00 0. -1.
</event>
<event>
 8    1  0.6380400E-009  0.2794057E+03  0.7561462E-02  0.1096014E+00
         -1   -1    0    0    0  501 -0.00000000000E+00  0.00000000000E+00  0.19645089113E+03  0.19645089113E+03  0.00000000000E+00 0.  1.
          1   -1    0    0  501    0  0.00000000000E+00 -0.00000000000E+00 -0.43132536906E+03  0.43132536906E+03  0.00000000000E+00 0. -1.
         25    2    1    2    0    0  0.24327787503E+03 -0.11455518591E+03 -0.14378130695E+03  0.32958710678E+03  0.12509029391E+03 0.  0.
         23    2    1    2    0    0 -0.24327787503E+03  0.11455518591E+03 -0.91093170978E+02  0.29818915341E+03  0.91169020584E+02 0.  0.
          5    1    3    3  502    0  0.18353483899E+03 -0.11210348278E+03 -0.15930405674E+03  0.26767047440E+03  0.41800000000E+01 0. -1.
         -5    1    3    3    0  502  0.59743036043E+02 -0.24517031307E+01  0.15522749791E+02  0.61916632377E+02  0.41800000000E+01 0. -1.
        -11    1    4    4    0    0 -0.23533704650E+03  0.12819308499E+03 -0.83636128332E+02  0.28073474038E+03  0.00000000000E+00 0. -1.
         11    1    4    4    0    0 -0.79408285295E+01 -0.13637899082E+02 -0.74570426461E+01  0.17454413027E+02  0.00000000000E+00 0.  1.
</event>
<event>
 8    1  0.6380400E-009  0.9690654E+02  0.7561462E-02  0.1286939E+00
          2   -1    0    0  501    0  0.00000000000E+00  0.00000000000E+00  0.13325072590E+03  0.13325072590E+03  0.00000000000E+00 0. -1.
         -2   -1    0    0    0  501 -0.00000000000E+00 -0.00000000000E+00 -0.10482379418E+03  0.10482379418E+03  0.00000000000E+00 0.  1.
         25    2    1    2    0    0  0.26502315243E+02 -0.36269991708E+02  0.13537790026E+02  0.13360061443E+03  0.12509183589E+03 0.  0.
         23    2    1    2    0    0 -0.26502315243E+02  0.36269991708E+02  0.14889141695E+02  0.10447390565E+03  0.93140890110E+02 0.  0.
          5    1    3    3  502    0  0.48683057484E+02 -0.50848585650E+02 -0.34539359627E+02  0.78524254292E+02  0.41800000000E+01 0. -1.
         -5    1    3    3    0  502 -0.22180742241E+02  0.14578593943E+02  0.48077149653E+02  0.55076360142E+02  0.41800000000E+01 0. -1.
        -11    1    4    4    0    0 -0.53515695286E+02  0.42922816691E+02  0.27524872452E+02  0.73918309221E+02  0.00000000000E+00 0. -1.
         11    1    4    4    0    0  0.27013380043E+02 -0.66528249833E+01 -0.12635730756E+02  0.30555596433E+02  0.00000000000E+00 0.  1.
</event>
<event>
 8    1  0.6380400E-009  0.1532275E+03  0.7561462E-02  0.1196562E+00
         -2   -1    0    0    0  501 -0.00000000000E+00  0.00000000000E+00  0.36286201871E+02  0.36286201871E+02  0.00000000000E+00 0. -1.
          2   -1    0    0  501    0  0.00000000000E+00 -0.00000000000E+00 -0.79251455288E+03  0.79251455288E+03  0.00000000000E+00 0.  1.
         25    2    1    2    0    0  0.48266753573E+02 -0.11428361698E+03 -0.31532030344E+03  0.36120143674E+03  0.12509660081E+03 0.  0.
         23    2    1    2    0    0 -0.48266753573E+02  0.11428361698E+03 -0.44090804757E+03  0.46759931800E+03  0.94121151604E+02 0.  0.
          5    1    3    3  502    0 -0.26969324875E+02 -0.27380279468E+02 -0.18466841566E+02  0.42842978718E+02  0.41800000000E+01 0. -1.
         -5    1    3    3    0  502  0.75236078448E+02 -0.86903337508E+02 -0.29685346187E+03  0.31835845802E+03  0.41800000000E+01 0. -1.
        -11    1    4    4    0    0 -0.69788046811E+02  0.52445175805E+02 -0.29558928888E+03  0.30821079741E+03  0.00000000000E+00 0. -1.
         11    1    4    4    0    0  0.21521293239E+02  0.61838441172E+02 -0.14531875869E+03  0.15938852059E+03  0.00000000000E+00 0.  1.
</event>
<event>
 8    1  0.6380400E-009  0.2695481E+03  0.7561462E-02  0.1101539E+00
         -2   -1    0    0    0  501 -0.00000000000E+00  0.00000000000E+00  0.58719272276E+02  0.58719272276E+02  0.00000000000E+00 0.  1.
          2   -1    0    0  501    0  0.00000000000E+00 -0.00000000000E+00 -0.13004832815E+04  0.13004832815E+04  0.00000000000E+00 0. -1.
         25    2    1    2    0    0 -0.23686456557E+03  0.91004470839E+02 -0.59140351803E+03  0.65558490605E+03  0.12508721665E+03 0.  0.
         23    2    1    2    0    0  0.23686456557E+03 -0.91004470839E+02 -0.65036049115E+03  0.70361764768E+03  0.87877127544E+02 0.  0.
          5    1    3    3  502    0 -0.15441960427E+03 -0.54494433104E+01 -0.29232661233E+03  0.33067723129E+03  0.41800000000E+01 0. -1.
         -5    1    3    3    0  502 -0.82444961301E+02  0.96453914149E+02 -0.29907690569E+03  0.32490767476E+03  0.41800000000E+01 0. -1.
        -11    1    4    4    0    0  0.55171794997E+02 -0.42123436036E+02 -0.27650848080E+03  0.28508814564E+03  0.00000000000E+00 0.  1.
         11    1    4    4    0    0  0.18169277057E+03 -0.48881034803E+02 -0.37385201035E+03  0.41852950204E+03  0.00000000000E+00 0. -1.
</event>
<event>
 8    1  0.6380400E-009  0.1045115E+03  0.7561462E-02  0.1271085E+00
         -1   -1    0    0    0  501 -0.00000000000E+00  0.00000000000E+00  0.82926364020E+02  0.82926364020E+02  0.00000000000E+00 0.  1.
          1   -1    0    0  501    0  0.00000000000E+00 -0.00000000000E+00 -0.17736019350E+03  0.17736019350E+03  0.00000000000E+00 0. -1.
         25    2    1    2    0    0 -0.27641864332E+02 -0.48740434568E+02 -0.55274918467E+02  0.14778184449E+03  0.12507779309E+03 0.  0.
         23    2    1    2    0    0  0.27641864332E+02  0.48740434568E+02 -0.39158911013E+02  0.11250471302E+03  0.89354280901E+02 0.  0.
          5    1    3    3  502    0  0.30854338769E+02 -0.31263132181E+02  0.21924935021E+02  0.49270161663E+02  0.41800000000E+01 0.  1.
         -5    1    3    3    0  502 -0.58496203101E+02 -0.17477302388E+02 -0.77199853487E+02  0.98511682832E+02  0.41800000000E+01 0.  1.
        -11    1    4    4    0    0  0.58488721943E+02  0.20773813538E+02 -0.33360588310E+02  0.70465670903E+02  0.00000000000E+00 0.  1.
         11    1    4    4    0    0 -0.30846857611E+02  0.27966621031E+02 -0.57983227033E+01  0.42039042122E+02  0.00000000000E+00 0. -1.
</event>
<event>
 8    1  0.6380400E-009  0.6699846E+02  0.7561462E-02  0.1370608E+00
          1   -1    0    0  501    0  0.00000000000E+00  0.00000000000E+00  0.22262736233E+03  0.22262736233E+03  0.00000000000E+00 0. -1.
         -1   -1    0    0    0  501 -0.00000000000E+00 -0.00000000000E+00 -0.91781755678E+02  0.91781755678E+02  0.00000000000E+00 0.  1.
         25    2    1    2    0    0  0.31258033009E+02 -0.10707450911E+02  0.16667295540E+03  0.21099566323E+03  0.12509029422E+03 0.  0.
         23    2    1    2    0    0 -0.31258033009E+02  0.10707450911E+02 -0.35827348747E+02  0.10341345478E+03  0.91208714377E+02 0.  0.
          5    1    3    3  502    0  0.22136660077E+02 -0.47536925456E+02  0.16456211392E+03  0.17276560056E+03  0.41800000000E+01 0. -1.
         -5    1    3    3    0  502  0.91213729322E+01  0.36829474545E+02  0.21108414791E+01  0.38230062663E+02  0.41800000000E+01 0. -1.
        -11    1    4    4    0    0 -0.32121900941E+02 -0.35538971943E+00  0.25547163196E+02  0.41043883457E+02  0.00000000000E+00 0. -1.
         11    1    4    4    0    0  0.86386793125E+00  0.11062840630E+02 -0.61374511943E+02  0.62369571321E+02  0.00000000000E+00 0.  1.
</event>
<event>
 8    1  0.6380400E-009  0.9261983E+02  0.7561462E-02  0.1296629E+00
         -4   -1    0    0    0  501 -0.00000000000E+00  0.00000000000E+00  0.83708783542E+03  0.83708783542E+03  0.00000000000E+00 0.  1.
          4   -1    0    0  501    0  0.00000000000E+00 -0.00000000000E+00 -0.15993375903E+02  0.15993375903E+02  0.00000000000E+00 0. -1.
         25    2    1    2    0    0 -0.90360776805E+01  0.34876354347E+02  0.42684165917E+03  0.44624937509E+03  0.12508673780E+03 0.  0.
         23    2    1    2    0    0  0.90360776805E+01 -0.34876354347E+02  0.39425280034E+03  0.40683183623E+03  0.93695579393E+02 0.  0.
          5    1    3    3  502    0  0.47377162117E+01  0.63426835100E+02  0.39836750040E+03  0.40343468757E+03  0.41800000000E+01 0.  1.
         -5    1    3    3    0  502 -0.13773793892E+02 -0.28550480752E+02  0.28474158775E+02  0.42814687519E+02  0.41800000000E+01 0.  1.
        -11    1    4    4    0    0 -0.27567897214E+02 -0.43888176775E+02  0.31297740108E+03  0.31723968006E+03  0.00000000000E+00 0.  1.
         11    1    4    4    0    0  0.36603974895E+02  0.90118224281E+01  0.81275399265E+02  0.89592156170E+02  0.00000000000E+00 0. -1.
</event>
<event>
 8    1  0.6380400E-009  0.2691896E+03  0.7561462E-02  0.1101744E+00
          2   -1    0    0  501    0  0.00000000000E+00  0.00000000000E+00  0.19791275632E+04  0.19791275632E+04  0.00000000000E+00 0. -1.
         -2   -1    0    0    0  501 -0.00000000000E+00 -0.00000000000E+00 -0.40291130730E+02  0.40291130730E+02  0.00000000000E+00 0.  1.
         25    2    1    2    0    0  0.17547934993E+03 -0.18668722612E+03  0.82404010063E+03  0.87197149506E+03  0.12508828126E+03 0.  0.
         23    2    1    2    0    0 -0.17547934993E+03  0.18668722612E+03  0.11147963318E+04  0.11474471989E+04  0.90659197286E+02 0.  0.
          5    1    3    3  502    0  0.45777823997E+02  0.33860630368E+01  0.23677036703E+03  0.24121516059E+03  0.41800000000E+01 0.  1.
         -5    1    3    3    0  502  0.12970152593E+03 -0.19007328916E+03  0.58726973360E+03  0.63075633448E+03  0.41800000000E+01 0.  1.
        -11    1    4    4    0    0 -0.91512798945E+02  0.13643541967E+03  0.83566426235E+03  0.85165954200E+03  0.00000000000E+00 0. -1.
         11    1    4    4    0    0 -0.83966550986E+02  0.50251806453E+02  0.27913206948E+03  0.29578765685E+03  0.00000000000E+00 0.  1.
</event>
<event>
 8    1  0.6380400E-009  0.1577146E+03  0.7561462E-02  0.1191301E+00
          2   -1    0    0  501    0  0.00000000000E+00  0.00000000000E+00  0.12048632448E+04  0.12048632448E+04  0.00000000000E+00 0. -1.
         -2   -1    0    0    0  501 -0.00000000000E+00 -0.00000000000E+00 -0.23166559848E+02  0.23166559848E+02  0.00000000000E+00 0.  1.
         25    2    1    2    0    0 -0.73703012530E+02 -0.92893460312E+02  0.81974698264E+03  0.83767097794E+03  0.12508486204E+03 0.  0.
         23    2    1    2    0    0  0.73703012530E+02  0.92893460312E+02  0.36194970228E+03  0.39035882668E+03  0.85504956333E+02 0.  0.
          5    1    3    3  502    0 -0.68178576856E+02  0.99069376337E+01  0.30476035124E+03  0.31247849501E+03  0.41800000000E+01 0.  1.
         -5    1    3    3    0  502 -0.55244356742E+01 -0.10280039795E+03  0.51498663140E+03  0.52519248293E+03  0.41800000000E+01 0.  1.
        -11    1    4    4    0    0  0.13468304614E+02  0.80828858016E+02  0.16811212765E+03  0.18701975025E+03  0.00000000000E+00 0. -1.
         11    1    4    4    0    0  0.60234707916E+02  0.12064602296E+02  0.19383757463E+03  0.20333907643E+03  0.00000000000E+00 0.  1.
</event>
<event>
 8    1  0.6380400E-009  0.1059936E+03  0.7561462E-02  0.1268174E+00
         -3   -1    0    0    0  501 -0.00000000000E+00  0.00000000000E+00  0.44148069044E+03  0.44148069044E+03  0.00000000000E+00 0.  1.
          3   -1    0    0  501    0  0.00000000000E+00 -0.00000000000E+00 -0.26172168551E+02  0.26172168551E+02  0.00000000000E+00 0. -1.
         25    2    1    2    0    0 -0.71886466892E+01 -0.27583693222E+01  0.24693469937E+03  0.27691782355E+03  0.12508976778E+03 0.  0.
         23    2    1    2    0    0  0.71886466892E+01  0.27583693222E+01  0.16837382252E+03  0.19073503544E+03  0.89279473525E+02 0.  0.
          5    1    3    3  502    0 -0.47708018088E+02 -0.44488125530E+02  0.10799636791E+03  0.12623761795E+03  0.41800000000E+01 0. -1.
         -5    1    3    3    0  502  0.40519371399E+02  0.41729756208E+02  0.13893833145E+03  0.15068020560E+03  0.41800000000E+01 0. -1.
        -11    1    4    4    0    0  0.46392545531E+02  0.12223004948E+02  0.75108114691E+02  0.89122943305E+02  0.00000000000E+00 0. -1.
         11    1    4    4    0    0 -0.39203898842E+02 -0.94646356255E+01  0.93265707828E+02  0.10161209214E+03  0.00000000000E+00 0.  1.
</event>
<event>
 8    1  0.6380400E-009  0.1071838E+03  0.7561462E-02  0.1265876E+00
          1   -1    0    0  501    0  0.00000000000E+00  0.00000000000E+00  0.34084153723E+03  0.34084153723E+03  0.00000000000E+00 0. -1.
         -1   -1    0    0    0  501 -0.00000000000E+00 -0.00000000000E+00 -0.69691866283E+02  0.69691866283E+02  0.00000000000E+00 0.  1.
         25    2    1    2    0    0  0.78919139131E+02 -0.15447708622E+02  0.25342584222E+03  0.29383427397E+03  0.12508821221E+03 0.  0.
         23    2    1    2    0    0 -0.78919139131E+02  0.15447708622E+02  0.17723828725E+02  0.11669912954E+03  0.82690328984E+02 0.  0.
          5    1    3    3  502    0  0.43488614038E+02  0.45528750473E+02  0.56788509000E+02  0.84891305945E+02  0.41800000000E+01 0. -1.
         -5    1    3    3    0  502  0.35430525093E+02 -0.60976459095E+02  0.19663733322E+03  0.20894296803E+03  0.41800000000E+01 0. -1.
        -11    1    4    4    0    0 -0.26788802902E+02  0.80259026035E+01  0.48298333824E+02  0.55810251063E+02  0.00000000000E+00 0. -1.
         11    1    4    4    0    0 -0.52130336229E+02  0.74218060188E+01 -0.30574505099E+02  0.60888878475E+02  0.00000000000E+00 0.  1.
</event>
<event>
 8    1  0.6380400E-009  0.5691362E+03  0.7561462E-02  0.9971592E-01
          1   -1    0    0  501    0  0.00000000000E+00  0.00000000000E+00  0.60770780336E+03  0.60770780336E+03  0.00000000000E+00 0. -1.
         -1   -1    0    0    0  501 -0.00000000000E+00 -0.00000000000E+00 -0.54040673447E+03  0.54040673447E+03  0.00000000000E+00 0.  1.
         25    2    1    2    0    0  0.50146543017E+03  0.24855928532E+03 -0.21129682274E+02  0.57388485840E+03  0.12509225098E+03 0.  0.
         23    2    1    2    0    0 -0.50146543017E+03 -0.24855928532E+03  0.88430751172E+02  0.57422967943E+03  0.93115149227E+02 0.  0.
          5    1    3    3  502    0  0.47262162953E+03  0.26060831152E+03 -0.31608833481E+02  0.54065190973E+03  0.41800000000E+01 0.  1.
         -5    1    3    3    0  502  0.28843800636E+02 -0.12049026204E+02  0.10479151207E+02  0.33232948674E+02  0.41800000000E+01 0.  1.
        -11    1    4    4    0    0 -0.11024030273E+03 -0.14703534819E+02  0.91222630680E+01  0.11159002629E+03  0.00000000000E+00 0.  1.
         11    1    4    4    0    0 -0.39122512743E+03 -0.23385575050E+03  0.79308488104E+02  0.46263965314E+03  0.00000000000E+00 0. -1.
</event>
<event>
 8    1  0.6380400E-009  0.8033975E+02  0.7561462E-02  0.1328090E+00
         -1   -1    0    0    0  501 -0.00000000000E+00  0.00000000000E+00  0.30440560929E+02  0.30440560929E+02  0.00000000000E+00 0.  1.
          1   -1    0    0  501    0  0.00000000000E+00 -0.00000000000E+00 -0.71398150825E+03  0.71398150825E+03  0.00000000000E+00 0. -1.
         25    2    1    2    0    0 -0.40001821344E+02 -0.37107897028E+02 -0.57895213355E+03  0.59481984452E+03  0.12509169743E+03 0.  0.
         23    2    1    2    0    0  0.40001821344E+02  0.37107897028E+02 -0.10458881377E+03  0.14960222465E+03  0.92004695114E+02 0.  0.
          5    1    3    3  502    0 -0.27511522056E+02 -0.44595381036E+02 -0.57717683669E+03  0.57956553130E+03  0.41800000000E+01 0. -1.
         -5    1    3    3    0  502 -0.12490299288E+02  0.74874840088E+01 -0.17752968590E+01  0.15254313227E+02  0.41800000000E+01 0. -1.
        -11    1    4    4    0    0  0.32528303899E+02  0.60345300725E+02 -0.37346884339E+02  0.78066866492E+02  0.00000000000E+00 0.  1.
         11    1    4    4    0    0  0.74735174444E+01 -0.23237403697E+02 -0.67241929433E+02  0.71535358162E+02  0.00000000000E+00 0. -1.
</event>
<event>
 8    1  0.6380400E-009  0.1019095E+03  0.7561462E-02  0.1276331E+00
          1   -1    0    0  501    0  0.00000000000E+00  0.00000000000E+00  0.21151312008E+03  0.21151312008E+03  0.00000000000E+00 0. -1.
         -1   -1    0    0    0  501 -0.00000000000E+00 -0.00000000000E+00 -0.58684804507E+02  0.58684804507E+02  0.00000000000E+00 0.  1.
         25    2    1    2    0    0 -0.12110886556E+00  0.18387484458E+02  0.64282274364E+02  0.14183728551E+03  0.12508992969E+03 0.  0.
         23    2    1    2    0    0  0.12110886556E+00 -0.18387484458E+02  0.88546041205E+02  0.12836063908E+03  0.91093018389E+02 0.  0.
          5    1    3    3  502    0 -0.46777495968E+02 -0.24140099907E+02  0.57719054428E+02  0.78229407493E+02  0.41800000000E+01 0. -1.
         -5    1    3    3    0  502  0.46656387103E+02  0.42527584365E+02  0.65632199360E+01  0.63607878013E+02  0.41800000000E+01 0. -1.
        -11    1    4    4    0    0  0.94728967534E+00 -0.53057512925E+02  0.31824223945E+02  0.61877122309E+02  0.00000000000E+00 0.  1.
         11    1    4    4    0    0 -0.82618080978E+00  0.34670028467E+02  0.56721817260E+02  0.66483516768E+02  0.00000000000E+00 0. -1.
</event>
<event>
 8    1  0.6380400E-009  0.1549257E+03  0.7561462E-02  0.1194548E+00
          1   -1    0    0  501    0  0.00000000000E+00  0.00000000000E+00  0.19320195198E+03  0.19320195198E+03  0.00000000000E+00 0. -1.
         -1   -1    0    0    0  501 -0.00000000000E+00 -0.00000000000E+00 -0.24177759707E+03  0.24177759707E+03  0.00000000000E+00 0.  1.
         25    2    1    2    0    0  0.11768702883E+03  0.71482663858E+02  0.10204548734E+03  0.21218175519E+03  0.12509119778E+03 0.  0.
         23    2    1    2    0    0 -0.11768702883E+03 -0.71482663858E+02 -0.15062113242E+03  0.22279779386E+03  0.89398676884E+02 0.  0.
          5    1    3    3  502    0  0.19147710281E+02  0.69153067158E+02  0.23360311292E+01  0.71914608723E+02  0.41800000000E+01 0. -1.
         -5    1    3    3    0  502  0.98539318552E+02  0.23295967000E+01  0.99709456207E+02  0.14026714647E+03  0.41800000000E+01 0. -1.
        -11    1    4    4    0    0 -0.91127749724E+02 -0.44334208098E+02 -0.45612201536E+02  0.11113173132E+03  0.00000000000E+00 0. -1.
         11    1    4    4    0    0 -0.26559279109E+02 -0.27148455760E+02 -0.10500893089E+03  0.11166606254E+03  0.00000000000E+00 0.  1.
</event>
<event>
 8    1  0.6380400E-009  0.1066834E+03  0.7561462E-02  0.1266838E+00
         -1   -1    0    0    0  501 -0.00000000000E+00  0.00000000000E+00  0.87054530543E+02  0.87054530543E+02  0.00000000000E+00 0.  1.
          1   -1    0    0  501    0  0.00000000000E+00 -0.00000000000E+00 -0.32116459390E+03  0.32116459390E+03  0.00000000000E+00 0. -1.
         25    2    1    2    0    0 -0.37049946994E+02 -0.31607075549E+02 -0.26816602314E+03  0.29988733363E+03  0.12509073151E+03 0.  0.
         23    2    1    2    0    0  0.37049946994E+02  0.31607075549E+02  0.34055959784E+02  0.10833179081E+03  0.90577385182E+02 0.  0.
          5    1    3    3  502    0 -0.50870112153E+02 -0.64212501947E+02 -0.10700224864E+03  0.13482569240E+03  0.41800000000E+01 0.  1.
         -5    1    3    3    0  502  0.13820165159E+02  0.32605426398E+02 -0.16116377450E+03  0.16506164123E+03  0.41800000000E+01 0.  1.
        -11    1    4    4    0    0  0.63641344569E+02  0.24073151381E+02  0.49924883863E+01  0.68225085535E+02  0.00000000000E+00 0.  1.
         11    1    4    4    0    0 -0.26591397575E+02  0.75339241679E+01  0.29063471398E+02  0.40106705275E+02  0.00000000000E+00 0. -1.
</event>
<event>
 8    1  0.6380400E-009  0.1209144E+03  0.7561462E-02  0.1241596E+00
          3   -1    0    0  501    0  0.00000000000E+00  0.00000000000E+00  0.65922931171E+03  0.65922931171E+03  0.00000000000E+00 0. -1.
         -3   -1    0    0    0  501 -0.00000000000E+00 -0.00000000000E+00 -0.29648564820E+02  0.29648564820E+02  0.00000000000E+00 0.  1.
         25    2    1    2    0    0 -0.85532717920E+02  0.19275506340E+02  0.33130507375E+03  0.36480916671E+03  0.12504113421E+03 0.  0.
         23    2    1    2    0    0  0.85532717920E+02 -0.19275506340E+02  0.29827567314E+03  0.32406870982E+03  0.91459064706E+02 0.  0.
          5    1    3    3  502    0 -0.45590600943E+00 -0.39505244523E+02  0.15832415116E+03  0.16323259918E+03  0.41800000000E+01 0.  1.
         -5    1    3    3    0  502 -0.85076811911E+02  0.58780750863E+02  0.17298092259E+03  0.20157656753E+03  0.41800000000E+01 0.  1.
        -11    1    4    4    0    0  0.48049484119E+02  0.12298699034E+02  0.47937774684E+02  0.68978555825E+02  0.00000000000E+00 0.  1.
         11    1    4    4    0    0  0.37483233801E+02 -0.31574205374E+02  0.25033789846E+03  0.25509015400E+03  0.00000000000E+00 0. -1.
</event>
<event>
 8    1  0.6380400E-009  0.9513758E+02  0.7561462E-02  0.1290867E+00
         -4   -1    0    0    0  501 -0.00000000000E+00  0.00000000000E+00  0.19882640421E+03  0.19882640421E+03  0.00000000000E+00 0.  1.
          4   -1    0    0  501    0  0.00000000000E+00 -0.00000000000E+00 -0.90387921674E+02  0.90387921674E+02  0.00000000000E+00 0. -1.
         25    2    1    2    0    0  0.44564777605E+02  0.85540507779E+01  0.12496197284E+03  0.18254306090E+03  0.12508910120E+03 0.  0.
         23    2    1    2    0    0 -0.44564777605E+02 -0.85540507779E+01 -0.16523490310E+02  0.10667126498E+03  0.95113310599E+02 0.  0.
          5    1    3    3  502    0 -0.11583118976E+02  0.54168918844E+02  0.30131952712E+02  0.63196893817E+02  0.41800000000E+01 0.  1.
         -5    1    3    3    0  502  0.56147896581E+02 -0.45614868066E+02  0.94830020132E+02  0.11934616708E+03  0.41800000000E+01 0.  1.
        -11    1    4    4    0    0 -0.10320340120E+02 -0.22912192759E+02 -0.50457418162E+02  0.56368688514E+02  0.00000000000E+00 0. -1.
         11    1    4    4    0    0 -0.34244437485E+02  0.14358141981E+02  0.33933927852E+02  0.50302576468E+02  0.00000000000E+00 0.  1.
</event>
<event>
 8    1  0.6380400E-009  0.2264402E+03  0.7561462E-02  0.1129171E+00
         -2   -1    0    0    0  501 -0.00000000000E+00  0.00000000000E+00  0.15196919517E+03  0.15196919517E+03  0.00000000000E+00 0.  1.
          2   -1    0    0  501    0  0.00000000000E+00 -0.00000000000E+00 -0.41493982028E+03  0.41493982028E+03  0.00000000000E+00 0. -1.
         25    2    1    2    0    0  0.22164233400E+03 -0.14378809881E+02 -0.18421615652E+03  0.31450805994E+03  0.12509057937E+03 0.  0.
         23    2    1    2    0    0 -0.22164233400E+03  0.14378809881E+02 -0.78754468581E+02  0.25240095551E+03  0.90398570937E+02 0.  0.
          5    1    3    3  502    0  0.14500863335E+03  0.21092732975E+01 -0.18611848976E+03  0.23598626530E+03  0.41800000000E+01 0.  1.
         -5    1    3    3    0  502  0.76633700648E+02 -0.16488083179E+02  0.19023332311E+01  0.78521794641E+02  0.41800000000E+01 0.  1.
        -11    1    4    4    0    0 -0.60093315628E+02  0.29684219501E+02  0.94785675792E+01  0.67691969345E+02  0.00000000000E+00 0.  1.
         11    1    4    4    0    0 -0.16154901837E+03 -0.15305409620E+02 -0.88233036160E+02  0.18470898617E+03  0.00000000000E+00 0. -1.
</event>
<event>
 8    1  0.6380400E-009  0.1129460E+03  0.7561462E-02  0.1255210E+00
          2   -1    0    0  501    0  0.00000000000E+00  0.00000000000E+00  0.12089176942E+03  0.12089176942E+03  0.00000000000E+00 0.  1.
         -2   -1    0    0    0  501 -0.00000000000E+00 -0.00000000000E+00 -0.16875677545E+03  0.16875677545E+03  0.00000000000E+00 0. -1.
         25    2    1    2    0    0  0.67084042836E+02  0.32947681838E+01 -0.89081448340E+02  0.16762707362E+03  0.12510878096E+03 0.  0.
         23    2    1    2    0    0 -0.67084042836E+02 -0.32947681838E+01  0.41216442308E+02  0.12202147125E+03  0.93162868292E+02 0.  0.
          5    1    3    3  502    0  0.83173227265E+02  0.28175540074E+02 -0.16948940604E+02  0.89534271537E+02  0.41800000000E+01 0. -1.
         -5    1    3    3    0  502 -0.16089184429E+02 -0.24880771890E+02 -0.72132507736E+02  0.78092802086E+02  0.41800000000E+01 0. -1.
        -11    1    4    4    0    0 -0.87514327085E+02 -0.12751577391E+01  0.15124011249E+02  0.88820713736E+02  0.00000000000E+00 0. -1.
         11    1    4    4    0    0  0.20430284248E+02 -0.20196104447E+01  0.26092431059E+02  0.33200757512E+02  0.00000000000E+00 0.  1.
</event>
<event>
 8    1  0.6380400E-009  0.1141298E+03  0.7561462E-02  0.1253108E+00
         -2   -1    0    0    0  501 -0.00000000000E+00  0.00000000000E+00  0.21093777256E+02  0.21093777256E+02  0.00000000000E+00 0. -1.
          2   -1    0    0  501    0  0.00000000000E+00 -0.00000000000E+00 -0.10355427259E+04  0.10355427259E+04  0.00000000000E+00 0.  1.
         25    2    1    2    0    0 -0.71295935846E+02  0.57525446853E+02 -0.41030289314E+03  0.43862131430E+03  0.12509158939E+03 0.  0.
         23    2    1    2    0    0  0.71295935846E+02 -0.57525446853E+02 -0.60414605556E+03  0.61801518891E+03  0.92509619887E+02 0.  0.
          5    1    3    3  502    0 -0.17826539386E+02  0.40231244066E+02 -0.28301968683E+02  0.52486306185E+02  0.41800000000E+01 0.  1.
         -5    1    3    3    0  502 -0.53469396460E+02  0.17294202787E+02 -0.38200092445E+03  0.38613500812E+03  0.41800000000E+01 0.  1.
        -11    1    4    4    0    0  0.75796665226E+02 -0.60540645265E+01 -0.41658978314E+03  0.42347235279E+03  0.00000000000E+00 0.  1.
         11    1    4    4    0    0 -0.45007293804E+01 -0.51471382327E+02 -0.18755627241E+03  0.19454283612E+03  0.00000000000E+00 0. -1.
</event>
<event>
 8    1  0.6380400E-009  0.1715516E+03  0.7561462E-02  0.1176239E+00
         -3   -1    0    0    0  501 -0.00000000000E+00  0.00000000000E+00  0.26377426618E+03  0.26377426618E+03  0.00000000000E+00 0.  1.
          3   -1    0    0  501    0  0.00000000000E+00 -0.00000000000E+00 -0.16358738641E+03  0.16358738641E+03  0.00000000000E+00 0. -1.
         25    2    1    2    0    0  0.65270210271E+00 -0.15082584854E+03 -0.43462676805E+02  0.20071848021E+03  0.12510012556E+03 0.  0.
         23    2    1    2    0    0 -0.65270210271E+00  0.15082584854E+03  0.14364955658E+03  0.22664317239E+03  0.89348026711E+02 0.  0.
          5    1    3    3  502    0  0.38812865760E+02 -0.69061327213E+02  0.29464579609E+02  0.84625878527E+02  0.41800000000E+01 0.  1.
         -5    1    3    3    0  502 -0.38160163657E+02 -0.81764521325E+02 -0.72927256414E+02  0.11609260168E+03  0.41800000000E+01 0.  1.
        -11    1    4    4    0    0 -0.25454219365E+02  0.55309997492E+01  0.10750728674E+02  0.28179556574E+02  0.00000000000E+00 0. -1.
         11    1    4    4    0    0  0.24801517262E+02  0.14529484879E+03  0.13289882790E+03  0.19846361581E+03  0.00000000000E+00 0.  1.
</event>
<event>
 8    1  0.6380400E-009  0.2027602E+03  0.7561462E-02  0.1147431E+00
         -2   -1    0    0    0  501 -0.00000000000E+00  0.00000000000E+00  0.29335632124E+03  0.29335632124E+03  0.00000000000E+00 0. -1.
          2   -1    0    0  501    0  0.00000000000E+00 -0.00000000000E+00 -0.17016594169E+03  0.17016594169E+03  0.00000000000E+00 0.  1.
         25    2    1    2    0    0  0.11072460967E+03 -0.15603792984E+03  0.10042377608E+03  0.24967950734E+03  0.12508855601E+03 0.  0.
         23    2    1    2    0    0 -0.11072460967E+03  0.15603792984E+03  0.22766603465E+02  0.21384275559E+03  0.92750370069E+02 0.  0.
          5    1    3    3  502    0  0.79375884677E+02 -0.63737793600E+02 -0.99433468256E+01  0.10236884266E+03  0.41800000000E+01 0. -1.
         -5    1    3    3    0  502  0.31348724997E+02 -0.92300136240E+02  0.11036712291E+03  0.14731066468E+03  0.41800000000E+01 0. -1.
        -11    1    4    4    0    0 -0.48606547267E+02  0.13291644152E+02  0.28816630617E+02  0.58048793627E+02  0.00000000000E+00 0.  1.
         11    1    4    4    0    0 -0.62118062408E+02  0.14274628569E+03 -0.60500271519E+01  0.15579396196E+03  0.00000000000E+00 0. -1.
</event>
<event>
 8    1  0.6380400E-009  0.1104749E+03  0.7561462E-02  0.1259693E+00
          2   -1    0    0  501    0  0.00000000000E+00  0.00000000000E+00  0.82817045409E+02  0.82817045409E+02  0.00000000000E+00 0. -1.
         -2   -1    0    0    0  501 -0.00000000000E+00 -0.00000000000E+00 -0.19259530716E+03  0.19259530716E+03  0.00000000000E+00 0.  1.
         25    2    1    2    0    0  0.16486958978E+02  0.15636662358E+02 -0.12227675029E+03  0.17639773113E+03  0.12509288892E+03 0.  0.
         23    2    1    2    0    0 -0.16486958978E+02 -0.15636662358E+02  0.12498488537E+02  0.99014621446E+02  0.95558139467E+02 0.  0.
          5    1    3    3  502    0  0.68388847864E+02  0.17257335206E+02 -0.47029501825E+02  0.84876949594E+02  0.41800000000E+01 0.  1.
         -5    1    3    3    0  502 -0.51901888885E+02 -0.16206728478E+01 -0.75247248469E+02  0.91520781533E+02  0.41800000000E+01 0.  1.
        -11    1    4    4    0    0 -0.56716072411E+02 -0.92181842697E+01  0.62260073890E+01  0.57796634495E+02  0.00000000000E+00 0.  1.
         11    1    4    4    0    0  0.40229113433E+02 -0.64184780882E+01  0.62724811481E+01  0.41217986951E+02  0.00000000000E+00 0. -1.
</event>
<event>
 8    1  0.6380400E-009  0.7127200E+02  0.7561462E-02  0.1355820E+00
         -2   -1    0    0    0  501 -0.00000000000E+00  0.00000000000E+00  0.60666895604E+02  0.60666895604E+02  0.00000000000E+00 0.  1.
          2   -1    0    0  501    0  0.00000000000E+00 -0.00000000000E+00 -0.24830899984E+03  0.24830899984E+03  0.00000000000E+00 0. -1.
         25    2    1    2    0    0 -0.13096663220E+02  0.55334553502E+02 -0.80913263508E+02  0.15946121001E+03  0.12508991121E+03 0.  0.
         23    2    1    2    0    0  0.13096663220E+02 -0.55334553502E+02 -0.10672884073E+03  0.14951468544E+03  0.87921330290E+02 0.  0.
          5    1    3    3  502    0  0.21842355328E+02  0.40221005140E+02  0.21044309827E+02  0.50548522400E+02  0.41800000000E+01 0.  1.
         -5    1    3    3    0  502 -0.34939018548E+02  0.15113548362E+02 -0.10195757334E+03  0.10891268761E+03  0.41800000000E+01 0.  1.
        -11    1    4    4    0    0  0.13849566027E+02 -0.31133199472E+02 -0.11798946487E+03  0.12281123893E+03  0.00000000000E+00 0. -1.
         11    1    4    4    0    0 -0.75290280645E+00 -0.24201354030E+02  0.11260624135E+02  0.26703446509E+02  0.00000000000E+00 0.  1.
</event>
<event>
 8    1  0.6380400E-009  0.1143365E+03  0.7561462E-02  0.1252744E+00
          3   -1    0    0  501    0  0.00000000000E+00  0.00000000000E+00  0.11929915816E+03  0.11929915816E+03  0.00000000000E+00 0. -1.
         -3   -1    0    0    0  501 -0.00000000000E+00 -0.00000000000E+00 -0.14114062345E+03  0.14114062345E+03  0.00000000000E+00 0.  1.
         25    2    1    2    0    0 -0.33633858663E+02 -0.60147369259E+02 -0.21789691796E+01  0.14281874495E+03  0.12507399220E+03 0.  0.
         23    2    1    2    0    0  0.33633858663E+02  0.60147369259E+02 -0.19662496105E+02  0.11762103667E+03  0.93269244857E+02 0.  0.
          5    1    3    3  502    0  0.43415602329E+02 -0.43282433119E+02 -0.13817496797E+02  0.62981577942E+02  0.41800000000E+01 0. -1.
         -5    1    3    3    0  502 -0.77049460992E+02 -0.16864936139E+02  0.11638527618E+02  0.79837167004E+02  0.41800000000E+01 0. -1.
        -11    1    4    4    0    0  0.28554195666E+02  0.70853801313E+02 -0.45697386159E+02  0.89016034244E+02  0.00000000000E+00 0.  1.
         11    1    4    4    0    0  0.50796629968E+01 -0.10706432055E+02  0.26034890054E+02  0.28605002423E+02  0.00000000000E+00 0. -1.
</event>
<event>
 8    1  0.6380400E-009  0.1885828E+03  0.7561462E-02  0.1159746E+00
          1   -1    0    0  501    0  0.00000000000E+00  0.00000000000E+00  0.46256349837E+03  0.46256349837E+03  0.00000000000E+00 0. -1.
         -1   -1    0    0    0  501 -0.00000000000E+00 -0.00000000000E+00 -0.10013377507E+03  0.10013377507E+03  0.00000000000E+00 0.  1.
         25    2    1    2    0    0  0.16362701285E+03 -0.85224260865E+02  0.15782526654E+03  0.27311829093E+03  0.12509121514E+03 0.  0.
         23    2    1    2    0    0 -0.16362701285E+03  0.85224260865E+02  0.20460445677E+03  0.28957898251E+03  0.89196577324E+02 0.  0.
          5    1    3    3  502    0  0.15641052213E+02 -0.91522859952E+01  0.92436584570E+02  0.94288925226E+02  0.41800000000E+01 0. -1.
         -5    1    3    3    0  502  0.14798596064E+03 -0.76071974870E+02  0.65388681968E+02  0.17882936570E+03  0.41800000000E+01 0. -1.
        -11    1    4    4    0    0 -0.21477257822E+02 -0.71012647008E+01  0.68680547507E+02  0.72309876018E+02  0.00000000000E+00 0. -1.
         11    1    4    4    0    0 -0.14214975503E+03  0.92325525566E+02  0.13592390926E+03  0.21726910649E+03  0.00000000000E+00 0.  1.
</event>
<event>
 8    1  0.6380400E-009  0.1740932E+03  0.7561462E-02  0.1173645E+00
         -1   -1    0    0    0  501 -0.00000000000E+00  0.00000000000E+00  0.54711906948E+02  0.54711906948E+02  0.00000000000E+00 0.  1.
          1   -1    0    0  501    0  0.00000000000E+00 -0.00000000000E+00 -0.62808425874E+03  0.62808425874E+03  0.00000000000E+00 0. -1.
         25    2    1    2    0    0  0.12735102776E+03  0.78267728280E+02 -0.31049283550E+03  0.36660114194E+03  0.12508586976E+03 0.  0.
         23    2    1    2    0    0 -0.12735102776E+03 -0.78267728280E+02 -0.26287951629E+03  0.31619502374E+03  0.92355462180E+02 0.  0.
          5    1    3    3  502    0  0.10845686928E+03  0.10897603063E+03 -0.27881857227E+03  0.31842728587E+03  0.41800000000E+01 0.  1.
         -5    1    3    3    0  502  0.18894158477E+02 -0.30708302345E+02 -0.31674263234E+02  0.48173856073E+02  0.41800000000E+01 0.  1.
        -11    1    4    4    0    0 -0.71483546344E+02 -0.72672285366E+02 -0.22888610594E+03  0.25055939007E+03  0.00000000000E+00 0. -1.
         11    1    4    4    0    0 -0.55867481414E+02 -0.55954429139E+01 -0.33993410348E+02  0.65635633676E+02  0.00000000000E+00 0.  1.
</event>
<event>
 8    1  0.6380400E-009  0.3016338E+03  0.7561462E-02  0.1084427E+00
          1   -1    0    0  501    0  0.00000000000E+00  0.00000000000E+00  0.37568890985E+03  0.37568890985E+03  0.00000000000E+00 0.  1.
         -1   -1    0    0    0  501 -0.00000000000E+00 -0.00000000000E+00 -0.24978055366E+03  0.24978055366E+03  0.00000000000E+00 0. -1.
         25    2    1    2    0    0 -0.23131506680E+03 -0.16074678353E+03  0.27934692530E+02  0.30947433705E+03  0.12509128547E+03 0.  0.
         23    2    1    2    0    0  0.23131506680E+03  0.16074678353E+03  0.97973663667E+02  0.31599512646E+03  0.10444085709E+03 0.  0.
          5    1    3    3  502    0 -0.13631793837E+03 -0.23566493887E+02  0.33750336454E+02  0.14245882761E+03  0.41800000000E+01 0.  1.
         -5    1    3    3    0  502 -0.94997128437E+02 -0.13718028964E+03 -0.58156439246E+01  0.16701550943E+03  0.41800000000E+01 0.  1.
        -11    1    4    4    0    0  0.16073879163E+03  0.16081659497E+03  0.91600043229E+02  0.24513160603E+03  0.00000000000E+00 0.  1.
         11    1    4    4    0    0  0.70576275173E+02 -0.69811446267E-01  0.63736204385E+01  0.70863520435E+02  0.00000000000E+00 0. -1.
</event>
<event>
 8    1  0.6380400E-009  0.1910757E+03  0.7561462E-02  0.1157495E+00
         -2   -1    0    0    0  501 -0.00000000000E+00  0.00000000000E+00  0.88461614979E+02  0.88461614979E+02  0.00000000000E+00 0. -1.
          2   -1    0    0  501    0  0.00000000000E+00 -0.00000000000E+00 -0.45067581718E+03  0.45067581718E+03  0.00000000000E+00 0.  1.
         25    2    1    2    0    0  0.27154301065E+02  0.16330430426E+03 -0.13066673885E+03  0.24520799682E+03  0.12509002042E+03 0.  0.
         23    2    1    2    0    0 -0.27154301065E+02 -0.16330430426E+03 -0.23154746336E+03  0.29392943534E+03  0.73311890689E+02 0.  0.
          5    1    3    3  502    0 -0.33005152080E+02  0.13823894551E+03 -0.89783261897E+02  0.16816019932E+03  0.41800000000E+01 0. -1.
         -5    1    3    3    0  502  0.60159453145E+02  0.25065358750E+02 -0.40883476949E+02  0.77047797499E+02  0.41800000000E+01 0. -1.
        -11    1    4    4    0    0  0.17329984711E+02 -0.51099123356E+02 -0.38616892646E+02  0.66352943986E+02  0.00000000000E+00 0. -1.
         11    1    4    4    0    0 -0.44484285777E+02 -0.11220518090E+03 -0.19293057071E+03  0.22757649135E+03  0.00000000000E+00 0.  1.
</event>
<event>
 8    1  0.6380400E-009  0.1248112E+03  0.7561462E-02  0.1235365E+00
         -3   -1    0    0    0  501 -0.00000000000E+00  0.00000000000E+00  0.93323184624E+02  0.93323184624E+02  0.00000000000E+00 0.  1.
          3   -1    0    0  501    0  0.00000000000E+00 -0.00000000000E+00 -0.17075360299E+03  0.17075360299E+03  0.00000000000E+00 0. -1.
         25    2    1    2    0    0  0.63369768604E+02 -0.86106013081E+01 -0.30083450757E+02  0.14368112635E+03  0.12509749011E+03 0.  0.
         23    2    1    2    0    0 -0.63369768604E+02  0.86106013081E+01 -0.47346967611E+02  0.12039566127E+03  0.90352143759E+02 0.  0.
          5    1    3    3  502    0  0.98884399208E+02 -0.23357150058E+02 -0.19085075950E+02  0.10346687098E+03  0.41800000000E+01 0. -1.
         -5    1    3    3    0  502 -0.35514630604E+02  0.14746548749E+02 -0.10998374807E+02  0.40214255375E+02  0.41800000000E+01 0. -1.
        -11    1    4    4    0    0 -0.31180973068E+02 -0.40142091164E+02 -0.12398992888E+02  0.52319934912E+02  0.00000000000E+00 0.  1.
         11    1    4    4    0    0 -0.32188795536E+02  0.48752692473E+02 -0.34947974723E+02  0.68075726354E+02  0.00000000000E+00 0. -1.
</event>
<event>
 8    1  0.6380400E-009  0.1327899E+03  0.7561462E-02  0.1223374E+00
         -2   -1    0    0    0  501 -0.00000000000E+00  0.00000000000E+00  0.24796412324E+02  0.24796412324E+02  0.00000000000E+00 0.  1.
          2   -1    0    0  501    0  0.00000000000E+00 -0.00000000000E+00 -0.15878508462E+04  0.15878508462E+04  0.00000000000E+00 0. -1.
         25    2    1    2    0    0  0.62880818677E+02  0.68415474141E+02 -0.13755141702E+04  0.13843123206E+04  0.12508674527E+03 0.  0.
         23    2    1    2    0    0 -0.62880818677E+02 -0.68415474141E+02 -0.18754026358E+03  0.22833493792E+03  0.91273320034E+02 0.  0.
          5    1    3    3  502    0 -0.33584671146E+02  0.38766051801E+02 -0.33828668820E+03  0.34217845157E+03  0.41800000000E+01 0.  1.
         -5    1    3    3    0  502  0.96465489823E+02  0.29649422340E+02 -0.10372274820E+04  0.10421338690E+04  0.41800000000E+01 0.  1.
        -11    1    4    4    0    0 -0.18267971092E+02  0.11501601609E+02 -0.97799502569E+02  0.10015362355E+03  0.00000000000E+00 0.  1.
         11    1    4    4    0    0 -0.44612847585E+02 -0.79917075750E+02 -0.89740761015E+02  0.12818131437E+03  0.00000000000E+00 0. -1.
</event>
<event>
 8    1  0.6380400E-009  0.1146091E+03  0.7561462E-02  0.1252265E+00
          1   -1    0    0  501    0  0.00000000000E+00  0.00000000000E+00  0.16804813687E+03  0.16804813687E+03  0.00000000000E+00 0. -1.
         -1   -1    0    0    0  501 -0.00000000000E+00 -0.00000000000E+00 -0.82640050968E+02  0.82640050968E+02  0.00000000000E+00 0.  1.
         25    2    1    2    0    0  0.68910962220E+01  0.47189703719E+02  0.46313296963E+02  0.14165622106E+03  0.12508880104E+03 0.  0.
         23    2    1    2    0    0 -0.68910962220E+01 -0.47189703719E+02  0.39094788937E+02  0.10903196678E+03  0.89917806431E+02 0.  0.
          5    1    3    3  502    0 -0.43164427799E+02  0.61617040968E+02  0.48053017334E+02  0.89366618151E+02  0.41800000000E+01 0.  1.
         -5    1    3    3    0  502  0.50055524021E+02 -0.14427337249E+02 -0.17397203715E+01  0.52289602906E+02  0.41800000000E+01 0.  1.
        -11    1    4    4    0    0 -0.42054606233E+02  0.86530148689E+00  0.19318218916E+02  0.46287495441E+02  0.00000000000E+00 0.  1.
         11    1    4    4    0    0  0.35163510011E+02 -0.48055005206E+02  0.19776570021E+02  0.62744471338E+02  0.00000000000E+00 0. -1.
</event>
<event>
 8    1  0.6380400E-009  0.2466317E+03  0.7561462E-02  0.1115452E+00
          2   -1    0    0  501    0  0.00000000000E+00  0.00000000000E+00  0.25145746792E+03  0.25145746792E+03  0.00000000000E+00 0.  1.
         -2   -1    0    0    0  501 -0.00000000000E+00 -0.00000000000E+00 -0.25582159581E+03  0.25582159581E+03  0.00000000000E+00 0. -1.
         25    2    1    2    0    0 -0.19778075914E+03  0.10994948296E+03  0.30375790245E+02  0.26034850603E+03  0.12511010539E+03 0.  0.
         23    2    1    2    0    0  0.19778075914E+03 -0.10994948296E+03 -0.34739918140E+02  0.24693055769E+03  0.92529567819E+02 0.  0.
          5    1    3    3  502    0 -0.16358971099E+03  0.13806052999E+03  0.24393459973E+02  0.21548739354E+03  0.41800000000E+01 0. -1.
         -5    1    3    3    0  502 -0.34191048150E+02 -0.28111047033E+02  0.59823302717E+01  0.44861112496E+02  0.41800000000E+01 0. -1.
        -11    1    4    4    0    0  0.44926123225E+02 -0.57775141326E+02  0.20881758859E+02  0.76107630080E+02  0.00000000000E+00 0.  1.
         11    1    4    4    0    0  0.15285463592E+03 -0.52174341630E+02 -0.55621677000E+02  0.17082292761E+03  0.00000000000E+00 0. -1.
</event>
<event>
 8    1  0.6380400E-009  0.1195841E+03  0.7561462E-02  0.1243785E+00
         -2   -1    0    0    0  501 -0.00000000000E+00  0.00000000000E+00  0.26062849191E+02  0.26062849191E+02  0.00000000000E+00 0.  1.
          2   -1    0    0  501    0  0.00000000000E+00 -0.00000000000E+00 -0.86899158937E+03  0.86899158937E+03  0.00000000000E+00 0. -1.
         25    2    1    2    0    0  0.85351787254E+02  0.50780716178E+02 -0.54588498428E+03  0.56877145738E+03  0.12508775300E+03 0.  0.
         23    2    1    2    0    0 -0.85351787254E+02 -0.50780716178E+02 -0.29704375591E+03  0.32628298118E+03  0.91443874392E+02 0.  0.
          5    1    3    3  502    0  0.81756740312E+02  0.77267653406E+02 -0.51732761993E+03  0.52943346475E+03  0.41800000000E+01 0. -1.
         -5    1    3    3    0  502  0.35950469417E+01 -0.26486937228E+02 -0.28557364343E+02  0.39337992634E+02  0.41800000000E+01 0. -1.
        -11    1    4    4    0    0 -0.57088040098E+02 -0.37598541747E+02 -0.28461866345E+03  0.29271227895E+03  0.00000000000E+00 0. -1.
         11    1    4    4    0    0 -0.28263747156E+02 -0.13182174431E+02 -0.12425092459E+02  0.33570702236E+02  0.00000000000E+00 0.  1.
</event>
<event>
 8    1  0.6380400E-009  0.1868616E+03  0.7561462E-02  0.1161323E+00
          1   -1    0    0  501    0  0.00000000000E+00  0.00000000000E+00  0.77278245706E+02  0.77278245706E+02  0.00000000000E+00 0. -1.
         -1   -1    0    0    0  501 -0.00000000000E+00 -0.00000000000E+00 -0.57797545031E+03  0.57797545031E+03  0.00000000000E+00 0.  1.
         25    2    1    2    0    0  0.17557539416E+03 -0.15647250383E+02 -0.32815767017E+03  0.39294872431E+03  0.12509871288E+03 0.  0.
         23    2    1    2    0    0 -0.17557539416E+03  0.15647250383E+02 -0.17253953443E+03  0.26230497170E+03  0.89232571180E+02 0.  0.
          5    1    3    3  502    0  0.71590779336E+02  0.34394782536E+02 -0.55897905345E+02  0.97212596785E+02  0.41800000000E+01 0.  1.
         -5    1    3    3    0  502  0.10398461483E+03 -0.50042032919E+02 -0.27225976483E+03  0.29573612753E+03  0.41800000000E+01 0.  1.
        -11    1    4    4    0    0 -0.52406884109E+02  0.18319061633E+02 -0.11207060724E+03  0.12506754387E+03  0.00000000000E+00 0. -1.
         11    1    4    4    0    0 -0.12316851005E+03 -0.26718112498E+01 -0.60468927185E+02  0.13723742784E+03  0.00000000000E+00 0.  1.
</event>
<event>
 8    1  0.6380400E-009  0.1003439E+03  0.7561462E-02  0.1279574E+00
          2   -1    0    0  501    0  0.00000000000E+00  0.00000000000E+00  0.54643590615E+03  0.54643590615E+03  0.00000000000E+00 0. -1.
         -2   -1    0    0    0  501 -0.00000000000E+00 -0.00000000000E+00 -0.22786845182E+02  0.22786845182E+02  0.00000000000E+00 0.  1.
         25    2    1    2    0    0 -0.27476089701E+02 -0.11183009889E+02  0.28613007710E+03  0.31368241828E+03  0.12508494435E+03 0.  0.
         23    2    1    2    0    0  0.27476089701E+02  0.11183009889E+02  0.23751898387E+03  0.25554033305E+03  0.89474012434E+02 0.  0.
          5    1    3    3  502    0  0.32610556935E+02  0.32612052199E+02  0.61205966219E+02  0.76750485816E+02  0.41800000000E+01 0. -1.
         -5    1    3    3    0  502 -0.60086646635E+02 -0.43795062088E+02  0.22492411088E+03  0.23693193247E+03  0.41800000000E+01 0. -1.
        -11    1    4    4    0    0  0.45493888057E+02 -0.15195069142E+02  0.20265847483E+03  0.20825715209E+03  0.00000000000E+00 0. -1.
         11    1    4    4    0    0 -0.18017798356E+02  0.26378079031E+02  0.34860509038E+02  0.47283180957E+02  0.00000000000E+00 0.  1.
</event>
<event>
 8    1  0.6380400E-009  0.1249702E+03  0.7561462E-02  0.1235116E+00
         -1   -1    0    0    0  501 -0.00000000000E+00  0.00000000000E+00  0.16746585893E+03  0.16746585893E+03  0.00000000000E+00 0.  1.
          1   -1    0    0  501    0  0.00000000000E+00 -0.00000000000E+00 -0.13191521812E+03  0.13191521812E+03  0.00000000000E+00 0. -1.
         25    2    1    2    0    0 -0.54239536301E+02 -0.45559538521E+02 -0.59294465639E+02  0.15549542148E+03  0.12508154779E+03 0.  0.
         23    2    1    2    0    0  0.54239536301E+02  0.45559538521E+02  0.94845106447E+02  0.14388565557E+03  0.81791740494E+02 0.  0.
          5    1    3    3  502    0  0.15613603447E+02  0.34082474713E+02 -0.16258652104E+02  0.41075733266E+02  0.41800000000E+01 0. -1.
         -5    1    3    3    0  502 -0.69853139748E+02 -0.79642013234E+02 -0.43035813536E+02  0.11441968822E+03  0.41800000000E+01 0. -1.
        -11    1    4    4    0    0  0.75047262487E+02  0.37412564450E+02  0.62556957309E+02  0.10461914019E+03  0.00000000000E+00 0.  1.
         11    1    4    4    0    0 -0.20807726186E+02  0.81469740708E+01  0.32288149137E+02  0.39266515382E+02  0.00000000000E+00 0. -1.
</event>
<event>
 8    1  0.6380400E-009  0.1032134E+03  0.7561462E-02  0.1273680E+00
          1   -1    0    0  501    0  0.00000000000E+00  0.00000000000E+00  0.62052292596E+03  0.62052292596E+03  0.00000000000E+00 0. -1.
         -1   -1    0    0    0  501 -0.00000000000E+00 -0.00000000000E+00 -0.22455526130E+02  0.22455526130E+02  0.00000000000E+00 0.  1.
         25    2    1    2    0    0  0.86811427044E+01 -0.79345835682E+01  0.46599032114E+03  0.48263032027E+03  0.12508687695E+03 0.  0.
         23    2    1    2    0    0 -0.86811427044E+01  0.79345835682E+01  0.13207707869E+03  0.16034813183E+03  0.90160128717E+02 0.  0.
          5    1    3    3  502    0 -0.53212803241E+02 -0.11157982888E+01  0.31096181035E+03  0.31551159619E+03  0.41800000000E+01 0.  1.
         -5    1    3    3    0  502  0.61893945946E+02 -0.68187852794E+01  0.15502851080E+03  0.16711872408E+03  0.41800000000E+01 0.  1.
        -11    1    4    4    0    0  0.40679872504E+02  0.29394028614E+00  0.52918497062E+02  0.66748076820E+02  0.00000000000E+00 0.  1.
         11    1    4    4    0    0 -0.49361015208E+02  0.76406432821E+01  0.79158581628E+02  0.93600055008E+02  0.00000000000E+00 0. -1.
</event>
<event>
 8    1  0.6380400E-009  0.1364046E+03  0.7561462E-02  0.1218250E+00
          2   -1    0    0  501    0  0.00000000000E+00  0.00000000000E+00  0.36373652109E+03  0.36373652109E+03  0.00000000000E+00 0. -1.
         -2   -1    0    0    0  501 -0.00000000000E+00 -0.00000000000E+00 -0.56428758860E+02  0.56428758860E+02  0.00000000000E+00 0.  1.
         25    2    1    2    0    0  0.38150591150E+02  0.85513265615E+02  0.16781551595E+03  0.22929581687E+03  0.12508612249E+03 0.  0.
         23    2    1    2    0    0 -0.38150591150E+02 -0.85513265615E+02  0.13949224628E+03  0.19086946308E+03  0.90581890919E+02 0.  0.
          5    1    3    3  502    0 -0.35849057146E+02  0.92275264179E+01  0.92885199894E+01  0.38393373720E+02  0.41800000000E+01 0.  1.
         -5    1    3    3    0  502  0.73999648295E+02  0.76285739197E+02  0.15852699596E+03  0.19090244315E+03  0.41800000000E+01 0.  1.
        -11    1    4    4    0    0  0.18657996850E+02 -0.66839733661E+02  0.87107890195E+02  0.11137080127E+03  0.00000000000E+00 0.  1.
         11    1    4    4    0    0 -0.56808588000E+02 -0.18673531954E+02  0.52384356082E+02  0.79498661802E+02  0.00000000000E+00 0. -1.
</event>
<event>
 8    1  0.6380400E-009  0.1043504E+03  0.7561462E-02  0.1271405E+00
          1   -1    0    0  501    0  0.00000000000E+00  0.00000000000E+00  0.23550805322E+02  0.23550805322E+02  0.00000000000E+00 0. -1.
         -1   -1    0    0    0  501 -0.00000000000E+00 -0.00000000000E+00 -0.10376681689E+04  0.10376681689E+04  0.00000000000E+00 0.  1.
         25    2    1    2    0    0  0.10044974937E+02  0.20284060536E+02 -0.90654866383E+03  0.91541755085E+03  0.12508584198E+03 0.  0.
         23    2    1    2    0    0 -0.10044974937E+02 -0.20284060536E+02 -0.10756869977E+03  0.14580142340E+03  0.95784577373E+02 0.  0.
          5    1    3    3  502    0  0.54776798297E+02  0.32453037767E+02 -0.28161002970E+03  0.28874794981E+03  0.41800000000E+01 0.  1.
         -5    1    3    3    0  502 -0.44731823360E+02 -0.12168977231E+02 -0.62493863413E+03  0.62666960103E+03  0.41800000000E+01 0.  1.
        -11    1    4    4    0    0 -0.21058889025E+02 -0.56604945762E+02 -0.63299940050E+02  0.87489879998E+02  0.00000000000E+00 0.  1.
         11    1    4    4    0    0  0.11013914087E+02  0.36320885225E+02 -0.44268759717E+02  0.58311543402E+02  0.00000000000E+00 0. -1.
</event>
<event>
 8    1  0.6380400E-009  0.1110702E+03  0.7561462E-02  0.1258601E+00
         -1   -1    0    0    0  501 -0.00000000000E+00  0.00000000000E+00  0.82599668269E+03  0.82599668269E+03  0.00000000000E+00 0.  1.
          1   -1    0    0  501    0  0.00000000000E+00 -0.00000000000E+00 -0.38158589691E+02  0.38158589691E+02  0.00000000000E+00 0. -1.
         25    2    1    2    0    0 -0.94706416487E+02 -0.14963157173E+02  0.66813622031E+03  0.68647180311E+03  0.12507728082E+03 0.  0.
         23    2    1    2    0    0  0.94706416487E+02  0.14963157173E+02  0.11970187269E+03  0.17768346927E+03  0.89719984012E+02 0.  0.
          5    1    3    3  502    0 -0.37005442538E+02 -0.20544697666E+02  0.57578434022E+03  0.57735306895E+03  0.41800000000E+01 0.  1.
         -5    1    3    3    0  502 -0.57700973948E+02  0.55815404925E+01  0.92351880088E+02  0.10911873416E+03  0.41800000000E+01 0.  1.
        -11    1    4    4    0    0  0.10113954988E+03 -0.42473544651E+01  0.12053942095E+03  0.15740711729E+03  0.00000000000E+00 0. -1.
         11    1    4    4    0    0 -0.64331333912E+01  0.19210511638E+02 -0.83754826507E+00  0.20276351983E+02  0.00000000000E+00 0.  1.
</event>
<event>
 8    1  0.6380400E-009  0.3218867E+03  0.7561462E-02  0.1074784E+00
          2   -1    0    0  501    0  0.00000000000E+00  0.00000000000E+00  0.39078979694E+03  0.39078979694E+03  0.00000000000E+00 0. -1.
         -2   -1    0    0    0  501 -0.00000000000E+00 -0.00000000000E+00 -0.29871552506E+03  0.29871552506E+03  0.00000000000E+00 0.  1.
         25    2    1    2    0    0  0.29005717852E+03  0.12318100292E+03  0.12019616815E+03  0.35972454170E+03  0.12509156957E+03 0.  0.
         23    2    1    2    0    0 -0.29005717852E+03 -0.12318100292E+03 -0.28121896272E+02  0.32978078029E+03  0.93047276748E+02 0.  0.
          5    1    3    3  502    0  0.74788801433E+02  0.35195354867E+02  0.94653843713E+02  0.12573344962E+03  0.41800000000E+01 0.  1.
         -5    1    3    3    0  502  0.21526837709E+03  0.87985648049E+02  0.25542324434E+02  0.23399109208E+03  0.41800000000E+01 0.  1.
        -11    1    4    4    0    0 -0.26805511070E+03 -0.79642125112E+02 -0.20263288252E+02  0.28036941936E+03  0.00000000000E+00 0.  1.
         11    1    4    4    0    0 -0.22002067822E+02 -0.43538877803E+02 -0.78586080202E+01  0.49411360929E+02  0.00000000000E+00 0. -1.
</event>
<event>
 8    1  0.6380400E-009  0.1611517E+03  0.7561462E-02  0.1187403E+00
         -2   -1    0    0    0  501 -0.00000000000E+00  0.00000000000E+00  0.67427221802E+02  0.67427221802E+02  0.00000000000E+00 0.  1.
          2   -1    0    0  501    0  0.00000000000E+00 -0.00000000000E+00 -0.57458123893E+03  0.57458123893E+03  0.00000000000E+00 0. -1.
         25    2    1    2    0    0  0.75278024980E+02 -0.10441536439E+03 -0.99867763812E+02  0.20540348421E+03  0.12509065397E+03 0.  0.
         23    2    1    2    0    0 -0.75278024980E+02  0.10441536439E+03 -0.40728625331E+03  0.43660497652E+03  0.90401681494E+02 0.  0.
          5    1    3    3  502    0  0.64181147556E+02 -0.12634353527E+03 -0.10902492402E+03  0.17884578570E+03  0.41800000000E+01 0. -1.
         -5    1    3    3    0  502  0.11096877424E+02  0.21928170884E+02  0.91571602059E+01  0.26557698506E+02  0.41800000000E+01 0. -1.
        -11    1    4    4    0    0 -0.10025190828E+02  0.87661392609E+02 -0.26202556086E+03  0.27648222140E+03  0.00000000000E+00 0.  1.
         11    1    4    4    0    0 -0.65252834152E+02  0.16753971781E+02 -0.14526069246E+03  0.16012275512E+03  0.00000000000E+00 0. -1.
</event>
<event>
 8    1  0.6380400E-009  0.1020799E+03  0.7561462E-02  0.1275982E+00
          2   -1    0    0  501    0  0.00000000000E+00  0.00000000000E+00  0.47489354933E+02  0.47489354933E+02  0.00000000000E+00 0. -1.
         -2   -1    0    0    0  501 -0.00000000000E+00 -0.00000000000E+00 -0.25966411000E+03  0.25966411000E+03  0.00000000000E+00 0.  1.
         25    2    1    2    0    0 -0.96335437430E+00 -0.23489221062E+02 -0.13208249840E+03  0.18342833896E+03  0.12508995799E+03 0.  0.
         23    2    1    2    0    0  0.96335437430E+00  0.23489221062E+02 -0.80092256665E+02  0.12372512598E+03  0.91326149940E+02 0.  0.
          5    1    3    3  502    0 -0.22386541355E+02 -0.69545471533E+02 -0.97199227806E+02  0.12166713661E+03  0.41800000000E+01 0. -1.
         -5    1    3    3    0  502  0.21423186981E+02  0.46056250471E+02 -0.34883270599E+02  0.61761202348E+02  0.41800000000E+01 0. -1.
        -11    1    4    4    0    0 -0.36457321772E+02  0.12398641313E+01 -0.70151671668E+02  0.79069150821E+02  0.00000000000E+00 0.  1.
         11    1    4    4    0    0  0.37420676147E+02  0.22249356931E+02 -0.99405849971E+01  0.44655975157E+02  0.00000000000E+00 0. -1.
</event>
<event>
 8    1  0.6380400E-009  0.7471739E+02  0.7561462E-02  0.1344748E+00
          2   -1    0    0  501    0  0.00000000000E+00  0.00000000000E+00  0.17385964301E+03  0.17385964301E+03  0.00000000000E+00 0. -1.
         -2   -1    0    0    0  501 -0.00000000000E+00 -0.00000000000E+00 -0.76635618296E+02  0.76635618296E+02  0.00000000000E+00 0.  1.
         25    2    1    2    0    0 -0.13836248886E+00 -0.38583352788E+02  0.68190273828E+02  0.14760185049E+03  0.12509076132E+03 0.  0.
         23    2    1    2    0    0  0.13836248886E+00  0.38583352788E+02  0.29033750888E+02  0.10289341082E+03  0.90859237516E+02 0.  0.
          5    1    3    3  502    0 -0.76356411667E+01  0.31606747581E+01  0.96173563433E+02  0.96618422593E+02  0.41800000000E+01 0.  1.
         -5    1    3    3    0  502  0.74972786778E+01 -0.41744027547E+02 -0.27983289605E+02  0.50983427901E+02  0.41800000000E+01 0.  1.
        -11    1    4    4    0    0  0.42291874033E+02  0.30104493614E+01  0.20446386311E+02  0.47071436432E+02  0.00000000000E+00 0.  1.
         11    1    4    4    0    0 -0.42153511544E+02  0.35572903427E+02  0.85873645773E+01  0.55821974384E+02  0.00000000000E+00 0. -1.
</event>
<event>
 8    1  0.6380400E-009  0.9342784E+02  0.7561462E-02  0.1294757E+00
         -1   -1    0    0    0  501 -0.00000000000E+00  0.00000000000E+00  0.44433944212E+02  0.44433944212E+02  0.00000000000E+00 0.  1.
          1   -1    0    0  501    0  0.00000000000E+00 -0.00000000000E+00 -0.33550786510E+03  0.33550786510E+03  0.00000000000E+00 0. -1.
         25    2    1    2    0    0 -0.26359380331E+02 -0.36361466621E+02 -0.22218362348E+03  0.25889924953E+03  0.12508511373E+03 0.  0.
         23    2    1    2    0    0  0.26359380331E+02  0.36361466621E+02 -0.68890297405E+02  0.12104255978E+03  0.88816974820E+02 0.  0.
          5    1    3    3  502    0  0.44830085321E+02  0.11522612815E+02 -0.67235916559E+02  0.81735231274E+02  0.41800000000E+01 0.  1.
         -5    1    3    3    0  502 -0.71189465651E+02 -0.47884079436E+02 -0.15494770693E+03  0.17716401826E+03  0.41800000000E+01 0.  1.
        -11    1    4    4    0    0  0.31951047177E+02  0.21255287358E+02  0.10699693250E+02  0.39838926843E+02  0.00000000000E+00 0.  1.
         11    1    4    4    0    0 -0.55916668467E+01  0.15106179263E+02 -0.79589990656E+02  0.81203632940E+02  0.00000000000E+00 0. -1.
</event>
<event>
 8    1  0.6380400E-009  0.2160052E+03  0.7561462E-02  0.1136897E+00
         -1   -1    0    0    0  501 -0.00000000000E+00  0.00000000000E+00  0.38085487316E+03  0.38085487316E+03  0.00000000000E+00 0. -1.
          1   -1    0    0  501    0  0.00000000000E+00 -0.00000000000E+00 -0.13055804281E+03  0.13055804281E+03  0.00000000000E+00 0.  1.
         25    2    1    2    0    0  0.16481268635E+03  0.98982207574E+02  0.16509959186E+03  0.28260613618E+03  0.12509058307E+03 0.  0.
         23    2    1    2    0    0 -0.16481268635E+03 -0.98982207574E+02  0.85197238494E+02  0.22880677980E+03  0.90184666293E+02 0.  0.
          5    1    3    3  502    0 -0.12984409510E+02 -0.55510108496E+01  0.36885097690E+02  0.39716387592E+02  0.41800000000E+01 0. -1.
         -5    1    3    3    0  502  0.17779709586E+03  0.10453321842E+03  0.12821449417E+03  0.24288974858E+03  0.41800000000E+01 0. -1.
        -11    1    4    4    0    0 -0.77740394246E+02 -0.96453290781E+02  0.62669944817E+02  0.13883201426E+03  0.00000000000E+00 0.  1.
         11    1    4    4    0    0 -0.87072292108E+02 -0.25289167938E+01  0.22527293677E+02  0.89974765537E+02  0.00000000000E+00 0. -1.
</event>
<event>
 8    1  0.6380400E-009  0.9875707E+02  0.7561462E-02  0.1282932E+00
         -2   -1    0    0    0  501 -0.00000000000E+00  0.00000000000E+00  0.10309362566E+02  0.10309362566E+02  0.00000000000E+00 0.  1.
          2   -1    0    0  501    0  0.00000000000E+00 -0.00000000000E+00 -0.14863176615E+04  0.14863176615E+04  0.00000000000E+00 0. -1.
         25    2    1    2    0    0  0.24437532303E+02 -0.23725816912E+02 -0.11506528556E+04  0.11579333146E+04  0.12508980623E+03 0.  0.
         23    2    1    2    0    0 -0.24437532303E+02  0.23725816912E+02 -0.32535544333E+03  0.33869370945E+03  0.87733442550E+02 0.  0.
          5    1    3    3  502    0 -0.12168447893E+02 -0.54399997221E+02 -0.25765007934E+03  0.26364458387E+03  0.41800000000E+01 0.  1.
         -5    1    3    3    0  502  0.36605980196E+02  0.30674180309E+02 -0.89300277624E+03  0.89428873072E+03  0.41800000000E+01 0.  1.
        -11    1    4    4    0    0  0.18469659475E+02  0.42876190912E+02 -0.17853548845E+03  0.18453838816E+03  0.00000000000E+00 0.  1.
         11    1    4    4    0    0 -0.42907191778E+02 -0.19150374000E+02 -0.14681995488E+03  0.15415532129E+03  0.00000000000E+00 0. -1.
</event>
<event>
 8    1  0.6380400E-009  0.1222972E+03  0.7561462E-02  0.1239355E+00
         -2   -1    0    0    0  501 -0.00000000000E+00  0.00000000000E+00  0.25635683921E+02  0.25635683921E+02  0.00000000000E+00 0. -1.
          2   -1    0    0  501    0  0.00000000000E+00 -0.00000000000E+00 -0.77813045844E+03  0.77813045844E+03  0.00000000000E+00 0.  1.
         25    2    1    2    0    0  0.46299776883E+02 -0.50782109263E+02 -0.24710289593E+03  0.28535871193E+03  0.12508901364E+03 0.  0.
         23    2    1    2    0    0 -0.46299776883E+02  0.50782109263E+02 -0.50539187858E+03  0.51840743043E+03  0.92751393675E+02 0.  0.
          5    1    3    3  502    0 -0.25265857858E+00  0.35534574701E+02 -0.28551114364E+02  0.45775630711E+02  0.41800000000E+01 0.  1.
         -5    1    3    3    0  502  0.46552435462E+02 -0.86316683965E+02 -0.21855178157E+03  0.23958308122E+03  0.41800000000E+01 0.  1.
        -11    1    4    4    0    0  0.13287481731E+02  0.49289471029E+02 -0.30835634038E+03  0.31255342228E+03  0.00000000000E+00 0.  1.
         11    1    4    4    0    0 -0.59587258614E+02  0.14926382344E+01 -0.19703553820E+03  0.20585400815E+03  0.00000000000E+00 0. -1.
</event>
<event>
 8    1  0.6380400E-009  0.1266493E+03  0.7561462E-02  0.1232514E+00
         -2   -1    0    0    0  501 -0.00000000000E+00  0.00000000000E+00  0.19888195393E+02  0.19888195393E+02  0.00000000000E+00 0.  1.
          2   -1    0    0  501    0  0.00000000000E+00 -0.00000000000E+00 -0.10646233388E+04  0.10646233388E+04  0.00000000000E+00 0. -1.
         25    2    1    2    0    0  0.74697575580E+02 -0.13791626873E+01 -0.79591865909E+03  0.80914501521E+03  0.12509002302E+03 0.  0.
         23    2    1    2    0    0 -0.74697575580E+02  0.13791626873E+01 -0.24881648435E+03  0.27536651902E+03  0.91298669348E+02 0.  0.
          5    1    3    3  502    0  0.53589913739E+02 -0.59161363524E+02 -0.54112511354E+03  0.54699708107E+03  0.41800000000E+01 0.  1.
         -5    1    3    3    0  502  0.21107661841E+02  0.57782200836E+02 -0.25479354555E+03  0.26214793414E+03  0.41800000000E+01 0.  1.
        -11    1    4    4    0    0  0.18491443714E+02  0.95662584512E+00 -0.15569090804E+02  0.24191841850E+02  0.00000000000E+00 0.  1.
         11    1    4    4    0    0 -0.93189019294E+02  0.42253684216E+00 -0.23324739354E+03  0.25117467717E+03  0.00000000000E+00 0. -1.
</event>
<event>
 8    1  0.6380400E-009  0.2163415E+03  0.7561462E-02  0.1136640E+00
          2   -1    0    0  501    0  0.00000000000E+00  0.00000000000E+00  0.77740177097E+02  0.77740177097E+02  0.00000000000E+00 0.  1.
         -2   -1    0    0    0  501 -0.00000000000E+00 -0.00000000000E+00 -0.76257004536E+03  0.76257004536E+03  0.00000000000E+00 0. -1.
         25    2    1    2    0    0 -0.31128804371E+02 -0.19025974327E+03 -0.52858765354E+03  0.57638491818E+03  0.12508754558E+03 0.  0.
         23    2    1    2    0    0  0.31128804371E+02  0.19025974327E+03 -0.15624221473E+03  0.26392530428E+03  0.89873044951E+02 0.  0.
          5    1    3    3  502    0 -0.41040627091E+02 -0.13970606815E+02 -0.18503939765E+03  0.19009619147E+03  0.41800000000E+01 0. -1.
         -5    1    3    3    0  502  0.99118227204E+01 -0.17628913645E+03 -0.34354825589E+03  0.38628872671E+03  0.41800000000E+01 0. -1.
        -11    1    4    4    0    0  0.62605520899E+02  0.13738050362E+03 -0.10578578173E+03  0.18434610286E+03  0.00000000000E+00 0.  1.
         11    1    4    4    0    0 -0.31476716529E+02  0.52879239644E+02 -0.50456432995E+02  0.79579201425E+02  0.00000000000E+00 0. -1.
</event>
<event>
 8    1  0.6380400E-009  0.8277132E+02  0.7561462E-02  0.1321366E+00
          1   -1    0    0  501    0  0.00000000000E+00  0.00000000000E+00  0.44929764452E+02  0.44929764452E+02  0.00000000000E+00 0. -1.
         -1   -1    0    0    0  501 -0.00000000000E+00 -0.00000000000E+00 -0.29700019984E+03  0.29700019984E+03  0.00000000000E+00 0.  1.
         25    2    1    2    0    0 -0.39353339692E+02  0.32978551715E+01 -0.15746285560E+03  0.20494418237E+03  0.12509198936E+03 0.  0.
         23    2    1    2    0    0  0.39353339692E+02 -0.32978551715E+01 -0.94607579796E+02  0.13698578193E+03  0.90856750446E+02 0.  0.
          5    1    3    3  502    0 -0.14909535090E+02  0.39331552335E+02 -0.15551628662E+03  0.16115847185E+03  0.41800000000E+01 0. -1.
         -5    1    3    3    0  502 -0.24443804602E+02 -0.36033697163E+02 -0.19465689745E+01  0.43785710516E+02  0.41800000000E+01 0. -1.
        -11    1    4    4    0    0  0.56207815370E+02 -0.15982582745E+02 -0.99445470457E+02  0.11534367366E+03  0.00000000000E+00 0.  1.
         11    1    4    4    0    0 -0.16854475678E+02  0.12684727574E+02  0.48378906611E+01  0.21642108263E+02  0.00000000000E+00 0. -1.
</event>
<event>
 8    1  0.6380400E-009  0.9147482E+02  0.7561462E-02  0.1299319E+00
         -1   -1    0    0    0  501 -0.00000000000E+00  0.00000000000E+00  0.37930411115E+02  0.37930411115E+02  0.00000000000E+00 0.  1.
          1   -1    0    0  501    0  0.00000000000E+00 -0.00000000000E+00 -0.38245001382E+03  0.38245001382E+03  0.00000000000E+00 0. -1.
         25    2    1    2    0    0 -0.26296295970E+02  0.65903335655E+01 -0.11647456855E+03  0.17305742277E+03  0.12509044240E+03 0.  0.
         23    2    1    2    0    0  0.26296295970E+02 -0.65903335655E+01 -0.22804503415E+03  0.24732300216E+03  0.91810686299E+02 0.  0.
          5    1    3    3  502    0 -0.66953898855E+01  0.55223436560E+02 -0.13452512422E+02  0.57383784135E+02  0.41800000000E+01 0.  1.
         -5    1    3    3    0  502 -0.19600906085E+02 -0.48633102995E+02 -0.10302205613E+03  0.11567363864E+03  0.41800000000E+01 0.  1.
        -11    1    4    4    0    0 -0.46108217162E+01  0.27884626341E+02 -0.21123988256E+02  0.35285052684E+02  0.00000000000E+00 0.  1.
         11    1    4    4    0    0  0.30907117686E+02 -0.34474959906E+02 -0.20692104589E+03  0.21203794948E+03  0.00000000000E+00 0. -1.
</event>
<event>
 8    1  0.6380400E-009  0.1320899E+03  0.7561462E-02  0.1224387E+00
         -1   -1    0    0    0  501 -0.00000000000E+00  0.00000000000E+00  0.66094927156E+02  0.66094927156E+02  0.00000000000E+00 0.  1.
          1   -1    0    0  501    0  0.00000000000E+00 -0.00000000000E+00 -0.32328768617E+03  0.32328768617E+03  0.00000000000E+00 0. -1.
         25    2    1    2    0    0 -0.92287940949E+02  0.86668422382E+01 -0.91793758976E+02  0.18071183237E+03  0.12505396424E+03 0.  0.
         23    2    1    2    0    0  0.92287940949E+02 -0.86668422382E+01 -0.16539900004E+03  0.20867078096E+03  0.87146356289E+02 0.  0.
          5    1    3    3  502    0 -0.37255021202E+02  0.65893982349E+02 -0.38797066283E+02  0.85162422856E+02  0.41800000000E+01 0. -1.
         -5    1    3    3    0  502 -0.55032919747E+02 -0.57227140111E+02 -0.52996692693E+02  0.95549409509E+02  0.41800000000E+01 0. -1.
        -11    1    4    4    0    0  0.49118525872E+02 -0.33127041476E+02 -0.34211974924E+02  0.68414104460E+02  0.00000000000E+00 0.  1.
         11    1    4    4    0    0  0.43169415077E+02  0.24460199238E+02 -0.13118702512E+03  0.14025667650E+03  0.00000000000E+00 0. -1.
</event>
<event>
 8    1  0.6380400E-009  0.1006613E+03  0.7561462E-02  0.1278911E+00
          1   -1    0    0  501    0  0.00000000000E+00  0.00000000000E+00  0.20641754538E+03  0.20641754538E+03  0.00000000000E+00 0. -1.
         -1   -1    0    0    0  501 -0.00000000000E+00 -0.00000000000E+00 -0.70575091087E+02  0.70575091087E+02  0.00000000000E+00 0.  1.
         25    2    1    2    0    0  0.45947609126E+02  0.27419504400E+02  0.68337365528E+02  0.15225378232E+03  0.12509279235E+03 0.  0.
         23    2    1    2    0    0 -0.45947609126E+02 -0.27419504400E+02  0.67505088768E+02  0.12473885414E+03  0.90221021485E+02 0.  0.
          5    1    3    3  502    0 -0.22554145675E+02  0.41640009223E+02 -0.84552294495E+01  0.48286055546E+02  0.41800000000E+01 0. -1.
         -5    1    3    3    0  502  0.68501754800E+02 -0.14220504822E+02  0.76792594977E+02  0.10396772678E+03  0.41800000000E+01 0. -1.
        -11    1    4    4    0    0 -0.46634872241E+02  0.88099214910E+01  0.74013720182E+02  0.87923016331E+02  0.00000000000E+00 0. -1.
         11    1    4    4    0    0  0.68726311576E+00 -0.36229425891E+02 -0.65086314140E+01  0.36815837813E+02  0.00000000000E+00 0.  1.
</event>
<event>
 8    1  0.6380400E-009  0.7589124E+02  0.7561462E-02  0.1341133E+00
          1   -1    0    0  501    0  0.00000000000E+00  0.00000000000E+00  0.22973679060E+03  0.22973679060E+03  0.00000000000E+00 0. -1.
         -1   -1    0    0    0  501 -0.00000000000E+00 -0.00000000000E+00 -0.87232407369E+02  0.87232407369E+02  0.00000000000E+00 0.  1.
         25    2    1    2    0    0 -0.52787989327E+02 -0.76600108501E+01  0.15608148177E+03  0.20701618142E+03  0.12509605444E+03 0.  0.
         23    2    1    2    0    0  0.52787989327E+02  0.76600108501E+01 -0.13577098538E+02  0.10995301655E+03  0.95184455977E+02 0.  0.
          5    1    3    3  502    0 -0.26706382642E+02 -0.57354582971E+01 -0.16652882878E+02  0.32263249431E+02  0.41800000000E+01 0. -1.
         -5    1    3    3    0  502 -0.26081606685E+02 -0.19245525530E+01  0.17273436465E+03  0.17475293199E+03  0.41800000000E+01 0. -1.
        -11    1    4    4    0    0 -0.48809642099E+01  0.33940653245E+02 -0.28795004979E+02  0.44776601770E+02  0.00000000000E+00 0.  1.
         11    1    4    4    0    0  0.57668953537E+02 -0.26280642395E+02  0.15217906441E+02  0.65176414777E+02  0.00000000000E+00 0. -1.
</event>
<event>
 8    1  0.6380400E-009  0.1002075E+03  0.7561462E-02  0.1279860E+00
          1   -1    0    0  501    0  0.00000000000E+00  0.00000000000E+00  0.16220669495E+03  0.16220669495E+03  0.00000000000E+00 0. -1.
         -1   -1    0    0    0  501 -0.00000000000E+00 -0.00000000000E+00 -0.19451819128E+03  0.19451819128E+03  0.00000000000E+00 0.  1.
         25    2    1    2    0    0  0.72744027789E+01 -0.63782080112E+02  0.10773937014E+03  0.17712763424E+03  0.12508139851E+03 0.  0.
         23    2    1    2    0    0 -0.72744027789E+01  0.63782080112E+02 -0.14005086647E+03  0.17959725199E+03  0.92303071703E+02 0.  0.
          5    1    3    3  502    0 -0.29494801970E+02 -0.26232294432E+02  0.11704494554E+03  0.12359234722E+03  0.41800000000E+01 0. -1.
         -5    1    3    3    0  502  0.36769204748E+02 -0.37549785680E+02 -0.93055754035E+01  0.53535287018E+02  0.41800000000E+01 0. -1.
        -11    1    4    4    0    0  0.39893350363E+02  0.26721094941E+02 -0.87681525095E+02  0.99967725597E+02  0.00000000000E+00 0. -1.
         11    1    4    4    0    0 -0.47167753142E+02  0.37060985171E+02 -0.52369341375E+02  0.79629526398E+02  0.00000000000E+00 0.  1.
</event>
<event>
 8    1  0.6380400E-009  0.8800862E+02  0.7561462E-02  0.1307747E+00
         -3   -1    0    0    0  501 -0.00000000000E+00  0.00000000000E+00  0.12460823029E+03  0.12460823029E+03  0.00000000000E+00 0.  1.
          3   -1    0    0  501    0  0.00000000000E+00 -0.00000000000E+00 -0.10102237750E+03  0.10102237750E+03  0.00000000000E+00 0. -1.
         25    2    1    2    0    0  0.21471236202E+02 -0.63033510960E+00 -0.54906756030E+01  0.12704074714E+03  0.12509113721E+03 0.  0.
         23    2    1    2    0    0 -0.21471236202E+02  0.63033510960E+00  0.29076528391E+02  0.98589860649E+02  0.91722978654E+02 0.  0.
          5    1    3    3  502    0  0.15751518615E+02 -0.62189156937E+02  0.37116529222E+01  0.64396042942E+02  0.41800000000E+01 0. -1.
         -5    1    3    3    0  502  0.57197175872E+01  0.61558821827E+02 -0.92023285252E+01  0.62644704200E+02  0.41800000000E+01 0. -1.
        -11    1    4    4    0    0 -0.16691839754E+02 -0.21445505809E+02  0.56718582009E+02  0.62892962872E+02  0.00000000000E+00 0.  1.
         11    1    4    4    0    0 -0.47793964476E+01  0.22075840918E+02 -0.27642053618E+02  0.35696897777E+02  0.00000000000E+00 0. -1.
</event>
<event>
 8    1  0.6380400E-009  0.1220076E+03  0.7561462E-02  0.1239821E+00
          1   -1    0    0  501    0  0.00000000000E+00  0.00000000000E+00  0.20051848057E+03  0.20051848057E+03  0.00000000000E+00 0. -1.
         -1   -1    0    0    0  501 -0.00000000000E+00 -0.00000000000E+00 -0.12147356036E+03  0.12147356036E+03  0.00000000000E+00 0.  1.
         25    2    1    2    0    0 -0.40306700714E+02  0.96917182336E+02  0.17754220205E+01  0.16329792554E+03  0.12508193318E+03 0.  0.
         23    2    1    2    0    0  0.40306700714E+02 -0.96917182336E+02  0.77269498183E+02  0.15869411539E+03  0.90529976012E+02 0.  0.
          5    1    3    3  502    0 -0.14251884609E+02  0.28443489156E+02  0.61048241203E+02  0.68967444814E+02  0.41800000000E+01 0. -1.
         -5    1    3    3    0  502 -0.26054816106E+02  0.68473693180E+02 -0.59272819182E+02  0.94330480725E+02  0.41800000000E+01 0. -1.
        -11    1    4    4    0    0  0.53455930047E+02 -0.14918098565E+02  0.28548834085E+02  0.62410912905E+02  0.00000000000E+00 0.  1.
         11    1    4    4    0    0 -0.13149229333E+02 -0.81999083771E+02  0.48720664098E+02  0.96283202489E+02  0.00000000000E+00 0. -1.
</event>
<event>
 8    1  0.6380400E-009  0.2720587E+03  0.7561462E-02  0.1100107E+00
          4   -1    0    0  501    0  0.00000000000E+00  0.00000000000E+00  0.47296627847E+03  0.47296627847E+03  0.00000000000E+00 0. -1.
         -4   -1    0    0    0  501 -0.00000000000E+00 -0.00000000000E+00 -0.16994804032E+03  0.16994804032E+03  0.00000000000E+00 0.  1.
         25    2    1    2    0    0 -0.83107072511E+02 -0.24743177873E+03  0.18298462303E+03  0.34243464201E+03  0.12509532828E+03 0.  0.
         23    2    1    2    0    0  0.83107072511E+02  0.24743177873E+03  0.12003361512E+03  0.30047967678E+03  0.88038041645E+02 0.  0.
          5    1    3    3  502    0 -0.54440580679E+02 -0.23996256443E+03  0.12237477920E+03  0.27484335200E+03  0.41800000000E+01 0.  1.
         -5    1    3    3    0  502 -0.28666491832E+02 -0.74692142960E+01  0.60609843835E+02  0.67591290015E+02  0.41800000000E+01 0.  1.
        -11    1    4    4    0    0  0.33555119214E+02  0.18684642315E+03  0.11521439154E+03  0.22206280167E+03  0.00000000000E+00 0. -1.
         11    1    4    4    0    0  0.49551953298E+02  0.60585355579E+02  0.48192235755E+01  0.78416875111E+02  0.00000000000E+00 0.  1.
</event>
<event>
 8    1  0.6380400E-009  0.1664233E+03  0.7561462E-02  0.1181630E+00
          2   -1    0    0  501    0  0.00000000000E+00  0.00000000000E+00  0.91548000187E+03  0.91548000187E+03  0.00000000000E+00 0. -1.
         -2   -1    0    0    0  501 -0.00000000000E+00 -0.00000000000E+00 -0.39058769804E+02  0.39058769804E+02  0.00000000000E+00 0.  1.
         25    2    1    2    0    0  0.76692462268E+02 -0.11901011030E+03  0.53605924547E+03  0.56837780308E+03  0.12509465319E+03 0.  0.
         23    2    1    2    0    0 -0.76692462268E+02  0.11901011030E+03  0.34036198659E+03  0.38616096859E+03  0.11501683191E+03 0.  0.
          5    1    3    3  502    0  0.32137376648E+02 -0.94188906680E+02  0.15735820803E+03  0.18623490316E+03  0.41800000000E+01 0.  1.
         -5    1    3    3    0  502  0.44555085620E+02 -0.24821203622E+02  0.37870103744E+03  0.38214289993E+03  0.41800000000E+01 0.  1.
        -11    1    4    4    0    0  0.30255952519E+02  0.19598923493E+02  0.77279638616E+02  0.85274163787E+02  0.00000000000E+00 0. -1.
         11    1    4    4    0    0 -0.10694841479E+03  0.99411186810E+02  0.26308234797E+03  0.30088680480E+03  0.00000000000E+00 0.  1.
</event>
<event>
 8    1  0.6380400E-009  0.1537515E+03  0.7561462E-02  0.1195938E+00
         -1   -1    0    0    0  501 -0.00000000000E+00  0.00000000000E+00  0.65539156674E+02  0.65539156674E+02  0.00000000000E+00 0.  1.
          1   -1    0    0  501    0  0.00000000000E+00 -0.00000000000E+00 -0.42622381749E+03  0.42622381749E+03  0.00000000000E+00 0. -1.
         25    2    1    2    0    0 -0.11218439192E+03 -0.56068347391E+02 -0.21991770563E+03  0.28238235728E+03  0.12508797338E+03 0.  0.
         23    2    1    2    0    0  0.11218439192E+03  0.56068347391E+02 -0.14076695519E+03  0.20938061688E+03  0.91081884492E+02 0.  0.
          5    1    3    3  502    0 -0.90795391433E+02 -0.95649440096E+02 -0.16424632872E+03  0.21068210032E+03  0.41800000000E+01 0. -1.
         -5    1    3    3    0  502 -0.21389000492E+02  0.39581092705E+02 -0.55671376906E+02  0.71700256961E+02  0.41800000000E+01 0. -1.
        -11    1    4    4    0    0  0.98740978284E+02  0.33811564998E+02 -0.51461802434E+02  0.11636717677E+03  0.00000000000E+00 0.  1.
         11    1    4    4    0    0  0.13443413640E+02  0.22256782393E+02 -0.89305152754E+02  0.93013440111E+02  0.00000000000E+00 0. -1.
</event>
<event>
 8    1  0.6380400E-009  0.1883807E+03  0.7561462E-02  0.1159930E+00
         -2   -1    0    0    0  501 -0.00000000000E+00  0.00000000000E+00  0.32129314612E+02  0.32129314612E+02  0.00000000000E+00 0.  1.
          2   -1    0    0  501    0  0.00000000000E+00 -0.00000000000E+00 -0.13391003628E+04  0.13391003628E+04  0.00000000000E+00 0. -1.
         25    2    1    2    0    0 -0.93841104371E+02 -0.13634979302E+03 -0.47897972374E+03  0.52197317609E+03  0.12504799830E+03 0.  0.
         23    2    1    2    0    0  0.93841104371E+02  0.13634979302E+03 -0.82799132448E+03  0.84925650135E+03  0.90937081265E+02 0.  0.
          5    1    3    3  502    0 -0.16558251009E+02 -0.11468957835E+03 -0.36143268565E+03  0.37957730927E+03  0.41800000000E+01 0.  1.
         -5    1    3    3    0  502 -0.77282853363E+02 -0.21660214673E+02 -0.11754703809E+03  0.14239586682E+03  0.41800000000E+01 0.  1.
        -11    1    4    4    0    0 -0.12091410563E+02  0.16928755523E+02 -0.38234782832E+02  0.43527963324E+02  0.00000000000E+00 0.  1.
         11    1    4    4    0    0  0.10593251493E+03  0.11942103750E+03 -0.78975654165E+03  0.80572853803E+03  0.00000000000E+00 0. -1.
</event>
<event>
 8    1  0.6380400E-009  0.1000119E+03  0.7561462E-02  0.1280271E+00
          2   -1    0    0  501    0  0.00000000000E+00  0.00000000000E+00  0.22742637179E+03  0.22742637179E+03  0.00000000000E+00 0. -1.
         -2   -1    0    0    0  501 -0.00000000000E+00 -0.00000000000E+00 -0.10855942629E+03  0.10855942629E+03  0.00000000000E+00 0.  1.
         25    2    1    2    0    0  0.24784023741E+02  0.57861965727E+02  0.16259185603E+03  0.21458973964E+03  0.12510151797E+03 0.  0.
         23    2    1    2    0    0 -0.24784023741E+02 -0.57861965727E+02 -0.43724910540E+02  0.12139605844E+03  0.94142871705E+02 0.  0.
          5    1    3    3  502    0 -0.31753592140E+02  0.77391839306E+01  0.12655681841E+03  0.13077570978E+03  0.41800000000E+01 0. -1.
         -5    1    3    3    0  502  0.56537615881E+02  0.50122781796E+02  0.36035037619E+02  0.83814029856E+02  0.41800000000E+01 0. -1.
        -11    1    4    4    0    0 -0.30306845177E+02  0.28492054814E+01 -0.51618051419E+02  0.59925337452E+02  0.00000000000E+00 0.  1.
         11    1    4    4    0    0  0.55228214355E+01 -0.60711171208E+02  0.78931408790E+01  0.61470720990E+02  0.00000000000E+00 0. -1.
</event>
<event>
 8    1  0.6380400E-009  0.1209169E+03  0.7561462E-02  0.1241592E+00
          3   -1    0    0  501    0  0.00000000000E+00  0.00000000000E+00  0.35754557104E+02  0.35754557104E+02  0.00000000000E+00 0. -1.
         -3   -1    0    0    0  501 -0.00000000000E+00 -0.00000000000E+00 -0.45674877491E+03  0.45674877491E+03  0.00000000000E+00 0.  1.
         25    2    1    2    0    0 -0.48996551253E+02 -0.31674647069E+02 -0.21508274779E+03  0.25556147824E+03  0.12508851051E+03 0.  0.
         23    2    1    2    0    0  0.48996551253E+02  0.31674647069E+02 -0.20591147002E+03  0.23694185378E+03  0.10167577531E+03 0.  0.
          5    1    3    3  502    0 -0.69427408489E+02 -0.65353554997E+02 -0.12597560337E+03  0.15804612379E+03  0.41800000000E+01 0.  1.
         -5    1    3    3    0  502  0.20430857236E+02  0.33678907928E+02 -0.89107144417E+02  0.97515354446E+02  0.41800000000E+01 0.  1.
        -11    1    4    4    0    0  0.34000246400E+02  0.63259333919E+02 -0.17884393361E+03  0.19272496640E+03  0.00000000000E+00 0.  1.
         11    1    4    4    0    0  0.14996304853E+02 -0.31584686850E+02 -0.27067536408E+02  0.44216887383E+02  0.00000000000E+00 0. -1.
</event>
<event>
 8    1  0.6380400E-009  0.1017959E+03  0.7561462E-02  0.1276564E+00
          2   -1    0    0  501    0  0.00000000000E+00  0.00000000000E+00  0.36943987422E+03  0.36943987422E+03  0.00000000000E+00 0.  1.
         -2   -1    0    0    0  501 -0.00000000000E+00 -0.00000000000E+00 -0.53019450566E+02  0.53019450566E+02  0.00000000000E+00 0. -1.
         25    2    1    2    0    0  0.42694478756E+02 -0.34548149016E+02  0.73450276773E+02  0.15510544221E+03  0.12508541853E+03 0.  0.
         23    2    1    2    0    0 -0.42694478756E+02  0.34548149016E+02  0.24297014688E+03  0.26735388257E+03  0.97093836747E+02 0.  0.
          5    1    3    3  502    0 -0.39776189029E+02 -0.16537981826E+02  0.52481784155E+02  0.68025437335E+02  0.41800000000E+01 0.  1.
         -5    1    3    3    0  502  0.82470667784E+02 -0.18010167191E+02  0.20968492618E+02  0.87080004879E+02  0.41800000000E+01 0.  1.
        -11    1    4    4    0    0 -0.47584707422E+01 -0.13651145040E+02 -0.22037154498E+01  0.14623719311E+02  0.00000000000E+00 0. -1.
         11    1    4    4    0    0 -0.37936008013E+02  0.48199294057E+02  0.24517386233E+03  0.25273016326E+03  0.00000000000E+00 0.  1.
</event>
<event>
 8    1  0.6380400E-009  0.1082507E+03  0.7561462E-02  0.1263844E+00
          1   -1    0    0  501    0  0.00000000000E+00  0.00000000000E+00  0.32212763906E+03  0.32212763906E+03  0.00000000000E+00 0. -1.
         -1   -1    0    0    0  501 -0.00000000000E+00 -0.00000000000E+00 -0.37471150679E+02  0.37471150679E+02  0.00000000000E+00 0.  1.
         25    2    1    2    0    0 -0.10676013754E+02  0.56808689455E+01  0.17664359421E+03  0.21678720906E+03  0.12508990804E+03 0.  0.
         23    2    1    2    0    0  0.10676013754E+02 -0.56808689455E+01  0.10801289416E+03  0.14281158068E+03  0.92639693051E+02 0.  0.
          5    1    3    3  502    0  0.31174862583E+02  0.53453966440E+02  0.86527738007E+02  0.10645994754E+03  0.41800000000E+01 0.  1.
         -5    1    3    3    0  502 -0.41850876337E+02 -0.47773097494E+02  0.90115856208E+02  0.11032726152E+03  0.41800000000E+01 0.  1.
        -11    1    4    4    0    0 -0.15063117514E+02 -0.42962629433E+02  0.37418540858E+02  0.58930741018E+02  0.00000000000E+00 0.  1.
         11    1    4    4    0    0  0.25739131268E+02  0.37281760487E+02  0.70594353305E+02  0.83880839660E+02  0.00000000000E+00 0. -1.
</event>
<event>
 8    1  0.6380400E-009  0.1402428E+03  0.7561462E-02  0.1213003E+00
          1   -1    0    0  501    0  0.00000000000E+00  0.00000000000E+00  0.91474999314E+03  0.91474999314E+03  0.00000000000E+00 0. -1.
         -1   -1    0    0    0  501 -0.00000000000E+00 -0.00000000000E+00 -0.26546155501E+02  0.26546155501E+02  0.00000000000E+00 0.  1.
         25    2    1    2    0    0 -0.15733334253E+01  0.10935519841E+03  0.54125286563E+03  0.56618283467E+03  0.12508917985E+03 0.  0.
         23    2    1    2    0    0  0.15733334253E+01 -0.10935519841E+03  0.34695097201E+03  0.37511331398E+03  0.91509488844E+02 0.  0.
          5    1    3    3  502    0  0.25904379744E+02  0.11480688833E+03  0.28505633453E+03  0.30842542819E+03  0.41800000000E+01 0. -1.
         -5    1    3    3    0  502 -0.27477713169E+02 -0.54516899223E+01  0.25619653110E+03  0.25775740648E+03  0.41800000000E+01 0. -1.
        -11    1    4    4    0    0  0.30332531278E+02 -0.99457596678E+02  0.20410049984E+03  0.22906088716E+03  0.00000000000E+00 0.  1.
         11    1    4    4    0    0 -0.28759197853E+02 -0.98976017305E+01  0.14285047216E+03  0.14605242682E+03  0.00000000000E+00 0. -1.
</event>
<event>
 8    1  0.6380400E-009  0.1323777E+03  0.7561462E-02  0.1223970E+00
          1   -1    0    0  501    0  0.00000000000E+00  0.00000000000E+00  0.34231980918E+03  0.34231980918E+03  0.00000000000E+00 0. -1.
         -1   -1    0    0    0  501 -0.00000000000E+00 -0.00000000000E+00 -0.60832097073E+02  0.60832097073E+02  0.00000000000E+00 0.  1.
         25    2    1    2    0    0 -0.73410168265E+02  0.27793252462E+02  0.78924813985E+02  0.16744434745E+03  0.12508783132E+03 0.  0.
         23    2    1    2    0    0  0.73410168265E+02 -0.27793252462E+02  0.20256289812E+03  0.23570755880E+03  0.91459323712E+02 0.  0.
          5    1    3    3  502    0 -0.48569387329E+02  0.76713287875E+02  0.36430794201E+02  0.97921341332E+02  0.41800000000E+01 0. -1.
         -5    1    3    3    0  502 -0.24840780936E+02 -0.48920035413E+02  0.42494019784E+02  0.69523006118E+02  0.41800000000E+01 0. -1.
        -11    1    4    4    0    0  0.35983900643E+02 -0.59667934208E+02  0.98922786559E+02  0.12099926107E+03  0.00000000000E+00 0.  1.
         11    1    4    4    0    0  0.37426267623E+02  0.31874681746E+02  0.10364011156E+03  0.11470829774E+03  0.00000000000E+00 0. -1.
</event>
<event>
 8    1  0.6380400E-009  0.1027238E+03  0.7561462E-02  0.1274670E+00
         -2   -1    0    0    0  501 -0.00000000000E+00  0.00000000000E+00  0.29490766901E+02  0.29490766901E+02  0.00000000000E+00 0.  1.
          2   -1    0    0  501    0  0.00000000000E+00 -0.00000000000E+00 -0.50967124063E+03  0.50967124063E+03  0.00000000000E+00 0. -1.
         25    2    1    2    0    0  0.95309645235E+01  0.50292820132E+02 -0.22637649855E+03  0.26365513732E+03  0.12508998879E+03 0.  0.
         23    2    1    2    0    0 -0.95309645235E+01 -0.50292820132E+02 -0.25380397518E+03  0.27550687021E+03  0.94166717460E+02 0.  0.
          5    1    3    3  502    0  0.63922553577E+01  0.81243781652E+02 -0.81180722066E+02  0.11510514767E+03  0.41800000000E+01 0. -1.
         -5    1    3    3    0  502  0.31387091658E+01 -0.30950961520E+02 -0.14519577649E+03  0.14854998965E+03  0.41800000000E+01 0. -1.
        -11    1    4    4    0    0 -0.43337904459E+02 -0.33075586945E+02 -0.21267798334E+03  0.21955430538E+03  0.00000000000E+00 0. -1.
         11    1    4    4    0    0  0.33806939936E+02 -0.17217233187E+02 -0.41125991837E+02  0.55952564829E+02  0.00000000000E+00 0.  1.
</event>
<event>
 8    1  0.6380400E-009  0.1181380E+03  0.7561462E-02  0.1246201E+00
         -1   -1    0    0    0  501 -0.00000000000E+00  0.00000000000E+00  0.75715545413E+02  0.75715545413E+02  0.00000000000E+00 0.  1.
          1   -1    0    0  501    0  0.00000000000E+00 -0.00000000000E+00 -0.36786239813E+03  0.36786239813E+03  0.00000000000E+00 0. -1.
         25    2    1    2    0    0  0.80052866904E+01  0.82244752047E+02 -0.28860340010E+02  0.15267209510E+03  0.12509022960E+03 0.  0.
         23    2    1    2    0    0 -0.80052866904E+01 -0.82244752047E+02 -0.26328651271E+03  0.29090584845E+03  0.92076821372E+02 0.  0.
          5    1    3    3  502    0  0.36504980504E+02  0.74256543404E+02  0.28809242834E+02  0.87715977522E+02  0.41800000000E+01 0.  1.
         -5    1    3    3    0  502 -0.28499693813E+02  0.79882086429E+01 -0.57669582844E+02  0.64956117574E+02  0.41800000000E+01 0.  1.
        -11    1    4    4    0    0  0.40156051085E+02 -0.20081718900E+02 -0.10344208692E+03  0.11276546111E+03  0.00000000000E+00 0.  1.
         11    1    4    4    0    0 -0.48161337775E+02 -0.62163033148E+02 -0.15984442578E+03  0.17814038734E+03  0.00000000000E+00 0. -1.
</event>
<event>
 8    1  0.6380400E-009  0.1013634E+03  0.7561462E-02  0.1277455E+00
          2   -1    0    0  501    0  0.00000000000E+00  0.00000000000E+00  0.23170313097E+03  0.23170313097E+03  0.00000000000E+00 0. -1.
         -2   -1    0    0    0  501 -0.00000000000E+00 -0.00000000000E+00 -0.66630177327E+02  0.66630177327E+02  0.00000000000E+00 0.  1.
         25    2    1    2    0    0 -0.43673905315E+02 -0.42046616935E+02  0.97110388717E+02  0.16957160508E+03  0.12509505847E+03 0.  0.
         23    2    1    2    0    0  0.43673905315E+02  0.42046616935E+02  0.67962564924E+02  0.12876170321E+03  0.91023831944E+02 0.  0.
          5    1    3    3  502    0 -0.59424353759E+02  0.21561833284E+02  0.16242047519E+02  0.65402163434E+02  0.41800000000E+01 0. -1.
         -5    1    3    3    0  502  0.15750448444E+02 -0.63608450219E+02  0.80868341198E+02  0.10416944165E+03  0.41800000000E+01 0. -1.
        -11    1    4    4    0    0  0.31992060747E+02  0.20661937726E+01 -0.15405142797E+02  0.35567956536E+02  0.00000000000E+00 0.  1.
         11    1    4    4    0    0  0.11681844567E+02  0.39980423162E+02  0.83367707721E+02  0.93193746675E+02  0.00000000000E+00 0. -1.
</event>
<event>
 8    1  0.6380400E-009  0.1160900E+03  0.7561462E-02  0.1249690E+00
         -2   -1    0    0    0  501 -0.00000000000E+00  0.00000000000E+00  0.10455397451E+04  0.10455397451E+04  0.00000000000E+00 0.  1.
          2   -1    0    0  501    0  0.00000000000E+00 -0.00000000000E+00 -0.18244739541E+02  0.18244739541E+02  0.00000000000E+00 0. -1.
         25    2    1    2    0    0 -0.46026035598E+02  0.66874924709E+02  0.63754525774E+03  0.65475331459E+03  0.12508915137E+03 0.  0.
         23    2    1    2    0    0  0.46026035598E+02 -0.66874924709E+02  0.38974974778E+03  0.40903117002E+03  0.93866823960E+02 0.  0.
          5    1    3    3  502    0 -0.31120280047E+02 -0.12311815251E+02  0.44104410756E+03  0.44233180966E+03  0.41800000000E+01 0. -1.
         -5    1    3    3    0  502 -0.14905755551E+02  0.79186739960E+02  0.19650115019E+03  0.21242150493E+03  0.41800000000E+01 0. -1.
        -11    1    4    4    0    0  0.69112188928E+02 -0.32532710130E+02  0.18514226876E+03  0.20028113133E+03  0.00000000000E+00 0. -1.
         11    1    4    4    0    0 -0.23086153330E+02 -0.34342214579E+02  0.20460747902E+03  0.20875003868E+03  0.00000000000E+00 0.  1.
</event>
<event>
 8    1  0.6380400E-009  0.1092629E+03  0.7561462E-02  0.1261941E+00
         -2   -1    0    0    0  501 -0.00000000000E+00  0.00000000000E+00  0.50146324184E+02  0.50146324184E+02  0.00000000000E+00 0.  1.
          2   -1    0    0  501    0  0.00000000000E+00 -0.00000000000E+00 -0.27672300678E+03  0.27672300678E+03  0.00000000000E+00 0. -1.
         25    2    1    2    0    0 -0.84276118066E+01 -0.35340901101E+02 -0.18161899547E+03  0.22350584197E+03  0.12509755373E+03 0.  0.
         23    2    1    2    0    0  0.84276118066E+01  0.35340901101E+02 -0.44957687127E+02  0.10336348899E+03  0.85690217023E+02 0.  0.
          5    1    3    3  502    0 -0.63050624592E+02 -0.35247671916E+02 -0.78641697345E+02  0.10686331737E+03  0.41800000000E+01 0.  1.
         -5    1    3    3    0  502  0.54623012786E+02 -0.93229185118E-01 -0.10297729812E+03  0.11664252460E+03  0.41800000000E+01 0.  1.
        -11    1    4    4    0    0  0.45379200742E+02  0.96798280636E+01 -0.32605743990E+02  0.56710717439E+02  0.00000000000E+00 0. -1.
         11    1    4    4    0    0 -0.36951588936E+02  0.25661073038E+02 -0.12351943137E+02  0.46652771553E+02  0.00000000000E+00 0.  1.
</event>
<event>
 8    1  0.6380400E-009  0.1210154E+03  0.7561462E-02  0.1241431E+00
          2   -1    0    0  501    0  0.00000000000E+00  0.00000000000E+00  0.73186273587E+03  0.73186273587E+03  0.00000000000E+00 0. -1.
         -2   -1    0    0    0  501 -0.00000000000E+00 -0.00000000000E+00 -0.26054668835E+02  0.26054668835E+02  0.00000000000E+00 0.  1.
         25    2    1    2    0    0 -0.50830926289E+02  0.41438701766E+02  0.23865946752E+03  0.27732030626E+03  0.12508901533E+03 0.  0.
         23    2    1    2    0    0  0.50830926289E+02 -0.41438701766E+02  0.46714859952E+03  0.48059709845E+03  0.91895636089E+02 0.  0.
          5    1    3    3  502    0 -0.53938402367E+02  0.77746520768E+02  0.21130958153E+03  0.23156658737E+03  0.41800000000E+01 0.  1.
         -5    1    3    3    0  502  0.31074760776E+01 -0.36307819002E+02  0.27349885987E+02  0.45753718885E+02  0.41800000000E+01 0.  1.
        -11    1    4    4    0    0  0.29906468888E+02  0.26245284738E+02  0.21663642178E+03  0.22026018954E+03  0.00000000000E+00 0.  1.
         11    1    4    4    0    0  0.20924457402E+02 -0.67683986504E+02  0.25051217774E+03  0.26033690891E+03  0.00000000000E+00 0. -1.
</event>
<event>
 8    1  0.6380400E-009  0.1312466E+03  0.7561462E-02  0.1225618E+00
         -1   -1    0    0    0  501 -0.00000000000E+00  0.00000000000E+00  0.16931804015E+03  0.16931804015E+03  0.00000000000E+00 0.  1.
          1   -1    0    0  501    0  0.00000000000E+00 -0.00000000000E+00 -0.13699406480E+03  0.13699406480E+03  0.00000000000E+00 0. -1.
         25    2    1    2    0    0 -0.77249803858E+02 -0.45748767948E+02 -0.44581314980E+02  0.16029917033E+03  0.12509136021E+03 0.  0.
         23    2    1    2    0    0  0.77249803858E+02  0.45748767948E+02  0.76905290323E+02  0.14601293462E+03  0.85702225361E+02 0.  0.
          5    1    3    3  502    0  0.11209907015E+02 -0.62293328674E+02 -0.12393871495E+02  0.64631271558E+02  0.41800000000E+01 0.  1.
         -5    1    3    3    0  502 -0.88459710872E+02  0.16544560726E+02 -0.32187443484E+02  0.95667898771E+02  0.41800000000E+01 0.  1.
        -11    1    4    4    0    0  0.19498278154E+02 -0.15410993044E+02 -0.83763738285E+01  0.26226803010E+02  0.00000000000E+00 0. -1.
         11    1    4    4    0    0  0.57751525703E+02  0.61159760992E+02  0.85281664152E+02  0.11978613161E+03  0.00000000000E+00 0.  1.
</event>
<event>
 8    1  0.6380400E-009  0.1480408E+03  0.7561462E-02  0.1202901E+00
         -1   -1    0    0    0  501 -0.00000000000E+00  0.00000000000E+00  0.82720637645E+02  0.82720637645E+02  0.00000000000E+00 0.  1.
          1   -1    0    0  501    0  0.00000000000E+00 -0.00000000000E+00 -0.38547821618E+03  0.38547821618E+03  0.00000000000E+00 0. -1.
         25    2    1    2    0    0 -0.14033255460E+03 -0.16203588415E+02 -0.17877474055E+03  0.25992982298E+03  0.12508925956E+03 0.  0.
         23    2    1    2    0    0  0.14033255460E+03  0.16203588415E+02 -0.12398283799E+03  0.20826903085E+03  0.89713226103E+02 0.  0.
          5    1    3    3  502    0 -0.77684489148E+02  0.13221694166E+02 -0.12657089254E+02  0.79921006996E+02  0.41800000000E+01 0. -1.
         -5    1    3    3    0  502 -0.62648065450E+02 -0.29425282582E+02 -0.16611765129E+03  0.18000881598E+03  0.41800000000E+01 0. -1.
        -11    1    4    4    0    0  0.13333810717E+03  0.35672122811E+01 -0.13524415753E+03  0.18995462083E+03  0.00000000000E+00 0. -1.
         11    1    4    4    0    0  0.69944474236E+01  0.12636376134E+02  0.11261319542E+02  0.18314410020E+02  0.00000000000E+00 0.  1.
</event>
<event>
 8    1  0.6380400E-009  0.1189932E+03  0.7561462E-02  0.1244767E+00
          1   -1    0    0  501    0  0.00000000000E+00  0.00000000000E+00  0.33430687332E+03  0.33430687332E+03  0.00000000000E+00 0. -1.
         -1   -1    0    0    0  501 -0.00000000000E+00 -0.00000000000E+00 -0.60138887387E+02  0.60138887387E+02  0.00000000000E+00 0.  1.
         25    2    1    2    0    0 -0.56897732257E+02  0.30532795912E+02  0.53671898293E+02  0.15065106774E+03  0.12508184513E+03 0.  0.
         23    2    1    2    0    0  0.56897732257E+02 -0.30532795912E+02  0.22049608764E+03  0.24379469297E+03  0.81533576484E+02 0.  0.
          5    1    3    3  502    0  0.33793448861E+02  0.36130128945E+02  0.22388999667E+02  0.54462125460E+02  0.41800000000E+01 0.  1.
         -5    1    3    3    0  502 -0.90691181119E+02 -0.55973330325E+01  0.31282898625E+02  0.96188942276E+02  0.41800000000E+01 0.  1.
        -11    1    4    4    0    0  0.59767097750E+02  0.66047378294E+01  0.91190716245E+02  0.10923129252E+03  0.00000000000E+00 0. -1.
         11    1    4    4    0    0 -0.28693654927E+01 -0.37137533741E+02  0.12930537140E+03  0.13456340046E+03  0.00000000000E+00 0.  1.
</event>
<event>
 8    1  0.6380400E-009  0.5972115E+02  0.7561462E-02  0.1399006E+00
          1   -1    0    0  501    0  0.00000000000E+00  0.00000000000E+00  0.14803609124E+03  0.14803609124E+03  0.00000000000E+00 0. -1.
         -1   -1    0    0    0  501 -0.00000000000E+00 -0.00000000000E+00 -0.10204302702E+03  0.10204302702E+03  0.00000000000E+00 0.  1.
         25    2    1    2    0    0 -0.23189824172E+02  0.24643225647E+02  0.78156646634E+02  0.15135022646E+03  0.12511344101E+03 0.  0.
         23    2    1    2    0    0  0.23189824172E+02 -0.24643225647E+02 -0.32163582411E+02  0.98728891797E+02  0.86993341851E+02 0.  0.
          5    1    3    3  502    0 -0.29957382196E+02  0.25366300486E+02 -0.25753247965E+02  0.47133810891E+02  0.41800000000E+01 0.  1.
         -5    1    3    3    0  502  0.67675580235E+01 -0.72307483952E+00  0.10390989460E+03  0.10421641557E+03  0.41800000000E+01 0.  1.
        -11    1    4    4    0    0  0.42458945391E+02 -0.29989363572E+02  0.91956763841E+01  0.52789056018E+02  0.00000000000E+00 0. -1.
         11    1    4    4    0    0 -0.19269121218E+02  0.53461379255E+01 -0.41359258795E+02  0.45939835778E+02  0.00000000000E+00 0.  1.
</event>
<event>
 8    1  0.6380400E-009  0.2952939E+03  0.7561462E-02  0.1087617E+00
          2   -1    0    0  501    0  0.00000000000E+00  0.00000000000E+00  0.39444402943E+03  0.39444402943E+03  0.00000000000E+00 0.  1.
         -2   -1    0    0    0  501 -0.00000000000E+00 -0.00000000000E+00 -0.25351398425E+03  0.25351398425E+03  0.00000000000E+00 0. -1.
         25    2    1    2    0    0  0.11433417061E+03  0.25863451327E+03 -0.22135666984E+02  0.30999987649E+03  0.12508325885E+03 0.  0.
         23    2    1    2    0    0 -0.11433417061E+03 -0.25863451327E+03  0.16306571216E+03  0.33795813718E+03  0.87528063942E+02 0.  0.
          5    1    3    3  502    0  0.69616394799E+02  0.63177271321E+02 -0.51559836142E+02  0.10730190650E+03  0.41800000000E+01 0.  1.
         -5    1    3    3    0  502  0.44717775815E+02  0.19545724195E+03  0.29424169158E+02  0.20269796999E+03  0.41800000000E+01 0.  1.
        -11    1    4    4    0    0 -0.10273753583E+03 -0.12502131994E+03  0.93105004902E+02  0.18669192174E+03  0.00000000000E+00 0.  1.
         11    1    4    4    0    0 -0.11596634786E+02 -0.13361319334E+03  0.69960707262E+02  0.15126621544E+03  0.00000000000E+00 0. -1.
</event>
<event>
 8    1  0.6380400E-009  0.1447461E+03  0.7561462E-02  0.1207082E+00
         -3   -1    0    0    0  501 -0.00000000000E+00  0.00000000000E+00  0.93909560081E+02  0.93909560081E+02  0.00000000000E+00 0.  1.
          3   -1    0    0  501    0  0.00000000000E+00 -0.00000000000E+00 -0.26553580053E+03  0.26553580053E+03  0.00000000000E+00 0. -1.
         25    2    1    2    0    0  0.78212214632E+02  0.73229217088E+02 -0.45974255369E+02  0.17100147458E+03  0.12509277916E+03 0.  0.
         23    2    1    2    0    0 -0.78212214632E+02 -0.73229217088E+02 -0.12565198508E+03  0.18844388603E+03  0.90791013184E+02 0.  0.
          5    1    3    3  502    0  0.79526580449E+02  0.97330830346E+02 -0.82597977263E+01  0.12602961633E+03  0.41800000000E+01 0. -1.
         -5    1    3    3    0  502 -0.13143658174E+01 -0.24101613258E+02 -0.37714457643E+02  0.44971858250E+02  0.41800000000E+01 0. -1.
        -11    1    4    4    0    0 -0.84793357171E+02 -0.88526491720E+02 -0.10173900060E+03  0.15930372689E+03  0.00000000000E+00 0.  1.
         11    1    4    4    0    0  0.65811425387E+01  0.15297274633E+02 -0.23912984477E+02  0.29140159144E+02  0.00000000000E+00 0. -1.
</event>
<event>
 8    1  0.6380400E-009  0.1413276E+03  0.7561462E-02  0.1211554E+00
          1   -1    0    0  501    0  0.00000000000E+00  0.00000000000E+00  0.95505184974E+03  0.95505184974E+03  0.00000000000E+00 0. -1.
         -1   -1    0    0    0  501 -0.00000000000E+00 -0.00000000000E+00 -0.24325649321E+02  0.24325649321E+02  0.00000000000E+00 0.  1.
         25    2    1    2    0    0  0.38871741353E+01  0.10243023694E+03  0.42072694201E+03  0.45073909884E+03  0.12509001532E+03 0.  0.
         23    2    1    2    0    0 -0.38871741353E+01 -0.10243023694E+03  0.50999925841E+03  0.52863840022E+03  0.94086402007E+02 0.  0.
          5    1    3    3  502    0 -0.51591842608E+02  0.45601125001E+02  0.28679119562E+03  0.29497091909E+03  0.41800000000E+01 0.  1.
         -5    1    3    3    0  502  0.55479016743E+02  0.56829111939E+02  0.13393574639E+03  0.15576817975E+03  0.41800000000E+01 0.  1.
        -11    1    4    4    0    0  0.41343893838E+02 -0.50977640084E+02  0.17975386074E+03  0.19136219009E+03  0.00000000000E+00 0.  1.
         11    1    4    4    0    0 -0.45231067973E+02 -0.51452596856E+02  0.33024539768E+03  0.33727621013E+03  0.00000000000E+00 0. -1.
</event>
<event>
 8    1  0.6380400E-009  0.1116079E+03  0.7561462E-02  0.1257621E+00
         -2   -1    0    0    0  501 -0.00000000000E+00  0.00000000000E+00  0.75232666657E+02  0.75232666657E+02  0.00000000000E+00 0.  1.
          2   -1    0    0  501    0  0.00000000000E+00 -0.00000000000E+00 -0.20205171925E+03  0.20205171925E+03  0.00000000000E+00 0. -1.
         25    2    1    2    0    0  0.39622470271E+02  0.36259906728E+02 -0.97847329536E+02  0.16765090157E+03  0.12509198181E+03 0.  0.
         23    2    1    2    0    0 -0.39622470271E+02 -0.36259906728E+02 -0.28971723059E+02  0.10963348434E+03  0.91079191729E+02 0.  0.
          5    1    3    3  502    0 -0.22980933841E+02 -0.25475371544E+02 -0.65152952552E+02  0.73752949106E+02  0.41800000000E+01 0.  1.
         -5    1    3    3    0  502  0.62603404112E+02  0.61735278272E+02 -0.32694376984E+02  0.93897952459E+02  0.41800000000E+01 0.  1.
        -11    1    4    4    0    0 -0.27626916823E+02 -0.64380892224E+02 -0.40238222256E+01  0.70173620129E+02  0.00000000000E+00 0.  1.
         11    1    4    4    0    0 -0.11995553449E+02  0.28120985497E+02 -0.24947900833E+02  0.39459864214E+02  0.00000000000E+00 0. -1.
</event>
<event>
 8    1  0.6380400E-009  0.1125744E+03  0.7561462E-02  0.1255875E+00
          1   -1    0    0  501    0  0.00000000000E+00  0.00000000000E+00  0.28406951648E+03  0.28406951648E+03  0.00000000000E+00 0. -1.
         -1   -1    0    0    0  501 -0.00000000000E+00 -0.00000000000E+00 -0.49250326604E+02  0.49250326604E+02  0.00000000000E+00 0.  1.
         25    2    1    2    0    0 -0.43383535221E+02 -0.58389999215E+01  0.15787346569E+03  0.20612688042E+03  0.12509210452E+03 0.  0.
         23    2    1    2    0    0  0.43383535221E+02  0.58389999215E+01  0.76945724187E+02  0.12719296267E+03  0.91330062043E+02 0.  0.
          5    1    3    3  502    0  0.37005588236E+02  0.20077597035E+02  0.26610792546E+02  0.49981297936E+02  0.41800000000E+01 0. -1.
         -5    1    3    3    0  502 -0.80389123457E+02 -0.25916596956E+02  0.13126267314E+03  0.15614558248E+03  0.41800000000E+01 0. -1.
        -11    1    4    4    0    0  0.64785537133E+02 -0.16994993539E+02  0.37233439025E+02  0.76631094267E+02  0.00000000000E+00 0.  1.
         11    1    4    4    0    0 -0.21402001912E+02  0.22833993460E+02  0.39712285162E+02  0.50561868399E+02  0.00000000000E+00 0. -1.
</event>
<event>
 8    1  0.6380400E-009  0.8417317E+02  0.7561462E-02  0.1317609E+00
         -1   -1    0    0    0  501 -0.00000000000E+00  0.00000000000E+00  0.53730875189E+02  0.53730875189E+02  0.00000000000E+00 0.  1.
          1   -1    0    0  501    0  0.00000000000E+00 -0.00000000000E+00 -0.33402478182E+03  0.33402478182E+03  0.00000000000E+00 0. -1.
         25    2    1    2    0    0  0.21479756739E+02  0.74697655743E+02 -0.13159680056E+03  0.19749503313E+03  0.12508177514E+03 0.  0.
         23    2    1    2    0    0 -0.21479756739E+02 -0.74697655743E+02 -0.14869710607E+03  0.19026062388E+03  0.89705941396E+02 0.  0.
          5    1    3    3  502    0 -0.10116640639E+02  0.20597530016E+01 -0.11614952409E+03  0.11668236091E+03  0.41800000000E+01 0. -1.
         -5    1    3    3    0  502  0.31596397378E+02  0.72637902742E+02 -0.15447276471E+02  0.80812672226E+02  0.41800000000E+01 0. -1.
        -11    1    4    4    0    0 -0.78645018415E+01 -0.19335624728E+02  0.88822331621E+01  0.22685035569E+02  0.00000000000E+00 0.  1.
         11    1    4    4    0    0 -0.13615254898E+02 -0.55362031015E+02 -0.15757933923E+03  0.16757558831E+03  0.00000000000E+00 0. -1.
</event>
<event>
 8    1  0.6380400E-009  0.1973791E+03  0.7561462E-02  0.1151969E+00
         -2   -1    0    0    0  501 -0.00000000000E+00  0.00000000000E+00  0.10463532366E+03  0.10463532366E+03  0.00000000000E+00 0.  1.
          2   -1    0    0  501    0  0.00000000000E+00 -0.00000000000E+00 -0.42319666252E+03  0.42319666252E+03  0.00000000000E+00 0. -1.
         25    2    1    2    0    0 -0.14020332390E+03  0.10945622793E+03 -0.19933971625E+03  0.29499321234E+03  0.12508810890E+03 0.  0.
         23    2    1    2    0    0  0.14020332390E+03 -0.10945622793E+03 -0.11922162261E+03  0.23283877384E+03  0.91446494962E+02 0.  0.
          5    1    3    3  502    0 -0.11389656555E+03  0.10560159794E+02 -0.11581679594E+03  0.16283410958E+03  0.41800000000E+01 0. -1.
         -5    1    3    3    0  502 -0.26306758346E+02  0.98896068132E+02 -0.83522920310E+02  0.13215910277E+03  0.41800000000E+01 0. -1.
        -11    1    4    4    0    0  0.68494715258E+02 -0.52495069836E+02 -0.11141531295E+03  0.14092774863E+03  0.00000000000E+00 0. -1.
         11    1    4    4    0    0  0.71708608639E+02 -0.56961158090E+02 -0.78063096655E+01  0.91911025206E+02  0.00000000000E+00 0.  1.
</event>
<event>
 8    1  0.6380400E-009  0.1158390E+03  0.7561462E-02  0.1250124E+00
         -2   -1    0    0    0  501 -0.00000000000E+00  0.00000000000E+00  0.40337746287E+02  0.40337746287E+02  0.00000000000E+00 0.  1.
          2   -1    0    0  501    0  0.00000000000E+00 -0.00000000000E+00 -0.39370791998E+03  0.39370791998E+03  0.00000000000E+00 0. -1.
         25    2    1    2    0    0 -0.27828368015E+02  0.56338425684E+02 -0.21825306156E+03  0.25928766024E+03  0.12508899072E+03 0.  0.
         23    2    1    2    0    0  0.27828368015E+02 -0.56338425684E+02 -0.13511711214E+03  0.17475800603E+03  0.91297811603E+02 0.  0.
          5    1    3    3  502    0 -0.54178055265E+02 -0.18351295407E+02 -0.64700003461E+02  0.86461520709E+02  0.41800000000E+01 0. -1.
         -5    1    3    3    0  502  0.26349687251E+02  0.74689721091E+02 -0.15355305810E+03  0.17282613953E+03  0.41800000000E+01 0. -1.
        -11    1    4    4    0    0  0.17408020592E+02  0.14962020899E+02 -0.15663132178E+01  0.23007707131E+02  0.00000000000E+00 0.  1.
         11    1    4    4    0    0  0.10420347422E+02 -0.71300446583E+02 -0.13355079892E+03  0.15175029890E+03  0.00000000000E+00 0. -1.
</event>
<event>
 8    1  0.6380400E-009  0.1159002E+03  0.7561462E-02  0.1250018E+00
         -2   -1    0    0    0  501 -0.00000000000E+00  0.00000000000E+00  0.25980950327E+02  0.25980950327E+02  0.00000000000E+00 0.  1.
          2   -1    0    0  501    0  0.00000000000E+00 -0.00000000000E+00 -0.67398224899E+03  0.67398224899E+03  0.00000000000E+00 0. -1.
         25    2    1    2    0    0  0.16377135512E+01  0.75561044180E+02 -0.37490269197E+03  0.40238355588E+03  0.12509334153E+03 0.  0.
         23    2    1    2    0    0 -0.16377135512E+01 -0.75561044180E+02 -0.27309860669E+03  0.29757964343E+03  0.90877069198E+02 0.  0.
          5    1    3    3  502    0  0.96601293693E+00 -0.35104331364E+02 -0.94852458185E+02  0.10123096604E+03  0.41800000000E+01 0.  1.
         -5    1    3    3    0  502  0.67170061426E+00  0.11066537554E+03 -0.28005023379E+03  0.30115258984E+03  0.41800000000E+01 0.  1.
        -11    1    4    4    0    0  0.19276885561E+02 -0.40716405715E+02 -0.37828317090E+02  0.58825212156E+02  0.00000000000E+00 0.  1.
         11    1    4    4    0    0 -0.20914599112E+02 -0.34844638465E+02 -0.23527028960E+03  0.23875443127E+03  0.00000000000E+00 0. -1.
</event>
<event>
 8    1  0.6380400E-009  0.9837396E+02  0.7561462E-02  0.1283753E+00
          2   -1    0    0  501    0  0.00000000000E+00  0.00000000000E+00  0.16837783799E+03  0.16837783799E+03  0.00000000000E+00 0. -1.
         -2   -1    0    0    0  501 -0.00000000000E+00 -0.00000000000E+00 -0.78674975273E+02  0.78674975273E+02  0.00000000000E+00 0.  1.
         25    2    1    2    0    0  0.19219650126E+02  0.38700939572E+02  0.54465859119E+01  0.13245726457E+03  0.12509238172E+03 0.  0.
         23    2    1    2    0    0 -0.19219650126E+02 -0.38700939572E+02  0.84256276801E+02  0.11459554869E+03  0.64543488636E+02 0.  0.
          5    1    3    3  502    0 -0.39181086005E+02  0.52030670760E+02 -0.18455904293E+02  0.67826550874E+02  0.41800000000E+01 0. -1.
         -5    1    3    3    0  502  0.58400736131E+02 -0.13329731188E+02  0.23902490205E+02  0.64630713691E+02  0.41800000000E+01 0. -1.
        -11    1    4    4    0    0  0.15750108608E+02 -0.32224909380E+02  0.19778040377E+02  0.40959511555E+02  0.00000000000E+00 0.  1.
         11    1    4    4    0    0 -0.34969758734E+02 -0.64760301918E+01  0.64478236424E+02  0.73636037138E+02  0.00000000000E+00 0. -1.
</event>
<event>
 8    1  0.6380400E-009  0.2805706E+03  0.7561462E-02  0.1095378E+00
         -2   -1    0    0    0  501 -0.00000000000E+00  0.00000000000E+00  0.58220595770E+02  0.58220595770E+02  0.00000000000E+00 0.  1.
          2   -1    0    0  501    0  0.00000000000E+00 -0.00000000000E+00 -0.14209569162E+04  0.14209569162E+04  0.00000000000E+00 0. -1.
         25    2    1    2    0    0  0.24790991295E+03  0.93009426427E+02 -0.76440171457E+03  0.81857610329E+03  0.12508707884E+03 0.  0.
         23    2    1    2    0    0 -0.24790991295E+03 -0.93009426427E+02 -0.59833460582E+03  0.66060140864E+03  0.90993638447E+02 0.  0.
          5    1    3    3  502    0  0.32018677660E+02 -0.24804553268E+02 -0.17940691397E+03  0.18396949411E+03  0.41800000000E+01 0.  1.
         -5    1    3    3    0  502  0.21589123529E+03  0.11781397970E+03 -0.58499480060E+03  0.63460660918E+03  0.41800000000E+01 0.  1.
        -11    1    4    4    0    0 -0.13843349139E+03 -0.13399198059E+02 -0.36843502643E+03  0.39381180626E+03  0.00000000000E+00 0. -1.
         11    1    4    4    0    0 -0.10947642155E+03 -0.79610228369E+02 -0.22989957939E+03  0.26678960239E+03  0.00000000000E+00 0.  1.
</event>
<event>
 8    1  0.6380400E-009  0.9456912E+02  0.7561462E-02  0.1292149E+00
          2   -1    0    0  501    0  0.00000000000E+00  0.00000000000E+00  0.36742861634E+03  0.36742861634E+03  0.00000000000E+00 0. -1.
         -2   -1    0    0    0  501 -0.00000000000E+00 -0.00000000000E+00 -0.39452847191E+02  0.39452847191E+02  0.00000000000E+00 0.  1.
         25    2    1    2    0    0 -0.35011699132E+02 -0.30079074444E+02  0.20730839901E+03  0.24646011786E+03  0.12504098367E+03 0.  0.
         23    2    1    2    0    0  0.35011699132E+02  0.30079074444E+02  0.12066737014E+03  0.16042134568E+03  0.95099022796E+02 0.  0.
          5    1    3    3  502    0  0.23354608484E+02  0.82916443822E+00 -0.48409811129E+01  0.24228758722E+02  0.41800000000E+01 0. -1.
         -5    1    3    3    0  502 -0.58366307615E+02 -0.30908238882E+02  0.21214938013E+03  0.22223135914E+03  0.41800000000E+01 0. -1.
        -11    1    4    4    0    0  0.54763232493E+02 -0.89393399109E+01  0.94127920616E+02  0.10926568020E+03  0.00000000000E+00 0. -1.
         11    1    4    4    0    0 -0.19751533361E+02  0.39018414355E+02  0.26539449523E+02  0.51155665472E+02  0.00000000000E+00 0.  1.
</event>
<event>
 8    1  0.6380400E-009  0.1032208E+03  0.7561462E-02  0.1273665E+00
          1   -1    0    0  501    0  0.00000000000E+00  0.00000000000E+00  0.32518542655E+03  0.32518542655E+03  0.00000000000E+00 0. -1.
         -1   -1    0    0    0  501 -0.00000000000E+00 -0.00000000000E+00 -0.37382916945E+02  0.37382916945E+02  0.00000000000E+00 0.  1.
         25    2    1    2    0    0  0.11782667347E+02 -0.37212718025E+01  0.13344857426E+03  0.18332481720E+03  0.12508711970E+03 0.  0.
         23    2    1    2    0    0 -0.11782667347E+02  0.37212718025E+01  0.15435393534E+03  0.17924352629E+03  0.90279705628E+02 0.  0.
          5    1    3    3  502    0 -0.41128556712E+01  0.59778457176E+02  0.61534137272E+02  0.85990127188E+02  0.41800000000E+01 0.  1.
         -5    1    3    3    0  502  0.15895523018E+02 -0.63499728978E+02  0.71914436989E+02  0.97334690013E+02  0.41800000000E+01 0.  1.
        -11    1    4    4    0    0 -0.19723152057E+02 -0.35584076367E+02  0.36155684378E+02  0.54428510275E+02  0.00000000000E+00 0.  1.
         11    1    4    4    0    0  0.79404847101E+01  0.39305348169E+02  0.11819825096E+03  0.12481501602E+03  0.00000000000E+00 0. -1.
</event>
<event>
 8    1  0.6380400E-009  0.1189022E+03  0.7561462E-02  0.1244919E+00
          2   -1    0    0  501    0  0.00000000000E+00  0.00000000000E+00  0.46417283385E+03  0.46417283385E+03  0.00000000000E+00 0. -1.
         -2   -1    0    0    0  501 -0.00000000000E+00 -0.00000000000E+00 -0.44223389556E+02  0.44223389556E+02  0.00000000000E+00 0.  1.
         25    2    1    2    0    0  0.80536806793E+02  0.35017217729E+02  0.17595112545E+03  0.23306342477E+03  0.12508948250E+03 0.  0.
         23    2    1    2    0    0 -0.80536806793E+02 -0.35017217729E+02  0.24399831885E+03  0.27533279864E+03  0.92523443624E+02 0.  0.
          5    1    3    3  502    0 -0.62342551590E+01 -0.36612420683E+02  0.65059893834E+02  0.75030643548E+02  0.41800000000E+01 0. -1.
         -5    1    3    3    0  502  0.86771061952E+02  0.71629638412E+02  0.11089123161E+03  0.15803278122E+03  0.41800000000E+01 0. -1.
        -11    1    4    4    0    0 -0.29898632905E+02 -0.13883119446E+02  0.92231411189E+01  0.34230623530E+02  0.00000000000E+00 0.  1.
         11    1    4    4    0    0 -0.50638173888E+02 -0.21134098283E+02  0.23477517773E+03  0.24110217511E+03  0.00000000000E+00 0. -1.
</event>
<event>
 8    1  0.6380400E-009  0.9013737E+02  0.7561462E-02  0.1302519E+00
         -1   -1    0    0    0  501 -0.00000000000E+00  0.00000000000E+00  0.20836294530E+03  0.20836294530E+03  0.00000000000E+00 0. -1.
          1   -1    0    0  501    0  0.00000000000E+00 -0.00000000000E+00 -0.69697592250E+02  0.69697592250E+02  0.00000000000E+00 0.  1.
         25    2    1    2    0    0 -0.17837499771E+02  0.11384301363E+02  0.10898819521E+02  0.12732231163E+03  0.12507760813E+03 0.  0.
         23    2    1    2    0    0  0.17837499771E+02 -0.11384301363E+02  0.12776653353E+03  0.15073822592E+03  0.77135899223E+02 0.  0.
          5    1    3    3  502    0  0.41933056357E+02  0.26518684817E+02  0.35137475083E+02  0.60940433335E+02  0.41800000000E+01 0. -1.
         -5    1    3    3    0  502 -0.59770556127E+02 -0.15134383453E+02 -0.24238655561E+02  0.66381878293E+02  0.41800000000E+01 0. -1.
        -11    1    4    4    0    0  0.41746703121E+02  0.10019884621E+01  0.11200753003E+03  0.11953860458E+03  0.00000000000E+00 0. -1.
         11    1    4    4    0    0 -0.23909203351E+02 -0.12386289825E+02  0.15759003501E+02  0.31199621341E+02  0.00000000000E+00 0.  1.
</event>
<event>
 8    1  0.6380400E-009  0.1755057E+03  0.7561462E-02  0.1172225E+00
          2   -1    0    0  501    0  0.00000000000E+00  0.00000000000E+00  0.15154131226E+03  0.15154131226E+03  0.00000000000E+00 0. -1.
         -2   -1    0    0    0  501 -0.00000000000E+00 -0.00000000000E+00 -0.23859301331E+03  0.23859301331E+03  0.00000000000E+00 0.  1.
         25    2    1    2    0    0 -0.71293171404E+02 -0.11459279700E+03  0.21072397194E+02  0.18521489381E+03  0.12508511323E+03 0.  0.
         23    2    1    2    0    0  0.71293171404E+02  0.11459279700E+03 -0.10812409824E+03  0.20491943176E+03  0.10994056340E+03 0.  0.
          5    1    3    3  502    0 -0.21509355443E+02 -0.12915052340E+03  0.23651837965E+02  0.13311420624E+03  0.41800000000E+01 0.  1.
         -5    1    3    3    0  502 -0.49783815961E+02  0.14557726400E+02 -0.25794407710E+01  0.52100687561E+02  0.41800000000E+01 0.  1.
        -11    1    4    4    0    0 -0.25534926556E+02  0.18255522566E+02 -0.43944000420E+02  0.54003442032E+02  0.00000000000E+00 0. -1.
         11    1    4    4    0    0  0.96828097960E+02  0.96337274430E+02 -0.64180097822E+02  0.15091598973E+03  0.00000000000E+00 0.  1.
</event>
<event>
 8    1  0.6380400E-009  0.1478350E+03  0.7561462E-02  0.1203159E+00
         -1   -1    0    0    0  501 -0.00000000000E+00  0.00000000000E+00  0.91215283537E+02  0.91215283537E+02  0.00000000000E+00 0.  1.
          1   -1    0    0  501    0  0.00000000000E+00 -0.00000000000E+00 -0.28277950046E+03  0.28277950046E+03  0.00000000000E+00 0. -1.
         25    2    1    2    0    0  0.77239655468E+02 -0.93178275549E+02 -0.11497704216E+03  0.20860362018E+03  0.12509034621E+03 0.  0.
         23    2    1    2    0    0 -0.77239655468E+02  0.93178275549E+02 -0.76587174765E+02  0.16539116383E+03  0.82707232585E+02 0.  0.
          5    1    3    3  502    0  0.10479725023E+03 -0.88214502137E+02 -0.11703287846E+03  0.18021772688E+03  0.41800000000E+01 0.  1.
         -5    1    3    3    0  502 -0.27557594758E+02 -0.49637734125E+01  0.20558362926E+01  0.28385893296E+02  0.41800000000E+01 0.  1.
        -11    1    4    4    0    0 -0.14970156243E+02  0.55605286262E+02 -0.72448585198E+02  0.92546479865E+02  0.00000000000E+00 0. -1.
         11    1    4    4    0    0 -0.62269499224E+02  0.37572989287E+02 -0.41385895666E+01  0.72844683960E+02  0.00000000000E+00 0.  1.
</event>
<event>
 8    1  0.6380400E-009  0.2897824E+03  0.7561462E-02  0.1090463E+00
         -1   -1    0    0    0  501 -0.00000000000E+00  0.00000000000E+00  0.10786280361E+04  0.10786280361E+04  0.00000000000E+00 0.  1.
          1   -1    0    0  501    0  0.00000000000E+00 -0.00000000000E+00 -0.19293624700E+03  0.19293624700E+03  0.00000000000E+00 0. -1.
         25    2    1    2    0    0  0.61692175916E+02 -0.27259013825E+03  0.92521264663E+03  0.97456534698E+03  0.12509143064E+03 0.  0.
         23    2    1    2    0    0 -0.61692175916E+02  0.27259013825E+03 -0.39520857531E+02  0.29699893612E+03  0.92385939606E+02 0.  0.
          5    1    3    3  502    0 -0.31533734904E+01 -0.20227650044E+03  0.72386364709E+03  0.75161278487E+03  0.41800000000E+01 0.  1.
         -5    1    3    3    0  502  0.64845549406E+02 -0.70313637804E+02  0.20134899954E+03  0.22295256211E+03  0.41800000000E+01 0.  1.
        -11    1    4    4    0    0 -0.65802227450E+02  0.26149740982E+03 -0.15347035013E+02  0.27008583814E+03  0.00000000000E+00 0.  1.
         11    1    4    4    0    0  0.41100515344E+01  0.11092728423E+02 -0.24173822518E+02  0.26913097975E+02  0.00000000000E+00 0. -1.
</event>
<event>
 8    1  0.6380400E-009  0.1532673E+03  0.7561462E-02  0.1196515E+00
          2   -1    0    0  501    0  0.00000000000E+00  0.00000000000E+00  0.10677805582E+04  0.10677805582E+04  0.00000000000E+00 0. -1.
         -2   -1    0    0    0  501 -0.00000000000E+00 -0.00000000000E+00 -0.28568959075E+02  0.28568959075E+02  0.00000000000E+00 0.  1.
         25    2    1    2    0    0 -0.11476154521E+03  0.26127321982E+02  0.33163353812E+03  0.37346978703E+03  0.12508408774E+03 0.  0.
         23    2    1    2    0    0  0.11476154521E+03 -0.26127321982E+02  0.70757806103E+03  0.72287973027E+03  0.89641189031E+02 0.  0.
          5    1    3    3  502    0 -0.13352460240E+03  0.40721846940E+02  0.23060492395E+03  0.26959820403E+03  0.41800000000E+01 0.  1.
         -5    1    3    3    0  502  0.18763057197E+02 -0.14594524957E+02  0.10102861416E+03  0.10387158300E+03  0.41800000000E+01 0.  1.
        -11    1    4    4    0    0  0.12154297769E+02  0.25224797334E+02  0.76670225460E+02  0.81623163544E+02  0.00000000000E+00 0.  1.
         11    1    4    4    0    0  0.10260724744E+03 -0.51352119316E+02  0.63090783557E+03  0.64125656672E+03  0.00000000000E+00 0. -1.
</event>
<event>
 8    1  0.6380400E-009  0.8053000E+02  0.7561462E-02  0.1327554E+00
          1   -1    0    0  501    0  0.00000000000E+00  0.00000000000E+00  0.21104228287E+02  0.21104228287E+02  0.00000000000E+00 0. -1.
         -1   -1    0    0    0  501 -0.00000000000E+00 -0.00000000000E+00 -0.62683420854E+03  0.62683420854E+03  0.00000000000E+00 0.  1.
         25    2    1    2    0    0 -0.23484346409E+02  0.73964221929E+01 -0.43375096104E+03  0.45210001524E+03  0.12509318921E+03 0.  0.
         23    2    1    2    0    0  0.23484346409E+02 -0.73964221929E+01 -0.17197901922E+03  0.19583842160E+03  0.90386297270E+02 0.  0.
          5    1    3    3  502    0 -0.40946045660E+02  0.21335058975E+02 -0.51969137581E+02  0.69642135648E+02  0.41800000000E+01 0. -1.
         -5    1    3    3    0  502  0.17461699252E+02 -0.13938636782E+02 -0.38178182346E+03  0.38245787959E+03  0.41800000000E+01 0. -1.
        -11    1    4    4    0    0 -0.18016881077E+02 -0.36890889686E+02 -0.58584694998E+02  0.71538187240E+02  0.00000000000E+00 0. -1.
         11    1    4    4    0    0  0.41501227485E+02  0.29494467493E+02 -0.11339432422E+03  0.12430023436E+03  0.00000000000E+00 0.  1.
</event>
<event>
 8    1  0.6380400E-009  0.9574477E+02  0.7561462E-02  0.1289507E+00
          2   -1    0    0  501    0  0.00000000000E+00  0.00000000000E+00  0.42274785830E+03  0.42274785830E+03  0.00000000000E+00 0.  1.
         -2   -1    0    0    0  501 -0.00000000000E+00 -0.00000000000E+00 -0.47717968378E+02  0.47717968378E+02  0.00000000000E+00 0. -1.
         25    2    1    2    0    0  0.59716511399E+02 -0.30184203130E+02  0.10356783598E+03  0.17564441404E+03  0.12509003031E+03 0.  0.
         23    2    1    2    0    0 -0.59716511399E+02  0.30184203130E+02  0.27146205394E+03  0.29482141263E+03  0.93546088975E+02 0.  0.
          5    1    3    3  502    0  0.22546714106E+02  0.32730653907E+02 -0.93837679986E+01  0.41050913803E+02  0.41800000000E+01 0.  1.
         -5    1    3    3    0  502  0.37169797293E+02 -0.62914857037E+02  0.11295160397E+03  0.13459350024E+03  0.41800000000E+01 0.  1.
        -11    1    4    4    0    0 -0.31138862176E-01  0.17263773764E+02  0.72124312718E+00  0.17278861243E+02  0.00000000000E+00 0. -1.
         11    1    4    4    0    0 -0.59685372537E+02  0.12920429366E+02  0.27074081082E+03  0.27754255139E+03  0.00000000000E+00 0.  1.
</event>
<event>
 8    1  0.6380400E-009  0.1729735E+03  0.7561462E-02  0.1174782E+00
         -1   -1    0    0    0  501 -0.00000000000E+00  0.00000000000E+00  0.85717832491E+02  0.85717832491E+02  0.00000000000E+00 0.  1.
          1   -1    0    0  501    0  0.00000000000E+00 -0.00000000000E+00 -0.54936187346E+03  0.54936187346E+03  0.00000000000E+00 0. -1.
         25    2    1    2    0    0  0.14345721791E+03 -0.92400754763E+02 -0.35881238998E+03  0.41654125819E+03  0.12506964348E+03 0.  0.
         23    2    1    2    0    0 -0.14345721791E+03  0.92400754763E+02 -0.10483165098E+03  0.21853844775E+03  0.87472882926E+02 0.  0.
          5    1    3    3  502    0  0.25598535000E+02 -0.35677277974E+02 -0.22534288823E+03  0.22961934334E+03  0.41800000000E+01 0.  1.
         -5    1    3    3    0  502  0.11785868291E+03 -0.56723476788E+02 -0.13346950175E+03  0.18692191486E+03  0.41800000000E+01 0.  1.
        -11    1    4    4    0    0 -0.56427990555E+02  0.42593236542E+02  0.36742147593E+01  0.70794080058E+02  0.00000000000E+00 0.  1.
         11    1    4    4    0    0 -0.87029227354E+02  0.49807518221E+02 -0.10850586574E+03  0.14774436769E+03  0.00000000000E+00 0. -1.
</event>
<event>
 8    1  0.6380400E-009  0.9824480E+02  0.7561462E-02  0.1284031E+00
          2   -1    0    0  501    0  0.00000000000E+00  0.00000000000E+00  0.13227625172E+04  0.13227625172E+04  0.00000000000E+00 0. -1.
         -2   -1    0    0    0  501 -0.00000000000E+00 -0.00000000000E+00 -0.31049254109E+02  0.31049254109E+02  0.00000000000E+00 0.  1.
         25    2    1    2    0    0  0.58858472884E+02  0.58041763950E+02  0.11745042243E+04  0.11840371809E+04  0.12510278486E+03 0.  0.
         23    2    1    2    0    0 -0.58858472884E+02 -0.58041763950E+02  0.11720903879E+03  0.16977459035E+03  0.90842096874E+02 0.  0.
          5    1    3    3  502    0  0.47300565613E+02  0.33273619212E+01  0.13728889748E+03  0.14530701503E+03  0.41800000000E+01 0. -1.
         -5    1    3    3    0  502  0.11557907271E+02  0.54714402029E+02  0.10372153268E+04  0.10387301659E+04  0.41800000000E+01 0. -1.
        -11    1    4    4    0    0 -0.32397525997E+02 -0.40068303436E+01  0.10286729839E+03  0.10792282177E+03  0.00000000000E+00 0. -1.
         11    1    4    4    0    0 -0.26460946886E+02 -0.54034933606E+02  0.14341740397E+02  0.61851768589E+02  0.00000000000E+00 0.  1.
</event>
<event>
 8    1  0.6380400E-009  0.1687374E+03  0.7561462E-02  0.1179171E+00
          2   -1    0    0  501    0  0.00000000000E+00  0.00000000000E+00  0.21753746744E+03  0.21753746744E+03  0.00000000000E+00 0. -1.
         -2   -1    0    0    0  501 -0.00000000000E+00 -0.00000000000E+00 -0.14623015594E+03  0.14623015594E+03  0.00000000000E+00 0.  1.
         25    2    1    2    0    0  0.13858721189E+02  0.13611967150E+03 -0.14527709930E+01  0.18539346895E+03  0.12509196083E+03 0.  0.
         23    2    1    2    0    0 -0.13858721189E+02 -0.13611967150E+03  0.72760082498E+02  0.17837415443E+03  0.88332781252E+02 0.  0.
          5    1    3    3  502    0 -0.47374080831E+02  0.31220803019E+02 -0.24068789148E+02  0.61772332697E+02  0.41800000000E+01 0. -1.
         -5    1    3    3    0  502  0.61232802020E+02  0.10489886848E+03  0.22616018155E+02  0.12362113625E+03  0.41800000000E+01 0. -1.
        -11    1    4    4    0    0  0.33277919061E+02 -0.40302940092E+02  0.64141070061E+01  0.52658215369E+02  0.00000000000E+00 0. -1.
         11    1    4    4    0    0 -0.47136640251E+02 -0.95816731404E+02  0.66345975492E+02  0.12571593907E+03  0.00000000000E+00 0.  1.
</event>
<event>
 8    1  0.6380400E-009  0.1663574E+03  0.7561462E-02  0.1181701E+00
         -2   -1    0    0    0  501 -0.00000000000E+00  0.00000000000E+00  0.31113555268E+02  0.31113555268E+02  0.00000000000E+00 0.  1.
          2   -1    0    0  501    0  0.00000000000E+00 -0.00000000000E+00 -0.11554893027E+04  0.11554893027E+04  0.00000000000E+00 0. -1.
         25    2    1    2    0    0  0.11823960878E+03 -0.64741207201E+02 -0.83205967296E+03  0.85214028119E+03  0.12509088881E+03 0.  0.
         23    2    1    2    0    0 -0.11823960878E+03  0.64741207201E+02 -0.29231607442E+03  0.33446257673E+03  0.90799222853E+02 0.  0.
          5    1    3    3  502    0 -0.71921824209E+01 -0.53880777277E+02 -0.18211501673E+03  0.19010054541E+03  0.41800000000E+01 0. -1.
         -5    1    3    3    0  502  0.12543179121E+03 -0.10860429924E+02 -0.64994465624E+03  0.66203973578E+03  0.41800000000E+01 0. -1.
        -11    1    4    4    0    0 -0.12709215016E+03  0.53442249060E+02 -0.21209830354E+03  0.25297070775E+03  0.00000000000E+00 0.  1.
         11    1    4    4    0    0  0.88525413735E+01  0.11298958140E+02 -0.80217770879E+02  0.81491868973E+02  0.00000000000E+00 0. -1.
</event>
<event>
 8    1  0.6380400E-009  0.9608310E+02  0.7561462E-02  0.1288755E+00
          1   -1    0    0  501    0  0.00000000000E+00  0.00000000000E+00  0.52453445684E+02  0.52453445684E+02  0.00000000000E+00 0. -1.
         -1   -1    0    0    0  501 -0.00000000000E+00 -0.00000000000E+00 -0.38147910906E+03  0.38147910906E+03  0.00000000000E+00 0.  1.
         25    2    1    2    0    0  0.17898424385E+02 -0.91252031900E+02 -0.17523036729E+03  0.23451231192E+03  0.12507220275E+03 0.  0.
         23    2    1    2    0    0 -0.17898424385E+02  0.91252031900E+02 -0.15379529609E+03  0.19942024282E+03  0.86418477352E+02 0.  0.
          5    1    3    3  502    0  0.84176660847E+01 -0.78968626333E+02 -0.19408065033E+03  0.20974191827E+03  0.41800000000E+01 0. -1.
         -5    1    3    3    0  502  0.94807583007E+01 -0.12283405567E+02  0.18850283048E+02  0.24770393643E+02  0.41800000000E+01 0. -1.
        -11    1    4    4    0    0  0.35462385543E+01  0.49558525026E+02 -0.14289238059E+03  0.15128402309E+03  0.00000000000E+00 0.  1.
         11    1    4    4    0    0 -0.21444662940E+02  0.41693506873E+02 -0.10902915495E+02  0.48136219734E+02  0.00000000000E+00 0. -1.
</event>
<event>
 8    1  0.6380400E-009  0.1082221E+03  0.7561462E-02  0.1263898E+00
          1   -1    0    0  501    0  0.00000000000E+00  0.00000000000E+00  0.31245749282E+02  0.31245749282E+02  0.00000000000E+00 0. -1.
         -1   -1    0    0    0  501 -0.00000000000E+00 -0.00000000000E+00 -0.77090699021E+03  0.77090699021E+03  0.00000000000E+00 0.  1.
         25    2    1    2    0    0 -0.77979308014E+02  0.21262722452E+02 -0.60407303057E+03  0.62216128235E+03  0.12509020406E+03 0.  0.
         23    2    1    2    0    0  0.77979308014E+02 -0.21262722452E+02 -0.13558821035E+03  0.17999145714E+03  0.86486334244E+02 0.  0.
          5    1    3    3  502    0 -0.63364590303E+02 -0.97072264213E+01 -0.11383061030E+03  0.13070647188E+03  0.41800000000E+01 0. -1.
         -5    1    3    3    0  502 -0.14614717711E+02  0.30969948873E+02 -0.49024242027E+03  0.49145481048E+03  0.41800000000E+01 0. -1.
        -11    1    4    4    0    0  0.27291842513E+02 -0.51785429595E+02 -0.57869542638E+02  0.82313178478E+02  0.00000000000E+00 0.  1.
         11    1    4    4    0    0  0.50687465501E+02  0.30522707143E+02 -0.77718667714E+02  0.97678278657E+02  0.00000000000E+00 0. -1.
</event>
<event>
 8    1  0.6380400E-009  0.1029354E+03  0.7561462E-02  0.1274242E+00
          3   -1    0    0  501    0  0.00000000000E+00  0.00000000000E+00  0.87137908572E+02  0.87137908572E+02  0.00000000000E+00 0. -1.
         -3   -1    0    0    0  501 -0.00000000000E+00 -0.00000000000E+00 -0.15268934816E+03  0.15268934816E+03  0.00000000000E+00 0.  1.
         25    2    1    2    0    0 -0.19324040908E+02  0.20439325326E+02 -0.96533511895E+01  0.12857655395E+03  0.12509020130E+03 0.  0.
         23    2    1    2    0    0  0.19324040908E+02 -0.20439325326E+02 -0.55898088398E+02  0.11125070278E+03  0.91983357217E+02 0.  0.
          5    1    3    3  502    0 -0.42991680595E+01  0.64021745586E+02 -0.37617038086E+02  0.74496850324E+02  0.41800000000E+01 0. -1.
         -5    1    3    3    0  502 -0.15024872848E+02 -0.43582420260E+02  0.27963686897E+02  0.54079703630E+02  0.41800000000E+01 0. -1.
        -11    1    4    4    0    0  0.34698246908E+02  0.27919529692E+02 -0.18553596940E+02  0.48246289351E+02  0.00000000000E+00 0. -1.
         11    1    4    4    0    0 -0.15374206001E+02 -0.48358855018E+02 -0.37344491458E+02  0.63004413425E+02  0.00000000000E+00 0.  1.
</event>
<event>
 8    1  0.6380400E-009  0.7120763E+02  0.7561462E-02  0.1356034E+00
         -1   -1    0    0    0  501 -0.00000000000E+00  0.00000000000E+00  0.32642157872E+02  0.32642157872E+02  0.00000000000E+00 0.  1.
          1   -1    0    0  501    0  0.00000000000E+00 -0.00000000000E+00 -0.46282816221E+03  0.46282816221E+03  0.00000000000E+00 0. -1.
         25    2    1    2    0    0 -0.10240515704E+02 -0.11302732732E+02 -0.12823234450E+03  0.17978810459E+03  0.12509040111E+03 0.  0.
         23    2    1    2    0    0  0.10240515704E+02  0.11302732732E+02 -0.30195365984E+03  0.31568221549E+03  0.90810949536E+02 0.  0.
          5    1    3    3  502    0  0.88420818632E+00 -0.29340796075E+02  0.16174231238E+02  0.33774876678E+02  0.41800000000E+01 0. -1.
         -5    1    3    3    0  502 -0.11124723890E+02  0.18038063343E+02 -0.14440657573E+03  0.14601322792E+03  0.41800000000E+01 0. -1.
        -11    1    4    4    0    0 -0.22715104506E+02 -0.30439320547E+02 -0.10436258551E+03  0.11105889186E+03  0.00000000000E+00 0. -1.
         11    1    4    4    0    0  0.32955620210E+02  0.41742053279E+02 -0.19759107433E+03  0.20462332363E+03  0.00000000000E+00 0.  1.
</event>
<event>
 8    1  0.6380400E-009  0.1598475E+03  0.7561462E-02  0.1188869E+00
          1   -1    0    0  501    0  0.00000000000E+00  0.00000000000E+00  0.21566983284E+03  0.21566983284E+03  0.00000000000E+00 0. -1.
         -1   -1    0    0    0  501 -0.00000000000E+00 -0.00000000000E+00 -0.18115617097E+03  0.18115617097E+03  0.00000000000E+00 0.  1.
         25    2    1    2    0    0 -0.39591915366E+02 -0.97467620054E+02 -0.94880795460E+02  0.18899076898E+03  0.12509072184E+03 0.  0.
         23    2    1    2    0    0  0.39591915366E+02  0.97467620054E+02  0.12939445733E+03  0.20783523483E+03  0.12403669830E+03 0.  0.
          5    1    3    3  502    0  0.40445786373E+02 -0.64974138978E+02 -0.50455549568E+02  0.91764564258E+02  0.41800000000E+01 0. -1.
         -5    1    3    3    0  502 -0.80037701739E+02 -0.32493481076E+02 -0.44425245892E+02  0.97226204722E+02  0.41800000000E+01 0. -1.
        -11    1    4    4    0    0 -0.26732511454E+02  0.84964679212E+02  0.10085636318E+03  0.13455716212E+03  0.00000000000E+00 0.  1.
         11    1    4    4    0    0  0.66324426820E+02  0.12502940842E+02  0.28538094149E+02  0.73278072711E+02  0.00000000000E+00 0. -1.
</event>
<event>
 8    1  0.6380400E-009  0.1373421E+03  0.7561462E-02  0.1216951E+00
          1   -1    0    0  501    0  0.00000000000E+00  0.00000000000E+00  0.37385497055E+03  0.37385497055E+03  0.00000000000E+00 0. -1.
         -1   -1    0    0    0  501 -0.00000000000E+00 -0.00000000000E+00 -0.68129556599E+02  0.68129556599E+02  0.00000000000E+00 0.  1.
         25    2    1    2    0    0  0.83970708797E+02  0.80319518999E+02  0.15645998250E+03  0.23158050010E+03  0.12508995498E+03 0.  0.
         23    2    1    2    0    0 -0.83970708797E+02 -0.80319518999E+02  0.14926543145E+03  0.21040402705E+03  0.92126980321E+02 0.  0.
          5    1    3    3  502    0  0.34042965991E+02  0.86300706830E+02  0.15549189131E+03  0.18111304812E+03  0.41800000000E+01 0.  1.
         -5    1    3    3    0  502  0.49927742806E+02 -0.59811878311E+01  0.96809118523E+00  0.50467451987E+02  0.41800000000E+01 0.  1.
        -11    1    4    4    0    0 -0.17012809211E+02  0.93781119686E+01  0.71541485332E+02  0.74132103605E+02  0.00000000000E+00 0. -1.
         11    1    4    4    0    0 -0.66957899586E+02 -0.89697630968E+02  0.77723946117E+02  0.13627192344E+03  0.00000000000E+00 0.  1.
</event>
<event>
 8    1  0.6380400E-009  0.1226835E+03  0.7561462E-02  0.1238735E+00
          2   -1    0    0  501    0  0.00000000000E+00  0.00000000000E+00  0.34687969023E+02  0.34687969023E+02  0.00000000000E+00 0.  1.
         -2   -1    0    0    0  501 -0.00000000000E+00 -0.00000000000E+00 -0.56723710320E+03  0.56723710320E+03  0.00000000000E+00 0. -1.
         25    2    1    2    0    0 -0.52943820831E+02 -0.43739784197E+02 -0.40943993480E+03  0.43359421990E+03  0.12508665173E+03 0.  0.
         23    2    1    2    0    0  0.52943820831E+02  0.43739784197E+02 -0.12310919938E+03  0.16833085233E+03  0.91995565033E+02 0.  0.
          5    1    3    3  502    0 -0.81672355600E+02  0.91954284433E+01 -0.23172138393E+03  0.24590079655E+03  0.41800000000E+01 0. -1.
         -5    1    3    3    0  502  0.28728534769E+02 -0.52935212641E+02 -0.17771855087E+03  0.18769342335E+03  0.41800000000E+01 0. -1.
        -11    1    4    4    0    0 -0.18883321235E+02  0.55926436463E+00  0.60615349299E+00  0.18901323222E+02  0.00000000000E+00 0.  1.
         11    1    4    4    0    0  0.71827142066E+02  0.43180519833E+02 -0.12371535288E+03  0.14942952910E+03  0.00000000000E+00 0. -1.
</event>
<event>
 8    1  0.6380400E-009  0.1213865E+03  0.7561462E-02  0.1240827E+00
         -1   -1    0    0    0  501 -0.00000000000E+00  0.00000000000E+00  0.31755039496E+02  0.31755039496E+02  0.00000000000E+00 0.  1.
          1   -1    0    0  501    0  0.00000000000E+00 -0.00000000000E+00 -0.52181359914E+03  0.52181359914E+03  0.00000000000E+00 0. -1.
         25    2    1    2    0    0  0.17584083808E+02 -0.59736214354E+02 -0.32865318472E+03  0.35711886906E+03  0.12507340048E+03 0.  0.
         23    2    1    2    0    0 -0.17584083808E+02  0.59736214354E+02 -0.16140537492E+03  0.19644976957E+03  0.93076321376E+02 0.  0.
          5    1    3    3  502    0 -0.23043196459E+02  0.31742453500E+02 -0.98675802752E+02  0.10626833351E+03  0.41800000000E+01 0.  1.
         -5    1    3    3    0  502  0.40627280267E+02 -0.91478667853E+02 -0.22997738197E+03  0.25085053556E+03  0.41800000000E+01 0.  1.
        -11    1    4    4    0    0  0.15290409400E+00 -0.20738114625E+02 -0.71701591390E+02  0.74640545187E+02  0.00000000000E+00 0. -1.
         11    1    4    4    0    0 -0.17736987902E+02  0.80474328979E+02 -0.89703783534E+02  0.12180922438E+03  0.00000000000E+00 0.  1.
</event>
<event>
 8    1  0.6380400E-009  0.1075645E+03  0.7561462E-02  0.1265148E+00
          1   -1    0    0  501    0  0.00000000000E+00  0.00000000000E+00  0.18450470747E+03  0.18450470747E+03  0.00000000000E+00 0. -1.
         -1   -1    0    0    0  501 -0.00000000000E+00 -0.00000000000E+00 -0.86063519087E+02  0.86063519087E+02  0.00000000000E+00 0.  1.
         25    2    1    2    0    0  0.22209625033E+02  0.49235612512E+02  0.78507452360E+01  0.13648097843E+03  0.12509200730E+03 0.  0.
         23    2    1    2    0    0 -0.22209625033E+02 -0.49235612512E+02  0.90590443146E+02  0.13408724812E+03  0.82797033379E+02 0.  0.
          5    1    3    3  502    0  0.59136726697E+02 -0.89446377843E+01 -0.18256224282E+02  0.62673129127E+02  0.41800000000E+01 0. -1.
         -5    1    3    3    0  502 -0.36927101664E+02  0.58180250297E+02  0.26106969518E+02  0.73807849307E+02  0.41800000000E+01 0. -1.
        -11    1    4    4    0    0  0.19952934954E+02 -0.37327101607E+02  0.11807294032E+02  0.43941373670E+02  0.00000000000E+00 0.  1.
         11    1    4    4    0    0 -0.42162559987E+02 -0.11908510906E+02  0.78783149114E+02  0.90145874454E+02  0.00000000000E+00 0. -1.
</event>
<event>
 8    1  0.6380400E-009  0.1050424E+03  0.7561462E-02  0.1270036E+00
         -2   -1    0    0    0  501 -0.00000000000E+00  0.00000000000E+00  0.81256182507E+02  0.81256182507E+02  0.00000000000E+00 0.  1.
          2   -1    0    0  501    0  0.00000000000E+00 -0.00000000000E+00 -0.18170273268E+03  0.18170273268E+03  0.00000000000E+00 0. -1.
         25    2    1    2    0    0 -0.43073657577E+02 -0.40389888253E+02 -0.56543749049E+02  0.14943950951E+03  0.12509311890E+03 0.  0.
         23    2    1    2    0    0  0.43073657577E+02  0.40389888253E+02 -0.43902801123E+02  0.11351940567E+03  0.86443718496E+02 0.  0.
          5    1    3    3  502    0 -0.15495001884E+02  0.43011349436E+02 -0.19908200205E+01  0.45951137396E+02  0.41800000000E+01 0. -1.
         -5    1    3    3    0  502 -0.27578655693E+02 -0.83401237689E+02 -0.54552929028E+02  0.10348837212E+03  0.41800000000E+01 0. -1.
        -11    1    4    4    0    0  0.10748743041E+02 -0.11092081556E+02 -0.50089127496E+02  0.52416509265E+02  0.00000000000E+00 0. -1.
         11    1    4    4    0    0  0.32324914536E+02  0.51481969810E+02  0.61863263730E+01  0.61102896407E+02  0.00000000000E+00 0.  1.
</event>
<event>
 8    1  0.6380400E-009  0.1225539E+03  0.7561462E-02  0.1238942E+00
          2   -1    0    0  501    0  0.00000000000E+00  0.00000000000E+00  0.45732182924E+02  0.45732182924E+02  0.00000000000E+00 0. -1.
         -2   -1    0    0    0  501 -0.00000000000E+00 -0.00000000000E+00 -0.35453676924E+03  0.35453676924E+03  0.00000000000E+00 0.  1.
         25    2    1    2    0    0 -0.39449592222E+01 -0.66159950465E+02 -0.18132709232E+03  0.23004014409E+03  0.12508497806E+03 0.  0.
         23    2    1    2    0    0  0.39449592222E+01  0.66159950465E+02 -0.12747749400E+03  0.17022880807E+03  0.91294215993E+02 0.  0.
          5    1    3    3  502    0 -0.89608870085E+01  0.33596197109E+02 -0.20226556861E+02  0.40442402977E+02  0.41800000000E+01 0.  1.
         -5    1    3    3    0  502  0.50159277864E+01 -0.99756147574E+02 -0.16110053546E+03  0.18959774111E+03  0.41800000000E+01 0.  1.
        -11    1    4    4    0    0  0.29595779300E+02  0.76831801886E+02 -0.77625867075E+02  0.11315834557E+03  0.00000000000E+00 0. -1.
         11    1    4    4    0    0 -0.25650820078E+02 -0.10671851421E+02 -0.49851626920E+02  0.57070462500E+02  0.00000000000E+00 0.  1.
</event>
<event>
 8    1  0.6380400E-009  0.3168523E+03  0.7561462E-02  0.1077107E+00
          1   -1    0    0  501    0  0.00000000000E+00  0.00000000000E+00  0.29044994390E+03  0.29044994390E+03  0.00000000000E+00 0. -1.
         -1   -1    0    0    0  501 -0.00000000000E+00 -0.00000000000E+00 -0.39213393813E+03  0.39213393813E+03  0.00000000000E+00 0.  1.
         25    2    1    2    0    0  0.25649218301E+02 -0.30642982055E+03  0.35726205284E+02  0.33388740135E+03  0.12508923902E+03 0.  0.
         23    2    1    2    0    0 -0.25649218301E+02  0.30642982055E+03 -0.13741019951E+03  0.34869648068E+03  0.90280426394E+02 0.  0.
          5    1    3    3  502    0 -0.11987798512E+02 -0.26309706103E+03 -0.48924527444E+01  0.26344862750E+03  0.41800000000E+01 0. -1.
         -5    1    3    3    0  502  0.37637016813E+02 -0.43332759511E+02  0.40618658029E+02  0.70438773850E+02  0.41800000000E+01 0. -1.
        -11    1    4    4    0    0 -0.38505446853E+02  0.28623850333E+03 -0.10270012795E+03  0.30653297785E+03  0.00000000000E+00 0. -1.
         11    1    4    4    0    0  0.12856228551E+02  0.20191317215E+02 -0.34710071561E+02  0.42163502834E+02  0.00000000000E+00 0.  1.
</event>
<event>
 8    1  0.6380400E-009  0.1516260E+03  0.7561462E-02  0.1198489E+00
          1   -1    0    0  501    0  0.00000000000E+00  0.00000000000E+00  0.66553246790E+03  0.66553246790E+03  0.00000000000E+00 0. -1.
         -1   -1    0    0    0  501 -0.00000000000E+00 -0.00000000000E+00 -0.39043261762E+02  0.39043261762E+02  0.00000000000E+00 0.  1.
         25    2    1    2    0    0  0.96977179405E+02  0.53633304402E+02  0.23976059612E+03  0.29225615294E+03  0.12508961114E+03 0.  0.
         23    2    1    2    0    0 -0.96977179405E+02 -0.53633304402E+02  0.38672861002E+03  0.41231957672E+03  0.90373175632E+02 0.  0.
          5    1    3    3  502    0 -0.25570732909E+02  0.32138066670E+02  0.44613623405E+02  0.60782937607E+02  0.41800000000E+01 0. -1.
         -5    1    3    3    0  502  0.12254791231E+03  0.21495237732E+02  0.19514697272E+03  0.23147321534E+03  0.41800000000E+01 0. -1.
        -11    1    4    4    0    0 -0.38287890517E+02 -0.67110447849E+02  0.27183360744E+03  0.28260092870E+03  0.00000000000E+00 0. -1.
         11    1    4    4    0    0 -0.58689288888E+02  0.13477143448E+02  0.11489500258E+03  0.12971864802E+03  0.00000000000E+00 0.  1.
</event>
<event>
 8    1  0.6380400E-009  0.9775911E+02  0.7561462E-02  0.1285080E+00
          2   -1    0    0  501    0  0.00000000000E+00  0.00000000000E+00  0.16824038120E+03  0.16824038120E+03  0.00000000000E+00 0. -1.
         -2   -1    0    0    0  501 -0.00000000000E+00 -0.00000000000E+00 -0.14607186979E+03  0.14607186979E+03  0.00000000000E+00 0.  1.
         25    2    1    2    0    0  0.16234593090E+02 -0.90640267530E+02 -0.54052689381E+02  0.16445912911E+03  0.12508353931E+03 0.  0.
         23    2    1    2    0    0 -0.16234593090E+02  0.90640267530E+02  0.76221200791E+02  0.14985312188E+03  0.90371824015E+02 0.  0.
          5    1    3    3  502    0  0.17629038941E+02 -0.88638844458E+02  0.17999413944E+02  0.92244669565E+02  0.41800000000E+01 0. -1.
         -5    1    3    3    0  502 -0.13944458511E+01 -0.20014230724E+01 -0.72052103326E+02  0.72214459544E+02  0.41800000000E+01 0. -1.
        -11    1    4    4    0    0  0.87461458135E+01  0.60184803442E+02 -0.35146271189E+01  0.60918455625E+02  0.00000000000E+00 0.  1.
         11    1    4    4    0    0 -0.24980738903E+02  0.30455464088E+02  0.79735827910E+02  0.88934666252E+02  0.00000000000E+00 0. -1.
</event>
<event>
 8    1  0.6380400E-009  0.1909147E+03  0.7561462E-02  0.1157639E+00
         -2   -1    0    0    0  501 -0.00000000000E+00  0.00000000000E+00  0.69905440003E+02  0.69905440003E+02  0.00000000000E+00 0.  1.
          2   -1    0    0  501    0  0.00000000000E+00 -0.00000000000E+00 -0.11460146864E+04  0.11460146864E+04  0.00000000000E+00 0. -1.
         25    2    1    2    0    0  0.86240737652E+02  0.13624137540E+03 -0.99060303674E+03  0.10114054553E+04  0.12508973356E+03 0.  0.
         23    2    1    2    0    0 -0.86240737652E+02 -0.13624137540E+03 -0.85506209627E+02  0.20451467106E+03  0.92280884214E+02 0.  0.
          5    1    3    3  502    0  0.40052805795E+02  0.14806148005E+03 -0.67693597315E+03  0.69410821439E+03  0.41800000000E+01 0. -1.
         -5    1    3    3    0  502  0.46187931857E+02 -0.11820104652E+02 -0.31366706359E+03  0.31729724093E+03  0.41800000000E+01 0. -1.
        -11    1    4    4    0    0 -0.10027620925E+03 -0.99784984561E+02 -0.85795833775E+02  0.16544874245E+03  0.00000000000E+00 0.  1.
         11    1    4    4    0    0  0.14035471595E+02 -0.36456390839E+02  0.28962414811E+00  0.39065928609E+02  0.00000000000E+00 0. -1.
</event>
<event>
 8    1  0.6380400E-009  0.8887089E+02  0.7561462E-02  0.1305609E+00
         -2   -1    0    0    0  501 -0.00000000000E+00  0.00000000000E+00  0.39938146920E+02  0.39938146920E+02  0.00000000000E+00 0.  1.
          2   -1    0    0  501    0  0.00000000000E+00 -0.00000000000E+00 -0.32708610357E+03  0.32708610357E+03  0.00000000000E+00 0. -1.
         25    2    1    2    0    0  0.10200128649E+02 -0.20255695522E+01 -0.11111245731E+03  0.16763699471E+03  0.12509211913E+03 0.  0.
         23    2    1    2    0    0 -0.10200128649E+02  0.20255695522E+01 -0.17603549934E+03  0.19938725578E+03  0.93051787650E+02 0.  0.
          5    1    3    3  502    0 -0.34338650108E+02  0.40760986972E+02 -0.85083375868E+02  0.10048509441E+03  0.41800000000E+01 0.  1.
         -5    1    3    3    0  502  0.44538778756E+02 -0.42786556524E+02 -0.26029081445E+02  0.67151900295E+02  0.41800000000E+01 0. -1.
        -11    1    4    4    0    0 -0.11324136728E+02  0.31195458553E+02 -0.16240725988E+02  0.36947988952E+02  0.00000000000E+00 0.  1.
         11    1    4    4    0    0  0.11240080796E+01 -0.29169889000E+02 -0.15979477335E+03  0.16243926683E+03  0.00000000000E+00 0. -1.
</event>
<event>
 8    1  0.6380400E-009  0.1049374E+03  0.7561462E-02  0.1270243E+00
         -2   -1    0    0    0  501 -0.00000000000E+00  0.00000000000E+00  0.23628092778E+03  0.23628092778E+03  0.00000000000E+00 0.  1.
          2   -1    0    0  501    0  0.00000000000E+00 -0.00000000000E+00 -0.56679746731E+02  0.56679746731E+02  0.00000000000E+00 0. -1.
         25    2    1    2    0    0 -0.15114087849E+02 -0.10723376234E+02  0.14858609078E+03  0.19511045748E+03  0.12508732068E+03 0.  0.
         23    2    1    2    0    0  0.15114087849E+02  0.10723376234E+02  0.31015090272E+02  0.97850217036E+02  0.90935706409E+02 0.  0.
          5    1    3    3  502    0  0.50488735922E+02 -0.22095417257E+02  0.93412176681E+02  0.10853859715E+03  0.41800000000E+01 0.  1.
         -5    1    3    3    0  502 -0.65602823772E+02  0.11372041023E+02  0.55173914098E+02  0.86571860329E+02  0.41800000000E+01 0.  1.
        -11    1    4    4    0    0  0.19823271081E+01  0.48169622827E+02  0.32497318450E+02  0.58140501293E+02  0.00000000000E+00 0.  1.
         11    1    4    4    0    0  0.13131760741E+02 -0.37446246593E+02 -0.14822281780E+01  0.39709715744E+02  0.00000000000E+00 0. -1.
</event>
<event>
 8    1  0.6380400E-009  0.8865206E+02  0.7561462E-02  0.1306149E+00
          2   -1    0    0  501    0  0.00000000000E+00  0.00000000000E+00  0.16241026023E+03  0.16241026023E+03  0.00000000000E+00 0. -1.
         -2   -1    0    0    0  501 -0.00000000000E+00 -0.00000000000E+00 -0.71602342777E+02  0.71602342777E+02  0.00000000000E+00 0.  1.
         25    2    1    2    0    0 -0.73916169610E+01 -0.16145684819E+02  0.54445581288E+02  0.13757340082E+03  0.12508717021E+03 0.  0.
         23    2    1    2    0    0  0.73916169610E+01  0.16145684819E+02  0.36362336168E+02  0.96439202187E+02  0.87538454906E+02 0.  0.
          5    1    3    3  502    0 -0.38772289138E+02  0.19813327543E+02 -0.20749094119E+02  0.48413383068E+02  0.41800000000E+01 0. -1.
         -5    1    3    3    0  502  0.31380672177E+02 -0.35959012362E+02  0.75194675407E+02  0.89160017754E+02  0.41800000000E+01 0. -1.
        -11    1    4    4    0    0  0.43876252120E+02  0.21357959307E+02  0.69591677244E+01  0.49292169168E+02  0.00000000000E+00 0.  1.
         11    1    4    4    0    0 -0.36484635159E+02 -0.52122744878E+01  0.29403168443E+02  0.47147033019E+02  0.00000000000E+00 0. -1.
</event>
<event>
 8    1  0.6380400E-009  0.5722635E+02  0.7561462E-02  0.1409854E+00
         -1   -1    0    0    0  501 -0.00000000000E+00  0.00000000000E+00  0.74960857459E+02  0.74960857459E+02  0.00000000000E+00 0.  1.
          1   -1    0    0  501    0  0.00000000000E+00 -0.00000000000E+00 -0.19568749062E+03  0.19568749062E+03  0.00000000000E+00 0. -1.
         25    2    1    2    0    0  0.40134408943E+02 -0.23529607953E+02 -0.96886593483E+02  0.16492134940E+03  0.12509047230E+03 0.  0.
         23    2    1    2    0    0 -0.40134408943E+02  0.23529607953E+02 -0.23840039682E+02  0.10572699868E+03  0.91899061621E+02 0.  0.
          5    1    3    3  502    0  0.22492113115E+02 -0.35503439072E+02 -0.12352463331E+03  0.13054576505E+03  0.41800000000E+01 0. -1.
         -5    1    3    3    0  502  0.17642295828E+02  0.11973831119E+02  0.26638039825E+02  0.34375584351E+02  0.41800000000E+01 0. -1.
        -11    1    4    4    0    0 -0.13447700216E+02 -0.19545282414E+01  0.34284142008E+02  0.36879034898E+02  0.00000000000E+00 0.  1.
         11    1    4    4    0    0 -0.26686708727E+02  0.25484136194E+02 -0.58124181690E+02  0.68847963785E+02  0.00000000000E+00 0. -1.
</event>
<event>
 8    1  0.6380400E-009  0.7296590E+02  0.7561462E-02  0.1350288E+00
         -1   -1    0    0    0  501 -0.00000000000E+00  0.00000000000E+00  0.51986382490E+03  0.51986382490E+03  0.00000000000E+00 0.  1.
          1   -1    0    0  501    0  0.00000000000E+00 -0.00000000000E+00 -0.44775581035E+02  0.44775581035E+02  0.00000000000E+00 0. -1.
         25    2    1    2    0    0  0.50019567396E+02 -0.32574890546E+02  0.42113316023E+03  0.44335469563E+03  0.12508863605E+03 0.  0.
         23    2    1    2    0    0 -0.50019567396E+02  0.32574890546E+02  0.53955083628E+02  0.12128471031E+03  0.90751029129E+02 0.  0.
          5    1    3    3  502    0  0.50671929471E+02 -0.15887979131E+02  0.54118520016E+02  0.75936545391E+02  0.41800000000E+01 0.  1.
         -5    1    3    3    0  502 -0.65236207462E+00 -0.16686911416E+02  0.36701464022E+03  0.36741815024E+03  0.41800000000E+01 0.  1.
        -11    1    4    4    0    0 -0.33903996127E+00  0.25224761963E+02  0.65121448145E+02  0.69837000026E+02  0.00000000000E+00 0.  1.
         11    1    4    4    0    0 -0.49680527435E+02  0.73501285834E+01 -0.11166364517E+02  0.51447710279E+02  0.00000000000E+00 0. -1.
</event>
<event>
 8    1  0.6380400E-009  0.1159200E+03  0.7561462E-02  0.1249984E+00
         -2   -1    0    0    0  501 -0.00000000000E+00  0.00000000000E+00  0.14431159211E+02  0.14431159211E+02  0.00000000000E+00 0.  1.
          2   -1    0    0  501    0  0.00000000000E+00 -0.00000000000E+00 -0.11165001915E+04  0.11165001915E+04  0.00000000000E+00 0. -1.
         25    2    1    2    0    0  0.11715251257E+02 -0.53244800987E+02 -0.77591247473E+03  0.78781944407E+03  0.12508817714E+03 0.  0.
         23    2    1    2    0    0 -0.11715251257E+02  0.53244800987E+02 -0.32615655754E+03  0.34311190663E+03  0.91517345347E+02 0.  0.
          5    1    3    3  502    0  0.63434006482E+02 -0.31786224595E+02 -0.28598162584E+03  0.29468152296E+03  0.41800000000E+01 0. -1.
         -5    1    3    3    0  502 -0.51718755225E+02 -0.21458576392E+02 -0.48993084889E+03  0.49313792111E+03  0.41800000000E+01 0. -1.
        -11    1    4    4    0    0 -0.50342948465E+02  0.22032274224E+02 -0.20333752594E+03  0.21063234087E+03  0.00000000000E+00 0. -1.
         11    1    4    4    0    0  0.38627697209E+02  0.31212526763E+02 -0.12281903160E+03  0.13247956575E+03  0.00000000000E+00 0.  1.
</event>
<event>
 8    1  0.6380400E-009  0.1273829E+03  0.7561462E-02  0.1231392E+00
         -3   -1    0    0    0  501 -0.00000000000E+00  0.00000000000E+00  0.89358698274E+03  0.89358698274E+03  0.00000000000E+00 0.  1.
          3   -1    0    0  501    0  0.00000000000E+00 -0.00000000000E+00 -0.19702966400E+02  0.19702966400E+02  0.00000000000E+00 0. -1.
         25    2    1    2    0    0  0.49697005596E+02 -0.45257822440E+02  0.60787716173E+03  0.62424324064E+03  0.12508763678E+03 0.  0.
         23    2    1    2    0    0 -0.49697005596E+02  0.45257822440E+02  0.26600685461E+03  0.28904670850E+03  0.90941135568E+02 0.  0.
          5    1    3    3  502    0 -0.41699283308E+02 -0.68942515028E+01  0.16350434670E+03  0.16893047304E+03  0.41800000000E+01 0. -1.
         -5    1    3    3    0  502  0.91396288905E+02 -0.38363570937E+02  0.44437281503E+03  0.45531276760E+03  0.41800000000E+01 0. -1.
        -11    1    4    4    0    0  0.79844828406E+01 -0.22632211966E+02  0.56000641299E+02  0.60926519764E+02  0.00000000000E+00 0.  1.
         11    1    4    4    0    0 -0.57681488437E+02  0.67890034405E+02  0.21000621331E+03  0.22812018874E+03  0.00000000000E+00 0. -1.
</event>
<event>
 8    1  0.6380400E-009  0.1341685E+03  0.7561462E-02  0.1221398E+00
          1   -1    0    0  501    0  0.00000000000E+00  0.00000000000E+00  0.36355386667E+03  0.36355386667E+03  0.00000000000E+00 0. -1.
         -1   -1    0    0    0  501 -0.00000000000E+00 -0.00000000000E+00 -0.59854895981E+02  0.59854895981E+02  0.00000000000E+00 0.  1.
         25    2    1    2    0    0 -0.50843545570E+02  0.85608227354E+02  0.17955184379E+03  0.24042199770E+03  0.12510011053E+03 0.  0.
         23    2    1    2    0    0  0.50843545570E+02 -0.85608227354E+02  0.12414712691E+03  0.18298676495E+03  0.90320608458E+02 0.  0.
          5    1    3    3  502    0 -0.71818247764E+02  0.36873733702E+02  0.38254354289E+02  0.89433779810E+02  0.41800000000E+01 0. -1.
         -5    1    3    3    0  502  0.20974702194E+02  0.48734493652E+02  0.14129748950E+03  0.15098821789E+03  0.41800000000E+01 0. -1.
        -11    1    4    4    0    0  0.30985473595E+02  0.13063379275E+02  0.27363941895E+02  0.43353624624E+02  0.00000000000E+00 0.  1.
         11    1    4    4    0    0  0.19858071975E+02 -0.98671606629E+02  0.96783185011E+02  0.13963314033E+03  0.00000000000E+00 0. -1.
</event>
<event>
 8    1  0.6380400E-009  0.6706135E+02  0.7561462E-02  0.1370381E+00
          1   -1    0    0  501    0  0.00000000000E+00  0.00000000000E+00  0.10728566457E+04  0.10728566457E+04  0.00000000000E+00 0. -1.
         -1   -1    0    0    0  501 -0.00000000000E+00 -0.00000000000E+00 -0.17086657925E+02  0.17086657925E+02  0.00000000000E+00 0.  1.
         25    2    1    2    0    0 -0.19464698232E+02 -0.34100807741E+02  0.85035642725E+03  0.86040411760E+03  0.12508977839E+03 0.  0.
         23    2    1    2    0    0  0.19464698232E+02  0.34100807741E+02  0.20541356055E+03  0.22953918605E+03  0.94613780748E+02 0.  0.
          5    1    3    3  502    0 -0.11958585517E+02 -0.31532488079E+01  0.80344619141E+03  0.80355224201E+03  0.41800000000E+01 0.  1.
         -5    1    3    3    0  502 -0.75061127145E+01 -0.30947558933E+02  0.46910235837E+02  0.56851875591E+02  0.41800000000E+01 0.  1.
        -11    1    4    4    0    0 -0.31186340995E+02  0.16815011193E+02  0.30929276928E+02  0.47031400546E+02  0.00000000000E+00 0.  1.
         11    1    4    4    0    0  0.50651039227E+02  0.17285796548E+02  0.17448428362E+03  0.18250778550E+03  0.00000000000E+00 0. -1.
</event>
<event>
 8    1  0.6380400E-009  0.2676073E+03  0.7561462E-02  0.1102657E+00
         -1   -1    0    0    0  501 -0.00000000000E+00  0.00000000000E+00  0.81592635500E+02  0.81592635500E+02  0.00000000000E+00 0.  1.
          1   -1    0    0  501    0  0.00000000000E+00 -0.00000000000E+00 -0.14769879128E+04  0.14769879128E+04  0.00000000000E+00 0. -1.
         25    2    1    2    0    0 -0.11282425440E+03 -0.23429991117E+03 -0.25438789406E+03  0.38469008332E+03  0.12508996286E+03 0.  0.
         23    2    1    2    0    0  0.11282425440E+03  0.23429991117E+03 -0.11410073832E+04  0.11738904650E+04  0.92169487418E+02 0.  0.
          5    1    3    3  502    0 -0.88667039531E+02 -0.17214724113E+03 -0.10334957149E+03  0.21953387633E+03  0.41800000000E+01 0.  1.
         -5    1    3    3    0  502 -0.24157214865E+02 -0.62152670033E+02 -0.15103832257E+03  0.16515620699E+03  0.41800000000E+01 0.  1.
        -11    1    4    4    0    0  0.98311759205E+02  0.10215747223E+03 -0.53441650726E+03  0.55290356696E+03  0.00000000000E+00 0. -1.
         11    1    4    4    0    0  0.14512495191E+02  0.13214243894E+03 -0.60659087599E+03  0.62098689802E+03  0.00000000000E+00 0.  1.
</event>
<event>
 8    1  0.6380400E-009  0.9396722E+02  0.7561462E-02  0.1293519E+00
          3   -1    0    0  501    0  0.00000000000E+00  0.00000000000E+00  0.58929679129E+02  0.58929679129E+02  0.00000000000E+00 0. -1.
         -3   -1    0    0    0  501 -0.00000000000E+00 -0.00000000000E+00 -0.34009359262E+03  0.34009359262E+03  0.00000000000E+00 0.  1.
         25    2    1    2    0    0  0.43135255232E+02 -0.70920326087E+02 -0.19686974200E+03  0.24757766518E+03  0.12508661832E+03 0.  0.
         23    2    1    2    0    0 -0.43135255232E+02  0.70920326087E+02 -0.84294171486E+02  0.15144560657E+03  0.94551158146E+02 0.  0.
          5    1    3    3  502    0  0.22381283932E+02 -0.17315531842E+02  0.11912961417E+02  0.30986135014E+02  0.41800000000E+01 0. -1.
         -5    1    3    3    0  502  0.20753971300E+02 -0.53604794246E+02 -0.20878270342E+03  0.21659153016E+03  0.41800000000E+01 0. -1.
        -11    1    4    4    0    0 -0.15080993260E+02  0.72057352521E+02 -0.96040519466E+02  0.12101024663E+03  0.00000000000E+00 0.  1.
         11    1    4    4    0    0 -0.28054261971E+02 -0.11370264334E+01  0.11746347980E+02  0.30435359941E+02  0.00000000000E+00 0. -1.
</event>
<event>
 8    1  0.6380400E-009  0.1022214E+03  0.7561462E-02  0.1275693E+00
         -2   -1    0    0    0  501 -0.00000000000E+00  0.00000000000E+00  0.14161005047E+03  0.14161005047E+03  0.00000000000E+00 0.  1.
          2   -1    0    0  501    0  0.00000000000E+00 -0.00000000000E+00 -0.12779429375E+03  0.12779429375E+03  0.00000000000E+00 0. -1.
         25    2    1    2    0    0 -0.39450837022E+02  0.30827362617E+02 -0.45835413144E+02  0.14231569143E+03  0.12508467572E+03 0.  0.
         23    2    1    2    0    0  0.39450837022E+02 -0.30827362617E+02  0.59651169859E+02  0.12708865279E+03  0.10043191114E+03 0.  0.
          5    1    3    3  502    0  0.22395161007E+02 -0.36346279227E+02 -0.93778714288E+01  0.43909134844E+02  0.41800000000E+01 0.  1.
         -5    1    3    3    0  502 -0.61845998029E+02  0.67173641844E+02 -0.36457541716E+02  0.98406556584E+02  0.41800000000E+01 0.  1.
        -11    1    4    4    0    0  0.12057031363E+02 -0.39587077931E+02  0.81209496156E+02  0.91145438779E+02  0.00000000000E+00 0.  1.
         11    1    4    4    0    0  0.27393805659E+02  0.87597153142E+01 -0.21558326297E+02  0.35943214013E+02  0.00000000000E+00 0. -1.
</event>
<event>
 8    1  0.6380400E-009  0.1395399E+03  0.7561462E-02  0.1213949E+00
          2   -1    0    0  501    0  0.00000000000E+00  0.00000000000E+00  0.33945822583E+03  0.33945822583E+03  0.00000000000E+00 0.  1.
         -2   -1    0    0    0  501 -0.00000000000E+00 -0.00000000000E+00 -0.59768269161E+02  0.59768269161E+02  0.00000000000E+00 0. -1.
         25    2    1    2    0    0  0.49157385162E+02  0.76091958253E+02  0.17742665874E+03  0.23523207692E+03  0.12508987231E+03 0.  0.
         23    2    1    2    0    0 -0.49157385162E+02 -0.76091958253E+02  0.10226329792E+03  0.16399441806E+03  0.90719085242E+02 0.  0.
          5    1    3    3  502    0  0.26497739644E+02  0.10914608311E+03  0.11399787015E+03  0.16008742757E+03  0.41800000000E+01 0.  1.
         -5    1    3    3    0  502  0.22659645518E+02 -0.33054124861E+02  0.63428788588E+02  0.75144649358E+02  0.41800000000E+01 0.  1.
        -11    1    4    4    0    0 -0.72124516682E+02 -0.73994285240E+02  0.93402986614E+02  0.13928825529E+03  0.00000000000E+00 0. -1.
         11    1    4    4    0    0  0.22967131519E+02 -0.20976730126E+01  0.88603113112E+01  0.24706162770E+02  0.00000000000E+00 0.  1.
</event>
<event>
 8    1  0.6380400E-009  0.2029949E+03  0.7561462E-02  0.1147237E+00
          2   -1    0    0  501    0  0.00000000000E+00  0.00000000000E+00  0.77329776763E+03  0.77329776763E+03  0.00000000000E+00 0. -1.
         -2   -1    0    0    0  501 -0.00000000000E+00 -0.00000000000E+00 -0.56965350461E+02  0.56965350461E+02  0.00000000000E+00 0.  1.
         25    2    1    2    0    0 -0.13176735108E+03  0.12123074896E+03  0.35764425504E+03  0.41906503467E+03  0.12508621353E+03 0.  0.
         23    2    1    2    0    0  0.13176735108E+03 -0.12123074896E+03  0.35868816213E+03  0.41119808342E+03  0.91472055045E+02 0.  0.
          5    1    3    3  502    0 -0.74862154611E+01  0.69943716479E+02  0.19879183493E+03  0.21091190799E+03  0.41800000000E+01 0.  1.
         -5    1    3    3    0  502 -0.12428113562E+03  0.51287032483E+02  0.15885242011E+03  0.20815312668E+03  0.41800000000E+01 0.  1.
        -11    1    4    4    0    0  0.11788659449E+02 -0.69264703719E+02  0.12994338442E+03  0.14772222185E+03  0.00000000000E+00 0. -1.
         11    1    4    4    0    0  0.11997869163E+03 -0.51966045243E+02  0.22874477771E+03  0.26347586157E+03  0.00000000000E+00 0.  1.
</event>
<event>
 7    1  0.6380400E-009  0.7310890E+02  0.7561462E-02  0.1349829E+00
         -1   -1    0    0    0  501 -0.00000000000E+00  0.00000000000E+00  0.28136135385E+03  0.28136135385E+03  0.00000000000E+00 0.  1.
          1   -1    0    0  501    0  0.00000000000E+00 -0.00000000000E+00 -0.47635026201E+02  0.47635026201E+02  0.00000000000E+00 0. -1.
         23    2    1    2    0    0 -0.35256685034E+02 -0.10734694664E+02  0.13041942884E+03  0.16251972360E+03  0.89694847295E+02 0.  0.
          5    1    1    2  502    0 -0.38042403076E+01 -0.42102606103E+02  0.89691497092E+02  0.99242827125E+02  0.41800000000E+01 0.  1.
         -5    1    1    2    0  502  0.39060925342E+02  0.52837300767E+02  0.13615401708E+02  0.67233829317E+02  0.41800000000E+01 0.  1.
        -11    1    3    3    0    0 -0.13490051377E+02  0.29881487827E+00 -0.11980148419E+02  0.18044243753E+02  0.00000000000E+00 0. -1.
         11    1    3    3    0    0 -0.21766633657E+02 -0.11033509542E+02  0.14239957726E+03  0.14447547985E+03  0.00000000000E+00 0.  1.
</event>
<event>
 8    1  0.6380400E-009  0.9525794E+02  0.7561462E-02  0.1290596E+00
         -2   -1    0    0    0  501 -0.00000000000E+00  0.00000000000E+00  0.41693723238E+02  0.41693723238E+02  0.00000000000E+00 0.  1.
          2   -1    0    0  501    0  0.00000000000E+00 -0.00000000000E+00 -0.45695829659E+03  0.45695829659E+03  0.00000000000E+00 0. -1.
         25    2    1    2    0    0  0.19487828346E+02 -0.70301613282E+01 -0.80999175706E+02  0.15045492236E+03  0.12508644441E+03 0.  0.
         23    2    1    2    0    0 -0.19487828346E+02  0.70301613282E+01 -0.33426539765E+03  0.34819709747E+03  0.95282023499E+02 0.  0.
          5    1    3    3  502    0  0.20273931008E+01  0.44777362249E+02  0.81930598955E+01  0.45757197502E+02  0.41800000000E+01 0. -1.
         -5    1    3    3    0  502  0.17460435245E+02 -0.51807523578E+02 -0.89192235602E+02  0.10469772486E+03  0.41800000000E+01 0. -1.
        -11    1    4    4    0    0  0.34450214428E+02  0.12049801546E+02 -0.75966182367E+02  0.84278561063E+02  0.00000000000E+00 0.  1.
         11    1    4    4    0    0 -0.53938042774E+02 -0.50196402175E+01 -0.25829921528E+03  0.26391853641E+03  0.00000000000E+00 0. -1.
</event>
<event>
 8    1  0.6380400E-009  0.1353856E+03  0.7561462E-02  0.1219676E+00
         -1   -1    0    0    0  501 -0.00000000000E+00  0.00000000000E+00  0.10334210031E+03  0.10334210031E+03  0.00000000000E+00 0.  1.
          1   -1    0    0  501    0  0.00000000000E+00 -0.00000000000E+00 -0.28434186153E+03  0.28434186153E+03  0.00000000000E+00 0. -1.
         25    2    1    2    0    0 -0.11002497625E+03 -0.70569520182E+02 -0.69839106981E+02  0.19392993021E+03  0.12508302998E+03 0.  0.
         23    2    1    2    0    0  0.11002497625E+03  0.70569520182E+02 -0.11116065424E+03  0.19375403163E+03  0.89991005915E+02 0.  0.
          5    1    3    3  502    0 -0.20583152364E+02 -0.40467790178E+02 -0.86714696497E+02  0.97970501641E+02  0.41800000000E+01 0.  1.
         -5    1    3    3    0  502 -0.89441823887E+02 -0.30101730004E+02  0.16875589516E+02  0.95959428567E+02  0.41800000000E+01 0.  1.
        -11    1    4    4    0    0  0.32695448533E+02  0.20590281801E+02 -0.91891470904E+02  0.99684474640E+02  0.00000000000E+00 0. -1.
         11    1    4    4    0    0  0.77329527717E+02  0.49979238381E+02 -0.19269183332E+02  0.94069556991E+02  0.00000000000E+00 0.  1.
</event>
<event>
 8    1  0.6380400E-009  0.8059535E+02  0.7561462E-02  0.1327370E+00
         -3   -1    0    0    0  501 -0.00000000000E+00  0.00000000000E+00  0.11017906801E+03  0.11017906801E+03  0.00000000000E+00 0.  1.
          3   -1    0    0  501    0  0.00000000000E+00 -0.00000000000E+00 -0.15510953241E+03  0.15510953241E+03  0.00000000000E+00 0. -1.
         25    2    1    2    0    0  0.69638128351E+01 -0.48446841042E+01  0.47419549277E+02  0.13403722314E+03  0.12508156491E+03 0.  0.
         23    2    1    2    0    0 -0.69638128351E+01  0.48446841042E+01 -0.92350013669E+02  0.13125137728E+03  0.92878594728E+02 0.  0.
          5    1    3    3  502    0  0.66904601864E+01  0.54428198125E+02 -0.44303592806E+01  0.55175098477E+02  0.41800000000E+01 0. -1.
         -5    1    3    3    0  502  0.27335264872E+00 -0.59272882229E+02  0.51849908558E+02  0.78862124666E+02  0.41800000000E+01 0. -1.
        -11    1    4    4    0    0 -0.16945582376E+02  0.21488082394E+02 -0.10472033831E+03  0.10823696089E+03  0.00000000000E+00 0. -1.
         11    1    4    4    0    0  0.99817695408E+01 -0.16643398290E+02  0.12370324641E+02  0.23014416385E+02  0.00000000000E+00 0.  1.
</event>
<event>
 8    1  0.6380400E-009  0.9648110E+02  0.7561462E-02  0.1287875E+00
         -2   -1    0    0    0  501 -0.00000000000E+00  0.00000000000E+00  0.53239954613E+02  0.53239954613E+02  0.00000000000E+00 0.  1.
          2   -1    0    0  501    0  0.00000000000E+00 -0.00000000000E+00 -0.33553960002E+03  0.33553960002E+03  0.00000000000E+00 0. -1.
         25    2    1    2    0    0 -0.56344770329E+02  0.25681704303E+02 -0.23838834593E+03  0.27624463648E+03  0.12509121724E+03 0.  0.
         23    2    1    2    0    0  0.56344770329E+02 -0.25681704303E+02 -0.43911299473E+02  0.11253491815E+03  0.83076004370E+02 0.  0.
          5    1    3    3  502    0  0.32502691371E+02  0.20561288769E+01 -0.12987293616E+03  0.13395933920E+03  0.41800000000E+01 0.  1.
         -5    1    3    3    0  502 -0.88847461700E+02  0.23625575426E+02 -0.10851540978E+03  0.14228529729E+03  0.41800000000E+01 0.  1.
        -11    1    4    4    0    0  0.43693464598E+02 -0.51704524791E+01  0.16892339999E+02  0.47129646488E+02  0.00000000000E+00 0.  1.
         11    1    4    4    0    0  0.12651305730E+02 -0.20511251824E+02 -0.60803639471E+02  0.65405271661E+02  0.00000000000E+00 0. -1.
</event>
<event>
 8    1  0.6380400E-009  0.7528003E+02  0.7561462E-02  0.1343006E+00
         -2   -1    0    0    0  501 -0.00000000000E+00  0.00000000000E+00  0.15282504273E+02  0.15282504273E+02  0.00000000000E+00 0. -1.
          2   -1    0    0  501    0  0.00000000000E+00 -0.00000000000E+00 -0.13101150862E+04  0.13101150862E+04  0.00000000000E+00 0.  1.
         25    2    1    2    0    0  0.12502693142E+02  0.23737464130E+02 -0.11206208410E+04  0.11278999818E+04  0.12509002832E+03 0.  0.
         23    2    1    2    0    0 -0.12502693142E+02 -0.23737464130E+02 -0.17421174096E+03  0.19749760868E+03  0.89083052294E+02 0.  0.
          5    1    3    3  502    0 -0.32391996559E+01  0.36497650173E+02 -0.92635878188E+02  0.99706816268E+02  0.41800000000E+01 0.  1.
         -5    1    3    3    0  502  0.15741892798E+02 -0.12760186044E+02 -0.10279849628E+04  0.10281931655E+04  0.41800000000E+01 0.  1.
        -11    1    4    4    0    0  0.26312795990E+02 -0.42416053952E+02 -0.90454062727E+02  0.10331225643E+03  0.00000000000E+00 0.  1.
         11    1    4    4    0    0 -0.38815489132E+02  0.18678589822E+02 -0.83757678232E+02  0.94185352243E+02  0.00000000000E+00 0. -1.
</event>
<event>
 8    1  0.6380400E-009  0.1226173E+03  0.7561462E-02  0.1238841E+00
         -2   -1    0    0    0  501 -0.00000000000E+00  0.00000000000E+00  0.44214630890E+03  0.44214630890E+03  0.00000000000E+00 0. -1.
          2   -1    0    0  501    0  0.00000000000E+00 -0.00000000000E+00 -0.47994960902E+02  0.47994960902E+02  0.00000000000E+00 0.  1.
         25    2    1    2    0    0  0.27720871197E+02 -0.80587632031E+02  0.29059258401E+03  0.32764947790E+03  0.12508923755E+03 0.  0.
         23    2    1    2    0    0 -0.27720871197E+02  0.80587632031E+02  0.10355876399E+03  0.16249179191E+03  0.91740676368E+02 0.  0.
          5    1    3    3  502    0 -0.67541440812E+01 -0.86969386482E+02  0.27592426599E+03  0.28941486764E+03  0.41800000000E+01 0.  1.
         -5    1    3    3    0  502  0.34475015279E+02  0.63817544518E+01  0.14668318016E+02  0.38234610260E+02  0.41800000000E+01 0.  1.
        -11    1    4    4    0    0 -0.47645727680E+02  0.92617026247E+01  0.25254789058E+02  0.54714704349E+02  0.00000000000E+00 0. -1.
         11    1    4    4    0    0  0.19924856482E+02  0.71325929406E+02  0.78303974936E+02  0.10777708756E+03  0.00000000000E+00 0.  1.
</event>
<event>
 8    1  0.6380400E-009  0.1260169E+03  0.7561462E-02  0.1233489E+00
          2   -1    0    0  501    0  0.00000000000E+00  0.00000000000E+00  0.16210692036E+02  0.16210692036E+02  0.00000000000E+00 0. -1.
         -2   -1    0    0    0  501 -0.00000000000E+00 -0.00000000000E+00 -0.15947109945E+04  0.15947109945E+04  0.00000000000E+00 0.  1.
         25    2    1    2    0    0  0.70653416484E+02  0.15012084988E+02 -0.13359834783E+04  0.13437693532E+04  0.12508777789E+03 0.  0.
         23    2    1    2    0    0 -0.70653416484E+02 -0.15012084988E+02 -0.24251682410E+03  0.26715233334E+03  0.85666161811E+02 0.  0.
          5    1    3    3  502    0 -0.10551202128E+02  0.51305994150E+02 -0.37395245803E+03  0.37762619900E+03  0.41800000000E+01 0.  1.
         -5    1    3    3    0  502  0.81204618612E+02 -0.36293909162E+02 -0.96203102030E+03  0.96614315417E+03  0.41800000000E+01 0.  1.
        -11    1    4    4    0    0 -0.54522233842E+02 -0.48691711113E+02 -0.13801132415E+03  0.15617516547E+03  0.00000000000E+00 0. -1.
         11    1    4    4    0    0 -0.16131182642E+02  0.33679626124E+02 -0.10450549995E+03  0.11097716787E+03  0.00000000000E+00 0.  1.
</event>
<event>
 8    1  0.6380400E-009  0.1016899E+03  0.7561462E-02  0.1276782E+00
          2   -1    0    0  501    0  0.00000000000E+00  0.00000000000E+00  0.88292963219E+03  0.88292963219E+03  0.00000000000E+00 0.  1.
         -2   -1    0    0    0  501 -0.00000000000E+00 -0.00000000000E+00 -0.14739172221E+02  0.14739172221E+02  0.00000000000E+00 0. -1.
         25    2    1    2    0    0  0.15787350490E+02 -0.93624466991E+01  0.60829453742E+03  0.62129760545E+03  0.12510625258E+03 0.  0.
         23    2    1    2    0    0 -0.15787350490E+02  0.93624466991E+01  0.25989592255E+03  0.27637119897E+03  0.92185970817E+02 0.  0.
          5    1    3    3  502    0  0.60610168674E+02  0.28978621929E+02  0.32203339858E+03  0.32899291068E+03  0.41800000000E+01 0.  1.
         -5    1    3    3    0  502 -0.44822818184E+02 -0.38341068629E+02  0.28626113884E+03  0.29230469477E+03  0.41800000000E+01 0.  1.
        -11    1    4    4    0    0 -0.26346590543E+02  0.38098861821E+02  0.22599118873E+03  0.23068958253E+03  0.00000000000E+00 0.  1.
         11    1    4    4    0    0  0.10559240052E+02 -0.28736415122E+02  0.33904733823E+02  0.45681616435E+02  0.00000000000E+00 0. -1.
</event>
<event>
 8    1  0.6380400E-009  0.1219364E+03  0.7561462E-02  0.1239936E+00
          1   -1    0    0  501    0  0.00000000000E+00  0.00000000000E+00  0.91470255277E+03  0.91470255277E+03  0.00000000000E+00 0. -1.
         -1   -1    0    0    0  501 -0.00000000000E+00 -0.00000000000E+00 -0.29101050297E+02  0.29101050297E+02  0.00000000000E+00 0.  1.
         25    2    1    2    0    0  0.74593844526E+02  0.18167171379E+02  0.74485625789E+03  0.75917990752E+03  0.12509596040E+03 0.  0.
         23    2    1    2    0    0 -0.74593844526E+02 -0.18167171379E+02  0.14074524459E+03  0.18462369556E+03  0.91555433090E+02 0.  0.
          5    1    3    3  502    0 -0.27983574895E+02  0.52068566068E+01  0.34337088164E+03  0.34457397838E+03  0.41800000000E+01 0.  1.
         -5    1    3    3    0  502  0.10257741942E+03  0.12960314772E+02  0.40148537625E+03  0.41460592914E+03  0.41800000000E+01 0.  1.
        -11    1    4    4    0    0 -0.32247547630E+02  0.32370916212E+02  0.26785499286E+02  0.52964549621E+02  0.00000000000E+00 0.  1.
         11    1    4    4    0    0 -0.42346296897E+02 -0.50538087591E+02  0.11395974531E+03  0.13165914593E+03  0.00000000000E+00 0. -1.
</event>
<event>
 8    1  0.6380400E-009  0.1408303E+03  0.7561462E-02  0.1212216E+00
         -1   -1    0    0    0  501 -0.00000000000E+00  0.00000000000E+00  0.48515634830E+02  0.48515634830E+02  0.00000000000E+00 0.  1.
          1   -1    0    0  501    0  0.00000000000E+00 -0.00000000000E+00 -0.45873914100E+03  0.45873914100E+03  0.00000000000E+00 0. -1.
         25    2    1    2    0    0  0.72883484429E+02 -0.62196994881E+02 -0.17002820525E+03  0.23181601926E+03  0.12509439527E+03 0.  0.
         23    2    1    2    0    0 -0.72883484429E+02  0.62196994881E+02 -0.24019530092E+03  0.27543875657E+03  0.94827514807E+02 0.  0.
          5    1    3    3  502    0  0.67932396046E+02 -0.93222790765E+02 -0.16235848470E+03  0.19920604686E+03  0.41800000000E+01 0.  1.
         -5    1    3    3    0  502  0.49510883824E+01  0.31025795885E+02 -0.76697205472E+01  0.32609972397E+02  0.41800000000E+01 0.  1.
        -11    1    4    4    0    0 -0.28675205273E+02 -0.24179438460E+02 -0.74919472446E+02  0.83784485397E+02  0.00000000000E+00 0.  1.
         11    1    4    4    0    0 -0.44208279156E+02  0.86376433341E+02 -0.16527582847E+03  0.19165427118E+03  0.00000000000E+00 0. -1.
</event>
<event>
 8    1  0.6380400E-009  0.1201469E+03  0.7561462E-02  0.1242855E+00
          2   -1    0    0  501    0  0.00000000000E+00  0.00000000000E+00  0.12937348906E+04  0.12937348906E+04  0.00000000000E+00 0. -1.
         -2   -1    0    0    0  501 -0.00000000000E+00 -0.00000000000E+00 -0.15363311557E+02  0.15363311557E+02  0.00000000000E+00 0.  1.
         25    2    1    2    0    0  0.16395461050E+02  0.88447196476E+02  0.70640222215E+03  0.72301027864E+03  0.12509214948E+03 0.  0.
         23    2    1    2    0    0 -0.16395461050E+02 -0.88447196476E+02  0.57196935687E+03  0.58608792349E+03  0.90875690661E+02 0.  0.
          5    1    3    3  502    0 -0.20151396314E+02  0.73551807972E+02  0.64747983616E+03  0.65196898536E+03  0.41800000000E+01 0.  1.
         -5    1    3    3    0  502  0.36546857364E+02  0.14895388504E+02  0.58922385986E+02  0.71041293289E+02  0.41800000000E+01 0.  1.
        -11    1    4    4    0    0 -0.46409438396E+02 -0.22084535326E+02  0.17098703422E+03  0.17854447218E+03  0.00000000000E+00 0. -1.
         11    1    4    4    0    0  0.30013977345E+02 -0.66362661149E+02  0.40098232264E+03  0.40754345131E+03  0.00000000000E+00 0.  1.
</event>
<event>
 8    1  0.6380400E-009  0.9801425E+02  0.7561462E-02  0.1284528E+00
          3   -1    0    0  501    0  0.00000000000E+00  0.00000000000E+00  0.34892710278E+03  0.34892710278E+03  0.00000000000E+00 0.  1.
         -3   -1    0    0    0  501 -0.00000000000E+00 -0.00000000000E+00 -0.40161698441E+02  0.40161698441E+02  0.00000000000E+00 0. -1.
         25    2    1    2    0    0  0.53371176133E+01  0.43553797136E+02  0.21197956140E+03  0.25001531408E+03  0.12508758833E+03 0.  0.
         23    2    1    2    0    0 -0.53371176133E+01 -0.43553797136E+02  0.96785842940E+02  0.13907348714E+03  0.89713529425E+02 0.  0.
          5    1    3    3  502    0 -0.38273835217E+02  0.64396540273E+02  0.81346896762E+02  0.11066431617E+03  0.41800000000E+01 0.  1.
         -5    1    3    3    0  502  0.43610952830E+02 -0.20842743137E+02  0.13063266463E+03  0.13935099791E+03  0.41800000000E+01 0.  1.
        -11    1    4    4    0    0 -0.30773700307E+02 -0.14972057215E+02 -0.82410750042E+00  0.34232474071E+02  0.00000000000E+00 0. -1.
         11    1    4    4    0    0  0.25436582694E+02 -0.28581739920E+02  0.97609950440E+02  0.10484101307E+03  0.00000000000E+00 0.  1.
</event>
<event>
 8    1  0.6380400E-009  0.1597751E+03  0.7561462E-02  0.1188951E+00
          2   -1    0    0  501    0  0.00000000000E+00  0.00000000000E+00  0.10398184673E+04  0.10398184673E+04  0.00000000000E+00 0. -1.
         -2   -1    0    0    0  501 -0.00000000000E+00 -0.00000000000E+00 -0.32802124514E+02  0.32802124514E+02  0.00000000000E+00 0.  1.
         25    2    1    2    0    0  0.13363901401E+03 -0.68652742577E+02  0.52424506005E+03  0.55951094851E+03  0.12508810252E+03 0.  0.
         23    2    1    2    0    0 -0.13363901401E+03  0.68652742577E+02  0.48277128274E+03  0.51310964330E+03  0.87411723934E+02 0.  0.
          5    1    3    3  502    0  0.50435784955E+02 -0.48253191453E+02  0.76573754397E+02  0.10369740186E+03  0.41800000000E+01 0. -1.
         -5    1    3    3    0  502  0.83203229059E+02 -0.20399551124E+02  0.44767130565E+03  0.45581354665E+03  0.41800000000E+01 0. -1.
        -11    1    4    4    0    0 -0.45338910829E+02 -0.90512337804E+01  0.22599632896E+03  0.23067700876E+03  0.00000000000E+00 0.  1.
         11    1    4    4    0    0 -0.88300103185E+02  0.77703976358E+02  0.25677495378E+03  0.28243263454E+03  0.00000000000E+00 0. -1.
</event>
<event>
 8    1  0.6380400E-009  0.1153361E+03  0.7561462E-02  0.1250996E+00
         -2   -1    0    0    0  501 -0.00000000000E+00  0.00000000000E+00  0.16928625668E+03  0.16928625668E+03  0.00000000000E+00 0.  1.
          2   -1    0    0  501    0  0.00000000000E+00 -0.00000000000E+00 -0.97855120811E+02  0.97855120811E+02  0.00000000000E+00 0. -1.
         25    2    1    2    0    0  0.68158089946E+02  0.24108004046E+02  0.27393549888E+02  0.14704953671E+03  0.12508572496E+03 0.  0.
         23    2    1    2    0    0 -0.68158089946E+02 -0.24108004046E+02  0.44037585977E+02  0.12009184077E+03  0.85182276075E+02 0.  0.
          5    1    3    3  502    0  0.97660549408E+02  0.36276609202E+02  0.41092083698E+02  0.11206965258E+03  0.41800000000E+01 0.  1.
         -5    1    3    3    0  502 -0.29502459462E+02 -0.12168605156E+02 -0.13698533809E+02  0.34979884138E+02  0.41800000000E+01 0.  1.
        -11    1    4    4    0    0 -0.47476039991E+02 -0.44576770461E+02 -0.25389181856E+01  0.65172915721E+02  0.00000000000E+00 0.  1.
         11    1    4    4    0    0 -0.20682049954E+02  0.20468766415E+02  0.46576504162E+02  0.54918925052E+02  0.00000000000E+00 0. -1.
</event>
<event>
 8    1  0.6380400E-009  0.9905373E+02  0.7561462E-02  0.1282299E+00
          2   -1    0    0  501    0  0.00000000000E+00  0.00000000000E+00  0.33621763398E+03  0.33621763398E+03  0.00000000000E+00 0. -1.
         -2   -1    0    0    0  501 -0.00000000000E+00 -0.00000000000E+00 -0.34957888938E+02  0.34957888938E+02  0.00000000000E+00 0.  1.
         25    2    1    2    0    0  0.17557448323E+02  0.40547772158E+01  0.16939580313E+03  0.21134704892E+03  0.12509169341E+03 0.  0.
         23    2    1    2    0    0 -0.17557448323E+02 -0.40547772158E+01  0.13186394192E+03  0.15982847400E+03  0.88500489901E+02 0.  0.
          5    1    3    3  502    0  0.69096048822E+02  0.20306980703E+02  0.94031795380E+02  0.11851619455E+03  0.41800000000E+01 0.  1.
         -5    1    3    3    0  502 -0.51538600499E+02 -0.16252203488E+02  0.75364007745E+02  0.92830854370E+02  0.41800000000E+01 0.  1.
        -11    1    4    4    0    0  0.57802511836E+01  0.29961406847E+02  0.11529390809E+02  0.32619381607E+02  0.00000000000E+00 0.  1.
         11    1    4    4    0    0 -0.23337699507E+02 -0.34016184063E+02  0.12033455111E+03  0.12720909239E+03  0.00000000000E+00 0. -1.
</event>
<event>
 8    1  0.6380400E-009  0.8501811E+02  0.7561462E-02  0.1315385E+00
         -2   -1    0    0    0  501 -0.00000000000E+00  0.00000000000E+00  0.13897827088E+02  0.13897827088E+02  0.00000000000E+00 0.  1.
          2   -1    0    0  501    0  0.00000000000E+00 -0.00000000000E+00 -0.14681061399E+04  0.14681061399E+04  0.00000000000E+00 0. -1.
         25    2    1    2    0    0  0.66738894117E+01  0.21523159083E+02 -0.12609479032E+04  0.12673377757E+04  0.12509051101E+03 0.  0.
         23    2    1    2    0    0 -0.66738894117E+01 -0.21523159083E+02 -0.19326040959E+03  0.21466619127E+03  0.90687378299E+02 0.  0.
          5    1    3    3  502    0  0.36337545720E+02 -0.16825603370E+02 -0.14954170587E+03  0.15486675677E+03  0.41800000000E+01 0.  1.
         -5    1    3    3    0  502 -0.29663656308E+02  0.38348762453E+02 -0.11114061974E+04  0.11124710189E+04  0.41800000000E+01 0.  1.
        -11    1    4    4    0    0 -0.33434888383E+02 -0.37264142424E+02 -0.61522170047E+02  0.79318884757E+02  0.00000000000E+00 0.  1.
         11    1    4    4    0    0  0.26760998971E+02  0.15740983341E+02 -0.13173823955E+03  0.13534730652E+03  0.00000000000E+00 0. -1.
</event>
<event>
 8    1  0.6380400E-009  0.8182318E+02  0.7561462E-02  0.1323956E+00
         -2   -1    0    0    0  501 -0.00000000000E+00  0.00000000000E+00  0.85585360482E+02  0.85585360482E+02  0.00000000000E+00 0.  1.
          2   -1    0    0  501    0  0.00000000000E+00 -0.00000000000E+00 -0.34093506271E+03  0.34093506271E+03  0.00000000000E+00 0. -1.
         25    2    1    2    0    0  0.16908702354E+02 -0.50439877677E+02 -0.28577805308E+03  0.31644493063E+03  0.12505284093E+03 0.  0.
         23    2    1    2    0    0 -0.16908702354E+02  0.50439877677E+02  0.30428350853E+02  0.11007549256E+03  0.91436557521E+02 0.  0.
          5    1    3    3  502    0 -0.11275015349E+02 -0.61469491849E+02 -0.27793054457E+03  0.28490083257E+03  0.41800000000E+01 0. -1.
         -5    1    3    3    0  502  0.28183717702E+02  0.11029614172E+02 -0.78475085123E+01  0.31544098056E+02  0.41800000000E+01 0. -1.
        -11    1    4    4    0    0  0.15544306793E+02  0.95019559338E+01 -0.26916625573E+02  0.32502574859E+02  0.00000000000E+00 0. -1.
         11    1    4    4    0    0 -0.32453009147E+02  0.40937921743E+02  0.57344976425E+02  0.77572917700E+02  0.00000000000E+00 0.  1.
</event>
<event>
 8    1  0.6380400E-009  0.1111620E+03  0.7561462E-02  0.1258433E+00
         -3   -1    0    0    0  501 -0.00000000000E+00  0.00000000000E+00  0.43123374340E+02  0.43123374340E+02  0.00000000000E+00 0.  1.
          3   -1    0    0  501    0  0.00000000000E+00 -0.00000000000E+00 -0.36660284035E+03  0.36660284035E+03  0.00000000000E+00 0. -1.
         25    2    1    2    0    0  0.52063433689E+02  0.34846330358E+02 -0.17759901819E+03  0.22606992864E+03  0.12506531695E+03 0.  0.
         23    2    1    2    0    0 -0.52063433689E+02 -0.34846330358E+02 -0.14588044782E+03  0.18365628605E+03  0.92323661563E+02 0.  0.
          5    1    3    3  502    0  0.73975810415E+02 -0.65784013219E+01 -0.15888497689E+03  0.17543547011E+03  0.41800000000E+01 0. -1.
         -5    1    3    3    0  502 -0.21912376727E+02  0.41424731680E+02 -0.18714041302E+02  0.50634458528E+02  0.41800000000E+01 0. -1.
        -11    1    4    4    0    0 -0.61044466916E+02  0.38489182126E+01 -0.47134860186E+02  0.77220050228E+02  0.00000000000E+00 0.  1.
         11    1    4    4    0    0  0.89810332277E+01 -0.38695248571E+02 -0.98745587632E+02  0.10643623582E+03  0.00000000000E+00 0. -1.
</event>
<event>
 8    1  0.6380400E-009  0.1144338E+03  0.7561462E-02  0.1252573E+00
          1   -1    0    0  501    0  0.00000000000E+00  0.00000000000E+00  0.22448603964E+02  0.22448603964E+02  0.00000000000E+00 0. -1.
         -1   -1    0    0    0  501 -0.00000000000E+00 -0.00000000000E+00 -0.62150744548E+03  0.62150744548E+03  0.00000000000E+00 0.  1.
         25    2    1    2    0    0 -0.37716969519E+02 -0.30760784547E+02 -0.34059934476E+03  0.36609304324E+03  0.12508959592E+03 0.  0.
         23    2    1    2    0    0  0.37716969519E+02  0.30760784547E+02 -0.25845949676E+03  0.27786300620E+03  0.89653461138E+02 0.  0.
          5    1    3    3  502    0 -0.54243480350E+02  0.32127356397E+02 -0.11430398332E+03  0.13060396315E+03  0.41800000000E+01 0. -1.
         -5    1    3    3    0  502  0.16526510831E+02 -0.62888140944E+02 -0.22629536144E+03  0.23548908009E+03  0.41800000000E+01 0. -1.
        -11    1    4    4    0    0 -0.22187853376E+01 -0.28762943431E+02 -0.97194823941E+02  0.10138571755E+03  0.00000000000E+00 0.  1.
         11    1    4    4    0    0  0.39935754856E+02  0.59523727979E+02 -0.16126467282E+03  0.17647728864E+03  0.00000000000E+00 0. -1.
</event>
<event>
 8    1  0.6380400E-009  0.1599836E+03  0.7561462E-02  0.1188715E+00
         -1   -1    0    0    0  501 -0.00000000000E+00  0.00000000000E+00  0.68139630946E+02  0.68139630946E+02  0.00000000000E+00 0.  1.
          1   -1    0    0  501    0  0.00000000000E+00 -0.00000000000E+00 -0.44176742490E+03  0.44176742490E+03  0.00000000000E+00 0. -1.
         25    2    1    2    0    0  0.18211038375E+02  0.12479847514E+03 -0.12630298221E+03  0.21795958543E+03  0.12509051223E+03 0.  0.
         23    2    1    2    0    0 -0.18211038375E+02 -0.12479847514E+03 -0.24732481174E+03  0.29194747041E+03  0.90318667304E+02 0.  0.
          5    1    3    3  502    0  0.70008767382E+02  0.78347666254E+02 -0.94380765881E+02  0.14129679999E+03  0.41800000000E+01 0.  1.
         -5    1    3    3    0  502 -0.51797729008E+02  0.46450808886E+02 -0.31922216333E+02  0.76662785445E+02  0.41800000000E+01 0.  1.
        -11    1    4    4    0    0 -0.46126702474E+02 -0.76705885405E+02 -0.98599747996E+02  0.13316672198E+03  0.00000000000E+00 0.  1.
         11    1    4    4    0    0  0.27915664099E+02 -0.48092589735E+02 -0.14872506374E+03  0.15878074844E+03  0.00000000000E+00 0. -1.
</event>
<event>
 8    1  0.6380400E-009  0.1309641E+03  0.7561462E-02  0.1226032E+00
         -2   -1    0    0    0  501 -0.00000000000E+00  0.00000000000E+00  0.35807114954E+03  0.35807114954E+03  0.00000000000E+00 0.  1.
          2   -1    0    0  501    0  0.00000000000E+00 -0.00000000000E+00 -0.72089057206E+02  0.72089057206E+02  0.00000000000E+00 0. -1.
         25    2    1    2    0    0  0.65816392717E+02  0.75052861031E+02  0.23039729252E+03  0.28052759459E+03  0.12509232361E+03 0.  0.
         23    2    1    2    0    0 -0.65816392717E+02 -0.75052861031E+02  0.55584799812E+02  0.14963261215E+03  0.96620490325E+02 0.  0.
          5    1    3    3  502    0  0.48677892629E+02 -0.18670169069E+02  0.13866936105E+03  0.14820518391E+03  0.41800000000E+01 0.  1.
         -5    1    3    3    0  502  0.17138500088E+02  0.93723030100E+02  0.91727931472E+02  0.13232241068E+03  0.41800000000E+01 0.  1.
        -11    1    4    4    0    0 -0.52187380507E+02 -0.17395339339E+02 -0.15445075980E+02  0.57137298562E+02  0.00000000000E+00 0. -1.
         11    1    4    4    0    0 -0.13629012210E+02 -0.57657521691E+02  0.71029875792E+02  0.92495313592E+02  0.00000000000E+00 0.  1.
</event>
<event>
 8    1  0.6380400E-009  0.1889348E+03  0.7561462E-02  0.1159426E+00
         -2   -1    0    0    0  501 -0.00000000000E+00  0.00000000000E+00  0.43050497572E+02  0.43050497572E+02  0.00000000000E+00 0. -1.
          2   -1    0    0  501    0  0.00000000000E+00 -0.00000000000E+00 -0.95133523685E+03  0.95133523685E+03  0.00000000000E+00 0.  1.
         25    2    1    2    0    0  0.15740240995E+03  0.59091611805E+02 -0.53827286402E+03  0.57762734034E+03  0.12509328891E+03 0.  0.
         23    2    1    2    0    0 -0.15740240995E+03 -0.59091611805E+02 -0.37001187527E+03  0.41675839408E+03  0.92257433074E+02 0.  0.
          5    1    3    3  502    0  0.16586663297E+03  0.63440856380E+02 -0.53869312448E+03  0.56722503202E+03  0.41800000000E+01 0. -1.
         -5    1    3    3    0  502 -0.84642230135E+01 -0.43492445752E+01  0.42026046087E+00  0.10402308323E+02  0.41800000000E+01 0. -1.
        -11    1    4    4    0    0 -0.10700278688E+03 -0.81676368220E+02 -0.28770223984E+03  0.31763690645E+03  0.00000000000E+00 0.  1.
         11    1    4    4    0    0 -0.50399623073E+02  0.22584756416E+02 -0.82309635422E+02  0.99121487638E+02  0.00000000000E+00 0. -1.
</event>
<event>
 8    1  0.6380400E-009  0.1189382E+03  0.7561462E-02  0.1244859E+00
          1   -1    0    0  501    0  0.00000000000E+00  0.00000000000E+00  0.62101175410E+03  0.62101175410E+03  0.00000000000E+00 0. -1.
         -1   -1    0    0    0  501 -0.00000000000E+00 -0.00000000000E+00 -0.43613234525E+02  0.43613234525E+02  0.00000000000E+00 0.  1.
         25    2    1    2    0    0 -0.10990621228E+03 -0.15056311809E+01  0.41754119912E+03  0.44952208937E+03  0.12509122049E+03 0.  0.
         23    2    1    2    0    0  0.10990621228E+03  0.15056311809E+01  0.15985732045E+03  0.21510289925E+03  0.92915294443E+02 0.  0.
          5    1    3    3  502    0 -0.77074808394E+02  0.17740485423E+02  0.90560552437E+02  0.12030767627E+03  0.41800000000E+01 0. -1.
         -5    1    3    3    0  502 -0.32831403890E+02 -0.19246116604E+02  0.32698064668E+03  0.32921441310E+03  0.41800000000E+01 0. -1.
        -11    1    4    4    0    0  0.67315899369E+02 -0.23141245274E+02  0.14838518737E+03  0.16457554913E+03  0.00000000000E+00 0. -1.
         11    1    4    4    0    0  0.42590312915E+02  0.24646876455E+02  0.11472133084E+02  0.50527350126E+02  0.00000000000E+00 0.  1.
</event>
<event>
 8    1  0.6380400E-009  0.1043848E+03  0.7561462E-02  0.1271336E+00
          1   -1    0    0  501    0  0.00000000000E+00  0.00000000000E+00  0.20832910340E+03  0.20832910340E+03  0.00000000000E+00 0. -1.
         -1   -1    0    0    0  501 -0.00000000000E+00 -0.00000000000E+00 -0.10307789016E+03  0.10307789016E+03  0.00000000000E+00 0.  1.
         25    2    1    2    0    0 -0.13262410938E+02  0.14719572929E+02 -0.45296982491E+02  0.13450263970E+03  0.12508631456E+03 0.  0.
         23    2    1    2    0    0  0.13262410938E+02 -0.14719572929E+02  0.15054819573E+03  0.17690435386E+03  0.90762513224E+02 0.  0.
          5    1    3    3  502    0 -0.65549886106E+02  0.28507174911E+02 -0.18225292665E+02  0.73885589141E+02  0.41800000000E+01 0.  1.
         -5    1    3    3    0  502  0.52287475168E+02 -0.13787601983E+02 -0.27071689826E+02  0.60617050554E+02  0.41800000000E+01 0.  1.
        -11    1    4    4    0    0  0.41086320610E+02 -0.30291876373E+02  0.12813869342E+03  0.13793189721E+03  0.00000000000E+00 0. -1.
         11    1    4    4    0    0 -0.27823909672E+02  0.15572303444E+02  0.22409502309E+02  0.38972456655E+02  0.00000000000E+00 0.  1.
</event>
<event>
 8    1  0.6380400E-009  0.1403606E+03  0.7561462E-02  0.1212845E+00
          2   -1    0    0  501    0  0.00000000000E+00  0.00000000000E+00  0.58858232656E+03  0.58858232656E+03  0.00000000000E+00 0. -1.
         -2   -1    0    0    0  501 -0.00000000000E+00 -0.00000000000E+00 -0.57090732291E+02  0.57090732291E+02  0.00000000000E+00 0.  1.
         25    2    1    2    0    0 -0.45002788427E+02 -0.96254816917E+02  0.90589577136E+02  0.18746941362E+03  0.12509224121E+03 0.  0.
         23    2    1    2    0    0  0.45002788427E+02  0.96254816917E+02  0.44090201713E+03  0.45820364523E+03  0.65312717355E+02 0.  0.
          5    1    3    3  502    0 -0.52161772260E+02  0.10329741411E+02  0.11701155011E+02  0.54607174177E+02  0.41800000000E+01 0.  1.
         -5    1    3    3    0  502  0.71589838329E+01 -0.10658455833E+03  0.78888422125E+02  0.13286223944E+03  0.41800000000E+01 0.  1.
        -11    1    4    4    0    0  0.45574557048E+02  0.30771503953E+02  0.14346137591E+03  0.15363948739E+03  0.00000000000E+00 0.  1.
         11    1    4    4    0    0 -0.57176862056E+00  0.65483312963E+02  0.29744064122E+03  0.30456415784E+03  0.00000000000E+00 0. -1.
</event>
<event>
 8    1  0.6380400E-009  0.6341021E+02  0.7561462E-02  0.1384053E+00
         -3   -1    0    0    0  501 -0.00000000000E+00  0.00000000000E+00  0.38131477749E+02  0.38131477749E+02  0.00000000000E+00 0.  1.
          3   -1    0    0  501    0  0.00000000000E+00 -0.00000000000E+00 -0.40711541813E+03  0.40711541813E+03  0.00000000000E+00 0. -1.
         25    2    1    2    0    0  0.13576061062E+02 -0.19781157313E+02 -0.29888565059E+03  0.32489265715E+03  0.12508798072E+03 0.  0.
         23    2    1    2    0    0 -0.13576061062E+02  0.19781157313E+02 -0.70098289792E+02  0.12035423873E+03  0.94846027490E+02 0.  0.
          5    1    3    3  502    0 -0.15888370326E+02 -0.83149712505E+01  0.52044814214E+01  0.19134735048E+02  0.41800000000E+01 0. -1.
         -5    1    3    3    0  502  0.29464431387E+02 -0.11466186063E+02 -0.30409013201E+03  0.30575792210E+03  0.41800000000E+01 0. -1.
        -11    1    4    4    0    0 -0.22284006113E+02 -0.23488876827E+02 -0.68982077366E+02  0.76202567285E+02  0.00000000000E+00 0. -1.
         11    1    4    4    0    0  0.87079450514E+01  0.43270034140E+02 -0.11162124266E+01  0.44151671449E+02  0.00000000000E+00 0.  1.
</event>
<event>
 8    1  0.6380400E-009  0.4635475E+03  0.7561462E-02  0.1023757E+00
         -1   -1    0    0    0  501 -0.00000000000E+00  0.00000000000E+00  0.40574749789E+03  0.40574749789E+03  0.00000000000E+00 0.  1.
          1   -1    0    0  501    0  0.00000000000E+00 -0.00000000000E+00 -0.54801747934E+03  0.54801747934E+03  0.00000000000E+00 0. -1.
         25    2    1    2    0    0 -0.39054388386E+03 -0.23334794755E+03 -0.11306605120E+02  0.47196480641E+03  0.12508856594E+03 0.  0.
         23    2    1    2    0    0  0.39054388386E+03  0.23334794755E+03 -0.13096337634E+03  0.48180017082E+03  0.89466244011E+02 0.  0.
          5    1    3    3  502    0 -0.23283616327E+03 -0.77690896952E+02 -0.39159138859E+02  0.24859498176E+03  0.41800000000E+01 0. -1.
         -5    1    3    3    0  502 -0.15770772058E+03 -0.15565705059E+03  0.27852533738E+02  0.22336982466E+03  0.41800000000E+01 0. -1.
        -11    1    4    4    0    0  0.16355520998E+03  0.59421469023E+02 -0.79201304486E+02  0.19119117219E+03  0.00000000000E+00 0.  1.
         11    1    4    4    0    0  0.22698867388E+03  0.17392647852E+03 -0.51762071849E+02  0.29060899863E+03  0.00000000000E+00 0. -1.
</event>
<event>
 8    1  0.6380400E-009  0.1355187E+03  0.7561462E-02  0.1219489E+00
         -1   -1    0    0    0  501 -0.00000000000E+00  0.00000000000E+00  0.74976116789E+02  0.74976116789E+02  0.00000000000E+00 0.  1.
          1   -1    0    0  501    0  0.00000000000E+00 -0.00000000000E+00 -0.46029327101E+03  0.46029327101E+03  0.00000000000E+00 0. -1.
         25    2    1    2    0    0  0.63904410576E+02  0.89389643517E+02 -0.54632434546E+02  0.17523380321E+03  0.12509156976E+03 0.  0.
         23    2    1    2    0    0 -0.63904410576E+02 -0.89389643517E+02 -0.33068471968E+03  0.36003558459E+03  0.90548088235E+02 0.  0.
          5    1    3    3  502    0  0.33699889637E+02  0.11166887179E+03 -0.10559939951E+02  0.11719472778E+03  0.41800000000E+01 0.  1.
         -5    1    3    3    0  502  0.30204520939E+02 -0.22279228269E+02 -0.44072494595E+02  0.58039075434E+02  0.41800000000E+01 0.  1.
        -11    1    4    4    0    0  0.53329775076E+00 -0.26529555886E+02 -0.12443955976E+02  0.29307913306E+02  0.00000000000E+00 0.  1.
         11    1    4    4    0    0 -0.64437708327E+02 -0.62860087631E+02 -0.31824076370E+03  0.33072767128E+03  0.00000000000E+00 0. -1.
</event>
<event>
 8    1  0.6380400E-009  0.1148280E+03  0.7561462E-02  0.1251882E+00
         -1   -1    0    0    0  501 -0.00000000000E+00  0.00000000000E+00  0.33367592413E+02  0.33367592413E+02  0.00000000000E+00 0.  1.
          1   -1    0    0  501    0  0.00000000000E+00 -0.00000000000E+00 -0.46111857746E+03  0.46111857746E+03  0.00000000000E+00 0. -1.
         25    2    1    2    0    0 -0.47105267977E+02 -0.39756569035E+02 -0.22670811383E+03  0.26617119048E+03  0.12510412748E+03 0.  0.
         23    2    1    2    0    0  0.47105267977E+02  0.39756569035E+02 -0.20104287122E+03  0.22831497939E+03  0.88938195929E+02 0.  0.
          5    1    3    3  502    0  0.35929649382E+02 -0.22425605542E+02 -0.13328708063E+03  0.13991699593E+03  0.41800000000E+01 0.  1.
         -5    1    3    3    0  502 -0.83034917359E+02 -0.17330963493E+02 -0.93421033208E+02  0.12625419455E+03  0.41800000000E+01 0.  1.
        -11    1    4    4    0    0  0.15217239479E+01  0.54300333982E+02 -0.68657318277E+02  0.87548096880E+02  0.00000000000E+00 0. -1.
         11    1    4    4    0    0  0.45583544029E+02 -0.14543764947E+02 -0.13238555294E+03  0.14076688251E+03  0.00000000000E+00 0.  1.
</event>
<event>
 8    1  0.6380400E-009  0.1044398E+03  0.7561462E-02  0.1271227E+00
          2   -1    0    0  501    0  0.00000000000E+00  0.00000000000E+00  0.60398558660E+02  0.60398558660E+02  0.00000000000E+00 0. -1.
         -2   -1    0    0    0  501 -0.00000000000E+00 -0.00000000000E+00 -0.21498226359E+03  0.21498226359E+03  0.00000000000E+00 0.  1.
         25    2    1    2    0    0  0.27544492726E+02  0.22488637165E+02 -0.74763955548E+02  0.15000670833E+03  0.12509166884E+03 0.  0.
         23    2    1    2    0    0 -0.27544492726E+02 -0.22488637165E+02 -0.79819749383E+02  0.12537411392E+03  0.89905718223E+02 0.  0.
          5    1    3    3  502    0  0.70984551866E+01  0.70317562254E+02 -0.66576850957E+02  0.97184860502E+02  0.41800000000E+01 0.  1.
         -5    1    3    3    0  502  0.20446037540E+02 -0.47828925089E+02 -0.81871045912E+01  0.52821847827E+02  0.41800000000E+01 0.  1.
        -11    1    4    4    0    0 -0.42814705012E+02  0.15041407850E+02 -0.70428080459E+02  0.83782202361E+02  0.00000000000E+00 0.  1.
         11    1    4    4    0    0  0.15270212286E+02 -0.37530045016E+02 -0.93916689237E+01  0.41591911561E+02  0.00000000000E+00 0. -1.
</event>
<event>
 8    1  0.6380400E-009  0.9583132E+02  0.7561462E-02  0.1289315E+00
          4   -1    0    0  501    0  0.00000000000E+00  0.00000000000E+00  0.11875872837E+03  0.11875872837E+03  0.00000000000E+00 0. -1.
         -4   -1    0    0    0  501 -0.00000000000E+00 -0.00000000000E+00 -0.12115097869E+03  0.12115097869E+03  0.00000000000E+00 0.  1.
         25    2    1    2    0    0  0.17587563510E+02  0.45714769404E+02 -0.17270136432E+02  0.13544197467E+03  0.12508840218E+03 0.  0.
         23    2    1    2    0    0 -0.17587563510E+02 -0.45714769404E+02  0.14877886110E+02  0.10446773238E+03  0.91065872210E+02 0.  0.
          5    1    3    3  502    0  0.35370900233E-02 -0.28713629170E+02 -0.45372807469E+02  0.53857558154E+02  0.41800000000E+01 0.  1.
         -5    1    3    3    0  502  0.17584026420E+02  0.74428398574E+02  0.28102671037E+02  0.81584416520E+02  0.41800000000E+01 0.  1.
        -11    1    4    4    0    0 -0.34643307567E+02  0.26758376545E+01 -0.22138894808E+02  0.41200115651E+02  0.00000000000E+00 0.  1.
         11    1    4    4    0    0  0.17055744057E+02 -0.48390607058E+02  0.37016780919E+02  0.63267616728E+02  0.00000000000E+00 0. -1.
</event>
<event>
 8    1  0.6380400E-009  0.9465955E+02  0.7561462E-02  0.1291945E+00
          1   -1    0    0  501    0  0.00000000000E+00  0.00000000000E+00  0.22311808261E+03  0.22311808261E+03  0.00000000000E+00 0. -1.
         -1   -1    0    0    0  501 -0.00000000000E+00 -0.00000000000E+00 -0.87356868988E+02  0.87356868988E+02  0.00000000000E+00 0.  1.
         25    2    1    2    0    0 -0.28322290504E+02  0.67360662762E+02  0.18836157279E+02  0.14610445693E+03  0.12510835498E+03 0.  0.
         23    2    1    2    0    0  0.28322290504E+02 -0.67360662762E+02  0.11692505635E+03  0.16437049468E+03  0.89479493132E+02 0.  0.
          5    1    3    3  502    0 -0.19023812224E+02  0.13004437945E+02 -0.51532255387E+02  0.56604474938E+02  0.41800000000E+01 0. -1.
         -5    1    3    3    0  502 -0.92984782794E+01  0.54356224817E+02  0.70368412665E+02  0.89499981987E+02  0.41800000000E+01 0. -1.
        -11    1    4    4    0    0  0.57008147783E+02 -0.55473234515E+02  0.10351493465E+03  0.13054711930E+03  0.00000000000E+00 0. -1.
         11    1    4    4    0    0 -0.28685857279E+02 -0.11887428247E+02  0.13410121699E+02  0.33823375380E+02  0.00000000000E+00 0.  1.
</event>
<event>
 8    1  0.6380400E-009  0.1298922E+03  0.7561462E-02  0.1227616E+00
          1   -1    0    0  501    0  0.00000000000E+00  0.00000000000E+00  0.14281037291E+03  0.14281037291E+03  0.00000000000E+00 0. -1.
         -1   -1    0    0    0  501 -0.00000000000E+00 -0.00000000000E+00 -0.27782399738E+03  0.27782399738E+03  0.00000000000E+00 0.  1.
         25    2    1    2    0    0  0.10232409966E+03 -0.35901596398E+02 -0.20458277574E+03  0.26316799460E+03  0.12507651760E+03 0.  0.
         23    2    1    2    0    0 -0.10232409966E+03  0.35901596398E+02  0.69569151278E+02  0.15746637569E+03  0.90535333811E+02 0.  0.
          5    1    3    3  502    0  0.97915070900E+02 -0.64560360692E+02 -0.20218172657E+03  0.23377408804E+03  0.41800000000E+01 0.  1.
         -5    1    3    3    0  502  0.44090287644E+01  0.28658764294E+02 -0.24010491743E+01  0.29393906556E+02  0.41800000000E+01 0.  1.
        -11    1    4    4    0    0 -0.57339902520E+02  0.30370413131E+01 -0.12026325909E+02  0.58666178977E+02  0.00000000000E+00 0.  1.
         11    1    4    4    0    0 -0.44984197145E+02  0.32864555085E+02  0.81595477187E+02  0.98800196715E+02  0.00000000000E+00 0. -1.
</event>
<event>
 8    1  0.6380400E-009  0.1708222E+03  0.7561462E-02  0.1176993E+00
          1   -1    0    0  501    0  0.00000000000E+00  0.00000000000E+00  0.14758613133E+03  0.14758613133E+03  0.00000000000E+00 0. -1.
         -1   -1    0    0    0  501 -0.00000000000E+00 -0.00000000000E+00 -0.28613138778E+03  0.28613138778E+03  0.00000000000E+00 0.  1.
         25    2    1    2    0    0 -0.15009273450E+03 -0.25044135028E+02 -0.16258062376E+03  0.25540977721E+03  0.12508659970E+03 0.  0.
         23    2    1    2    0    0  0.15009273450E+03  0.25044135028E+02  0.24035367312E+02  0.17830774190E+03  0.89782594597E+02 0.  0.
          5    1    3    3  502    0 -0.63688582861E+02 -0.64786340211E+02 -0.12139980383E+03  0.15168681628E+03  0.41800000000E+01 0. -1.
         -5    1    3    3    0  502 -0.86404151634E+02  0.39742205183E+02 -0.41180819927E+02  0.10372296092E+03  0.41800000000E+01 0. -1.
        -11    1    4    4    0    0  0.69960629944E+02  0.27900440485E+02  0.54034590814E+02  0.92696609031E+02  0.00000000000E+00 0.  1.
         11    1    4    4    0    0  0.80132104551E+02 -0.28563054574E+01 -0.29999223502E+02  0.85611132871E+02  0.00000000000E+00 0. -1.
</event>
<event>
 8    1  0.6380400E-009  0.1458497E+03  0.7561462E-02  0.1205668E+00
          3   -1    0    0  501    0  0.00000000000E+00  0.00000000000E+00  0.36788541179E+03  0.36788541179E+03  0.00000000000E+00 0. -1.
         -3   -1    0    0    0  501 -0.00000000000E+00 -0.00000000000E+00 -0.79275126469E+02  0.79275126469E+02  0.00000000000E+00 0.  1.
         25    2    1    2    0    0 -0.41779860043E+02  0.12445634853E+03  0.15588504692E+03  0.23912793436E+03  0.12508829579E+03 0.  0.
         23    2    1    2    0    0  0.41779860043E+02 -0.12445634853E+03  0.13272523840E+03  0.20803260390E+03  0.91796710086E+02 0.  0.
          5    1    3    3  502    0 -0.40140215277E+02  0.12236584751E+03  0.17616202221E+03  0.21825482351E+03  0.41800000000E+01 0.  1.
         -5    1    3    3    0  502 -0.16396447654E+01  0.20905010219E+01 -0.20276975289E+02  0.20873110845E+02  0.41800000000E+01 0.  1.
        -11    1    4    4    0    0 -0.21062432841E+02 -0.75077468333E+02  0.83110650587E+02  0.11396329483E+03  0.00000000000E+00 0.  1.
         11    1    4    4    0    0  0.62842292883E+02 -0.49378880197E+02  0.49614587815E+02  0.94069309067E+02  0.00000000000E+00 0. -1.
</event>
<event>
 8    1  0.6380400E-009  0.9021495E+02  0.7561462E-02  0.1302332E+00
         -3   -1    0    0    0  501 -0.00000000000E+00  0.00000000000E+00  0.22996204420E+03  0.22996204420E+03  0.00000000000E+00 0.  1.
          3   -1    0    0  501    0  0.00000000000E+00 -0.00000000000E+00 -0.61485669208E+02  0.61485669208E+02  0.00000000000E+00 0. -1.
         25    2    1    2    0    0 -0.29796431034E+02  0.29600664211E+02  0.63671882127E+02  0.14651104752E+03  0.12508937544E+03 0.  0.
         23    2    1    2    0    0  0.29796431034E+02 -0.29600664211E+02  0.10480449287E+03  0.14493666589E+03  0.90876998018E+02 0.  0.
          5    1    3    3  502    0  0.24553134848E+02  0.13189863849E+02 -0.27272948293E+02  0.39218809873E+02  0.41800000000E+01 0.  1.
         -5    1    3    3    0  502 -0.54349565883E+02  0.16410800362E+02  0.90944830420E+02  0.10729223765E+03  0.41800000000E+01 0.  1.
        -11    1    4    4    0    0 -0.29879432070E+02 -0.16827908210E+02  0.60429150731E+02  0.69481229217E+02  0.00000000000E+00 0.  1.
         11    1    4    4    0    0  0.59675863104E+02 -0.12772756002E+02  0.44375342139E+02  0.75455436670E+02  0.00000000000E+00 0. -1.
</event>
<event>
 8    1  0.6380400E-009  0.8175306E+02  0.7561462E-02  0.1324149E+00
          3   -1    0    0  501    0  0.00000000000E+00  0.00000000000E+00  0.34914789461E+02  0.34914789461E+02  0.00000000000E+00 0. -1.
         -3   -1    0    0    0  501 -0.00000000000E+00 -0.00000000000E+00 -0.41436488228E+03  0.41436488228E+03  0.00000000000E+00 0.  1.
         25    2    1    2    0    0  0.30804377977E+02  0.39901880838E+02 -0.20546393377E+03  0.24575987877E+03  0.12506566329E+03 0.  0.
         23    2    1    2    0    0 -0.30804377977E+02 -0.39901880838E+02 -0.17398615905E+03  0.20351979298E+03  0.92779592552E+02 0.  0.
          5    1    3    3  502    0  0.94092490645E+01  0.49987372095E+02 -0.14174737119E+02  0.52968546415E+02  0.41800000000E+01 0. -1.
         -5    1    3    3    0  502  0.21395128912E+02 -0.10085491257E+02 -0.19128919665E+03  0.19279133235E+03  0.41800000000E+01 0. -1.
        -11    1    4    4    0    0  0.52502827763E+01 -0.50576394307E+02 -0.15127381007E+03  0.15959104845E+03  0.00000000000E+00 0.  1.
         11    1    4    4    0    0 -0.36054660753E+02  0.10674513468E+02 -0.22712348981E+02  0.43928744531E+02  0.00000000000E+00 0. -1.
</event>
<event>
 8    1  0.6380400E-009  0.1076050E+03  0.7561462E-02  0.1265070E+00
          2   -1    0    0  501    0  0.00000000000E+00  0.00000000000E+00  0.45893449079E+03  0.45893449079E+03  0.00000000000E+00 0.  1.
         -2   -1    0    0    0  501 -0.00000000000E+00 -0.00000000000E+00 -0.38890240558E+02  0.38890240558E+02  0.00000000000E+00 0. -1.
         25    2    1    2    0    0  0.41454104889E+02  0.61008458755E+02  0.28499334202E+03  0.31985617044E+03  0.12508513070E+03 0.  0.
         23    2    1    2    0    0 -0.41454104889E+02 -0.61008458755E+02  0.13505090821E+03  0.17796856091E+03  0.89406856615E+02 0.  0.
          5    1    3    3  502    0  0.60907870653E+02  0.34789993781E+02  0.27728729052E+03  0.28605213906E+03  0.41800000000E+01 0.  1.
         -5    1    3    3    0  502 -0.19453765764E+02  0.26218464974E+02  0.77060514942E+01  0.33804031381E+02  0.41800000000E+01 0.  1.
        -11    1    4    4    0    0 -0.67470703194E+02 -0.48924209660E+02  0.11842886185E+03  0.14481460354E+03  0.00000000000E+00 0.  1.
         11    1    4    4    0    0  0.26016598305E+02 -0.12084249095E+02  0.16622046368E+02  0.33153957366E+02  0.00000000000E+00 0. -1.
</event>
<event>
 8    1  0.6380400E-009  0.9048188E+02  0.7561462E-02  0.1301689E+00
         -1   -1    0    0    0  501 -0.00000000000E+00  0.00000000000E+00  0.15298487421E+02  0.15298487421E+02  0.00000000000E+00 0.  1.
          1   -1    0    0  501    0  0.00000000000E+00 -0.00000000000E+00 -0.86379899022E+03  0.86379899022E+03  0.00000000000E+00 0. -1.
         25    2    1    2    0    0 -0.25807948624E+02 -0.25825460771E+02 -0.49778661551E+03  0.51456107358E+03  0.12509428136E+03 0.  0.
         23    2    1    2    0    0  0.25807948624E+02  0.25825460771E+02 -0.35071388728E+03  0.36453640406E+03  0.92485428642E+02 0.  0.
          5    1    3    3  502    0  0.12118685402E+02  0.26589081643E+02 -0.37088434761E+03  0.37205713742E+03  0.41800000000E+01 0.  1.
         -5    1    3    3    0  502 -0.37926634025E+02 -0.52414542414E+02 -0.12690226790E+03  0.14250393616E+03  0.41800000000E+01 0.  1.
        -11    1    4    4    0    0 -0.21841604653E+02 -0.12764184446E+02 -0.36587896001E+02  0.44482066411E+02  0.00000000000E+00 0.  1.
         11    1    4    4    0    0  0.47649553276E+02  0.38589645217E+02 -0.31412599128E+03  0.32005433765E+03  0.00000000000E+00 0. -1.
</event>
<event>
 8    1  0.6380400E-009  0.9390871E+02  0.7561462E-02  0.1293653E+00
         -1   -1    0    0    0  501 -0.00000000000E+00  0.00000000000E+00  0.15366754766E+03  0.15366754766E+03  0.00000000000E+00 0.  1.
          1   -1    0    0  501    0  0.00000000000E+00 -0.00000000000E+00 -0.10027737571E+03  0.10027737571E+03  0.00000000000E+00 0. -1.
         25    2    1    2    0    0 -0.26178959537E+02 -0.47652580198E+02  0.11246566882E+02  0.13681037027E+03  0.12503793755E+03 0.  0.
         23    2    1    2    0    0  0.26178959537E+02  0.47652580198E+02  0.42143605066E+02  0.11713455310E+03  0.94806717907E+02 0.  0.
          5    1    3    3  502    0  0.48551451376E+01 -0.46860999979E+02 -0.49499715468E+02  0.68463274715E+02  0.41800000000E+01 0. -1.
         -5    1    3    3    0  502 -0.31034104675E+02 -0.79158021906E+00  0.60746282349E+02  0.68347095560E+02  0.41800000000E+01 0. -1.
        -11    1    4    4    0    0 -0.19931964442E+02  0.58520528296E+02  0.26266932421E+02  0.67170582679E+02  0.00000000000E+00 0.  1.
         11    1    4    4    0    0  0.46110923979E+02 -0.10867948098E+02  0.15876672644E+02  0.49963970422E+02  0.00000000000E+00 0. -1.
</event>
<event>
 8    1  0.6380400E-009  0.6881719E+02  0.7561462E-02  0.1364162E+00
         -1   -1    0    0    0  501 -0.00000000000E+00  0.00000000000E+00  0.42067707879E+02  0.42067707879E+02  0.00000000000E+00 0.  1.
          1   -1    0    0  501    0  0.00000000000E+00 -0.00000000000E+00 -0.36326794267E+03  0.36326794267E+03  0.00000000000E+00 0. -1.
         25    2    1    2    0    0  0.24566081533E+02 -0.53747885909E+02 -0.19292710511E+03  0.23740655556E+03  0.12509467268E+03 0.  0.
         23    2    1    2    0    0 -0.24566081533E+02  0.53747885909E+02 -0.12827312968E+03  0.16792909500E+03  0.90850743236E+02 0.  0.
          5    1    3    3  502    0 -0.12887047937E+02 -0.28843913714E+02 -0.18943951348E+03  0.19210114271E+03  0.41800000000E+01 0.  1.
         -5    1    3    3    0  502  0.37453129470E+02 -0.24903972195E+02 -0.34875916395E+01  0.45305412851E+02  0.41800000000E+01 0.  1.
        -11    1    4    4    0    0 -0.92855749531E+01  0.76476642469E+01  0.13491735467E+02  0.18075829069E+02  0.00000000000E+00 0.  1.
         11    1    4    4    0    0 -0.15280506580E+02  0.46100221662E+02 -0.14176486515E+03  0.14985326593E+03  0.00000000000E+00 0. -1.
</event>
<event>
 8    1  0.6380400E-009  0.1549091E+03  0.7561462E-02  0.1194567E+00
         -1   -1    0    0    0  501 -0.00000000000E+00  0.00000000000E+00  0.22484004641E+02  0.22484004641E+02  0.00000000000E+00 0.  1.
          1   -1    0    0  501    0  0.00000000000E+00 -0.00000000000E+00 -0.13475698185E+04  0.13475698185E+04  0.00000000000E+00 0. -1.
         25    2    1    2    0    0  0.13007620838E+03 -0.33580530362E+02 -0.61418895231E+03  0.64102923652E+03  0.12507174314E+03 0.  0.
         23    2    1    2    0    0 -0.13007620838E+03  0.33580530362E+02 -0.71089686157E+03  0.72902458664E+03  0.89749808525E+02 0.  0.
          5    1    3    3  502    0  0.11064913963E+03 -0.59794171459E+02 -0.58035044833E+03  0.59383725912E+03  0.41800000000E+01 0.  1.
         -5    1    3    3    0  502  0.19427068745E+02  0.26213641097E+02 -0.33838503981E+02  0.47191977404E+02  0.41800000000E+01 0.  1.
        -11    1    4    4    0    0 -0.89968767290E+02 -0.11548283600E+02 -0.54470020228E+03  0.55220109771E+03  0.00000000000E+00 0.  1.
         11    1    4    4    0    0 -0.40107441087E+02  0.45128813962E+02 -0.16619665928E+03  0.17682348893E+03  0.00000000000E+00 0. -1.
</event>
<event>
 8    1  0.6380400E-009  0.1357626E+03  0.7561462E-02  0.1219147E+00
          2   -1    0    0  501    0  0.00000000000E+00  0.00000000000E+00  0.82296481378E+02  0.82296481378E+02  0.00000000000E+00 0. -1.
         -2   -1    0    0    0  501 -0.00000000000E+00 -0.00000000000E+00 -0.29223096984E+03  0.29223096984E+03  0.00000000000E+00 0.  1.
         25    2    1    2    0    0 -0.94726436749E+02  0.61790146267E+02 -0.94071491063E+02  0.19310280375E+03  0.12509247535E+03 0.  0.
         23    2    1    2    0    0  0.94726436749E+02 -0.61790146267E+02 -0.11586299740E+03  0.18142464747E+03  0.81850769990E+02 0.  0.
          5    1    3    3  502    0 -0.45015553659E+02 -0.28113680237E+02 -0.69219997262E+02  0.87325022237E+02  0.41800000000E+01 0. -1.
         -5    1    3    3    0  502 -0.49710883089E+02  0.89903826504E+02 -0.24851493801E+02  0.10577778151E+03  0.41800000000E+01 0. -1.
        -11    1    4    4    0    0  0.40492484678E+02 -0.13023017937E+02  0.22640991933E+01  0.42595380697E+02  0.00000000000E+00 0. -1.
         11    1    4    4    0    0  0.54233952070E+02 -0.48767128331E+02 -0.11812709659E+03  0.13882926677E+03  0.00000000000E+00 0.  1.
</event>
<event>
 8    1  0.6380400E-009  0.1215526E+03  0.7561462E-02  0.1240557E+00
          2   -1    0    0  501    0  0.00000000000E+00  0.00000000000E+00  0.71741279080E+02  0.71741279080E+02  0.00000000000E+00 0. -1.
         -2   -1    0    0    0  501 -0.00000000000E+00 -0.00000000000E+00 -0.32877698638E+03  0.32877698638E+03  0.00000000000E+00 0.  1.
         25    2    1    2    0    0 -0.26672696978E+02 -0.60996313781E+02 -0.25093902654E+03  0.28818253246E+03  0.12508714529E+03 0.  0.
         23    2    1    2    0    0  0.26672696978E+02  0.60996313781E+02 -0.60966807565E+01  0.11233573299E+03  0.90278260573E+02 0.  0.
          5    1    3    3  502    0 -0.73974280545E+02 -0.44855842676E+02 -0.12020781344E+03  0.14816083024E+03  0.41800000000E+01 0. -1.
         -5    1    3    3    0  502  0.47301583568E+02 -0.16140471104E+02 -0.13073121310E+03  0.14002170222E+03  0.41800000000E+01 0. -1.
        -11    1    4    4    0    0  0.56185582980E+02  0.30625021119E+02  0.13932670496E+02  0.65489166741E+02  0.00000000000E+00 0.  1.
         11    1    4    4    0    0 -0.29512886002E+02  0.30371292661E+02 -0.20029351252E+02  0.46846566253E+02  0.00000000000E+00 0. -1.
</event>
<event>
 8    1  0.6380400E-009  0.1083081E+03  0.7561462E-02  0.1263735E+00
          1   -1    0    0  501    0  0.00000000000E+00  0.00000000000E+00  0.37653188910E+03  0.37653188910E+03  0.00000000000E+00 0. -1.
         -1   -1    0    0    0  501 -0.00000000000E+00 -0.00000000000E+00 -0.39930201626E+02  0.39930201626E+02  0.00000000000E+00 0.  1.
         25    2    1    2    0    0 -0.54784652658E+02 -0.11188088540E+02  0.21861332802E+03  0.25800206423E+03  0.12508695563E+03 0.  0.
         23    2    1    2    0    0  0.54784652658E+02  0.11188088540E+02  0.11798835945E+03  0.15846002649E+03  0.89787502123E+02 0.  0.
          5    1    3    3  502    0 -0.11454215199E+01  0.40974132163E+02  0.20157140784E+02  0.45869098765E+02  0.41800000000E+01 0.  1.
         -5    1    3    3    0  502 -0.53639231138E+02 -0.52162220702E+02  0.19845618723E+03  0.21213296546E+03  0.41800000000E+01 0.  1.
        -11    1    4    4    0    0  0.64140553990E+02  0.36284928793E+02  0.10603926575E+03  0.12913145475E+03  0.00000000000E+00 0. -1.
         11    1    4    4    0    0 -0.93559013321E+01 -0.25096840253E+02  0.11949093703E+02  0.29328571747E+02  0.00000000000E+00 0.  1.
</event>
<event>
 8    1  0.6380400E-009  0.1129249E+03  0.7561462E-02  0.1255247E+00
         -2   -1    0    0    0  501 -0.00000000000E+00  0.00000000000E+00  0.26876394297E+03  0.26876394297E+03  0.00000000000E+00 0.  1.
          2   -1    0    0  501    0  0.00000000000E+00 -0.00000000000E+00 -0.59080199243E+02  0.59080199243E+02  0.00000000000E+00 0. -1.
         25    2    1    2    0    0 -0.32697684300E+02  0.25408093678E+02  0.74228857376E+02  0.15123614371E+03  0.12509091939E+03 0.  0.
         23    2    1    2    0    0  0.32697684300E+02 -0.25408093678E+02  0.13545488635E+03  0.17660799850E+03  0.10548767282E+03 0.  0.
          5    1    3    3  502    0 -0.98552291916E+01  0.67764762240E+02  0.77221578727E+01  0.69038341999E+02  0.41800000000E+01 0. -1.
         -5    1    3    3    0  502 -0.22842455109E+02 -0.42356668562E+02  0.66506699504E+02  0.82197801710E+02  0.41800000000E+01 0. -1.
        -11    1    4    4    0    0  0.11349030120E+02  0.39245246425E+02  0.75691936545E+02  0.86013133355E+02  0.00000000000E+00 0.  1.
         11    1    4    4    0    0  0.21348654180E+02 -0.64653340102E+02  0.59762949802E+02  0.90594865145E+02  0.00000000000E+00 0. -1.
</event>
<event>
 8    1  0.6380400E-009  0.1116771E+03  0.7561462E-02  0.1257495E+00
         -2   -1    0    0    0  501 -0.00000000000E+00  0.00000000000E+00  0.58187545478E+02  0.58187545478E+02  0.00000000000E+00 0.  1.
          2   -1    0    0  501    0  0.00000000000E+00 -0.00000000000E+00 -0.29713671378E+03  0.29713671378E+03  0.00000000000E+00 0. -1.
         25    2    1    2    0    0 -0.10515500540E+02 -0.28902804387E+02 -0.41266736402E+02  0.13526268051E+03  0.12508837416E+03 0.  0.
         23    2    1    2    0    0  0.10515500540E+02  0.28902804387E+02 -0.19768243190E+03  0.22006157875E+03  0.91666824467E+02 0.  0.
          5    1    3    3  502    0  0.53002969037E+02 -0.33656190844E+02 -0.32525542863E+02  0.70833870764E+02  0.41800000000E+01 0.  1.
         -5    1    3    3    0  502 -0.63518469577E+02  0.47533864565E+01 -0.87411935383E+01  0.64428809741E+02  0.41800000000E+01 0.  1.
        -11    1    4    4    0    0 -0.41895867490E+01  0.61077209866E+02 -0.12059613056E+03  0.13524572048E+03  0.00000000000E+00 0.  1.
         11    1    4    4    0    0  0.14705087289E+02 -0.32174405479E+02 -0.77086301340E+02  0.84815858272E+02  0.00000000000E+00 0. -1.
</event>
<event>
 8    1  0.6380400E-009  0.1218186E+03  0.7561462E-02  0.1240127E+00
          1   -1    0    0  501    0  0.00000000000E+00  0.00000000000E+00  0.17919742281E+03  0.17919742281E+03  0.00000000000E+00 0. -1.
         -1   -1    0    0    0  501 -0.00000000000E+00 -0.00000000000E+00 -0.12523003952E+03  0.12523003952E+03  0.00000000000E+00 0.  1.
         25    2    1    2    0    0  0.45138733129E+02  0.73287494350E+02  0.93766091225E+02  0.17846210299E+03  0.12509228706E+03 0.  0.
         23    2    1    2    0    0 -0.45138733129E+02 -0.73287494350E+02 -0.39798707935E+02  0.12596535934E+03  0.82914248134E+02 0.  0.
          5    1    3    3  502    0  0.59148641905E+02 -0.13108907096E+02  0.57493765842E+02  0.83626615351E+02  0.41800000000E+01 0.  1.
         -5    1    3    3    0  502 -0.14009908776E+02  0.86396401446E+02  0.36272325383E+02  0.94835487637E+02  0.41800000000E+01 0.  1.
        -11    1    4    4    0    0 -0.52804780066E+02 -0.59853601591E+02  0.35942465020E+01  0.79898166620E+02  0.00000000000E+00 0. -1.
         11    1    4    4    0    0  0.76660469376E+01 -0.13433892759E+02 -0.43392954437E+02  0.46067192720E+02  0.00000000000E+00 0.  1.
</event>
<event>
 8    1  0.6380400E-009  0.1131650E+03  0.7561462E-02  0.1254818E+00
         -1   -1    0    0    0  501 -0.00000000000E+00  0.00000000000E+00  0.28152440823E+03  0.28152440823E+03  0.00000000000E+00 0.  1.
          1   -1    0    0  501    0  0.00000000000E+00 -0.00000000000E+00 -0.48270593305E+02  0.48270593305E+02  0.00000000000E+00 0. -1.
         25    2    1    2    0    0 -0.35639212435E+02 -0.19731273645E+02  0.14637728363E+03  0.19680358158E+03  0.12508342790E+03 0.  0.
         23    2    1    2    0    0  0.35639212435E+02  0.19731273645E+02  0.86876531294E+02  0.13299141996E+03  0.92085337980E+02 0.  0.
          5    1    3    3  502    0  0.64982022567E+00  0.48337834552E+02  0.86048575396E+02  0.98786629881E+02  0.41800000000E+01 0.  1.
         -5    1    3    3    0  502 -0.36289032661E+02 -0.68069108197E+02  0.60328708238E+02  0.98016951696E+02  0.41800000000E+01 0.  1.
        -11    1    4    4    0    0  0.34734707707E+02 -0.32944175847E+02  0.37897768742E+02  0.61057837477E+02  0.00000000000E+00 0. -1.
         11    1    4    4    0    0  0.90450472804E+00  0.52675449491E+02  0.48978762552E+02  0.71933582484E+02  0.00000000000E+00 0.  1.
</event>
<event>
 8    1  0.6380400E-009  0.1688563E+03  0.7561462E-02  0.1179046E+00
         -1   -1    0    0    0  501 -0.00000000000E+00  0.00000000000E+00  0.10222329238E+03  0.10222329238E+03  0.00000000000E+00 0.  1.
          1   -1    0    0  501    0  0.00000000000E+00 -0.00000000000E+00 -0.38958005006E+03  0.38958005006E+03  0.00000000000E+00 0. -1.
         25    2    1    2    0    0 -0.11729799743E+03 -0.83240876242E+02 -0.26156957852E+03  0.32365651416E+03  0.12508809326E+03 0.  0.
         23    2    1    2    0    0  0.11729799743E+03  0.83240876242E+02 -0.25787179165E+02  0.16814682828E+03  0.83189624193E+02 0.  0.
          5    1    3    3  502    0 -0.35158260365E+01  0.29580719429E+02 -0.47582438888E+02  0.56293346722E+02  0.41800000000E+01 0. -1.
         -5    1    3    3    0  502 -0.11378217139E+03 -0.11282159567E+03 -0.21398713963E+03  0.26736316744E+03  0.41800000000E+01 0. -1.
        -11    1    4    4    0    0  0.56394536088E+02  0.59490274599E+02  0.24630034176E+02  0.85592494157E+02  0.00000000000E+00 0.  1.
         11    1    4    4    0    0  0.60903461340E+02  0.23750601643E+02 -0.50417213341E+02  0.82554334124E+02  0.00000000000E+00 0. -1.
</event>
<event>
 8    1  0.6380400E-009  0.1105993E+03  0.7561462E-02  0.1259464E+00
          1   -1    0    0  501    0  0.00000000000E+00  0.00000000000E+00  0.18638692122E+03  0.18638692122E+03  0.00000000000E+00 0. -1.
         -1   -1    0    0    0  501 -0.00000000000E+00 -0.00000000000E+00 -0.67891215283E+02  0.67891215283E+02  0.00000000000E+00 0.  1.
         25    2    1    2    0    0  0.25120670553E+02  0.21307347152E+02  0.57023624017E+02  0.14136570888E+03  0.12509004285E+03 0.  0.
         23    2    1    2    0    0 -0.25120670553E+02 -0.21307347152E+02  0.61472081924E+02  0.11291242763E+03  0.88799483808E+02 0.  0.
          5    1    3    3  502    0  0.38244252942E+01 -0.52047049313E+02  0.17096638398E+02  0.55075303136E+02  0.41800000000E+01 0. -1.
         -5    1    3    3    0  502  0.21296245259E+02  0.73354396465E+02  0.39926985619E+02  0.86290405745E+02  0.41800000000E+01 0. -1.
        -11    1    4    4    0    0 -0.12861038853E+02  0.33657547252E+02  0.12069565052E+02  0.37998831666E+02  0.00000000000E+00 0.  1.
         11    1    4    4    0    0 -0.12259631701E+02 -0.54964894405E+02  0.49402516872E+02  0.74913595960E+02  0.00000000000E+00 0. -1.
</event>
<event>
 8    1  0.6380400E-009  0.7204304E+02  0.7561462E-02  0.1353280E+00
          1   -1    0    0  501    0  0.00000000000E+00  0.00000000000E+00  0.46757045328E+02  0.46757045328E+02  0.00000000000E+00 0. -1.
         -1   -1    0    0    0  501 -0.00000000000E+00 -0.00000000000E+00 -0.28351971012E+03  0.28351971012E+03  0.00000000000E+00 0.  1.
         25    2    1    2    0    0 -0.25244313500E+02  0.27259784562E+02 -0.12065439923E+03  0.17771442819E+03  0.12507822638E+03 0.  0.
         23    2    1    2    0    0  0.25244313500E+02 -0.27259784562E+02 -0.11610826556E+03  0.15256232726E+03  0.91726567298E+02 0.  0.
          5    1    3    3  502    0  0.50524808787E+01  0.36383016296E+02  0.13847695631E+02  0.39477620396E+02  0.41800000000E+01 0. -1.
         -5    1    3    3    0  502 -0.30296794378E+02 -0.91232317342E+01 -0.13450209486E+03  0.13823680780E+03  0.41800000000E+01 0. -1.
        -11    1    4    4    0    0  0.45822878260E+02 -0.70566053970E+01 -0.17061488722E+02  0.49402694756E+02  0.00000000000E+00 0. -1.
         11    1    4    4    0    0 -0.20578564760E+02 -0.20203179165E+02 -0.99046776836E+02  0.10315963250E+03  0.00000000000E+00 0.  1.
</event>
<event>
 8    1  0.6380400E-009  0.2846941E+03  0.7561462E-02  0.1093152E+00
          3   -1    0    0  501    0  0.00000000000E+00  0.00000000000E+00  0.77441173208E+02  0.77441173208E+02  0.00000000000E+00 0. -1.
         -3   -1    0    0    0  501 -0.00000000000E+00 -0.00000000000E+00 -0.11124080073E+04  0.11124080073E+04  0.00000000000E+00 0.  1.
         25    2    1    2    0    0 -0.22092879587E+03 -0.15732254456E+03 -0.47338389509E+03  0.55973131529E+03  0.12508763853E+03 0.  0.
         23    2    1    2    0    0  0.22092879587E+03  0.15732254456E+03 -0.56158293900E+03  0.63011786521E+03  0.90073363509E+02 0.  0.
          5    1    3    3  502    0 -0.19793607625E+03 -0.16958876237E+03 -0.46305107141E+03  0.53138762287E+03  0.41800000000E+01 0.  1.
         -5    1    3    3    0  502 -0.22992719618E+02  0.12266217805E+02 -0.10332823673E+02  0.28343692415E+02  0.41800000000E+01 0.  1.
        -11    1    4    4    0    0  0.14747018432E+03  0.57300367491E+02 -0.26526963250E+03  0.30886690549E+03  0.00000000000E+00 0. -1.
         11    1    4    4    0    0  0.73458611550E+02  0.10002217707E+03 -0.29631330649E+03  0.32125095972E+03  0.00000000000E+00 0.  1.
</event>
<event>
 7    1  0.6380400E-009  0.1263052E+03  0.7561462E-02  0.1233043E+00
         -2   -1    0    0    0  501 -0.00000000000E+00  0.00000000000E+00  0.63295397841E+02  0.63295397841E+02  0.00000000000E+00 0.  1.
          2   -1    0    0  501    0  0.00000000000E+00 -0.00000000000E+00 -0.31804447083E+03  0.31804447083E+03  0.00000000000E+00 0. -1.
         23    2    1    2    0    0  0.69570779997E+02 -0.52383434910E+02 -0.88002721241E+02  0.15526313934E+03  0.93691225887E+02 0.  0.
          5    1    1    2  502    0 -0.44366726193E+02  0.83096421206E+02 -0.59163606840E+02  0.11131588559E+03  0.41800000000E+01 0. -1.
         -5    1    1    2    0  502 -0.25204053805E+02 -0.30712986296E+02 -0.10758274490E+03  0.11476084374E+03  0.41800000000E+01 0. -1.
        -11    1    3    3    0    0  0.38193552882E+02 -0.71901735883E+02 -0.30563261761E+02  0.86963900983E+02  0.00000000000E+00 0. -1.
         11    1    3    3    0    0  0.31377227115E+02  0.19518300973E+02 -0.57439459479E+02  0.68299238353E+02  0.00000000000E+00 0.  1.
</event>
<event>
 8    1  0.6380400E-009  0.6213857E+02  0.7561462E-02  0.1389070E+00
          2   -1    0    0  501    0  0.00000000000E+00  0.00000000000E+00  0.25778208388E+02  0.25778208388E+02  0.00000000000E+00 0. -1.
         -2   -1    0    0    0  501 -0.00000000000E+00 -0.00000000000E+00 -0.47914664223E+03  0.47914664223E+03  0.00000000000E+00 0.  1.
         25    2    1    2    0    0  0.26034163662E+02 -0.22579034999E+01 -0.27351964274E+03  0.30189966625E+03  0.12509011836E+03 0.  0.
         23    2    1    2    0    0 -0.26034163662E+02  0.22579034999E+01 -0.17984879110E+03  0.20302518437E+03  0.90502828803E+02 0.  0.
          5    1    3    3  502    0  0.23363604165E+02  0.14619597534E+02 -0.61125532283E-01  0.27875917347E+02  0.41800000000E+01 0.  1.
         -5    1    3    3    0  502  0.26705594978E+01 -0.16877501034E+02 -0.27345851721E+03  0.27402374890E+03  0.41800000000E+01 0.  1.
        -11    1    4    4    0    0 -0.49242849820E+02 -0.13130185245E+02 -0.16229251812E+03  0.17010620642E+03  0.00000000000E+00 0.  1.
         11    1    4    4    0    0  0.23208686158E+02  0.15388088745E+02 -0.17556272976E+02  0.32918977949E+02  0.00000000000E+00 0. -1.
</event>
<event>
 8    1  0.6380400E-009  0.1371950E+03  0.7561462E-02  0.1217154E+00
         -1   -1    0    0    0  501 -0.00000000000E+00  0.00000000000E+00  0.13105561421E+04  0.13105561421E+04  0.00000000000E+00 0.  1.
          1   -1    0    0  501    0  0.00000000000E+00 -0.00000000000E+00 -0.19767862937E+02  0.19767862937E+02  0.00000000000E+00 0. -1.
         25    2    1    2    0    0 -0.59132415712E+02  0.97134355062E+02  0.83847569966E+03  0.85534956524E+03  0.12509857845E+03 0.  0.
         23    2    1    2    0    0  0.59132415712E+02 -0.97134355062E+02  0.45231257954E+03  0.47497443983E+03  0.89901742780E+02 0.  0.
          5    1    3    3  502    0 -0.84462939908E+02  0.32865923172E+02  0.60720929877E+03  0.61395012993E+03  0.41800000000E+01 0.  1.
         -5    1    3    3    0  502  0.25330524196E+02  0.64268431891E+02  0.23126640088E+03  0.24139943532E+03  0.41800000000E+01 0.  1.
        -11    1    4    4    0    0  0.28569344922E+02 -0.59260172840E+02  0.39196614429E+03  0.39744865558E+03  0.00000000000E+00 0.  1.
         11    1    4    4    0    0  0.30563070790E+02 -0.37874182223E+02  0.60346435254E+02  0.77525784246E+02  0.00000000000E+00 0. -1.
</event>
<event>
 8    1  0.6380400E-009  0.1063878E+03  0.7561462E-02  0.1267409E+00
         -2   -1    0    0    0  501 -0.00000000000E+00  0.00000000000E+00  0.21659759071E+02  0.21659759071E+02  0.00000000000E+00 0.  1.
          2   -1    0    0  501    0  0.00000000000E+00 -0.00000000000E+00 -0.84230237985E+03  0.84230237985E+03  0.00000000000E+00 0. -1.
         25    2    1    2    0    0  0.36621766268E+02 -0.15056374864E+02 -0.67754582542E+03  0.69013312491E+03  0.12509011298E+03 0.  0.
         23    2    1    2    0    0 -0.36621766268E+02  0.15056374864E+02 -0.14309679536E+03  0.17382901401E+03  0.90399032525E+02 0.  0.
          5    1    3    3  502    0  0.49233790231E+02 -0.63446725343E+02 -0.44879096264E+03  0.45593887047E+03  0.41800000000E+01 0.  1.
         -5    1    3    3    0  502 -0.12612023963E+02  0.48390350478E+02 -0.22875486278E+03  0.23419425444E+03  0.41800000000E+01 0.  1.
        -11    1    4    4    0    0 -0.17712604387E+02 -0.29142617241E+02 -0.15469390935E+02  0.37447704199E+02  0.00000000000E+00 0.  1.
         11    1    4    4    0    0 -0.18909161881E+02  0.44198992106E+02 -0.12762740443E+03  0.13638130982E+03  0.00000000000E+00 0. -1.
</event>
<event>
 8    1  0.6380400E-009  0.9950464E+02  0.7561462E-02  0.1281341E+00
          2   -1    0    0  501    0  0.00000000000E+00  0.00000000000E+00  0.94542728276E+02  0.94542728276E+02  0.00000000000E+00 0. -1.
         -2   -1    0    0    0  501 -0.00000000000E+00 -0.00000000000E+00 -0.13738554747E+03  0.13738554747E+03  0.00000000000E+00 0.  1.
         25    2    1    2    0    0 -0.30698179855E+02 -0.11925499816E+02 -0.33144979546E+02  0.13353474002E+03  0.12509333048E+03 0.  0.
         23    2    1    2    0    0  0.30698179855E+02  0.11925499816E+02 -0.96978396517E+01  0.98393535727E+02  0.92209782489E+02 0.  0.
          5    1    3    3  502    0  0.43144060165E+02 -0.13238485407E+01 -0.39353908337E+02  0.58560780424E+02  0.41800000000E+01 0.  1.
         -5    1    3    3    0  502 -0.73842240021E+02 -0.10601651275E+02  0.62089287908E+01  0.74973959598E+02  0.41800000000E+01 0.  1.
        -11    1    4    4    0    0  0.48452718374E+01  0.41421711342E+02 -0.32636063612E+02  0.52956090092E+02  0.00000000000E+00 0. -1.
         11    1    4    4    0    0  0.25852908018E+02 -0.29496211527E+02  0.22938223961E+02  0.45437445635E+02  0.00000000000E+00 0.  1.
</event>
<event>
 8    1  0.6380400E-009  0.1317045E+03  0.7561462E-02  0.1224948E+00
          1   -1    0    0  501    0  0.00000000000E+00  0.00000000000E+00  0.61108264286E+02  0.61108264286E+02  0.00000000000E+00 0. -1.
         -1   -1    0    0    0  501 -0.00000000000E+00 -0.00000000000E+00 -0.38969009228E+03  0.38969009228E+03  0.00000000000E+00 0.  1.
         25    2    1    2    0    0  0.20355018970E+02  0.83504460862E+02 -0.77354118623E+02  0.17035688136E+03  0.12510190078E+03 0.  0.
         23    2    1    2    0    0 -0.20355018970E+02 -0.83504460862E+02 -0.25122770937E+03  0.28044147521E+03  0.90248198204E+02 0.  0.
          5    1    3    3  502    0 -0.38023977004E+02  0.82023528968E+02 -0.62395848587E+02  0.10992905190E+03  0.41800000000E+01 0.  1.
         -5    1    3    3    0  502  0.58378995975E+02  0.14809318938E+01 -0.14958270036E+02  0.60427829456E+02  0.41800000000E+01 0.  1.
        -11    1    4    4    0    0 -0.89636689669E+01 -0.96591436923E+02 -0.15641314639E+03  0.18405250722E+03  0.00000000000E+00 0.  1.
         11    1    4    4    0    0 -0.11391350004E+02  0.13086976061E+02 -0.94814562981E+02  0.96388967993E+02  0.00000000000E+00 0. -1.
</event>
<event>
 8    1  0.6380400E-009  0.4235466E+03  0.7561462E-02  0.1035918E+00
         -2   -1    0    0    0  501 -0.00000000000E+00  0.00000000000E+00  0.55798973869E+03  0.55798973869E+03  0.00000000000E+00 0.  1.
          2   -1    0    0  501    0  0.00000000000E+00 -0.00000000000E+00 -0.36426646179E+03  0.36426646179E+03  0.00000000000E+00 0. -1.
         25    2    1    2    0    0  0.31275928844E+03 -0.28246760520E+03  0.21885012084E+03  0.49106991151E+03  0.12509181468E+03 0.  0.
         23    2    1    2    0    0 -0.31275928844E+03  0.28246760520E+03 -0.25126843950E+02  0.43118628897E+03  0.87658068729E+02 0.  0.
          5    1    3    3  502    0  0.20593952695E+03 -0.20983367807E+03  0.87463926737E+02  0.30677136779E+03  0.41800000000E+01 0.  1.
         -5    1    3    3    0  502  0.10681976149E+03 -0.72633927128E+02  0.13138619411E+03  0.18429854372E+03  0.41800000000E+01 0.  1.
        -11    1    4    4    0    0 -0.71567254146E+02  0.40808358016E+02 -0.35249444690E+02  0.89608689873E+02  0.00000000000E+00 0. -1.
         11    1    4    4    0    0 -0.24119203430E+03  0.24165924719E+03  0.10122600740E+02  0.34157759910E+03  0.00000000000E+00 0.  1.
</event>
<event>
 8    1  0.6380400E-009  0.1252294E+03  0.7561462E-02  0.1234711E+00
         -4   -1    0    0    0  501 -0.00000000000E+00  0.00000000000E+00  0.11547458093E+03  0.11547458093E+03  0.00000000000E+00 0.  1.
          4   -1    0    0  501    0  0.00000000000E+00 -0.00000000000E+00 -0.20744217110E+03  0.20744217110E+03  0.00000000000E+00 0. -1.
         25    2    1    2    0    0 -0.83100419810E+02  0.52173637838E+02  0.20678320192E+01  0.15899632333E+03  0.12509111337E+03 0.  0.
         23    2    1    2    0    0  0.83100419810E+02 -0.52173637838E+02 -0.94035422182E+02  0.16392042870E+03  0.91648666456E+02 0.  0.
          5    1    3    3  502    0  0.98096334967E+00  0.47568756668E+02 -0.42231925349E+02  0.63755445404E+02  0.41800000000E+01 0. -1.
         -5    1    3    3    0  502 -0.84081383160E+02  0.46048811699E+01  0.44299757368E+02  0.95240877923E+02  0.41800000000E+01 0. -1.
        -11    1    4    4    0    0  0.10529718106E+02  0.15777156737E+02 -0.53133844408E+02  0.56418073874E+02  0.00000000000E+00 0. -1.
         11    1    4    4    0    0  0.72570701704E+02 -0.67950794575E+02 -0.40901577774E+02  0.10750235483E+03  0.00000000000E+00 0.  1.
</event>
<event>
 8    1  0.6380400E-009  0.1444867E+03  0.7561462E-02  0.1207416E+00
          2   -1    0    0  501    0  0.00000000000E+00  0.00000000000E+00  0.23011612284E+03  0.23011612284E+03  0.00000000000E+00 0. -1.
         -2   -1    0    0    0  501 -0.00000000000E+00 -0.00000000000E+00 -0.92962907585E+02  0.92962907585E+02  0.00000000000E+00 0.  1.
         25    2    1    2    0    0 -0.74195945824E+02  0.63165706608E+02  0.79647436104E+02  0.17744292775E+03  0.12508930275E+03 0.  0.
         23    2    1    2    0    0  0.74195945824E+02 -0.63165706608E+02  0.57505779148E+02  0.14563610267E+03  0.91695228327E+02 0.  0.
          5    1    3    3  502    0 -0.13145413479E+02 -0.37865601220E+02  0.23600924027E+02  0.46702052056E+02  0.41800000000E+01 0. -1.
         -5    1    3    3    0  502 -0.61050532345E+02  0.10103130783E+03  0.56046512077E+02  0.13074087569E+03  0.41800000000E+01 0. -1.
        -11    1    4    4    0    0 -0.34229841339E+01 -0.52028789754E+02  0.38877952090E+02  0.65040041070E+02  0.00000000000E+00 0.  1.
         11    1    4    4    0    0  0.77618929958E+02 -0.11136916854E+02  0.18627827058E+02  0.80596061602E+02  0.00000000000E+00 0. -1.
</event>
<event>
 8    1  0.6380400E-009  0.1177873E+03  0.7561462E-02  0.1246793E+00
         -2   -1    0    0    0  501 -0.00000000000E+00  0.00000000000E+00  0.12015333801E+03  0.12015333801E+03  0.00000000000E+00 0. -1.
          2   -1    0    0  501    0  0.00000000000E+00 -0.00000000000E+00 -0.24274653263E+03  0.24274653263E+03  0.00000000000E+00 0.  1.
         25    2    1    2    0    0  0.43452664984E+02 -0.75123643878E+02  0.39466318552E+02  0.15728053928E+03  0.12509149360E+03 0.  0.
         23    2    1    2    0    0 -0.43452664984E+02  0.75123643878E+02 -0.16205951316E+03  0.20561933136E+03  0.92110410153E+02 0.  0.
          5    1    3    3  502    0  0.57187675365E+02 -0.35930112204E+02 -0.31740399164E+02  0.74741745469E+02  0.41800000000E+01 0. -1.
         -5    1    3    3    0  502 -0.13735010381E+02 -0.39193531673E+02  0.71206717717E+02  0.82538793807E+02  0.41800000000E+01 0. -1.
        -11    1    4    4    0    0 -0.25102579706E+02 -0.18231943595E+02 -0.33170941433E+02  0.45418659499E+02  0.00000000000E+00 0. -1.
         11    1    4    4    0    0 -0.18350085278E+02  0.93355587472E+02 -0.12888857173E+03  0.16020067186E+03  0.00000000000E+00 0.  1.
</event>
<event>
 8    1  0.6380400E-009  0.2050137E+03  0.7561462E-02  0.1145577E+00
         -2   -1    0    0    0  501 -0.00000000000E+00  0.00000000000E+00  0.77792660905E+02  0.77792660905E+02  0.00000000000E+00 0.  1.
          2   -1    0    0  501    0  0.00000000000E+00 -0.00000000000E+00 -0.62954388045E+03  0.62954388045E+03  0.00000000000E+00 0. -1.
         25    2    1    2    0    0  0.88960498188E+02  0.16666548904E+03 -0.22678449352E+03  0.32057662324E+03  0.12508720714E+03 0.  0.
         23    2    1    2    0    0 -0.88960498188E+02 -0.16666548904E+03 -0.32496672602E+03  0.38675991811E+03  0.91041231137E+02 0.  0.
          5    1    3    3  502    0  0.11624933291E+03  0.12316164939E+03 -0.20128136074E+03  0.26308621755E+03  0.41800000000E+01 0.  1.
         -5    1    3    3    0  502 -0.27288834722E+02  0.43503839642E+02 -0.25503132780E+02  0.57490405684E+02  0.41800000000E+01 0.  1.
        -11    1    4    4    0    0 -0.59209164649E+02 -0.10268139821E+03 -0.11458619080E+03  0.16486112289E+03  0.00000000000E+00 0.  1.
         11    1    4    4    0    0 -0.29751333540E+02 -0.63984090830E+02 -0.21038053522E+03  0.22189879523E+03  0.00000000000E+00 0. -1.
</event>
<event>
 8    1  0.6380400E-009  0.1796357E+03  0.7561462E-02  0.1168156E+00
          3   -1    0    0  501    0  0.00000000000E+00  0.00000000000E+00  0.52802860381E+02  0.52802860381E+02  0.00000000000E+00 0. -1.
         -3   -1    0    0    0  501 -0.00000000000E+00 -0.00000000000E+00 -0.88772857104E+03  0.88772857104E+03  0.00000000000E+00 0.  1.
         25    2    1    2    0    0 -0.67540141799E+02  0.16347355515E+03 -0.30468833004E+03  0.37385427755E+03  0.12508704328E+03 0.  0.
         23    2    1    2    0    0  0.67540141799E+02 -0.16347355515E+03 -0.53023738062E+03  0.56667715387E+03  0.93198942699E+02 0.  0.
          5    1    3    3  502    0 -0.67717263749E+02  0.12507716264E+03 -0.30351307776E+03  0.33521274617E+03  0.41800000000E+01 0. -1.
         -5    1    3    3    0  502  0.17712195034E+00  0.38396392509E+02 -0.11752522813E+01  0.38641531385E+02  0.41800000000E+01 0. -1.
        -11    1    4    4    0    0  0.93317823508E+01 -0.49557062596E+02 -0.29145744718E+03  0.29578780930E+03  0.00000000000E+00 0.  1.
         11    1    4    4    0    0  0.58208359448E+02 -0.11391649255E+03 -0.23877993345E+03  0.27088934457E+03  0.00000000000E+00 0. -1.
</event>
<event>
 8    1  0.6380400E-009  0.1112772E+03  0.7561462E-02  0.1258223E+00
          2   -1    0    0  501    0  0.00000000000E+00  0.00000000000E+00  0.64947023732E+03  0.64947023732E+03  0.00000000000E+00 0. -1.
         -2   -1    0    0    0  501 -0.00000000000E+00 -0.00000000000E+00 -0.30713962828E+02  0.30713962828E+02  0.00000000000E+00 0.  1.
         25    2    1    2    0    0 -0.62368377604E+02 -0.25895930805E+02  0.48939506769E+03  0.50962525616E+03  0.12509978290E+03 0.  0.
         23    2    1    2    0    0  0.62368377604E+02  0.25895930805E+02  0.12936120680E+03  0.17055894399E+03  0.88292795808E+02 0.  0.
          5    1    3    3  502    0 -0.35473575393E+02 -0.61201680317E+02  0.13528724071E+03  0.15272239562E+03  0.41800000000E+01 0. -1.
         -5    1    3    3    0  502 -0.26894802212E+02  0.35305749512E+02  0.35410782697E+03  0.35690286054E+03  0.41800000000E+01 0. -1.
        -11    1    4    4    0    0  0.35726534951E+02  0.56305461690E+02  0.10155243975E+03  0.12148904615E+03  0.00000000000E+00 0. -1.
         11    1    4    4    0    0  0.26641842654E+02 -0.30409530885E+02  0.27808767053E+02  0.49069897836E+02  0.00000000000E+00 0.  1.
</event>
<event>
 8    1  0.6380400E-009  0.8267474E+02  0.7561462E-02  0.1321628E+00
         -2   -1    0    0    0  501 -0.00000000000E+00  0.00000000000E+00  0.45490168666E+02  0.45490168666E+02  0.00000000000E+00 0.  1.
          2   -1    0    0  501    0  0.00000000000E+00 -0.00000000000E+00 -0.27666909638E+03  0.27666909638E+03  0.00000000000E+00 0. -1.
         25    2    1    2    0    0  0.93105629964E+01  0.21416725076E+02 -0.18063648330E+03  0.22096163411E+03  0.12509653053E+03 0.  0.
         23    2    1    2    0    0 -0.93105629964E+01 -0.21416725076E+02 -0.50542444407E+02  0.10119763094E+03  0.84504787582E+02 0.  0.
          5    1    3    3  502    0  0.44531685041E+01  0.58184388579E+02 -0.29955132434E+02  0.65726981850E+02  0.41800000000E+01 0.  1.
         -5    1    3    3    0  502  0.48573944923E+01 -0.36767663503E+02 -0.15068135087E+03  0.15523465226E+03  0.41800000000E+01 0.  1.
        -11    1    4    4    0    0  0.23336085536E+02 -0.27760740399E+02  0.48492460441E+01  0.36588888790E+02  0.00000000000E+00 0.  1.
         11    1    4    4    0    0 -0.32646648533E+02  0.63440153228E+01 -0.55391690451E+02  0.64608742147E+02  0.00000000000E+00 0. -1.
</event>
<event>
 8    1  0.6380400E-009  0.1208042E+03  0.7561462E-02  0.1241776E+00
          2   -1    0    0  501    0  0.00000000000E+00  0.00000000000E+00  0.25045209066E+03  0.25045209066E+03  0.00000000000E+00 0. -1.
         -2   -1    0    0    0  501 -0.00000000000E+00 -0.00000000000E+00 -0.66707709501E+02  0.66707709501E+02  0.00000000000E+00 0.  1.
         25    2    1    2    0    0 -0.70915282364E+02 -0.25806291950E+02  0.10252195593E+03  0.17847284857E+03  0.12508742643E+03 0.  0.
         23    2    1    2    0    0  0.70915282364E+02  0.25806291950E+02  0.81222425226E+02  0.13868695159E+03  0.83318942654E+02 0.  0.
          5    1    3    3  502    0 -0.99390558768E+02 -0.44740811130E+02  0.62684897273E+02  0.12580577133E+03  0.41800000000E+01 0.  1.
         -5    1    3    3    0  502  0.28475276404E+02  0.18934519179E+02  0.39837058659E+02  0.52667077244E+02  0.41800000000E+01 0.  1.
        -11    1    4    4    0    0  0.58049858139E+02 -0.11007566935E+02  0.80279687994E+02  0.99678387147E+02  0.00000000000E+00 0. -1.
         11    1    4    4    0    0  0.12865424225E+02  0.36813858885E+02  0.94273723194E+00  0.39008564444E+02  0.00000000000E+00 0.  1.
</event>
<event>
 8    1  0.6380400E-009  0.1223861E+03  0.7561462E-02  0.1239212E+00
          2   -1    0    0  501    0  0.00000000000E+00  0.00000000000E+00  0.39721224949E+03  0.39721224949E+03  0.00000000000E+00 0. -1.
         -2   -1    0    0    0  501 -0.00000000000E+00 -0.00000000000E+00 -0.77208853878E+02  0.77208853878E+02  0.00000000000E+00 0.  1.
         25    2    1    2    0    0  0.61626962822E+02 -0.74858421008E+01  0.47387419888E+01  0.13972724691E+03  0.12508927802E+03 0.  0.
         23    2    1    2    0    0 -0.61626962822E+02  0.74858421008E+01  0.31526465362E+03  0.33469385645E+03  0.93670995229E+02 0.  0.
          5    1    3    3  502    0  0.44566499855E+02  0.56413766401E+02  0.12191492339E+02  0.73039652480E+02  0.41800000000E+01 0.  1.
         -5    1    3    3    0  502  0.17060462967E+02 -0.63899608502E+02 -0.74527503504E+01  0.66687594432E+02  0.41800000000E+01 0.  1.
        -11    1    4    4    0    0 -0.55789531815E+02  0.43036957324E+02  0.15251634008E+03  0.16800561166E+03  0.00000000000E+00 0. -1.
         11    1    4    4    0    0 -0.58374310070E+01 -0.35551115224E+02  0.16274831354E+03  0.16668824480E+03  0.00000000000E+00 0.  1.
</event>
<event>
 8    1  0.6380400E-009  0.1103001E+03  0.7561462E-02  0.1260015E+00
         -1   -1    0    0    0  501 -0.00000000000E+00  0.00000000000E+00  0.11709814433E+03  0.11709814433E+03  0.00000000000E+00 0.  1.
          1   -1    0    0  501    0  0.00000000000E+00 -0.00000000000E+00 -0.20116081694E+03  0.20116081694E+03  0.00000000000E+00 0. -1.
         25    2    1    2    0    0  0.36728097680E+02  0.60036697768E+02 -0.13248165086E+03  0.19532733983E+03  0.12509206063E+03 0.  0.
         23    2    1    2    0    0 -0.36728097680E+02 -0.60036697768E+02  0.48418978251E+02  0.12293162144E+03  0.88399252581E+02 0.  0.
          5    1    3    3  502    0  0.54951555015E+02  0.70311788323E+02 -0.35671467726E+02  0.96194318884E+02  0.41800000000E+01 0.  1.
         -5    1    3    3    0  502 -0.18223457335E+02 -0.10275090555E+02 -0.96810183133E+02  0.99133020944E+02  0.41800000000E+01 0.  1.
        -11    1    4    4    0    0  0.78897847929E+01  0.18215912813E+02 -0.15672754164E+01  0.19912923842E+02  0.00000000000E+00 0.  1.
         11    1    4    4    0    0 -0.44617882473E+02 -0.78252610581E+02  0.49986253667E+02  0.10301869760E+03  0.00000000000E+00 0. -1.
</event>
<event>
 8    1  0.6380400E-009  0.1760228E+03  0.7561462E-02  0.1171709E+00
          1   -1    0    0  501    0  0.00000000000E+00  0.00000000000E+00  0.75182640929E+03  0.75182640929E+03  0.00000000000E+00 0. -1.
         -1   -1    0    0    0  501 -0.00000000000E+00 -0.00000000000E+00 -0.51233922685E+02  0.51233922685E+02  0.00000000000E+00 0.  1.
         25    2    1    2    0    0  0.32642294122E+02  0.15655898072E+03  0.43511998866E+03  0.48015904473E+03  0.12508824843E+03 0.  0.
         23    2    1    2    0    0 -0.32642294122E+02 -0.15655898072E+03  0.26547249795E+03  0.32290128724E+03  0.90627591427E+02 0.  0.
          5    1    3    3  502    0  0.69880946878E+02  0.99477436344E+02  0.18915110169E+03  0.22488823613E+03  0.41800000000E+01 0. -1.
         -5    1    3    3    0  502 -0.37238652756E+02  0.57081544378E+02  0.24596888697E+03  0.25527080860E+03  0.41800000000E+01 0. -1.
        -11    1    4    4    0    0 -0.23609064157E+02 -0.51253562789E+02  0.28051356761E+02  0.63017412078E+02  0.00000000000E+00 0.  1.
         11    1    4    4    0    0 -0.90332299653E+01 -0.10530541793E+03  0.23742114118E+03  0.25988387517E+03  0.00000000000E+00 0. -1.
</event>
<event>
 8    1  0.6380400E-009  0.1276239E+03  0.7561462E-02  0.1231025E+00
          2   -1    0    0  501    0  0.00000000000E+00  0.00000000000E+00  0.17041142243E+03  0.17041142243E+03  0.00000000000E+00 0. -1.
         -2   -1    0    0    0  501 -0.00000000000E+00 -0.00000000000E+00 -0.32191556931E+03  0.32191556931E+03  0.00000000000E+00 0.  1.
         25    2    1    2    0    0  0.32871160947E+02  0.10747534245E+03 -0.26185055476E+03  0.31119846981E+03  0.12508921669E+03 0.  0.
         23    2    1    2    0    0 -0.32871160947E+02 -0.10747534245E+03  0.11034640788E+03  0.18112852192E+03  0.89441317439E+02 0.  0.
          5    1    3    3  502    0 -0.11907705867E+02  0.34061188605E+02 -0.20461665765E+03  0.20781580069E+03  0.41800000000E+01 0.  1.
         -5    1    3    3    0  502  0.44778866814E+02  0.73414153844E+02 -0.57233897108E+02  0.10338266913E+03  0.41800000000E+01 0.  1.
        -11    1    4    4    0    0 -0.55277235420E+02 -0.70383707625E+02  0.38935863479E+02  0.97598363304E+02  0.00000000000E+00 0.  1.
         11    1    4    4    0    0  0.22406074473E+02 -0.37091634823E+02  0.71410544401E+02  0.83530158618E+02  0.00000000000E+00 0. -1.
</event>
<event>
 8    1  0.6380400E-009  0.1845403E+03  0.7561462E-02  0.1163480E+00
          4   -1    0    0  501    0  0.00000000000E+00  0.00000000000E+00  0.40046920716E+03  0.40046920716E+03  0.00000000000E+00 0. -1.
         -4   -1    0    0    0  501 -0.00000000000E+00 -0.00000000000E+00 -0.88903832066E+02  0.88903832066E+02  0.00000000000E+00 0.  1.
         25    2    1    2    0    0  0.28634916632E+02  0.15271007888E+03  0.20067553495E+03  0.28294658736E+03  0.12509106416E+03 0.  0.
         23    2    1    2    0    0 -0.28634916632E+02 -0.15271007888E+03  0.11088984015E+03  0.20642645187E+03  0.78581147489E+02 0.  0.
          5    1    3    3  502    0  0.76131327413E+02  0.10611197808E+03  0.11262728729E+03  0.17250538875E+03  0.41800000000E+01 0. -1.
         -5    1    3    3    0  502 -0.47496410781E+02  0.46598100801E+02  0.88048247663E+02  0.11044119862E+03  0.41800000000E+01 0. -1.
        -11    1    4    4    0    0  0.24781311150E+02 -0.40674178133E+02  0.46651738162E+02  0.66669984420E+02  0.00000000000E+00 0.  1.
         11    1    4    4    0    0 -0.53416227782E+02 -0.11203590075E+03  0.64238101985E+02  0.13975646745E+03  0.00000000000E+00 0. -1.
</event>
<event>
 8    1  0.6380400E-009  0.1906892E+03  0.7561462E-02  0.1157841E+00
          1   -1    0    0  501    0  0.00000000000E+00  0.00000000000E+00  0.17890490363E+03  0.17890490363E+03  0.00000000000E+00 0. -1.
         -1   -1    0    0    0  501 -0.00000000000E+00 -0.00000000000E+00 -0.23838637837E+03  0.23838637837E+03  0.00000000000E+00 0.  1.
         25    2    1    2    0    0  0.13852676808E+03  0.98696549536E+02 -0.81893328046E+02  0.22646106090E+03  0.12508965009E+03 0.  0.
         23    2    1    2    0    0 -0.13852676808E+03 -0.98696549536E+02  0.22411853310E+02  0.19083022109E+03  0.83565589496E+02 0.  0.
          5    1    3    3  502    0  0.10551830122E+03  0.54035745051E+01 -0.14663399233E+02  0.10675110391E+03  0.41800000000E+01 0.  1.
         -5    1    3    3    0  502  0.33008466868E+02  0.93292975031E+02 -0.67229928813E+02  0.11970995699E+03  0.41800000000E+01 0.  1.
        -11    1    4    4    0    0 -0.53026916339E+02 -0.11084874001E+02 -0.24857147591E+02  0.59603742118E+02  0.00000000000E+00 0.  1.
         11    1    4    4    0    0 -0.85499851744E+02 -0.87611675535E+02  0.47269000900E+02  0.13122647898E+03  0.00000000000E+00 0. -1.
</event>
<event>
 8    1  0.6380400E-009  0.9713704E+02  0.7561462E-02  0.1286434E+00
          1   -1    0    0  501    0  0.00000000000E+00  0.00000000000E+00  0.48522966258E+03  0.48522966258E+03  0.00000000000E+00 0. -1.
         -1   -1    0    0    0  501 -0.00000000000E+00 -0.00000000000E+00 -0.38502066341E+02  0.38502066341E+02  0.00000000000E+00 0.  1.
         25    2    1    2    0    0 -0.36625128369E+02  0.59120357218E+02  0.33610205262E+03  0.36530840048E+03  0.12509604717E+03 0.  0.
         23    2    1    2    0    0  0.36625128369E+02 -0.59120357218E+02  0.11062554362E+03  0.15842332844E+03  0.89573006136E+02 0.  0.
          5    1    3    3  502    0  0.34151662999E+02  0.14247474969E+02  0.21362250395E+03  0.21684412194E+03  0.41800000000E+01 0.  1.
         -5    1    3    3    0  502 -0.70776791368E+02  0.44872882249E+02  0.12247954867E+03  0.14846427854E+03  0.41800000000E+01 0.  1.
        -11    1    4    4    0    0  0.26671714336E+02 -0.21635738488E+02 -0.65794224397E+01  0.34968190190E+02  0.00000000000E+00 0.  1.
         11    1    4    4    0    0  0.99534140329E+01 -0.37484618730E+02  0.11720496606E+03  0.12345513825E+03  0.00000000000E+00 0. -1.
</event>
<event>
 8    1  0.6380400E-009  0.1253199E+03  0.7561462E-02  0.1234570E+00
          1   -1    0    0  501    0  0.00000000000E+00  0.00000000000E+00  0.80725521374E+03  0.80725521374E+03  0.00000000000E+00 0. -1.
         -1   -1    0    0    0  501 -0.00000000000E+00 -0.00000000000E+00 -0.23250410709E+02  0.23250410709E+02  0.00000000000E+00 0.  1.
         25    2    1    2    0    0  0.90510465379E+01  0.69672185411E+02  0.30349317871E+03  0.33569654372E+03  0.12509166671E+03 0.  0.
         23    2    1    2    0    0 -0.90510465379E+01 -0.69672185411E+02  0.48051162433E+03  0.49480908073E+03  0.94912962220E+02 0.  0.
          5    1    3    3  502    0  0.52255033001E+02  0.79581912719E+02  0.23927992056E+03  0.25755819165E+03  0.41800000000E+01 0.  1.
         -5    1    3    3    0  502 -0.43203986463E+02 -0.99097273078E+01  0.64213258151E+02  0.78138352068E+02  0.41800000000E+01 0.  1.
        -11    1    4    4    0    0 -0.94030365530E+01  0.19499776033E+02  0.41229655308E+02  0.46567615771E+02  0.00000000000E+00 0.  1.
         11    1    4    4    0    0  0.35199001515E+00 -0.89171961444E+02  0.43928196902E+03  0.44824146496E+03  0.00000000000E+00 0. -1.
</event>
<event>
 8    1  0.6380400E-009  0.1176556E+03  0.7561462E-02  0.1247016E+00
          2   -1    0    0  501    0  0.00000000000E+00  0.00000000000E+00  0.62622024435E+03  0.62622024435E+03  0.00000000000E+00 0.  1.
         -2   -1    0    0    0  501 -0.00000000000E+00 -0.00000000000E+00 -0.30892733473E+02  0.30892733473E+02  0.00000000000E+00 0. -1.
         25    2    1    2    0    0  0.46017949501E+02 -0.38975655700E+02  0.17795046659E+03  0.22572455388E+03  0.12509377384E+03 0.  0.
         23    2    1    2    0    0 -0.46017949501E+02  0.38975655700E+02  0.41737704429E+03  0.43138842394E+03  0.90860452327E+02 0.  0.
          5    1    3    3  502    0 -0.37591925069E+02 -0.12280096859E+01  0.93887167706E+02  0.10122713815E+03  0.41800000000E+01 0. -1.
         -5    1    3    3    0  502  0.83609874570E+02 -0.37747646014E+02  0.84063298883E+02  0.12449741573E+03  0.41800000000E+01 0. -1.
        -11    1    4    4    0    0  0.78111583626E+01  0.50070207969E+02  0.25426616590E+03  0.25926689539E+03  0.00000000000E+00 0.  1.
         11    1    4    4    0    0 -0.53829107864E+02 -0.11094552270E+02  0.16311087839E+03  0.17212152855E+03  0.00000000000E+00 0. -1.
</event>
<event>
 8    1  0.6380400E-009  0.9375610E+02  0.7561462E-02  0.1294002E+00
         -2   -1    0    0    0  501 -0.00000000000E+00  0.00000000000E+00  0.46802654895E+02  0.46802654895E+02  0.00000000000E+00 0.  1.
          2   -1    0    0  501    0  0.00000000000E+00 -0.00000000000E+00 -0.27244130257E+03  0.27244130257E+03  0.00000000000E+00 0. -1.
         25    2    1    2    0    0 -0.62930641015E+00  0.15693736357E+02 -0.92070746310E+02  0.15611566343E+03  0.12509351964E+03 0.  0.
         23    2    1    2    0    0  0.62930641015E+00 -0.15693736357E+02 -0.13356790136E+03  0.16312829403E+03  0.92324247369E+02 0.  0.
          5    1    3    3  502    0  0.33157377595E+00 -0.53617704577E+02 -0.24069477563E+02  0.58921815445E+02  0.41800000000E+01 0.  1.
         -5    1    3    3    0  502 -0.96088018610E+00  0.69311440933E+02 -0.68001268747E+02  0.97193847986E+02  0.41800000000E+01 0.  1.
        -11    1    4    4    0    0  0.21393353407E+01 -0.39938131188E+02 -0.13294294769E+03  0.13882888179E+03  0.00000000000E+00 0. -1.
         11    1    4    4    0    0 -0.15100289306E+01  0.24244394831E+02 -0.62495366877E+00  0.24299412239E+02  0.00000000000E+00 0.  1.
</event>
<event>
 8    1  0.6380400E-009  0.1228009E+03  0.7561462E-02  0.1238547E+00
         -1   -1    0    0    0  501 -0.00000000000E+00  0.00000000000E+00  0.44205101907E+02  0.44205101907E+02  0.00000000000E+00 0.  1.
          1   -1    0    0  501    0  0.00000000000E+00 -0.00000000000E+00 -0.11665739536E+04  0.11665739536E+04  0.00000000000E+00 0. -1.
         25    2    1    2    0    0 -0.34700647518E+02  0.76472209257E+02 -0.10623781081E+04  0.10730085243E+04  0.12509162585E+03 0.  0.
         23    2    1    2    0    0  0.34700647518E+02 -0.76472209257E+02 -0.59990743526E+02  0.13777053117E+03  0.91267169471E+02 0.  0.
          5    1    3    3  502    0  0.86878916931E+01  0.82352859414E+02 -0.92618566743E+03  0.92988969016E+03  0.41800000000E+01 0.  1.
         -5    1    3    3    0  502 -0.43388539211E+02 -0.58806501571E+01 -0.13619244070E+03  0.14311883414E+03  0.41800000000E+01 0.  1.
        -11    1    4    4    0    0 -0.27578383605E+02 -0.31598260293E+02 -0.27768646280E+01  0.42032466891E+02  0.00000000000E+00 0.  1.
         11    1    4    4    0    0  0.62279031123E+02 -0.44873948964E+02 -0.57213878898E+02  0.95738064278E+02  0.00000000000E+00 0. -1.
</event>
<event>
 8    1  0.6380400E-009  0.1113361E+03  0.7561462E-02  0.1258115E+00
         -4   -1    0    0    0  501 -0.00000000000E+00  0.00000000000E+00  0.65904901578E+03  0.65904901578E+03  0.00000000000E+00 0.  1.
          4   -1    0    0  501    0  0.00000000000E+00 -0.00000000000E+00 -0.19041844897E+02  0.19041844897E+02  0.00000000000E+00 0. -1.
         25    2    1    2    0    0  0.11584610703E+02  0.28174082331E+02  0.34298431448E+03  0.36634791573E+03  0.12507826855E+03 0.  0.
         23    2    1    2    0    0 -0.11584610703E+02 -0.28174082331E+02  0.29702285641E+03  0.31174294495E+03  0.89627587131E+02 0.  0.
          5    1    3    3  502    0  0.14985179957E+02 -0.48610085411E+02  0.11815569833E+03  0.12870795419E+03  0.41800000000E+01 0.  1.
         -5    1    3    3    0  502 -0.34005692537E+01  0.76784167742E+02  0.22482861614E+03  0.23763996154E+03  0.41800000000E+01 0.  1.
        -11    1    4    4    0    0 -0.39312248959E+01  0.32887204899E+02  0.10503755103E+03  0.11013587019E+03  0.00000000000E+00 0. -1.
         11    1    4    4    0    0 -0.76533858070E+01 -0.61061287230E+02  0.19198530538E+03  0.20160707476E+03  0.00000000000E+00 0.  1.
</event>
<event>
 8    1  0.6380400E-009  0.9064319E+02  0.7561462E-02  0.1301302E+00
         -2   -1    0    0    0  501 -0.00000000000E+00  0.00000000000E+00  0.52063965965E+02  0.52063965965E+02  0.00000000000E+00 0. -1.
          2   -1    0    0  501    0  0.00000000000E+00 -0.00000000000E+00 -0.38810347124E+03  0.38810347124E+03  0.00000000000E+00 0.  1.
         25    2    1    2    0    0  0.31188446321E+02  0.64784863091E+02 -0.27161859732E+03  0.30756728843E+03  0.12510466351E+03 0.  0.
         23    2    1    2    0    0 -0.31188446321E+02 -0.64784863091E+02 -0.64420907956E+02  0.13260014878E+03  0.90900761298E+02 0.  0.
          5    1    3    3  502    0 -0.56859918005E+00 -0.85769631534E+01 -0.19978231106E+03  0.20001082924E+03  0.41800000000E+01 0.  1.
         -5    1    3    3    0  502  0.31757045501E+02  0.73361826245E+02 -0.71836286263E+02  0.10755645919E+03  0.41800000000E+01 0.  1.
        -11    1    4    4    0    0  0.16025839760E+02 -0.26157346199E+02 -0.64692649384E+02  0.71597298724E+02  0.00000000000E+00 0.  1.
         11    1    4    4    0    0 -0.47214286082E+02 -0.38627516892E+02  0.27174142792E+00  0.61002850055E+02  0.00000000000E+00 0. -1.
</event>
<event>
 8    1  0.6380400E-009  0.1583852E+03  0.7561462E-02  0.1190532E+00
          3   -1    0    0  501    0  0.00000000000E+00  0.00000000000E+00  0.19144060873E+03  0.19144060873E+03  0.00000000000E+00 0. -1.
         -3   -1    0    0    0  501 -0.00000000000E+00 -0.00000000000E+00 -0.16383897078E+03  0.16383897078E+03  0.00000000000E+00 0.  1.
         25    2    1    2    0    0 -0.13556343594E+03  0.20812050472E+02  0.40227684499E+02  0.18993762059E+03  0.12508975380E+03 0.  0.
         23    2    1    2    0    0  0.13556343594E+03 -0.20812050472E+02 -0.12626046546E+02  0.16534195891E+03  0.91476552832E+02 0.  0.
          5    1    3    3  502    0 -0.13509337906E+03 -0.17175973767E+02  0.57642356859E+02  0.14793697592E+03  0.41800000000E+01 0. -1.
         -5    1    3    3    0  502 -0.47005687775E+00  0.37988024239E+02 -0.17414672360E+02  0.42000644667E+02  0.41800000000E+01 0. -1.
        -11    1    4    4    0    0  0.31797875300E+02  0.11201976105E+02 -0.41022847325E+02  0.53098617165E+02  0.00000000000E+00 0.  1.
         11    1    4    4    0    0  0.10376556064E+03 -0.32014026577E+02  0.28396800780E+02  0.11224334175E+03  0.00000000000E+00 0. -1.
</event>
<event>
 8    1  0.6380400E-009  0.1712898E+03  0.7561462E-02  0.1176509E+00
         -2   -1    0    0    0  501 -0.00000000000E+00  0.00000000000E+00  0.27097025152E+02  0.27097025152E+02  0.00000000000E+00 0. -1.
          2   -1    0    0  501    0  0.00000000000E+00 -0.00000000000E+00 -0.15074537111E+04  0.15074537111E+04  0.00000000000E+00 0.  1.
         25    2    1    2    0    0  0.91977620931E+02 -0.12355045583E+03 -0.10520193112E+04  0.10705685853E+04  0.12509143381E+03 0.  0.
         23    2    1    2    0    0 -0.91977620931E+02  0.12355045583E+03 -0.42833737484E+03  0.46398215104E+03  0.89899565684E+02 0.  0.
          5    1    3    3  502    0  0.98271647997E+02 -0.12875457323E+03 -0.70305884848E+03  0.72148754234E+03  0.41800000000E+01 0. -1.
         -5    1    3    3    0  502 -0.62940270658E+01  0.52041173936E+01 -0.34896046268E+03  0.34908104292E+03  0.41800000000E+01 0. -1.
        -11    1    4    4    0    0  0.97123578388E+01  0.35697186294E+02 -0.15556688486E+03  0.15990520526E+03  0.00000000000E+00 0.  1.
         11    1    4    4    0    0 -0.10168997877E+03  0.87853269539E+02 -0.27277048997E+03  0.30407694577E+03  0.00000000000E+00 0. -1.
</event>
<event>
 8    1  0.6380400E-009  0.1010941E+03  0.7561462E-02  0.1278012E+00
          2   -1    0    0  501    0  0.00000000000E+00  0.00000000000E+00  0.19010209423E+03  0.19010209423E+03  0.00000000000E+00 0. -1.
         -2   -1    0    0    0  501 -0.00000000000E+00 -0.00000000000E+00 -0.77804845249E+02  0.77804845249E+02  0.00000000000E+00 0.  1.
         25    2    1    2    0    0  0.38185154520E+02  0.20176926153E+02  0.24784607267E+02  0.13463643158E+03  0.12508987800E+03 0.  0.
         23    2    1    2    0    0 -0.38185154520E+02 -0.20176926153E+02  0.87512641710E+02  0.13327050789E+03  0.90759855883E+02 0.  0.
          5    1    3    3  502    0  0.11233715228E+02  0.72162015443E+02  0.80482100151E+01  0.73592111772E+02  0.41800000000E+01 0. -1.
         -5    1    3    3    0  502  0.26951439291E+02 -0.51985089289E+02  0.16736397252E+02  0.61044319812E+02  0.41800000000E+01 0. -1.
        -11    1    4    4    0    0 -0.20474731923E+02  0.18625678283E+02 -0.78777394113E+01  0.28778278563E+02  0.00000000000E+00 0.  1.
         11    1    4    4    0    0 -0.17710422596E+02 -0.38802604436E+02  0.95390381121E+02  0.10449222933E+03  0.00000000000E+00 0. -1.
</event>
<event>
 8    1  0.6380400E-009  0.1190375E+03  0.7561462E-02  0.1244693E+00
         -2   -1    0    0    0  501 -0.00000000000E+00  0.00000000000E+00  0.35199590406E+02  0.35199590406E+02  0.00000000000E+00 0.  1.
          2   -1    0    0  501    0  0.00000000000E+00 -0.00000000000E+00 -0.61504542800E+03  0.61504542800E+03  0.00000000000E+00 0. -1.
         25    2    1    2    0    0 -0.56098980735E+02  0.81133927708E+02 -0.28944258511E+03  0.33038545388E+03  0.12509087975E+03 0.  0.
         23    2    1    2    0    0  0.56098980735E+02 -0.81133927708E+02 -0.29040325249E+03  0.31985956452E+03  0.90809041941E+02 0.  0.
          5    1    3    3  502    0 -0.10751860674E+02  0.86176007456E+02 -0.87655216593E+02  0.12346180043E+03  0.41800000000E+01 0.  1.
         -5    1    3    3    0  502 -0.45347120061E+02 -0.50420797481E+01 -0.20178736851E+03  0.20692365345E+03  0.41800000000E+01 0.  1.
        -11    1    4    4    0    0  0.10016461846E+02 -0.46763446595E+02 -0.23570233336E+03  0.24050517541E+03  0.00000000000E+00 0. -1.
         11    1    4    4    0    0  0.46082518889E+02 -0.34370481113E+02 -0.54700919125E+02  0.79354389117E+02  0.00000000000E+00 0.  1.
</event>
<event>
 8    1  0.6380400E-009  0.2271828E+03  0.7561462E-02  0.1128638E+00
          2   -1    0    0  501    0  0.00000000000E+00  0.00000000000E+00  0.55897938043E+03  0.55897938043E+03  0.00000000000E+00 0.  1.
         -2   -1    0    0    0  501 -0.00000000000E+00 -0.00000000000E+00 -0.10376483651E+03  0.10376483651E+03  0.00000000000E+00 0. -1.
         25    2    1    2    0    0  0.11208938040E+03 -0.18237406291E+03  0.25990170521E+03  0.35919504940E+03  0.12509140307E+03 0.  0.
         23    2    1    2    0    0 -0.11208938040E+03  0.18237406291E+03  0.19531283871E+03  0.30354916755E+03  0.90391726007E+02 0.  0.
          5    1    3    3  502    0  0.12518593635E+03 -0.12243163887E+03  0.13920306392E+03  0.22373196075E+03  0.41800000000E+01 0.  1.
         -5    1    3    3    0  502 -0.13096555949E+02 -0.59942424047E+02  0.12069864129E+03  0.13546308865E+03  0.41800000000E+01 0.  1.
        -11    1    4    4    0    0 -0.27025589732E+02  0.17520461446E+02  0.77157520258E+02  0.83609999414E+02  0.00000000000E+00 0.  1.
         11    1    4    4    0    0 -0.85063790670E+02  0.16485360147E+03  0.11815531845E+03  0.21993916813E+03  0.00000000000E+00 0. -1.
</event>
<event>
 7    1  0.6380400E-009  0.8187836E+02  0.7561462E-02  0.1323804E+00
          1   -1    0    0  501    0  0.00000000000E+00  0.00000000000E+00  0.28795692936E+03  0.28795692936E+03  0.00000000000E+00 0. -1.
         -1   -1    0    0    0  501 -0.00000000000E+00 -0.00000000000E+00 -0.55476045381E+02  0.55476045381E+02  0.00000000000E+00 0.  1.
         23    2    1    2    0    0  0.64024846206E+02  0.16505948269E+02  0.11704657777E+03  0.16074343413E+03  0.88130148007E+02 0.  0.
          5    1    1    2  502    0 -0.47979874427E+02 -0.10707137524E+02 -0.14617159592E+02  0.51457214252E+02  0.41800000000E+01 0.  1.
         -5    1    1    2    0  502 -0.16044971779E+02 -0.57988107450E+01  0.13005146580E+03  0.13123232636E+03  0.41800000000E+01 0.  1.
        -11    1    3    3    0    0  0.76820656261E+02  0.11019146423E+01  0.52222751070E+02  0.92896949216E+02  0.00000000000E+00 0.  1.
         11    1    3    3    0    0 -0.12795810055E+02  0.15404033627E+02  0.64823826700E+02  0.67846484912E+02  0.00000000000E+00 0. -1.
</event>
<event>
 8    1  0.6380400E-009  0.1713528E+03  0.7561462E-02  0.1176444E+00
          1   -1    0    0  501    0  0.00000000000E+00  0.00000000000E+00  0.59883036098E+02  0.59883036098E+02  0.00000000000E+00 0. -1.
         -1   -1    0    0    0  501 -0.00000000000E+00 -0.00000000000E+00 -0.66158349306E+03  0.66158349306E+03  0.00000000000E+00 0.  1.
         25    2    1    2    0    0 -0.39425228617E+02 -0.14686360424E+03 -0.43618206774E+03  0.47856658056E+03  0.12509160206E+03 0.  0.
         23    2    1    2    0    0  0.39425228617E+02  0.14686360424E+03 -0.16551838922E+03  0.24289994860E+03  0.92091155702E+02 0.  0.
          5    1    3    3  502    0 -0.49136597255E+02 -0.52255285274E+02 -0.32193633216E+03  0.32985677861E+03  0.41800000000E+01 0.  1.
         -5    1    3    3    0  502  0.97113686380E+01 -0.94608318962E+02 -0.11424573558E+03  0.14870980195E+03  0.41800000000E+01 0.  1.
        -11    1    4    4    0    0  0.39711962902E+01  0.13936238156E+03 -0.14543925323E+03  0.20147014710E+03  0.00000000000E+00 0.  1.
         11    1    4    4    0    0  0.35454032327E+02  0.75012226775E+01 -0.20079135994E+02  0.41429801498E+02  0.00000000000E+00 0. -1.
</event>
<event>
 8    1  0.6380400E-009  0.1230476E+03  0.7561462E-02  0.1238153E+00
          3   -1    0    0  501    0  0.00000000000E+00  0.00000000000E+00  0.20995642448E+03  0.20995642448E+03  0.00000000000E+00 0. -1.
         -3   -1    0    0    0  501 -0.00000000000E+00 -0.00000000000E+00 -0.10035421840E+03  0.10035421840E+03  0.00000000000E+00 0.  1.
         25    2    1    2    0    0 -0.70462600106E+01  0.46295480166E+02  0.12576073226E+03  0.18345719327E+03  0.12509140146E+03 0.  0.
         23    2    1    2    0    0  0.70462600106E+01 -0.46295480166E+02 -0.16158526184E+02  0.12685344960E+03  0.11678089931E+03 0.  0.
          5    1    3    3  502    0  0.55171322760E+02  0.43475143258E+02  0.76488456084E+02  0.10393228204E+03  0.41800000000E+01 0.  1.
         -5    1    3    3    0  502 -0.62217582771E+02  0.28203369086E+01  0.49272276181E+02  0.79524911230E+02  0.41800000000E+01 0.  1.
        -11    1    4    4    0    0 -0.22517402455E+02 -0.71184898431E+02  0.16259310416E+02  0.76411310374E+02  0.00000000000E+00 0. -1.
         11    1    4    4    0    0  0.29563662466E+02  0.24889418264E+02 -0.32417836600E+02  0.50442139226E+02  0.00000000000E+00 0.  1.
</event>
<event>
 8    1  0.6380400E-009  0.1056707E+03  0.7561462E-02  0.1268804E+00
          1   -1    0    0  501    0  0.00000000000E+00  0.00000000000E+00  0.59139853984E+03  0.59139853984E+03  0.00000000000E+00 0. -1.
         -1   -1    0    0    0  501 -0.00000000000E+00 -0.00000000000E+00 -0.25233778801E+02  0.25233778801E+02  0.00000000000E+00 0.  1.
         25    2    1    2    0    0  0.26842494439E+02  0.35003282455E+02  0.39140339878E+03  0.41326634776E+03  0.12508678717E+03 0.  0.
         23    2    1    2    0    0 -0.26842494439E+02 -0.35003282455E+02  0.17476136226E+03  0.20336597088E+03  0.94182987227E+02 0.  0.
          5    1    3    3  502    0 -0.44649226197E+02 -0.89526821538E+01  0.18141797956E+03  0.18709264985E+03  0.41800000000E+01 0.  1.
         -5    1    3    3    0  502  0.71491720636E+02  0.43955964609E+02  0.20998541922E+03  0.22617369791E+03  0.41800000000E+01 0.  1.
        -11    1    4    4    0    0  0.71865089632E+00 -0.50136600287E+02  0.16173951933E+03  0.16933359756E+03  0.00000000000E+00 0. -1.
         11    1    4    4    0    0 -0.27561145335E+02  0.15133317832E+02  0.13021842925E+02  0.34032373322E+02  0.00000000000E+00 0.  1.
</event>
<event>
 8    1  0.6380400E-009  0.2292627E+03  0.7561462E-02  0.1127160E+00
          2   -1    0    0  501    0  0.00000000000E+00  0.00000000000E+00  0.11709928899E+04  0.11709928899E+04  0.00000000000E+00 0. -1.
         -2   -1    0    0    0  501 -0.00000000000E+00 -0.00000000000E+00 -0.54358232025E+02  0.54358232025E+02  0.00000000000E+00 0.  1.
         25    2    1    2    0    0  0.21970794411E+03  0.31585665764E+02  0.69390601560E+03  0.73920433046E+03  0.12509296027E+03 0.  0.
         23    2    1    2    0    0 -0.21970794411E+03 -0.31585665764E+02  0.42272864225E+03  0.48614679143E+03  0.91487501071E+02 0.  0.
          5    1    3    3  502    0  0.16241940608E+03 -0.13736187057E+02  0.59003814530E+03  0.61215294790E+03  0.41800000000E+01 0.  1.
         -5    1    3    3    0  502  0.57288538032E+02  0.45321852821E+02  0.10386787029E+03  0.12705138257E+03  0.41800000000E+01 0.  1.
        -11    1    4    4    0    0 -0.58850185303E+02 -0.29980875621E+01  0.43565547791E+02  0.73282261111E+02  0.00000000000E+00 0.  1.
         11    1    4    4    0    0 -0.16085775881E+03 -0.28587578202E+02  0.37916309446E+03  0.41286453032E+03  0.00000000000E+00 0. -1.
</event>
<event>
 8    1  0.6380400E-009  0.1192356E+03  0.7561462E-02  0.1244363E+00
          2   -1    0    0  501    0  0.00000000000E+00  0.00000000000E+00  0.68539443887E+03  0.68539443887E+03  0.00000000000E+00 0. -1.
         -2   -1    0    0    0  501 -0.00000000000E+00 -0.00000000000E+00 -0.28781896327E+02  0.28781896327E+02  0.00000000000E+00 0.  1.
         25    2    1    2    0    0  0.81030246146E+00  0.62132961858E+02  0.19580739105E+03  0.24053042162E+03  0.12511270037E+03 0.  0.
         23    2    1    2    0    0 -0.81030246146E+00 -0.62132961858E+02  0.46080515149E+03  0.47364591358E+03  0.90210322419E+02 0.  0.
          5    1    3    3  502    0 -0.31531182407E+02  0.88659241456E+02  0.15824474447E+03  0.18415631434E+03  0.41800000000E+01 0.  1.
         -5    1    3    3    0  502  0.32341484869E+02 -0.26526279598E+02  0.37562646579E+02  0.56374107273E+02  0.41800000000E+01 0.  1.
        -11    1    4    4    0    0  0.29691840046E+02  0.34710790126E+01  0.68703055811E+02  0.74925053437E+02  0.00000000000E+00 0.  1.
         11    1    4    4    0    0 -0.30502142507E+02 -0.65604040871E+02  0.39210209568E+03  0.39872086014E+03  0.00000000000E+00 0. -1.
</event>
<event>
 8    1  0.6380400E-009  0.9866396E+02  0.7561462E-02  0.1283131E+00
         -3   -1    0    0    0  501 -0.00000000000E+00  0.00000000000E+00  0.67881334355E+02  0.67881334355E+02  0.00000000000E+00 0.  1.
          3   -1    0    0  501    0  0.00000000000E+00 -0.00000000000E+00 -0.22014073288E+03  0.22014073288E+03  0.00000000000E+00 0. -1.
         25    2    1    2    0    0  0.30261358322E+02 -0.47965012090E+02 -0.78165035175E+02  0.15803111575E+03  0.12509064165E+03 0.  0.
         23    2    1    2    0    0 -0.30261358322E+02  0.47965012090E+02 -0.74094363347E+02  0.12999095148E+03  0.90505693718E+02 0.  0.
          5    1    3    3  502    0 -0.24152917007E+02 -0.13278063089E+02 -0.88282470672E+02  0.92579357242E+02  0.41800000000E+01 0.  1.
         -5    1    3    3    0  502  0.54414275328E+02 -0.34686949001E+02  0.10117435498E+02  0.65451758506E+02  0.41800000000E+01 0.  1.
        -11    1    4    4    0    0 -0.52902323859E+02  0.13002392101E+01 -0.49988612064E+02  0.72795658029E+02  0.00000000000E+00 0.  1.
         11    1    4    4    0    0  0.22640965537E+02  0.46664772880E+02 -0.24105751282E+02  0.57195293454E+02  0.00000000000E+00 0. -1.
</event>
<event>
 8    1  0.6380400E-009  0.1123224E+03  0.7561462E-02  0.1256329E+00
          2   -1    0    0  501    0  0.00000000000E+00  0.00000000000E+00  0.13988096615E+04  0.13988096615E+04  0.00000000000E+00 0. -1.
         -2   -1    0    0    0  501 -0.00000000000E+00 -0.00000000000E+00 -0.13415170069E+02  0.13415170069E+02  0.00000000000E+00 0.  1.
         25    2    1    2    0    0 -0.52532933190E+02 -0.64093397278E+02  0.69814361047E+03  0.71408674970E+03  0.12509081743E+03 0.  0.
         23    2    1    2    0    0  0.52532933190E+02  0.64093397278E+02  0.68725088099E+03  0.69813808190E+03  0.90638487073E+02 0.  0.
          5    1    3    3  502    0 -0.42508838693E+02 -0.75562214128E+02  0.23248012783E+03  0.24815545895E+03  0.41800000000E+01 0. -1.
         -5    1    3    3    0  502 -0.10024094497E+02  0.11468816850E+02  0.46566348264E+03  0.46593129075E+03  0.41800000000E+01 0. -1.
        -11    1    4    4    0    0  0.28608937257E+02 -0.19813053887E+02  0.16266313304E+03  0.16634399071E+03  0.00000000000E+00 0.  1.
         11    1    4    4    0    0  0.23923995933E+02  0.83906451165E+02  0.52458774795E+03  0.53179409120E+03  0.00000000000E+00 0. -1.
</event>
<event>
 8    1  0.6380400E-009  0.3385411E+03  0.7561462E-02  0.1067419E+00
         -1   -1    0    0    0  501 -0.00000000000E+00  0.00000000000E+00  0.13022685186E+03  0.13022685186E+03  0.00000000000E+00 0.  1.
          1   -1    0    0  501    0  0.00000000000E+00 -0.00000000000E+00 -0.90003567356E+03  0.90003567356E+03  0.00000000000E+00 0. -1.
         25    2    1    2    0    0 -0.14189923114E+03 -0.29150666285E+03 -0.39537241263E+03  0.52638397540E+03  0.12509683692E+03 0.  0.
         23    2    1    2    0    0  0.14189923114E+03  0.29150666285E+03 -0.37443640908E+03  0.50387855002E+03  0.92625279715E+02 0.  0.
          5    1    3    3  502    0 -0.10782443611E+02 -0.14614159061E+03 -0.21458475390E+03  0.25988019279E+03  0.41800000000E+01 0.  1.
         -5    1    3    3    0  502 -0.13111678753E+03 -0.14536507223E+03 -0.18078765872E+03  0.26650378261E+03  0.41800000000E+01 0.  1.
        -11    1    4    4    0    0 -0.46622338067E+01  0.63230939726E+02 -0.48527620429E+02  0.79842458049E+02  0.00000000000E+00 0.  1.
         11    1    4    4    0    0  0.14656146495E+03  0.22827572312E+03 -0.32590878865E+03  0.42403609197E+03  0.00000000000E+00 0. -1.
</event>
<event>
 8    1  0.6380400E-009  0.3404843E+03  0.7561462E-02  0.1066590E+00
          1   -1    0    0  501    0  0.00000000000E+00  0.00000000000E+00  0.46904163306E+03  0.46904163306E+03  0.00000000000E+00 0. -1.
         -1   -1    0    0    0  501 -0.00000000000E+00 -0.00000000000E+00 -0.34317146865E+03  0.34317146865E+03  0.00000000000E+00 0.  1.
         25    2    1    2    0    0  0.23573676390E+03 -0.22944127146E+03 -0.14048658946E+03  0.37894373322E+03  0.12508697864E+03 0.  0.
         23    2    1    2    0    0 -0.23573676390E+03  0.22944127146E+03  0.26635675387E+03  0.43326936848E+03  0.92527328014E+02 0.  0.
          5    1    3    3  502    0  0.24505307613E+03 -0.18802304393E+03 -0.12907204471E+03  0.33478461777E+03  0.41800000000E+01 0.  1.
         -5    1    3    3    0  502 -0.93163122318E+01 -0.41418227531E+02 -0.11414544743E+02  0.44159115448E+02  0.41800000000E+01 0.  1.
        -11    1    4    4    0    0 -0.11861206627E+03  0.12738621703E+03  0.19776169213E+03  0.26344972467E+03  0.00000000000E+00 0. -1.
         11    1    4    4    0    0 -0.11712469763E+03  0.10205505443E+03  0.68595061740E+02  0.16981964382E+03  0.00000000000E+00 0.  1.
</event>
<event>
 8    1  0.6380400E-009  0.9015800E+02  0.7561462E-02  0.1302470E+00
          1   -1    0    0  501    0  0.00000000000E+00  0.00000000000E+00  0.11514947318E+03  0.11514947318E+03  0.00000000000E+00 0. -1.
         -1   -1    0    0    0  501 -0.00000000000E+00 -0.00000000000E+00 -0.12397937361E+03  0.12397937361E+03  0.00000000000E+00 0.  1.
         25    2    1    2    0    0  0.11566948579E+02 -0.67721252096E+01 -0.52347806764E+02  0.13625292984E+03  0.12507962279E+03 0.  0.
         23    2    1    2    0    0 -0.11566948579E+02  0.67721252096E+01  0.43517906340E+02  0.10287591695E+03  0.92249607787E+02 0.  0.
          5    1    3    3  502    0  0.53468351239E+02 -0.11777002581E+02 -0.71143000990E+02  0.89868578290E+02  0.41800000000E+01 0. -1.
         -5    1    3    3    0  502 -0.41901402660E+02  0.50048773717E+01  0.18795194226E+02  0.46384351547E+02  0.41800000000E+01 0. -1.
        -11    1    4    4    0    0 -0.44412131320E+02 -0.10862273139E+02  0.19541705923E+00  0.45721598550E+02  0.00000000000E+00 0.  1.
         11    1    4    4    0    0  0.32845182741E+02  0.17634398348E+02  0.43322489281E+02  0.57154318401E+02  0.00000000000E+00 0. -1.
</event>
<event>
 8    1  0.6380400E-009  0.8584627E+02  0.7561462E-02  0.1313234E+00
          2   -1    0    0  501    0  0.00000000000E+00  0.00000000000E+00  0.30193512227E+03  0.30193512227E+03  0.00000000000E+00 0. -1.
         -2   -1    0    0    0  501 -0.00000000000E+00 -0.00000000000E+00 -0.49087363788E+02  0.49087363788E+02  0.00000000000E+00 0.  1.
         25    2    1    2    0    0 -0.50035494561E+02 -0.11524170751E+02  0.11258901341E+03  0.17595795998E+03  0.12509420655E+03 0.  0.
         23    2    1    2    0    0  0.50035494561E+02  0.11524170751E+02  0.14025874507E+03  0.17506452607E+03  0.91316567461E+02 0.  0.
          5    1    3    3  502    0 -0.75481343918E+02 -0.31052227431E+01  0.12500970607E+03  0.14612314908E+03  0.41800000000E+01 0. -1.
         -5    1    3    3    0  502  0.25445849356E+02 -0.84189480079E+01 -0.12420692659E+02  0.29834810895E+02  0.41800000000E+01 0. -1.
        -11    1    4    4    0    0  0.58014879505E+02  0.43544563344E+01  0.14980452319E+03  0.16070495544E+03  0.00000000000E+00 0. -1.
         11    1    4    4    0    0 -0.79793849431E+01  0.71697144167E+01 -0.95457781204E+01  0.14359570635E+02  0.00000000000E+00 0.  1.
</event>
<event>
 8    1  0.6380400E-009  0.7781862E+02  0.7561462E-02  0.1335358E+00
          2   -1    0    0  501    0  0.00000000000E+00  0.00000000000E+00  0.45002276139E+03  0.45002276139E+03  0.00000000000E+00 0. -1.
         -2   -1    0    0    0  501 -0.00000000000E+00 -0.00000000000E+00 -0.42454916415E+02  0.42454916415E+02  0.00000000000E+00 0.  1.
         25    2    1    2    0    0 -0.11403158213E+01  0.94766842366E+01  0.37485340770E+03  0.39528933246E+03  0.12508985261E+03 0.  0.
         23    2    1    2    0    0  0.11403158213E+01 -0.94766842366E+01  0.32714437273E+02  0.97188345344E+02  0.91017757610E+02 0.  0.
          5    1    3    3  502    0 -0.53366236264E+02 -0.63389644624E+01  0.28521929262E+03  0.29026824650E+03  0.41800000000E+01 0.  1.
         -5    1    3    3    0  502  0.52225920443E+02  0.15815648699E+02  0.89634115082E+02  0.10502108596E+03  0.41800000000E+01 0.  1.
        -11    1    4    4    0    0  0.23584315180E+02 -0.43187069080E+01 -0.25248034853E+02  0.34818592961E+02  0.00000000000E+00 0.  1.
         11    1    4    4    0    0 -0.22443999359E+02 -0.51579773287E+01  0.57962472126E+02  0.62369752383E+02  0.00000000000E+00 0. -1.
</event>
<event>
 8    1  0.6380400E-009  0.1079924E+03  0.7561462E-02  0.1264334E+00
          1   -1    0    0  501    0  0.00000000000E+00  0.00000000000E+00  0.38716359132E+02  0.38716359132E+02  0.00000000000E+00 0. -1.
         -1   -1    0    0    0  501 -0.00000000000E+00 -0.00000000000E+00 -0.31287230111E+03  0.31287230111E+03  0.00000000000E+00 0.  1.
         25    2    1    2    0    0 -0.14470341027E+02  0.15999835244E+02 -0.14827458139E+03  0.19518815425E+03  0.12509068142E+03 0.  0.
         23    2    1    2    0    0  0.14470341027E+02 -0.15999835244E+02 -0.12588136059E+03  0.15640050599E+03  0.90275222692E+02 0.  0.
          5    1    3    3  502    0 -0.67385962291E+02 -0.31566247586E+01 -0.59784320880E+02  0.90235633853E+02  0.41800000000E+01 0. -1.
         -5    1    3    3    0  502  0.52915621265E+02  0.19156460002E+02 -0.88490260508E+02  0.10495252040E+03  0.41800000000E+01 0. -1.
        -11    1    4    4    0    0 -0.18156337119E+02  0.30299947785E+02 -0.38323331675E+02  0.52119259050E+02  0.00000000000E+00 0. -1.
         11    1    4    4    0    0  0.32626678146E+02 -0.46299783028E+02 -0.87558028914E+02  0.10428124694E+03  0.00000000000E+00 0.  1.
</event>
<event>
 8    1  0.6380400E-009  0.1970093E+03  0.7561462E-02  0.1152287E+00
          4   -1    0    0  501    0  0.00000000000E+00  0.00000000000E+00  0.92744539679E+02  0.92744539679E+02  0.00000000000E+00 0. -1.
         -4   -1    0    0    0  501 -0.00000000000E+00 -0.00000000000E+00 -0.51121641178E+03  0.51121641178E+03  0.00000000000E+00 0.  1.
         25    2    1    2    0    0  0.10952831641E+03 -0.14797664098E+03 -0.16902179646E+03  0.27948662314E+03  0.12510342306E+03 0.  0.
         23    2    1    2    0    0 -0.10952831641E+03  0.14797664098E+03 -0.24945007564E+03  0.32447432833E+03  0.95732497780E+02 0.  0.
          5    1    3    3  502    0  0.60277622216E+02 -0.79036459794E+01 -0.97714238026E+01  0.61715577311E+02  0.41800000000E+01 0. -1.
         -5    1    3    3    0  502  0.49250694194E+02 -0.14007299500E+03 -0.15925037266E+03  0.21777104583E+03  0.41800000000E+01 0. -1.
        -11    1    4    4    0    0 -0.10278234976E+03  0.13274917125E+03 -0.25636036404E+03  0.30644280077E+03  0.00000000000E+00 0.  1.
         11    1    4    4    0    0 -0.67459666489E+01  0.15227469731E+02  0.69102883955E+01  0.18031527560E+02  0.00000000000E+00 0. -1.
</event>
<event>
 8    1  0.6380400E-009  0.1130918E+03  0.7561462E-02  0.1254949E+00
         -1   -1    0    0    0  501 -0.00000000000E+00  0.00000000000E+00  0.73417494393E+02  0.73417494393E+02  0.00000000000E+00 0.  1.
          1   -1    0    0  501    0  0.00000000000E+00 -0.00000000000E+00 -0.35819612528E+03  0.35819612528E+03  0.00000000000E+00 0. -1.
         25    2    1    2    0    0  0.55362716898E+02  0.28870380507E+02 -0.16890860400E+02  0.14082534530E+03  0.12509175601E+03 0.  0.
         23    2    1    2    0    0 -0.55362716898E+02 -0.28870380507E+02 -0.26788777048E+03  0.29078827437E+03  0.94315606557E+02 0.  0.
          5    1    3    3  502    0 -0.27372559482E+02  0.21276635227E+02 -0.41343754857E+02  0.54117748335E+02  0.41800000000E+01 0.  1.
         -5    1    3    3    0  502  0.82735276380E+02  0.75937452798E+01  0.24452894457E+02  0.86707596970E+02  0.41800000000E+01 0.  1.
        -11    1    4    4    0    0 -0.25383455546E+01 -0.50811879092E+02 -0.83957555509E+02  0.98169044928E+02  0.00000000000E+00 0.  1.
         11    1    4    4    0    0 -0.52824371343E+02  0.21941498585E+02 -0.18393021498E+03  0.19261922944E+03  0.00000000000E+00 0. -1.
</event>
<event>
 8    1  0.6380400E-009  0.1250237E+03  0.7561462E-02  0.1235032E+00
          1   -1    0    0  501    0  0.00000000000E+00  0.00000000000E+00  0.39851894691E+02  0.39851894691E+02  0.00000000000E+00 0. -1.
         -1   -1    0    0    0  501 -0.00000000000E+00 -0.00000000000E+00 -0.54461529791E+03  0.54461529791E+03  0.00000000000E+00 0.  1.
         25    2    1    2    0    0  0.45169181749E+02  0.85396618621E+02 -0.23323409801E+03  0.28173795687E+03  0.12508115131E+03 0.  0.
         23    2    1    2    0    0 -0.45169181749E+02 -0.85396618621E+02 -0.27152930521E+03  0.30272923574E+03  0.92649819908E+02 0.  0.
          5    1    3    3  502    0  0.12947399296E+02  0.89559382825E+02 -0.23188696103E+03  0.24895291381E+03  0.41800000000E+01 0.  1.
         -5    1    3    3    0  502  0.32221782452E+02 -0.41627642040E+01 -0.13471369830E+01  0.32785043057E+02  0.41800000000E+01 0.  1.
        -11    1    4    4    0    0  0.23635499444E+02 -0.31059682405E+02 -0.13453630538E+03  0.14008339719E+03  0.00000000000E+00 0.  1.
         11    1    4    4    0    0 -0.68804681193E+02 -0.54336936216E+02 -0.13699299984E+03  0.16264583854E+03  0.00000000000E+00 0. -1.
</event>
<event>
 8    1  0.6380400E-009  0.1748422E+03  0.7561462E-02  0.1172890E+00
         -1   -1    0    0    0  501 -0.00000000000E+00  0.00000000000E+00  0.74623529276E+02  0.74623529276E+02  0.00000000000E+00 0.  1.
          1   -1    0    0  501    0  0.00000000000E+00 -0.00000000000E+00 -0.48318533566E+03  0.48318533566E+03  0.00000000000E+00 0. -1.
         25    2    1    2    0    0  0.11977743610E+03  0.10228555306E+03 -0.25816415018E+03  0.32726924246E+03  0.12508980798E+03 0.  0.
         23    2    1    2    0    0 -0.11977743610E+03 -0.10228555306E+03 -0.15039765621E+03  0.23053962247E+03  0.75631302871E+02 0.  0.
          5    1    3    3  502    0 -0.18370243074E+02  0.10446536031E+01 -0.18364083336E+01  0.18957898811E+02  0.41800000000E+01 0.  1.
         -5    1    3    3    0  502  0.13814767918E+03  0.10124089946E+03 -0.25632774184E+03  0.30831134365E+03  0.41800000000E+01 0.  1.
        -11    1    4    4    0    0 -0.85475072087E+02 -0.57234661035E+02 -0.47970685173E+02  0.11350322025E+03  0.00000000000E+00 0. -1.
         11    1    4    4    0    0 -0.34302364014E+02 -0.45050892027E+02 -0.10242697104E+03  0.11703640222E+03  0.00000000000E+00 0.  1.
</event>
<event>
 8    1  0.6380400E-009  0.1901649E+03  0.7561462E-02  0.1158313E+00
         -2   -1    0    0    0  501 -0.00000000000E+00  0.00000000000E+00  0.15220748531E+03  0.15220748531E+03  0.00000000000E+00 0.  1.
          2   -1    0    0  501    0  0.00000000000E+00 -0.00000000000E+00 -0.27180024179E+03  0.27180024179E+03  0.00000000000E+00 0. -1.
         25    2    1    2    0    0  0.15303830062E+03 -0.75017050130E+02 -0.30958137078E+02  0.21366888035E+03  0.12509078667E+03 0.  0.
         23    2    1    2    0    0 -0.15303830062E+03  0.75017050130E+02 -0.88634619403E+02  0.21033884675E+03  0.85662450519E+02 0.  0.
          5    1    3    3  502    0  0.17062858568E+03 -0.47893127555E+02 -0.35394490367E+02  0.18077087228E+03  0.41800000000E+01 0. -1.
         -5    1    3    3    0  502 -0.17590285054E+02 -0.27123922576E+02  0.44363532890E+01  0.32898008066E+02  0.41800000000E+01 0. -1.
        -11    1    4    4    0    0 -0.66294259056E+02  0.34101321488E+02 -0.86788175173E+02  0.11441160894E+03  0.00000000000E+00 0. -1.
         11    1    4    4    0    0 -0.86744041566E+02  0.40915728642E+02 -0.18464442297E+01  0.95927237810E+02  0.00000000000E+00 0.  1.
</event>
<event>
 8    1  0.6380400E-009  0.1529388E+03  0.7561462E-02  0.1196908E+00
         -1   -1    0    0    0  501 -0.00000000000E+00  0.00000000000E+00  0.58855831978E+03  0.58855831978E+03  0.00000000000E+00 0.  1.
          1   -1    0    0  501    0  0.00000000000E+00 -0.00000000000E+00 -0.55034337572E+02  0.55034337572E+02  0.00000000000E+00 0. -1.
         25    2    1    2    0    0  0.11636757933E+03 -0.32857753856E+02  0.13931620328E+03  0.22287345430E+03  0.12507008686E+03 0.  0.
         23    2    1    2    0    0 -0.11636757933E+03  0.32857753856E+02  0.39420777893E+03  0.42071920306E+03  0.83569308619E+02 0.  0.
          5    1    3    3  502    0 -0.14785727819E+02  0.16557502430E+02 -0.33528403997E+01  0.22835992919E+02  0.41800000000E+01 0.  1.
         -5    1    3    3    0  502  0.13115330715E+03 -0.49415256286E+02  0.14266904368E+03  0.20003746138E+03  0.41800000000E+01 0.  1.
        -11    1    4    4    0    0 -0.10305959528E+03 -0.47612202514E+01  0.32320341185E+03  0.33927038602E+03  0.00000000000E+00 0.  1.
         11    1    4    4    0    0 -0.13307984056E+02  0.37618974108E+02  0.71004367077E+02  0.81448817036E+02  0.00000000000E+00 0. -1.
</event>
<event>
 8    1  0.6380400E-009  0.1241395E+03  0.7561462E-02  0.1236420E+00
          1   -1    0    0  501    0  0.00000000000E+00  0.00000000000E+00  0.78871523114E+03  0.78871523114E+03  0.00000000000E+00 0. -1.
         -1   -1    0    0    0  501 -0.00000000000E+00 -0.00000000000E+00 -0.19850057249E+02  0.19850057249E+02  0.00000000000E+00 0.  1.
         25    2    1    2    0    0 -0.55246662314E+02  0.10593205420E+02  0.37762367831E+03  0.40176218186E+03  0.12509515842E+03 0.  0.
         23    2    1    2    0    0  0.55246662314E+02 -0.10593205420E+02  0.39124149558E+03  0.40680310652E+03  0.96200051527E+02 0.  0.
          5    1    3    3  502    0 -0.36009549612E+02  0.67591189915E+02  0.20171228774E+03  0.21580216876E+03  0.41800000000E+01 0.  1.
         -5    1    3    3    0  502 -0.19237112702E+02 -0.56997984495E+02  0.17591139057E+03  0.18596001310E+03  0.41800000000E+01 0.  1.
        -11    1    4    4    0    0 -0.27178080669E+02 -0.96733829076E+01  0.92093573487E+02  0.96506210594E+02  0.00000000000E+00 0.  1.
         11    1    4    4    0    0  0.82424742982E+02 -0.91982251260E+00  0.29914792209E+03  0.31029689593E+03  0.00000000000E+00 0. -1.
</event>
<event>
 8    1  0.6380400E-009  0.1040910E+03  0.7561462E-02  0.1271921E+00
          1   -1    0    0  501    0  0.00000000000E+00  0.00000000000E+00  0.23051185272E+02  0.23051185272E+02  0.00000000000E+00 0. -1.
         -1   -1    0    0    0  501 -0.00000000000E+00 -0.00000000000E+00 -0.85858294547E+03  0.85858294547E+03  0.00000000000E+00 0.  1.
         25    2    1    2    0    0  0.49100345149E+02  0.71518135867E+02 -0.46798167238E+03  0.49211732459E+03  0.12508768053E+03 0.  0.
         23    2    1    2    0    0 -0.49100345149E+02 -0.71518135867E+02 -0.36755008781E+03  0.38951680615E+03  0.95417962522E+02 0.  0.
          5    1    3    3  502    0  0.56216554704E+02  0.59356731782E+02 -0.12876564933E+03  0.15258305108E+03  0.41800000000E+01 0.  1.
         -5    1    3    3    0  502 -0.71162095544E+01  0.12161404086E+02 -0.33921602306E+03  0.33953427351E+03  0.41800000000E+01 0.  1.
        -11    1    4    4    0    0 -0.33765476885E+02  0.45103742963E+01 -0.38311885459E+02  0.51266475137E+02  0.00000000000E+00 0. -1.
         11    1    4    4    0    0 -0.15334868264E+02 -0.76028510164E+02 -0.32923820235E+03  0.33825033101E+03  0.00000000000E+00 0.  1.
</event>
<event>
 8    1  0.6380400E-009  0.1582199E+03  0.7561462E-02  0.1190721E+00
         -1   -1    0    0    0  501 -0.00000000000E+00  0.00000000000E+00  0.35391871601E+02  0.35391871601E+02  0.00000000000E+00 0.  1.
          1   -1    0    0  501    0  0.00000000000E+00 -0.00000000000E+00 -0.88581520764E+03  0.88581520764E+03  0.00000000000E+00 0. -1.
         25    2    1    2    0    0 -0.49250201619E+02  0.13037726048E+03 -0.48843994149E+03  0.52311074053E+03  0.12508979978E+03 0.  0.
         23    2    1    2    0    0  0.49250201619E+02 -0.13037726048E+03 -0.36198339456E+03  0.39809633871E+03  0.89581831595E+02 0.  0.
          5    1    3    3  502    0 -0.69590372032E+02  0.11596466946E+03 -0.47615489420E+03  0.49500664653E+03  0.41800000000E+01 0.  1.
         -5    1    3    3    0  502  0.20340170413E+02  0.14412591027E+02 -0.12285047286E+02  0.28104093996E+02  0.41800000000E+01 0.  1.
        -11    1    4    4    0    0  0.57271718137E+02 -0.52900874405E+02 -0.11355554127E+03  0.13774401317E+03  0.00000000000E+00 0.  1.
         11    1    4    4    0    0 -0.80215165187E+01 -0.77476386079E+02 -0.24842785329E+03  0.26035232554E+03  0.00000000000E+00 0. -1.
</event>
<event>
 8    1  0.6380400E-009  0.1029254E+03  0.7561462E-02  0.1274262E+00
          3   -1    0    0  501    0  0.00000000000E+00  0.00000000000E+00  0.44195967618E+02  0.44195967618E+02  0.00000000000E+00 0. -1.
         -3   -1    0    0    0  501 -0.00000000000E+00 -0.00000000000E+00 -0.32355504381E+03  0.32355504381E+03  0.00000000000E+00 0.  1.
         25    2    1    2    0    0 -0.31548700351E+02  0.32575159832E+02 -0.13245752170E+03  0.18774708835E+03  0.12509001797E+03 0.  0.
         23    2    1    2    0    0  0.31548700351E+02 -0.32575159832E+02 -0.14690155449E+03  0.18000392308E+03  0.93620959624E+02 0.  0.
          5    1    3    3  502    0 -0.62683824902E+02 -0.11913059460E+02 -0.27712629626E+02  0.69689634314E+02  0.41800000000E+01 0.  1.
         -5    1    3    3    0  502  0.31135124551E+02  0.44488219292E+02 -0.10474489208E+03  0.11805745403E+03  0.41800000000E+01 0.  1.
        -11    1    4    4    0    0  0.29300521687E+02  0.19581548690E+02 -0.15287763784E+02  0.38414493902E+02  0.00000000000E+00 0. -1.
         11    1    4    4    0    0  0.22481786640E+01 -0.52156708522E+02 -0.13161379070E+03  0.14158942918E+03  0.00000000000E+00 0.  1.
</event>
<event>
 8    1  0.6380400E-009  0.2462171E+03  0.7561462E-02  0.1115719E+00
         -2   -1    0    0    0  501 -0.00000000000E+00  0.00000000000E+00  0.62129253419E+02  0.62129253419E+02  0.00000000000E+00 0.  1.
          2   -1    0    0  501    0  0.00000000000E+00 -0.00000000000E+00 -0.10702030449E+04  0.10702030449E+04  0.00000000000E+00 0. -1.
         25    2    1    2    0    0  0.23399758684E+03  0.19530393122E+02 -0.50859798795E+03  0.57398132432E+03  0.12508533255E+03 0.  0.
         23    2    1    2    0    0 -0.23399758684E+03 -0.19530393122E+02 -0.49947580352E+03  0.55835097399E+03  0.84518784569E+02 0.  0.
          5    1    3    3  502    0  0.12152305381E+03 -0.41875984448E+02 -0.32960764660E+03  0.35380803238E+03  0.41800000000E+01 0.  1.
         -5    1    3    3    0  502  0.11247453303E+03  0.61406377570E+02 -0.17899034136E+03  0.22017329194E+03  0.41800000000E+01 0.  1.
        -11    1    4    4    0    0 -0.13809041182E+03 -0.21121771061E+02 -0.38167820150E+03  0.40643983633E+03  0.00000000000E+00 0. -1.
         11    1    4    4    0    0 -0.95907175020E+02  0.15913779385E+01 -0.11779760202E+03  0.15191113766E+03  0.00000000000E+00 0.  1.
</event>
<event>
 8    1  0.6380400E-009  0.9123745E+02  0.7561462E-02  0.1299882E+00
          2   -1    0    0  501    0  0.00000000000E+00  0.00000000000E+00  0.36633828129E+03  0.36633828129E+03  0.00000000000E+00 0. -1.
         -2   -1    0    0    0  501 -0.00000000000E+00 -0.00000000000E+00 -0.33044566223E+02  0.33044566223E+02  0.00000000000E+00 0.  1.
         25    2    1    2    0    0 -0.18195678554E+02 -0.43927208361E+01  0.21389681398E+03  0.24849168756E+03  0.12508354424E+03 0.  0.
         23    2    1    2    0    0  0.18195678554E+02  0.43927208361E+01  0.11939690108E+03  0.15089115996E+03  0.90344581740E+02 0.  0.
          5    1    3    3  502    0 -0.67562316276E+01 -0.49399962911E+02  0.29053175347E+02  0.57858123018E+02  0.41800000000E+01 0. -1.
         -5    1    3    3    0  502 -0.11439446927E+02  0.45007242075E+02  0.18484363864E+03  0.19063356454E+03  0.41800000000E+01 0. -1.
        -11    1    4    4    0    0  0.38066368850E+02  0.33407818642E+02  0.41695865860E+02  0.65602408596E+02  0.00000000000E+00 0.  1.
         11    1    4    4    0    0 -0.19870690295E+02 -0.29015097806E+02  0.77701035224E+02  0.85288751359E+02  0.00000000000E+00 0. -1.
</event>
<event>
 8    1  0.6380400E-009  0.1084510E+03  0.7561462E-02  0.1263466E+00
         -1   -1    0    0    0  501 -0.00000000000E+00  0.00000000000E+00  0.39050572003E+03  0.39050572003E+03  0.00000000000E+00 0.  1.
          1   -1    0    0  501    0  0.00000000000E+00 -0.00000000000E+00 -0.71252284128E+02  0.71252284128E+02  0.00000000000E+00 0. -1.
         25    2    1    2    0    0  0.57424982935E+02 -0.20226884440E+02  0.32199136201E+03  0.35075994258E+03  0.12508934645E+03 0.  0.
         23    2    1    2    0    0 -0.57424982935E+02  0.20226884440E+02 -0.27379261068E+01  0.11099806157E+03  0.92770242613E+02 0.  0.
          5    1    3    3  502    0  0.91717001856E+02  0.73792964332E+00  0.16687060338E+03  0.19046213178E+03  0.41800000000E+01 0.  1.
         -5    1    3    3    0  502 -0.34292018921E+02 -0.20964814083E+02  0.15512075863E+03  0.16029781080E+03  0.41800000000E+01 0.  1.
        -11    1    4    4    0    0 -0.39343567517E+02 -0.17332357931E+02 -0.37246561837E+02  0.56882627445E+02  0.00000000000E+00 0. -1.
         11    1    4    4    0    0 -0.18081415418E+02  0.37559242370E+02  0.34508635730E+02  0.54115434128E+02  0.00000000000E+00 0.  1.
</event>
<event>
 8    1  0.6380400E-009  0.1018160E+03  0.7561462E-02  0.1276523E+00
          1   -1    0    0  501    0  0.00000000000E+00  0.00000000000E+00  0.27372263092E+03  0.27372263092E+03  0.00000000000E+00 0. -1.
         -1   -1    0    0    0  501 -0.00000000000E+00 -0.00000000000E+00 -0.58446449344E+02  0.58446449344E+02  0.00000000000E+00 0.  1.
         25    2    1    2    0    0  0.26620963052E+02 -0.58764184213E+02  0.12622986939E+03  0.18905675113E+03  0.12508625104E+03 0.  0.
         23    2    1    2    0    0 -0.26620963052E+02  0.58764184213E+02  0.89046312187E+02  0.14311232914E+03  0.91596877776E+02 0.  0.
          5    1    3    3  502    0 -0.17573116966E+02  0.15179763086E+02  0.94112486953E+02  0.97025111429E+02  0.41800000000E+01 0.  1.
         -5    1    3    3    0  502  0.44194080018E+02 -0.73943947299E+02  0.32117382441E+02  0.92031639699E+02  0.41800000000E+01 0.  1.
        -11    1    4    4    0    0 -0.20005567882E+02  0.74278674889E+02  0.97543522470E+02  0.12422674054E+03  0.00000000000E+00 0. -1.
         11    1    4    4    0    0 -0.66153951699E+01 -0.15514490676E+02 -0.84972102832E+01  0.18885588601E+02  0.00000000000E+00 0.  1.
</event>
<event>
 8    1  0.6380400E-009  0.5643347E+02  0.7561462E-02  0.1413439E+00
          2   -1    0    0  501    0  0.00000000000E+00  0.00000000000E+00  0.46975245506E+03  0.46975245506E+03  0.00000000000E+00 0. -1.
         -2   -1    0    0    0  501 -0.00000000000E+00 -0.00000000000E+00 -0.32659531462E+02  0.32659531462E+02  0.00000000000E+00 0.  1.
         25    2    1    2    0    0 -0.19132281666E+02  0.38871441040E+02  0.33968061036E+03  0.36456903120E+03  0.12510247129E+03 0.  0.
         23    2    1    2    0    0  0.19132281666E+02 -0.38871441040E+02  0.97412313240E+02  0.13784295533E+03  0.87375559697E+02 0.  0.
          5    1    3    3  502    0 -0.21488686757E+02  0.35235316581E+02  0.35009266044E+03  0.35254167766E+03  0.41800000000E+01 0. -1.
         -5    1    3    3    0  502  0.23564050911E+01  0.36361244593E+01 -0.10412050085E+02  0.12027353533E+02  0.41800000000E+01 0. -1.
        -11    1    4    4    0    0  0.30386519195E+02 -0.43610709552E+02  0.10883553240E+03  0.12112145825E+03  0.00000000000E+00 0. -1.
         11    1    4    4    0    0 -0.11254237529E+02  0.47392685119E+01 -0.11423219162E+02  0.16721497074E+02  0.00000000000E+00 0.  1.
</event>
<event>
 8    1  0.6380400E-009  0.1049827E+03  0.7561462E-02  0.1270154E+00
          2   -1    0    0  501    0  0.00000000000E+00  0.00000000000E+00  0.22434458948E+03  0.22434458948E+03  0.00000000000E+00 0.  1.
         -2   -1    0    0    0  501 -0.00000000000E+00 -0.00000000000E+00 -0.67386949759E+02  0.67386949759E+02  0.00000000000E+00 0. -1.
         25    2    1    2    0    0 -0.35293630120E+02  0.18010019874E+02  0.13013140179E+03  0.18480198740E+03  0.12509033405E+03 0.  0.
         23    2    1    2    0    0  0.35293630120E+02 -0.18010019874E+02  0.26826237936E+02  0.10692955184E+03  0.95625733317E+02 0.  0.
          5    1    3    3  502    0 -0.45400758162E+02  0.64691318258E+02  0.10238166638E+03  0.12940507529E+03  0.41800000000E+01 0.  1.
         -5    1    3    3    0  502  0.10107128042E+02 -0.46681298384E+02  0.27749735403E+02  0.55396912107E+02  0.41800000000E+01 0.  1.
        -11    1    4    4    0    0  0.38686799419E+02 -0.42893579957E+02  0.47196914262E+02  0.74592736688E+02  0.00000000000E+00 0.  1.
         11    1    4    4    0    0 -0.33931692985E+01  0.24883560083E+02 -0.20370676326E+02  0.32336815153E+02  0.00000000000E+00 0. -1.
</event>
<event>
 8    1  0.6380400E-009  0.1056280E+03  0.7561462E-02  0.1268887E+00
          2   -1    0    0  501    0  0.00000000000E+00  0.00000000000E+00  0.17416722503E+04  0.17416722503E+04  0.00000000000E+00 0. -1.
         -2   -1    0    0    0  501 -0.00000000000E+00 -0.00000000000E+00 -0.23932108187E+02  0.23932108187E+02  0.00000000000E+00 0.  1.
         25    2    1    2    0    0 -0.13328975267E+02 -0.45192810689E+02  0.16165172674E+04  0.16220347494E+04  0.12509436718E+03 0.  0.
         23    2    1    2    0    0  0.13328975267E+02  0.45192810689E+02  0.10122287463E+03  0.14356960901E+03  0.90255806265E+02 0.  0.
          5    1    3    3  502    0 -0.57926961416E+02 -0.23915369727E+02  0.43863356108E+03  0.44310760665E+03  0.41800000000E+01 0.  1.
         -5    1    3    3    0  502  0.44597986148E+02 -0.21277440962E+02  0.11778837064E+04  0.11789271428E+04  0.41800000000E+01 0.  1.
        -11    1    4    4    0    0  0.47530724469E+02  0.43788286857E+02  0.48889878428E+02  0.81035819531E+02  0.00000000000E+00 0.  1.
         11    1    4    4    0    0 -0.34201749202E+02  0.14045238321E+01  0.52332996198E+02  0.62533789480E+02  0.00000000000E+00 0. -1.
</event>
<event>
 8    1  0.6380400E-009  0.1671464E+03  0.7561462E-02  0.1180857E+00
          1   -1    0    0  501    0  0.00000000000E+00  0.00000000000E+00  0.63721202398E+02  0.63721202398E+02  0.00000000000E+00 0. -1.
         -1   -1    0    0    0  501 -0.00000000000E+00 -0.00000000000E+00 -0.81302293979E+03  0.81302293979E+03  0.00000000000E+00 0.  1.
         25    2    1    2    0    0  0.14415696385E+03 -0.16539946751E+01 -0.12242935640E+03  0.22676031972E+03  0.12508928557E+03 0.  0.
         23    2    1    2    0    0 -0.14415696385E+03  0.16539946751E+01 -0.62687238100E+03  0.64998382247E+03  0.93413176249E+02 0.  0.
          5    1    3    3  502    0 -0.80633747936E+01 -0.23950535073E+02  0.60038319995E+01  0.26309020165E+02  0.41800000000E+01 0. -1.
         -5    1    3    3    0  502  0.15222033864E+03  0.22296540398E+02 -0.12843318840E+03  0.20045129955E+03  0.41800000000E+01 0. -1.
        -11    1    4    4    0    0 -0.11784451421E+03 -0.21425691445E+02 -0.57543094684E+03  0.58776454840E+03  0.00000000000E+00 0.  1.
         11    1    4    4    0    0 -0.26312449637E+02  0.23079686120E+02 -0.51441434161E+02  0.62219274071E+02  0.00000000000E+00 0. -1.
</event>
<event>
 8    1  0.6380400E-009  0.9477487E+02  0.7561462E-02  0.1291684E+00
          1   -1    0    0  501    0  0.00000000000E+00  0.00000000000E+00  0.63113598215E+02  0.63113598215E+02  0.00000000000E+00 0. -1.
         -1   -1    0    0    0  501 -0.00000000000E+00 -0.00000000000E+00 -0.21672761718E+03  0.21672761718E+03  0.00000000000E+00 0.  1.
         25    2    1    2    0    0 -0.64378535906E+01 -0.27749674964E+02 -0.13047999662E+03  0.18298481491E+03  0.12508765946E+03 0.  0.
         23    2    1    2    0    0  0.64378535906E+01  0.27749674964E+02 -0.23134022341E+02  0.96856400482E+02  0.89635310594E+02 0.  0.
          5    1    3    3  502    0 -0.40930113727E+02 -0.63183604799E+02 -0.98106809223E+02  0.12373302122E+03  0.41800000000E+01 0.  1.
         -5    1    3    3    0  502  0.34492260136E+02  0.35433929835E+02 -0.32373187401E+02  0.59251793689E+02  0.41800000000E+01 0.  1.
        -11    1    4    4    0    0 -0.25645579592E+02  0.80623701619E+01  0.24343555898E+02  0.36267151514E+02  0.00000000000E+00 0. -1.
         11    1    4    4    0    0  0.32083433182E+02  0.19687304802E+02 -0.47477578238E+02  0.60589248968E+02  0.00000000000E+00 0.  1.
</event>
<event>
 8    1  0.6380400E-009  0.1036655E+03  0.7561462E-02  0.1272771E+00
         -1   -1    0    0    0  501 -0.00000000000E+00  0.00000000000E+00  0.50942034667E+02  0.50942034667E+02  0.00000000000E+00 0.  1.
          1   -1    0    0  501    0  0.00000000000E+00 -0.00000000000E+00 -0.26965574742E+03  0.26965574742E+03  0.00000000000E+00 0. -1.
         25    2    1    2    0    0  0.30132584759E+01  0.41959759997E+02 -0.98870024161E+02  0.16490035803E+03  0.12508854950E+03 0.  0.
         23    2    1    2    0    0 -0.30132584759E+01 -0.41959759997E+02 -0.11984368859E+03  0.15569742406E+03  0.90052634479E+02 0.  0.
          5    1    3    3  502    0 -0.40414307548E+02 -0.16638434104E+02 -0.25090594221E+01  0.43976374603E+02  0.41800000000E+01 0. -1.
         -5    1    3    3    0  502  0.43427566024E+02  0.58598194101E+02 -0.96360964739E+02  0.12092398343E+03  0.41800000000E+01 0. -1.
        -11    1    4    4    0    0 -0.17806714776E+02 -0.62539557846E+02 -0.51955845002E+02  0.83232717224E+02  0.00000000000E+00 0.  1.
         11    1    4    4    0    0  0.14793456300E+02  0.20579797849E+02 -0.67887843592E+02  0.72464706833E+02  0.00000000000E+00 0. -1.
</event>
<event>
 8    1  0.6380400E-009  0.1365992E+03  0.7561462E-02  0.1217980E+00
          4   -1    0    0  501    0  0.00000000000E+00  0.00000000000E+00  0.48240953705E+02  0.48240953705E+02  0.00000000000E+00 0.  1.
         -4   -1    0    0    0  501 -0.00000000000E+00 -0.00000000000E+00 -0.40877760407E+03  0.40877760407E+03  0.00000000000E+00 0. -1.
         25    2    1    2    0    0  0.83429424823E+02 -0.27034597775E+02 -0.18508774201E+03  0.23999976378E+03  0.12510426039E+03 0.  0.
         23    2    1    2    0    0 -0.83429424823E+02  0.27034597775E+02 -0.17544890836E+03  0.21701879400E+03  0.92862797195E+02 0.  0.
          5    1    3    3  502    0  0.40054801356E+02 -0.72272689651E+02 -0.67862877935E+02  0.10700734266E+03  0.41800000000E+01 0.  1.
         -5    1    3    3    0  502  0.43374623467E+02  0.45238091876E+02 -0.11722486407E+03  0.13299242112E+03  0.41800000000E+01 0.  1.
        -11    1    4    4    0    0 -0.26971808035E+02  0.57490121913E+02 -0.91086776579E+02  0.11103780173E+03  0.00000000000E+00 0.  1.
         11    1    4    4    0    0 -0.56457616788E+02 -0.30455524138E+02 -0.84362131777E+02  0.10598099227E+03  0.00000000000E+00 0. -1.
</event>
<event>
 8    1  0.6380400E-009  0.1418881E+03  0.7561462E-02  0.1210811E+00
         -4   -1    0    0    0  501 -0.00000000000E+00  0.00000000000E+00  0.55315727143E+02  0.55315727143E+02  0.00000000000E+00 0.  1.
          4   -1    0    0  501    0  0.00000000000E+00 -0.00000000000E+00 -0.49482548914E+03  0.49482548914E+03  0.00000000000E+00 0. -1.
         25    2    1    2    0    0  0.11101462558E+03  0.12957128593E+02 -0.32489941533E+03  0.36566183578E+03  0.12512719044E+03 0.  0.
         23    2    1    2    0    0 -0.11101462558E+03 -0.12957128593E+02 -0.11461034667E+03  0.18447938051E+03  0.91678656165E+02 0.  0.
          5    1    3    3  502    0  0.43027336105E+02 -0.55151033229E+02 -0.11415325261E+03  0.13394560687E+03  0.41800000000E+01 0.  1.
         -5    1    3    3    0  502  0.67987289473E+02  0.68108161822E+02 -0.21074616272E+03  0.23171622891E+03  0.41800000000E+01 0.  1.
        -11    1    4    4    0    0 -0.47415655741E+02  0.12237191238E+02 -0.10439995397E+03  0.11531410862E+03  0.00000000000E+00 0. -1.
         11    1    4    4    0    0 -0.63598969837E+02 -0.25194319831E+02 -0.10210392699E+02  0.69165271887E+02  0.00000000000E+00 0.  1.
</event>
<event>
 8    1  0.6380400E-009  0.1243612E+03  0.7561462E-02  0.1236071E+00
          2   -1    0    0  501    0  0.00000000000E+00  0.00000000000E+00  0.67726019527E+03  0.67726019527E+03  0.00000000000E+00 0. -1.
         -2   -1    0    0    0  501 -0.00000000000E+00 -0.00000000000E+00 -0.35159964663E+02  0.35159964663E+02  0.00000000000E+00 0.  1.
         25    2    1    2    0    0  0.56469474984E+02  0.69540412140E+02  0.49228133630E+03  0.51576520402E+03  0.12509261003E+03 0.  0.
         23    2    1    2    0    0 -0.56469474984E+02 -0.69540412140E+02  0.14981889431E+03  0.19665495591E+03  0.90569310848E+02 0.  0.
          5    1    3    3  502    0  0.66085599707E+01  0.70898326696E+02  0.42993720247E+03  0.43581385505E+03  0.41800000000E+01 0.  1.
         -5    1    3    3    0  502  0.49860915014E+02 -0.13579145555E+01  0.62344133832E+02  0.79951348964E+02  0.41800000000E+01 0.  1.
        -11    1    4    4    0    0 -0.64325716981E+02 -0.74513557333E+01  0.78859868561E+02  0.10204018540E+03  0.00000000000E+00 0. -1.
         11    1    4    4    0    0  0.78562419962E+01 -0.62089056407E+02  0.70959025744E+02  0.94614770508E+02  0.00000000000E+00 0.  1.
</event>
<event>
 8    1  0.6380400E-009  0.7621801E+02  0.7561462E-02  0.1340140E+00
          2   -1    0    0  501    0  0.00000000000E+00  0.00000000000E+00  0.81091415341E+03  0.81091415341E+03  0.00000000000E+00 0. -1.
         -2   -1    0    0    0  501 -0.00000000000E+00 -0.00000000000E+00 -0.20728453216E+02  0.20728453216E+02  0.00000000000E+00 0.  1.
         25    2    1    2    0    0  0.38742773366E+02 -0.10958372457E+02  0.62701279204E+03  0.64063270238E+03  0.12507649481E+03 0.  0.
         23    2    1    2    0    0 -0.38742773366E+02  0.10958372457E+02  0.16317290815E+03  0.19100990425E+03  0.90765065702E+02 0.  0.
          5    1    3    3  502    0  0.15891446149E+02  0.17987965284E+02  0.58102680430E+03  0.58153738029E+03  0.41800000000E+01 0.  1.
         -5    1    3    3    0  502  0.22851327218E+02 -0.28946337742E+02  0.45985987743E+02  0.59095322091E+02  0.41800000000E+01 0.  1.
        -11    1    4    4    0    0 -0.62891620559E+02 -0.31837716381E+01  0.72070305870E+02  0.95705910615E+02  0.00000000000E+00 0.  1.
         11    1    4    4    0    0  0.24148847193E+02  0.14142144095E+02  0.91102602279E+02  0.95303993633E+02  0.00000000000E+00 0. -1.
</event>
<event>
 8    1  0.6380400E-009  0.1140057E+03  0.7561462E-02  0.1253327E+00
         -3   -1    0    0    0  501 -0.00000000000E+00  0.00000000000E+00  0.59142380041E+02  0.59142380041E+02  0.00000000000E+00 0.  1.
          3   -1    0    0  501    0  0.00000000000E+00 -0.00000000000E+00 -0.74283650512E+03  0.74283650512E+03  0.00000000000E+00 0. -1.
         25    2    1    2    0    0  0.31254348008E+02 -0.14959611861E+02 -0.67700067924E+03  0.68933205617E+03  0.12509252461E+03 0.  0.
         23    2    1    2    0    0 -0.31254348008E+02  0.14959611861E+02 -0.66934458345E+01  0.11264682899E+03  0.10697607960E+03 0.  0.
          5    1    3    3  502    0  0.72463385181E+02 -0.19121841715E+02 -0.56274575575E+03  0.56772955272E+03  0.41800000000E+01 0.  1.
         -5    1    3    3    0  502 -0.41209037172E+02  0.41622298542E+01 -0.11425492349E+03  0.12160250345E+03  0.41800000000E+01 0.  1.
        -11    1    4    4    0    0 -0.30231490209E+02 -0.43433985152E+02 -0.11126168478E+02  0.54076295097E+02  0.00000000000E+00 0.  1.
         11    1    4    4    0    0 -0.10228577997E+01  0.58393597013E+02  0.44327226434E+01  0.58570533891E+02  0.00000000000E+00 0. -1.
</event>
<event>
 8    1  0.6380400E-009  0.1104314E+03  0.7561462E-02  0.1259773E+00
          3   -1    0    0  501    0  0.00000000000E+00  0.00000000000E+00  0.66110375453E+02  0.66110375453E+02  0.00000000000E+00 0. -1.
         -3   -1    0    0    0  501 -0.00000000000E+00 -0.00000000000E+00 -0.30609961034E+03  0.30609961034E+03  0.00000000000E+00 0.  1.
         25    2    1    2    0    0  0.39505341676E+02 -0.78608720947E+02 -0.11920753317E+03  0.19390166661E+03  0.12508963714E+03 0.  0.
         23    2    1    2    0    0 -0.39505341676E+02  0.78608720947E+02 -0.12078170172E+03  0.17830831918E+03  0.97291490844E+02 0.  0.
          5    1    3    3  502    0 -0.16677104729E+01 -0.15482431579E+02 -0.11729178446E+03  0.11839477205E+03  0.41800000000E+01 0.  1.
         -5    1    3    3    0  502  0.41173052149E+02 -0.63126289368E+02 -0.19157487047E+01  0.75506894558E+02  0.41800000000E+01 0.  1.
        -11    1    4    4    0    0  0.27625132047E+02  0.24475285746E+01 -0.39457222404E+02  0.48228733309E+02  0.00000000000E+00 0.  1.
         11    1    4    4    0    0 -0.67130473723E+02  0.76161192373E+02 -0.81324479313E+02  0.13007958587E+03  0.00000000000E+00 0. -1.
</event>
<event>
 8    1  0.6380400E-009  0.1331494E+03  0.7561462E-02  0.1222856E+00
         -2   -1    0    0    0  501 -0.00000000000E+00  0.00000000000E+00  0.52318780513E+02  0.52318780513E+02  0.00000000000E+00 0.  1.
          2   -1    0    0  501    0  0.00000000000E+00 -0.00000000000E+00 -0.48736709748E+03  0.48736709748E+03  0.00000000000E+00 0. -1.
         25    2    1    2    0    0 -0.11125817352E+03 -0.26994229963E+02 -0.19434190118E+03  0.25792181960E+03  0.12509125008E+03 0.  0.
         23    2    1    2    0    0  0.11125817352E+03  0.26994229963E+02 -0.24070641579E+03  0.28176405839E+03  0.91347339168E+02 0.  0.
          5    1    3    3  502    0 -0.12367788337E+03 -0.38200261978E+02 -0.20127159401E+03  0.23933910212E+03  0.41800000000E+01 0. -1.
         -5    1    3    3    0  502  0.12419709852E+02  0.11206032014E+02  0.69296928254E+01  0.18582717481E+02  0.41800000000E+01 0. -1.
        -11    1    4    4    0    0  0.79254282280E+02  0.34872005042E+02 -0.80581246638E+02  0.11828201598E+03  0.00000000000E+00 0.  1.
         11    1    4    4    0    0  0.32003891241E+02 -0.78777750787E+01 -0.16012516915E+03  0.16348204241E+03  0.00000000000E+00 0. -1.
</event>
<event>
 8    1  0.6380400E-009  0.1143055E+03  0.7561462E-02  0.1252798E+00
          2   -1    0    0  501    0  0.00000000000E+00  0.00000000000E+00  0.13069893141E+04  0.13069893141E+04  0.00000000000E+00 0. -1.
         -2   -1    0    0    0  501 -0.00000000000E+00 -0.00000000000E+00 -0.15745573078E+02  0.15745573078E+02  0.00000000000E+00 0.  1.
         25    2    1    2    0    0  0.90222123241E+02 -0.20798634759E+02  0.77691944283E+03  0.79235410518E+03  0.12509433490E+03 0.  0.
         23    2    1    2    0    0 -0.90222123241E+02  0.20798634759E+02  0.51432429824E+03  0.53038078204E+03  0.90563102144E+02 0.  0.
          5    1    3    3  502    0 -0.11960836401E+02  0.12989164277E+01  0.42547955490E+03  0.42567014557E+03  0.41800000000E+01 0.  1.
         -5    1    3    3    0  502  0.10218295964E+03 -0.22097551187E+02  0.35143988793E+03  0.36668395962E+03  0.41800000000E+01 0.  1.
        -11    1    4    4    0    0 -0.10198574676E+02  0.29059352241E+02  0.47058753327E+02  0.56240404895E+02  0.00000000000E+00 0.  1.
         11    1    4    4    0    0 -0.80023548566E+02 -0.82607174818E+01  0.46726554491E+03  0.47414037715E+03  0.00000000000E+00 0. -1.
</event>
<event>
 8    1  0.6380400E-009  0.1066503E+03  0.7561462E-02  0.1266902E+00
         -1   -1    0    0    0  501 -0.00000000000E+00  0.00000000000E+00  0.41123802163E+02  0.41123802163E+02  0.00000000000E+00 0.  1.
          1   -1    0    0  501    0  0.00000000000E+00 -0.00000000000E+00 -0.31104656333E+03  0.31104656333E+03  0.00000000000E+00 0. -1.
         25    2    1    2    0    0  0.14832290015E+02 -0.25247490853E+02 -0.11896501591E+03  0.17509102794E+03  0.12508701146E+03 0.  0.
         23    2    1    2    0    0 -0.14832290015E+02  0.25247490853E+02 -0.15095774526E+03  0.17707933755E+03  0.87814681641E+02 0.  0.
          5    1    3    3  502    0 -0.47359708576E+02 -0.40622553867E+02 -0.44390681148E+02  0.76688583582E+02  0.41800000000E+01 0.  1.
         -5    1    3    3    0  502  0.62191998590E+02  0.15375063014E+02 -0.74574334761E+02  0.98402444362E+02  0.41800000000E+01 0.  1.
        -11    1    4    4    0    0 -0.14561228622E+02  0.54957553636E+02 -0.66188940178E+02  0.87254443339E+02  0.00000000000E+00 0.  1.
         11    1    4    4    0    0 -0.27106139229E+00 -0.29710062783E+02 -0.84768805083E+02  0.89824894211E+02  0.00000000000E+00 0. -1.
</event>
<event>
 8    1  0.6380400E-009  0.1663409E+03  0.7561462E-02  0.1181718E+00
          2   -1    0    0  501    0  0.00000000000E+00  0.00000000000E+00  0.89093011467E+03  0.89093011467E+03  0.00000000000E+00 0. -1.
         -2   -1    0    0    0  501 -0.00000000000E+00 -0.00000000000E+00 -0.36509974515E+02  0.36509974515E+02  0.00000000000E+00 0.  1.
         25    2    1    2    0    0  0.96541635532E+02  0.89514059080E+02  0.31360275447E+03  0.36239053452E+03  0.12508859955E+03 0.  0.
         23    2    1    2    0    0 -0.96541635532E+02 -0.89514059080E+02  0.54081738568E+03  0.56504955466E+03  0.97285663908E+02 0.  0.
          5    1    3    3  502    0  0.12451578629E+03  0.78926142285E+02  0.28446991639E+03  0.32042803046E+03  0.41800000000E+01 0.  1.
         -5    1    3    3    0  502 -0.27974150760E+02  0.10587916794E+02  0.29132838079E+02  0.41962504064E+02  0.41800000000E+01 0.  1.
        -11    1    4    4    0    0 -0.43713686960E+02  0.76722780224E+01  0.24992767365E+03  0.25383772835E+03  0.00000000000E+00 0. -1.
         11    1    4    4    0    0 -0.52827948571E+02 -0.97186337102E+02  0.29088971203E+03  0.31121182631E+03  0.00000000000E+00 0.  1.
</event>
<event>
 8    1  0.6380400E-009  0.1612360E+03  0.7561462E-02  0.1187308E+00
         -1   -1    0    0    0  501 -0.00000000000E+00  0.00000000000E+00  0.26158580592E+03  0.26158580592E+03  0.00000000000E+00 0.  1.
          1   -1    0    0  501    0  0.00000000000E+00 -0.00000000000E+00 -0.11041160776E+03  0.11041160776E+03  0.00000000000E+00 0. -1.
         25    2    1    2    0    0 -0.74130102324E+02 -0.10598244181E+03  0.68701091395E+02  0.19260086022E+03  0.12509077246E+03 0.  0.
         23    2    1    2    0    0  0.74130102324E+02  0.10598244181E+03  0.82473106760E+02  0.17939655346E+03  0.93025587948E+02 0.  0.
          5    1    3    3  502    0 -0.40379047872E+02  0.22572737275E+02  0.11555663994E+02  0.47864410009E+02  0.41800000000E+01 0.  1.
         -5    1    3    3    0  502 -0.33751054452E+02 -0.12855517909E+03  0.57145427401E+02  0.14473645021E+03  0.41800000000E+01 0.  1.
        -11    1    4    4    0    0  0.77468744965E+02  0.62776217049E+02  0.17404825074E+02  0.10121851515E+03  0.00000000000E+00 0. -1.
         11    1    4    4    0    0 -0.33386426405E+01  0.43206224762E+02  0.65068281687E+02  0.78178038313E+02  0.00000000000E+00 0.  1.
</event>
<event>
 8    1  0.6380400E-009  0.9814772E+02  0.7561462E-02  0.1284240E+00
         -1   -1    0    0    0  501 -0.00000000000E+00  0.00000000000E+00  0.10965673513E+03  0.10965673513E+03  0.00000000000E+00 0. -1.
          1   -1    0    0  501    0  0.00000000000E+00 -0.00000000000E+00 -0.14898924326E+03  0.14898924326E+03  0.00000000000E+00 0.  1.
         25    2    1    2    0    0  0.11091684103E+02  0.62463210385E+02 -0.37380509944E+02  0.14515732977E+03  0.12509464319E+03 0.  0.
         23    2    1    2    0    0 -0.11091684103E+02 -0.62463210385E+02 -0.19519981911E+01  0.11348864861E+03  0.94080736389E+02 0.  0.
          5    1    3    3  502    0 -0.35359147092E+02 -0.17955208381E+02  0.95721461382E+01  0.41009232775E+02  0.41800000000E+01 0. -1.
         -5    1    3    3    0  502  0.46450831195E+02  0.80418418767E+02 -0.46952656082E+02  0.10414809700E+03  0.41800000000E+01 0. -1.
        -11    1    4    4    0    0 -0.66190089053E+01 -0.33365901506E+02 -0.48002064943E+02  0.58832753641E+02  0.00000000000E+00 0.  1.
         11    1    4    4    0    0 -0.44726751974E+01 -0.29097308880E+02  0.46050066752E+02  0.54655894973E+02  0.00000000000E+00 0. -1.
</event>
<event>
 8    1  0.6380400E-009  0.1041452E+03  0.7561462E-02  0.1271813E+00
         -1   -1    0    0    0  501 -0.00000000000E+00  0.00000000000E+00  0.48977889544E+02  0.48977889544E+02  0.00000000000E+00 0.  1.
          1   -1    0    0  501    0  0.00000000000E+00 -0.00000000000E+00 -0.34627715076E+03  0.34627715076E+03  0.00000000000E+00 0. -1.
         25    2    1    2    0    0  0.47832978602E+02  0.29337422209E+01 -0.84470287473E+02  0.15836281091E+03  0.12508776810E+03 0.  0.
         23    2    1    2    0    0 -0.47832978602E+02 -0.29337422209E+01 -0.21282897374E+03  0.23689222939E+03  0.92331769159E+02 0.  0.
          5    1    3    3  502    0  0.23440380446E+02  0.55291260660E+02 -0.55237205908E+01  0.60452947240E+02  0.41800000000E+01 0.  1.
         -5    1    3    3    0  502  0.24392598156E+02 -0.52357518439E+02 -0.78946566883E+02  0.97909863673E+02  0.41800000000E+01 0.  1.
        -11    1    4    4    0    0  0.18566272670E+01 -0.32370685259E+02 -0.26680125346E+02  0.41989729904E+02  0.00000000000E+00 0.  1.
         11    1    4    4    0    0 -0.49689605870E+02  0.29436943038E+02 -0.18614884839E+03  0.19490249948E+03  0.00000000000E+00 0. -1.
</event>
<event>
 8    1  0.6380400E-009  0.2276943E+03  0.7561462E-02  0.1128273E+00
         -2   -1    0    0    0  501 -0.00000000000E+00  0.00000000000E+00  0.13639568978E+03  0.13639568978E+03  0.00000000000E+00 0. -1.
          2   -1    0    0  501    0  0.00000000000E+00 -0.00000000000E+00 -0.51097598381E+03  0.51097598381E+03  0.00000000000E+00 0.  1.
         25    2    1    2    0    0  0.19285545518E+03 -0.86039683938E+02 -0.52142990136E+02  0.25092264178E+03  0.12508887614E+03 0.  0.
         23    2    1    2    0    0 -0.19285545518E+03  0.86039683938E+02 -0.32243730389E+03  0.39644903181E+03  0.92789902877E+02 0.  0.
          5    1    3    3  502    0  0.11248826322E+03 -0.11268912083E+03 -0.46654788841E+02  0.16597165131E+03  0.41800000000E+01 0.  1.
         -5    1    3    3    0  502  0.80367191952E+02  0.26649436888E+02 -0.54882012947E+01  0.84950990472E+02  0.41800000000E+01 0.  1.
        -11    1    4    4    0    0 -0.12016279531E+03  0.57924222758E+02 -0.11962902566E+03  0.17917984468E+03  0.00000000000E+00 0. -1.
         11    1    4    4    0    0 -0.72692659869E+02  0.28115461179E+02 -0.20280827823E+03  0.21726918713E+03  0.00000000000E+00 0.  1.
</event>
<event>
 8    1  0.6380400E-009  0.5664074E+02  0.7561462E-02  0.1412495E+00
          2   -1    0    0  501    0  0.00000000000E+00  0.00000000000E+00  0.29132466406E+03  0.29132466406E+03  0.00000000000E+00 0. -1.
         -2   -1    0    0    0  501 -0.00000000000E+00 -0.00000000000E+00 -0.44905402265E+02  0.44905402265E+02  0.00000000000E+00 0.  1.
         25    2    1    2    0    0  0.21911013356E+02 -0.30360856684E+02  0.14248916876E+03  0.19326952173E+03  0.12509224872E+03 0.  0.
         23    2    1    2    0    0 -0.21911013356E+02  0.30360856684E+02  0.10393009303E+03  0.14296054460E+03  0.90743478824E+02 0.  0.
          5    1    3    3  502    0  0.20517033547E+01 -0.15230080899E+02 -0.21824405283E+02  0.27017437273E+02  0.41800000000E+01 0. -1.
         -5    1    3    3    0  502  0.19859310001E+02 -0.15130775784E+02  0.16431357405E+03  0.16625208445E+03  0.41800000000E+01 0. -1.
        -11    1    4    4    0    0  0.75312066755E+00 -0.18324072031E+02  0.83521802022E+02  0.85511579447E+02  0.00000000000E+00 0. -1.
         11    1    4    4    0    0 -0.22664134023E+02  0.48684928715E+02  0.20408291012E+02  0.57448965152E+02  0.00000000000E+00 0.  1.
</event>
<event>
 8    1  0.6380400E-009  0.1464261E+03  0.7561462E-02  0.1204935E+00
          2   -1    0    0  501    0  0.00000000000E+00  0.00000000000E+00  0.23012939332E+03  0.23012939332E+03  0.00000000000E+00 0. -1.
         -2   -1    0    0    0  501 -0.00000000000E+00 -0.00000000000E+00 -0.13586483575E+03  0.13586483575E+03  0.00000000000E+00 0.  1.
         25    2    1    2    0    0  0.44302487814E+02  0.11034211172E+03  0.12460840866E+03  0.21287012875E+03  0.12509334178E+03 0.  0.
         23    2    1    2    0    0 -0.44302487814E+02 -0.11034211172E+03 -0.30343851091E+02  0.15312410033E+03  0.91586837242E+02 0.  0.
          5    1    3    3  502    0  0.37379123764E+02  0.13747892181E+03  0.91817876090E+02  0.16954541458E+03  0.41800000000E+01 0. -1.
         -5    1    3    3    0  502  0.69233640501E+01 -0.27136810086E+02  0.32790532572E+02  0.43324714168E+02  0.41800000000E+01 0. -1.
        -11    1    4    4    0    0 -0.17458865341E+02 -0.78211908534E+02 -0.61433597701E+02  0.10097525213E+03  0.00000000000E+00 0.  1.
         11    1    4    4    0    0 -0.26843622473E+02 -0.32130203187E+02  0.31089746609E+02  0.52148848199E+02  0.00000000000E+00 0. -1.
</event>
<event>
 8    1  0.6380400E-009  0.1049888E+03  0.7561462E-02  0.1270142E+00
         -1   -1    0    0    0  501 -0.00000000000E+00  0.00000000000E+00  0.99650426369E+02  0.99650426369E+02  0.00000000000E+00 0.  1.
          1   -1    0    0  501    0  0.00000000000E+00 -0.00000000000E+00 -0.14056028179E+03  0.14056028179E+03  0.00000000000E+00 0. -1.
         25    2    1    2    0    0 -0.20534721986E+02 -0.39490298494E+02 -0.37394110598E+02  0.13793887060E+03  0.12509058331E+03 0.  0.
         23    2    1    2    0    0  0.20534721986E+02  0.39490298494E+02 -0.35157448272E+01  0.10227183756E+03  0.92010922258E+02 0.  0.
          5    1    3    3  502    0 -0.33662712731E+02  0.39215950513E+02 -0.23114616746E+02  0.56769947247E+02  0.41800000000E+01 0. -1.
         -5    1    3    3    0  502  0.13127990745E+02 -0.78706249007E+02 -0.14279493852E+02  0.81168923354E+02  0.41800000000E+01 0. -1.
        -11    1    4    4    0    0  0.24659605466E+02 -0.11399405749E+02 -0.33445934198E+02  0.43089129807E+02  0.00000000000E+00 0. -1.
         11    1    4    4    0    0 -0.41248834799E+01  0.50889704242E+02  0.29930189371E+02  0.59182707756E+02  0.00000000000E+00 0.  1.
</event>
<event>
 8    1  0.6380400E-009  0.1570465E+03  0.7561462E-02  0.1192072E+00
         -1   -1    0    0    0  501 -0.00000000000E+00  0.00000000000E+00  0.17990943793E+03  0.17990943793E+03  0.00000000000E+00 0.  1.
          1   -1    0    0  501    0  0.00000000000E+00 -0.00000000000E+00 -0.15786443361E+03  0.15786443361E+03  0.00000000000E+00 0. -1.
         25    2    1    2    0    0 -0.10184227246E+03 -0.46187619032E+02 -0.38669986707E+02  0.17220004042E+03  0.12510931796E+03 0.  0.
         23    2    1    2    0    0  0.10184227246E+03  0.46187619032E+02  0.60714991021E+02  0.16557383111E+03  0.10593978858E+03 0.  0.
          5    1    3    3  502    0 -0.60295693609E+02  0.38396538677E+02 -0.40560330398E+01  0.71720210918E+02  0.41800000000E+01 0.  1.
         -5    1    3    3    0  502 -0.41546578847E+02 -0.84584157709E+02 -0.34613953667E+02  0.10047982951E+03  0.41800000000E+01 0.  1.
        -11    1    4    4    0    0  0.39086805646E+02  0.70699884121E+02  0.10326839247E+02  0.81442590818E+02  0.00000000000E+00 0.  1.
         11    1    4    4    0    0  0.62755466810E+02 -0.24512265089E+02  0.50388151774E+02  0.84131240295E+02  0.00000000000E+00 0. -1.
</event>
<event>
 8    1  0.6380400E-009  0.1047694E+03  0.7561462E-02  0.1270575E+00
         -1   -1    0    0    0  501 -0.00000000000E+00  0.00000000000E+00  0.43319543868E+03  0.43319543868E+03  0.00000000000E+00 0.  1.
          1   -1    0    0  501    0  0.00000000000E+00 -0.00000000000E+00 -0.47760124621E+02  0.47760124621E+02  0.00000000000E+00 0. -1.
         25    2    1    2    0    0 -0.90932543821E+00  0.43235408421E+02  0.35784415025E+03  0.38153708122E+03  0.12509189047E+03 0.  0.
         23    2    1    2    0    0  0.90932543821E+00 -0.43235408421E+02  0.27591163813E+02  0.99418482087E+02  0.85162402771E+02 0.  0.
          5    1    3    3  502    0 -0.57146106688E+02  0.19865285557E+02  0.25346327116E+03  0.26061736187E+03  0.41800000000E+01 0.  1.
         -5    1    3    3    0  502  0.56236781250E+02  0.23370122864E+02  0.10438087909E+03  0.12091971935E+03  0.41800000000E+01 0.  1.
        -11    1    4    4    0    0  0.18491185406E+02  0.16990457754E+02  0.26726245551E+02  0.36672766376E+02  0.00000000000E+00 0.  1.
         11    1    4    4    0    0 -0.17581859967E+02 -0.60225866175E+02  0.86491826145E+00  0.62745715711E+02  0.00000000000E+00 0. -1.
</event>
<event>
 8    1  0.6380400E-009  0.1542294E+03  0.7561462E-02  0.1195370E+00
         -2   -1    0    0    0  501 -0.00000000000E+00  0.00000000000E+00  0.21298109923E+02  0.21298109923E+02  0.00000000000E+00 0.  1.
          2   -1    0    0  501    0  0.00000000000E+00 -0.00000000000E+00 -0.16615840455E+04  0.16615840455E+04  0.00000000000E+00 0. -1.
         25    2    1    2    0    0 -0.13952008864E+03  0.32715042993E+02 -0.11187965597E+04  0.11348519271E+04  0.12508806996E+03 0.  0.
         23    2    1    2    0    0  0.13952008864E+03 -0.32715042993E+02 -0.52148937585E+03  0.54803022830E+03  0.88599282410E+02 0.  0.
          5    1    3    3  502    0 -0.67605044326E+02  0.27691110627E+02 -0.19567122613E+03  0.20890653594E+03  0.41800000000E+01 0. -1.
         -5    1    3    3    0  502 -0.71915044310E+02  0.50239323655E+01 -0.92312533359E+03  0.92594539116E+03  0.41800000000E+01 0. -1.
        -11    1    4    4    0    0  0.35869858263E+02 -0.46262703718E+02 -0.25811565230E+03  0.26467069058E+03  0.00000000000E+00 0. -1.
         11    1    4    4    0    0  0.10365023037E+03  0.13547660725E+02 -0.26337372355E+03  0.28335953773E+03  0.00000000000E+00 0.  1.
</event>
<event>
 8    1  0.6380400E-009  0.1984224E+03  0.7561462E-02  0.1151077E+00
         -3   -1    0    0    0  501 -0.00000000000E+00  0.00000000000E+00  0.74272126475E+02  0.74272126475E+02  0.00000000000E+00 0.  1.
          3   -1    0    0  501    0  0.00000000000E+00 -0.00000000000E+00 -0.61062663902E+03  0.61062663902E+03  0.00000000000E+00 0. -1.
         25    2    1    2    0    0  0.72641824397E+02  0.16757464685E+03 -0.26154734727E+03  0.34265477130E+03  0.12508869057E+03 0.  0.
         23    2    1    2    0    0 -0.72641824397E+02 -0.16757464685E+03 -0.27480716528E+03  0.34224399420E+03  0.90850847885E+02 0.  0.
          5    1    3    3  502    0  0.42385103486E+02  0.12761467606E+02 -0.97811008236E+01  0.45524656905E+02  0.41800000000E+01 0.  1.
         -5    1    3    3    0  502  0.30256720911E+02  0.15481317924E+03 -0.25176624645E+03  0.29713011439E+03  0.41800000000E+01 0.  1.
        -11    1    4    4    0    0 -0.54767133521E+02 -0.45478063374E+02 -0.54208797554E+02  0.89477857008E+02  0.00000000000E+00 0.  1.
         11    1    4    4    0    0 -0.17874690876E+02 -0.12209658348E+03 -0.22059836773E+03  0.25276613720E+03  0.00000000000E+00 0. -1.
</event>
<event>
 8    1  0.6380400E-009  0.7087573E+02  0.7561462E-02  0.1357140E+00
          2   -1    0    0  501    0  0.00000000000E+00  0.00000000000E+00  0.67302307041E+02  0.67302307041E+02  0.00000000000E+00 0. -1.
         -2   -1    0    0    0  501 -0.00000000000E+00 -0.00000000000E+00 -0.19509677933E+03  0.19509677933E+03  0.00000000000E+00 0.  1.
         25    2    1    2    0    0 -0.18718067730E+02  0.26377281398E+02 -0.97991161407E+02  0.16216124203E+03  0.12509146122E+03 0.  0.
         23    2    1    2    0    0  0.18718067730E+02 -0.26377281398E+02 -0.29803310880E+02  0.10023784434E+03  0.90073642450E+02 0.  0.
          5    1    3    3  502    0  0.19950890816E+01 -0.63643899935E+01 -0.11806459842E+03  0.11832669876E+03  0.41800000000E+01 0.  1.
         -5    1    3    3    0  502 -0.20713156812E+02  0.32741671391E+02  0.20073437008E+02  0.43834543273E+02  0.41800000000E+01 0.  1.
        -11    1    4    4    0    0  0.53335878279E+02 -0.35678147747E+01 -0.10367316759E+02  0.54451138380E+02  0.00000000000E+00 0. -1.
         11    1    4    4    0    0 -0.34617810549E+02 -0.22809466623E+02 -0.19435994121E+02  0.45786705956E+02  0.00000000000E+00 0.  1.
</event>
<event>
 8    1  0.6380400E-009  0.1003197E+03  0.7561462E-02  0.1279625E+00
          2   -1    0    0  501    0  0.00000000000E+00  0.00000000000E+00  0.68501475948E+03  0.68501475948E+03  0.00000000000E+00 0.  1.
         -2   -1    0    0    0  501 -0.00000000000E+00 -0.00000000000E+00 -0.34837861451E+02  0.34837861451E+02  0.00000000000E+00 0. -1.
         25    2    1    2    0    0 -0.38157606765E+02 -0.38848604084E+02  0.56968452773E+03  0.58579263817E+03  0.12508931534E+03 0.  0.
         23    2    1    2    0    0  0.38157606765E+02  0.38848604084E+02  0.80492370306E+02  0.13405998276E+03  0.92346306409E+02 0.  0.
          5    1    3    3  502    0 -0.11691688565E+02 -0.60579329035E+02  0.52833525747E+03  0.53194188345E+03  0.41800000000E+01 0. -1.
         -5    1    3    3    0  502 -0.26465918199E+02  0.21730724951E+02  0.41349270261E+02  0.53850754722E+02  0.41800000000E+01 0. -1.
        -11    1    4    4    0    0 -0.26511633346E+02  0.28300090479E+02  0.45481805744E+02  0.59769193382E+02  0.00000000000E+00 0.  1.
         11    1    4    4    0    0  0.64669240111E+02  0.10548513605E+02  0.35010564562E+02  0.74290789380E+02  0.00000000000E+00 0. -1.
</event>
<event>
 7    1  0.6380400E-009  0.1276190E+03  0.7561462E-02  0.1231032E+00
         -2   -1    0    0    0  501 -0.00000000000E+00  0.00000000000E+00  0.79022008978E+02  0.79022008978E+02  0.00000000000E+00 0.  1.
          2   -1    0    0  501    0  0.00000000000E+00 -0.00000000000E+00 -0.22163769954E+03  0.22163769954E+03  0.00000000000E+00 0. -1.
         23    2    1    2    0    0 -0.37738226296E+02  0.58558454616E+02 -0.97200599932E+02  0.15031696751E+03  0.91071223576E+02 0.  0.
          5    1    1    2  502    0 -0.34209019554E+02 -0.60515663253E+02 -0.11182648396E+02  0.70533159173E+02  0.41800000000E+01 0.  1.
         -5    1    1    2    0  502  0.71947245850E+02  0.19572086362E+01 -0.34232442233E+02  0.79809581832E+02  0.41800000000E+01 0.  1.
        -11    1    3    3    0    0 -0.13927223517E+02 -0.23906849712E+02 -0.15007270661E+02  0.31475755602E+02  0.00000000000E+00 0. -1.
         11    1    3    3    0    0 -0.23811002779E+02  0.82465304328E+02 -0.82193329271E+02  0.11884121191E+03  0.00000000000E+00 0.  1.
</event>
<event>
 8    1  0.6380400E-009  0.1347648E+03  0.7561462E-02  0.1220552E+00
          1   -1    0    0  501    0  0.00000000000E+00  0.00000000000E+00  0.69816216355E+02  0.69816216355E+02  0.00000000000E+00 0. -1.
         -1   -1    0    0    0  501 -0.00000000000E+00 -0.00000000000E+00 -0.28073736055E+03  0.28073736055E+03  0.00000000000E+00 0.  1.
         25    2    1    2    0    0 -0.11494975378E+02 -0.79405258563E+02 -0.15832021193E+03  0.21713821859E+03  0.12508551842E+03 0.  0.
         23    2    1    2    0    0  0.11494975378E+02  0.79405258563E+02 -0.52600932259E+02  0.13341535832E+03  0.92711758767E+02 0.  0.
          5    1    3    3  502    0 -0.26744187619E+02 -0.10998719579E+03 -0.13106454690E+03  0.17322766137E+03  0.41800000000E+01 0.  1.
         -5    1    3    3    0  502  0.15249212241E+02  0.30581937230E+02 -0.27255665036E+02  0.43910557219E+02  0.41800000000E+01 0.  1.
        -11    1    4    4    0    0 -0.32757623940E+02  0.68988630863E+02 -0.40137660246E+02  0.86275865018E+02  0.00000000000E+00 0.  1.
         11    1    4    4    0    0  0.44252599319E+02  0.10416627700E+02 -0.12463272013E+02  0.47139493298E+02  0.00000000000E+00 0. -1.
</event>
<event>
 7    1  0.6380400E-009  0.3300134E+03  0.7561462E-02  0.1071131E+00
         -2   -1    0    0    0  501 -0.00000000000E+00  0.00000000000E+00  0.69946118574E+03  0.69946118574E+03  0.00000000000E+00 0.  1.
          2   -1    0    0  501    0  0.00000000000E+00 -0.00000000000E+00 -0.19786357144E+03  0.19786357144E+03  0.00000000000E+00 0. -1.
         25    2    1    2    0    0  0.87642502066E+02  0.29262967344E+03  0.71722750593E+02  0.33779311557E+03  0.12508677799E+03 0.  0.
          5    1    3    3  502    0  0.73967697132E+02  0.29916663292E+03  0.82104311727E+02  0.31895216706E+03  0.41800000000E+01 0. -1.
         -5    1    3    3    0  502  0.13674804933E+02 -0.65369594751E+01 -0.10381561134E+02  0.18840948509E+02  0.41800000000E+01 0. -1.
        -11    1    1    2    0    0 -0.52413403062E+02 -0.29609810561E+03  0.29938760659E+03  0.42432792972E+03  0.00000000000E+00 0. -1.
         11    1    1    2    0    0 -0.35229099004E+02  0.34684321664E+01  0.13048725711E+03  0.13520371188E+03  0.00000000000E+00 0.  1.
</event>
<event>
 8    1  0.6380400E-009  0.9121294E+02  0.7561462E-02  0.1299941E+00
         -2   -1    0    0    0  501 -0.00000000000E+00  0.00000000000E+00  0.47585546803E+02  0.47585546803E+02  0.00000000000E+00 0.  1.
          2   -1    0    0  501    0  0.00000000000E+00 -0.00000000000E+00 -0.30235016148E+03  0.30235016148E+03  0.00000000000E+00 0. -1.
         25    2    1    2    0    0 -0.35170839194E+02 -0.31515950972E+02 -0.11472690737E+03  0.17618110741E+03  0.12508907322E+03 0.  0.
         23    2    1    2    0    0  0.35170839194E+02  0.31515950972E+02 -0.14003770732E+03  0.17375460088E+03  0.91377561580E+02 0.  0.
          5    1    3    3  502    0 -0.24411849031E+02 -0.69216996868E+02 -0.11530714399E+03  0.13674845843E+03  0.41800000000E+01 0.  1.
         -5    1    3    3    0  502 -0.10758990163E+02  0.37701045896E+02  0.58023662274E+00  0.39432648979E+02  0.41800000000E+01 0.  1.
        -11    1    4    4    0    0 -0.89371123975E+01  0.22844693918E+02 -0.12341199503E+03  0.12582635866E+03  0.00000000000E+00 0. -1.
         11    1    4    4    0    0  0.44107951591E+02  0.86712570539E+01 -0.16625712289E+02  0.47928242213E+02  0.00000000000E+00 0.  1.
</event>
<event>
 8    1  0.6380400E-009  0.3209108E+03  0.7561462E-02  0.1075231E+00
          2   -1    0    0  501    0  0.00000000000E+00  0.00000000000E+00  0.40472813497E+03  0.40472813497E+03  0.00000000000E+00 0.  1.
         -2   -1    0    0    0  501 -0.00000000000E+00 -0.00000000000E+00 -0.28695442270E+03  0.28695442270E+03  0.00000000000E+00 0. -1.
         25    2    1    2    0    0  0.27252868264E+03 -0.13237927802E+03  0.17186323138E+03  0.37010158065E+03  0.12506819575E+03 0.  0.
         23    2    1    2    0    0 -0.27252868264E+03  0.13237927802E+03 -0.54089519107E+02  0.32158097702E+03  0.93233537907E+02 0.  0.
          5    1    3    3  502    0  0.14384932934E+03 -0.13481463501E+03  0.84754872706E+02  0.21463568252E+03  0.41800000000E+01 0. -1.
         -5    1    3    3    0  502  0.12867935331E+03  0.24353569873E+01  0.87108358670E+02  0.15546589813E+03  0.41800000000E+01 0. -1.
        -11    1    4    4    0    0 -0.23961475763E+03  0.77446560590E+02 -0.53989664300E+02  0.25754239587E+03  0.00000000000E+00 0.  1.
         11    1    4    4    0    0 -0.32913925016E+02  0.54932717433E+02 -0.99854807490E-01  0.64038581149E+02  0.00000000000E+00 0. -1.
</event>
<event>
 8    1  0.6380400E-009  0.4339560E+03  0.7561462E-02  0.1032618E+00
          1   -1    0    0  501    0  0.00000000000E+00  0.00000000000E+00  0.17493490756E+04  0.17493490756E+04  0.00000000000E+00 0. -1.
         -1   -1    0    0    0  501 -0.00000000000E+00 -0.00000000000E+00 -0.16240783024E+03  0.16240783024E+03  0.00000000000E+00 0.  1.
         25    2    1    2    0    0 -0.42836546323E+03 -0.25786440053E+02  0.13299649778E+04  0.14030737740E+04  0.12508901887E+03 0.  0.
         23    2    1    2    0    0  0.42836546323E+03  0.25786440053E+02  0.25697626755E+03  0.50868313179E+03  0.92519273179E+02 0.  0.
          5    1    3    3  502    0 -0.34107535931E+03 -0.39874784979E+02  0.11797382198E+04  0.12287075074E+04  0.41800000000E+01 0. -1.
         -5    1    3    3    0  502 -0.87290103920E+02  0.14088344926E+02  0.15022675800E+03  0.17436626658E+03  0.41800000000E+01 0. -1.
        -11    1    4    4    0    0  0.34155996922E+03 -0.10891738718E+02  0.17578408060E+03  0.38429400924E+03  0.00000000000E+00 0. -1.
         11    1    4    4    0    0  0.86805494013E+02  0.36678178771E+02  0.81192186946E+02  0.12438912255E+03  0.00000000000E+00 0.  1.
</event>
<event>
 8    1  0.6380400E-009  0.9684242E+02  0.7561462E-02  0.1287080E+00
          1   -1    0    0  501    0  0.00000000000E+00  0.00000000000E+00  0.79488418923E+03  0.79488418923E+03  0.00000000000E+00 0. -1.
         -1   -1    0    0    0  501 -0.00000000000E+00 -0.00000000000E+00 -0.22677284398E+02  0.22677284398E+02  0.00000000000E+00 0.  1.
         25    2    1    2    0    0  0.15657667479E+02 -0.20501757279E+02  0.64727406144E+03  0.65975450487E+03  0.12508721551E+03 0.  0.
         23    2    1    2    0    0 -0.15657667479E+02  0.20501757279E+02  0.12493284340E+03  0.15780696876E+03  0.92894237859E+02 0.  0.
          5    1    3    3  502    0  0.10546479803E+02  0.49972913935E+02  0.18009842756E+03  0.18724699296E+03  0.41800000000E+01 0.  1.
         -5    1    3    3    0  502  0.51111876762E+01 -0.70474671214E+02  0.46717563388E+03  0.47250751191E+03  0.41800000000E+01 0.  1.
        -11    1    4    4    0    0 -0.36787778135E+02  0.30958774565E+02  0.12532075966E+03  0.13422771377E+03  0.00000000000E+00 0. -1.
         11    1    4    4    0    0  0.21130110656E+02 -0.10457017286E+02 -0.38791626084E+00  0.23579254990E+02  0.00000000000E+00 0.  1.
</event>
<event>
 8    1  0.6380400E-009  0.9598343E+02  0.7561462E-02  0.1288976E+00
         -1   -1    0    0    0  501 -0.00000000000E+00  0.00000000000E+00  0.20540487209E+02  0.20540487209E+02  0.00000000000E+00 0.  1.
          1   -1    0    0  501    0  0.00000000000E+00 -0.00000000000E+00 -0.63801085101E+03  0.63801085101E+03  0.00000000000E+00 0. -1.
         25    2    1    2    0    0  0.48775469024E+01 -0.83028016968E+01 -0.45529826614E+03  0.47226749224E+03  0.12508935245E+03 0.  0.
         23    2    1    2    0    0 -0.48775469024E+01  0.83028016968E+01 -0.16217209766E+03  0.18628384598E+03  0.91154566714E+02 0.  0.
          5    1    3    3  502    0  0.16397993165E+02 -0.63077472032E+02 -0.30292628067E+03  0.30988621392E+03  0.41800000000E+01 0.  1.
         -5    1    3    3    0  502 -0.11520446263E+02  0.54774670335E+02 -0.15237198547E+03  0.16238127832E+03  0.41800000000E+01 0.  1.
        -11    1    4    4    0    0 -0.90419942293E+01  0.38754222474E+02 -0.14645128704E+03  0.15176174385E+03  0.00000000000E+00 0. -1.
         11    1    4    4    0    0  0.41644473269E+01 -0.30451420777E+02 -0.15720810613E+02  0.34522102126E+02  0.00000000000E+00 0.  1.
</event>
<event>
 8    1  0.6380400E-009  0.1412371E+03  0.7561462E-02  0.1211674E+00
         -2   -1    0    0    0  501 -0.00000000000E+00  0.00000000000E+00  0.21639619898E+02  0.21639619898E+02  0.00000000000E+00 0.  1.
          2   -1    0    0  501    0  0.00000000000E+00 -0.00000000000E+00 -0.10639034343E+04  0.10639034343E+04  0.00000000000E+00 0. -1.
         25    2    1    2    0    0 -0.89880793190E+02 -0.12571431356E+02 -0.63594957279E+03  0.65445856145E+03  0.12509017407E+03 0.  0.
         23    2    1    2    0    0  0.89880793190E+02  0.12571431356E+02 -0.40631424162E+03  0.43108449276E+03  0.11183013494E+03 0.  0.
          5    1    3    3  502    0 -0.20299949076E+02 -0.53864336209E+02 -0.13239232620E+03  0.14442525778E+03  0.41800000000E+01 0.  1.
         -5    1    3    3    0  502 -0.69580844114E+02  0.41292904853E+02 -0.50355724659E+03  0.51003330367E+03  0.41800000000E+01 0.  1.
        -11    1    4    4    0    0  0.10884015005E+03  0.35040597030E+02 -0.31185775334E+03  0.33215851641E+03  0.00000000000E+00 0. -1.
         11    1    4    4    0    0 -0.18959356862E+02 -0.22469165674E+02 -0.94456488277E+02  0.98925976347E+02  0.00000000000E+00 0.  1.
</event>
<event>
 8    1  0.6380400E-009  0.1426732E+03  0.7561462E-02  0.1209777E+00
         -1   -1    0    0    0  501 -0.00000000000E+00  0.00000000000E+00  0.60713523685E+02  0.60713523685E+02  0.00000000000E+00 0.  1.
          1   -1    0    0  501    0  0.00000000000E+00 -0.00000000000E+00 -0.39312910621E+03  0.39312910621E+03  0.00000000000E+00 0. -1.
         25    2    1    2    0    0  0.10075030664E+03 -0.11970762805E+02 -0.22400820150E+03  0.27589538980E+03  0.12507864856E+03 0.  0.
         23    2    1    2    0    0 -0.10075030664E+03  0.11970762805E+02 -0.10840738103E+03  0.17794724010E+03  0.98077196880E+02 0.  0.
          5    1    3    3  502    0  0.10953850406E+03 -0.42667455611E+02 -0.21016351351E+03  0.24084304111E+03  0.41800000000E+01 0.  1.
         -5    1    3    3    0  502 -0.87881974222E+01  0.30696692806E+02 -0.13844687986E+02  0.35052348689E+02  0.41800000000E+01 0.  1.
        -11    1    4    4    0    0 -0.10520821607E+03  0.35906889022E+02 -0.10579080074E+03  0.15345933314E+03  0.00000000000E+00 0. -1.
         11    1    4    4    0    0  0.44579094297E+01 -0.23936126217E+02 -0.26165802888E+01  0.24487906957E+02  0.00000000000E+00 0.  1.
</event>
<event>
 8    1  0.6380400E-009  0.1205078E+03  0.7561462E-02  0.1242262E+00
         -1   -1    0    0    0  501 -0.00000000000E+00  0.00000000000E+00  0.65983986996E+02  0.65983986996E+02  0.00000000000E+00 0. -1.
          1   -1    0    0  501    0  0.00000000000E+00 -0.00000000000E+00 -0.34612576995E+03  0.34612576995E+03  0.00000000000E+00 0.  1.
         25    2    1    2    0    0 -0.99884843712E+02 -0.22518238837E+02 -0.11269792930E+03  0.19705882946E+03  0.12508919185E+03 0.  0.
         23    2    1    2    0    0  0.99884843712E+02  0.22518238837E+02 -0.16744385366E+03  0.21505092749E+03  0.87894278550E+02 0.  0.
          5    1    3    3  502    0 -0.23675915898E+02  0.16955929803E+02 -0.10696891842E+03  0.11094086018E+03  0.41800000000E+01 0. -1.
         -5    1    3    3    0  502 -0.76208927814E+02 -0.39474168641E+02 -0.57290108843E+01  0.86117969287E+02  0.41800000000E+01 0. -1.
        -11    1    4    4    0    0  0.80727722414E+02 -0.16321665582E+02 -0.68789978882E+02  0.10730993956E+03  0.00000000000E+00 0. -1.
         11    1    4    4    0    0  0.19157121299E+02  0.38839904419E+02 -0.98653874773E+02  0.10774098793E+03  0.00000000000E+00 0.  1.
</event>
<event>
 8    1  0.6380400E-009  0.1512116E+03  0.7561462E-02  0.1198992E+00
          3   -1    0    0  501    0  0.00000000000E+00  0.00000000000E+00  0.75576871903E+03  0.75576871903E+03  0.00000000000E+00 0. -1.
         -3   -1    0    0    0  501 -0.00000000000E+00 -0.00000000000E+00 -0.35250790806E+02  0.35250790806E+02  0.00000000000E+00 0.  1.
         25    2    1    2    0    0 -0.10988843906E+03  0.51121145701E+02  0.37335560076E+03  0.41199106346E+03  0.12511351315E+03 0.  0.
         23    2    1    2    0    0  0.10988843906E+03 -0.51121145701E+02  0.34716232746E+03  0.37902844638E+03  0.91934982339E+02 0.  0.
          5    1    3    3  502    0 -0.12491085460E+03  0.24401593919E+02  0.35219707160E+03  0.37451089307E+03  0.41800000000E+01 0. -1.
         -5    1    3    3    0  502  0.15022415542E+02  0.26719551782E+02  0.21158529159E+02  0.37480170388E+02  0.41800000000E+01 0. -1.
        -11    1    4    4    0    0  0.31604620016E+02  0.20803752093E+02  0.45470016345E+02  0.59153786809E+02  0.00000000000E+00 0.  1.
         11    1    4    4    0    0  0.78283819043E+02 -0.71924897793E+02  0.30169231112E+03  0.31987465957E+03  0.00000000000E+00 0. -1.
</event>
<event>
 8    1  0.6380400E-009  0.9119372E+02  0.7561462E-02  0.1299986E+00
         -3   -1    0    0    0  501 -0.00000000000E+00  0.00000000000E+00  0.68973349327E+03  0.68973349327E+03  0.00000000000E+00 0.  1.
          3   -1    0    0  501    0  0.00000000000E+00 -0.00000000000E+00 -0.21438758351E+02  0.21438758351E+02  0.00000000000E+00 0. -1.
         25    2    1    2    0    0  0.54438269450E+02  0.14749535763E+02  0.40646263808E+03  0.42900332928E+03  0.12510358267E+03 0.  0.
         23    2    1    2    0    0 -0.54438269450E+02 -0.14749535763E+02  0.26183209684E+03  0.28216892234E+03  0.88781641186E+02 0.  0.
          5    1    3    3  502    0  0.54548638445E+02 -0.14237461434E+02  0.39251448990E+03  0.39656444173E+03  0.41800000000E+01 0. -1.
         -5    1    3    3    0  502 -0.11036899456E+00  0.28986997198E+02  0.13948148175E+02  0.32438887548E+02  0.41800000000E+01 0. -1.
        -11    1    4    4    0    0 -0.15672726877E+02 -0.44837464983E+02  0.73210998564E+02  0.87269026262E+02  0.00000000000E+00 0. -1.
         11    1    4    4    0    0 -0.38765542574E+02  0.30087929220E+02  0.18862109828E+03  0.19489989608E+03  0.00000000000E+00 0.  1.
</event>
<event>
 8    1  0.6380400E-009  0.2070924E+03  0.7561462E-02  0.1143889E+00
          2   -1    0    0  501    0  0.00000000000E+00  0.00000000000E+00  0.26201673064E+03  0.26201673064E+03  0.00000000000E+00 0. -1.
         -2   -1    0    0    0  501 -0.00000000000E+00 -0.00000000000E+00 -0.19159137113E+03  0.19159137113E+03  0.00000000000E+00 0.  1.
         25    2    1    2    0    0 -0.16666768953E+03 -0.75916975883E+02 -0.32791898413E+02  0.22419672748E+03  0.12508940022E+03 0.  0.
         23    2    1    2    0    0  0.16666768953E+03  0.75916975883E+02  0.10321725792E+03  0.22941137430E+03  0.91838283747E+02 0.  0.
          5    1    3    3  502    0  0.51874777338E+00 -0.37473341081E+02 -0.36605037557E+02  0.52553987153E+02  0.41800000000E+01 0.  1.
         -5    1    3    3    0  502 -0.16718643731E+03 -0.38443634802E+02  0.38131391442E+01  0.17164274033E+03  0.41800000000E+01 0.  1.
        -11    1    4    4    0    0  0.14567088670E+03  0.22395484896E+02  0.74955519038E+02  0.16534779953E+03  0.00000000000E+00 0.  1.
         11    1    4    4    0    0  0.20996802833E+02  0.53521490987E+02  0.28261738886E+02  0.64063574764E+02  0.00000000000E+00 0. -1.
</event>
<event>
 8    1  0.6380400E-009  0.2694981E+03  0.7561462E-02  0.1101567E+00
         -1   -1    0    0    0  501 -0.00000000000E+00  0.00000000000E+00  0.33350262031E+03  0.33350262031E+03  0.00000000000E+00 0.  1.
          1   -1    0    0  501    0  0.00000000000E+00 -0.00000000000E+00 -0.24670572890E+03  0.24670572890E+03  0.00000000000E+00 0. -1.
         25    2    1    2    0    0  0.25183087156E+03 -0.97399835611E+01 -0.39860632748E+02  0.28416613942E+03  0.12509144496E+03 0.  0.
         23    2    1    2    0    0 -0.25183087156E+03  0.97399835611E+01  0.12665752416E+03  0.29604220979E+03  0.89917775777E+02 0.  0.
          5    1    3    3  502    0  0.19987023995E+03 -0.60171032763E+02 -0.27162854526E+02  0.21053256058E+03  0.41800000000E+01 0.  1.
         -5    1    3    3    0  502  0.51960631608E+02  0.50431049202E+02 -0.12697778222E+02  0.73633578838E+02  0.41800000000E+01 0.  1.
        -11    1    4    4    0    0 -0.74503066642E+02  0.27637731941E+02  0.77867469625E+02  0.11125598407E+03  0.00000000000E+00 0.  1.
         11    1    4    4    0    0 -0.17732780491E+03 -0.17897748380E+02  0.48790054537E+02  0.18478622572E+03  0.00000000000E+00 0. -1.
</event>
<event>
 8    1  0.6380400E-009  0.9844229E+02  0.7561462E-02  0.1283606E+00
         -2   -1    0    0    0  501 -0.00000000000E+00  0.00000000000E+00  0.26660137862E+03  0.26660137862E+03  0.00000000000E+00 0.  1.
          2   -1    0    0  501    0  0.00000000000E+00 -0.00000000000E+00 -0.73950442212E+02  0.73950442212E+02  0.00000000000E+00 0. -1.
         25    2    1    2    0    0 -0.70079791921E+02 -0.32968959750E+02  0.52703202326E+02  0.15626140126E+03  0.12506745558E+03 0.  0.
         23    2    1    2    0    0  0.70079791921E+02  0.32968959750E+02  0.13994773408E+03  0.18429041957E+03  0.91539395503E+02 0.  0.
          5    1    3    3  502    0 -0.60572615418E+02 -0.28289368808E+02 -0.29557977189E+02  0.73215275330E+02  0.41800000000E+01 0. -1.
         -5    1    3    3    0  502 -0.95071765033E+01 -0.46795909421E+01  0.82261179515E+02  0.83046125928E+02  0.41800000000E+01 0. -1.
        -11    1    4    4    0    0  0.37037263791E+02 -0.29824929735E+02  0.70228789185E+02  0.84813726325E+02  0.00000000000E+00 0. -1.
         11    1    4    4    0    0  0.33042528130E+02  0.62793889485E+02  0.69718944893E+02  0.99476693245E+02  0.00000000000E+00 0.  1.
</event>
<event>
 8    1  0.6380400E-009  0.1195835E+03  0.7561462E-02  0.1243786E+00
         -2   -1    0    0    0  501 -0.00000000000E+00  0.00000000000E+00  0.83440017943E+02  0.83440017943E+02  0.00000000000E+00 0.  1.
          2   -1    0    0  501    0  0.00000000000E+00 -0.00000000000E+00 -0.21749417735E+03  0.21749417735E+03  0.00000000000E+00 0. -1.
         25    2    1    2    0    0  0.17184145070E+02  0.76068506629E+02 -0.72198578150E+02  0.16413611306E+03  0.12508523646E+03 0.  0.
         23    2    1    2    0    0 -0.17184145070E+02 -0.76068506629E+02 -0.61855581256E+02  0.13679808223E+03  0.93839702827E+02 0.  0.
          5    1    3    3  502    0 -0.27332447636E+02  0.80957012822E+02 -0.81555610062E+02  0.11819429153E+03  0.41800000000E+01 0. -1.
         -5    1    3    3    0  502  0.44516592706E+02 -0.48885061929E+01  0.93570319118E+01  0.45941821526E+02  0.41800000000E+01 0. -1.
        -11    1    4    4    0    0 -0.43175000107E+02 -0.69520766426E+02 -0.15558854540E+02  0.83302434258E+02  0.00000000000E+00 0.  1.
         11    1    4    4    0    0  0.25990855037E+02 -0.65477402033E+01 -0.46296726716E+02  0.53495647972E+02  0.00000000000E+00 0. -1.
</event>
<event>
 8    1  0.6380400E-009  0.9967396E+02  0.7561462E-02  0.1280983E+00
          4   -1    0    0  501    0  0.00000000000E+00  0.00000000000E+00  0.26527972971E+03  0.26527972971E+03  0.00000000000E+00 0.  1.
         -4   -1    0    0    0  501 -0.00000000000E+00 -0.00000000000E+00 -0.43428517905E+02  0.43428517905E+02  0.00000000000E+00 0. -1.
         25    2    1    2    0    0 -0.32942830847E+02  0.25478114825E+02  0.15597770255E+03  0.20424512587E+03  0.12511060429E+03 0.  0.
         23    2    1    2    0    0  0.32942830847E+02 -0.25478114825E+02  0.65873509248E+02  0.10446312175E+03  0.69561915910E+02 0.  0.
          5    1    3    3  502    0 -0.63584551026E+02  0.58388782946E+02  0.96124525992E+02  0.12926578047E+03  0.41800000000E+01 0. -1.
         -5    1    3    3    0  502  0.30641720178E+02 -0.32910668120E+02  0.59853176563E+02  0.74979345398E+02  0.41800000000E+01 0. -1.
        -11    1    4    4    0    0 -0.13722189778E+02  0.15872512869E+01  0.44230810978E+02  0.46337700620E+02  0.00000000000E+00 0.  1.
         11    1    4    4    0    0  0.46665020626E+02 -0.27065366112E+02  0.21642698271E+02  0.58125421127E+02  0.00000000000E+00 0. -1.
</event>
<event>
 8    1  0.6380400E-009  0.1731657E+03  0.7561462E-02  0.1174586E+00
         -2   -1    0    0    0  501 -0.00000000000E+00  0.00000000000E+00  0.18846685205E+03  0.18846685205E+03  0.00000000000E+00 0.  1.
          2   -1    0    0  501    0  0.00000000000E+00 -0.00000000000E+00 -0.20225808823E+03  0.20225808823E+03  0.00000000000E+00 0. -1.
         25    2    1    2    0    0 -0.63391309022E+02  0.13169298595E+03 -0.76640528340E+02  0.20708330109E+03  0.12509285511E+03 0.  0.
         23    2    1    2    0    0  0.63391309022E+02 -0.13169298595E+03  0.62849292153E+02  0.18364163919E+03  0.91720867375E+02 0.  0.
          5    1    3    3  502    0 -0.56437072261E+02  0.15557981497E+03 -0.56925926518E+02  0.17506643156E+03  0.41800000000E+01 0. -1.
         -5    1    3    3    0  502 -0.69542367611E+01 -0.23886829018E+02 -0.19714601822E+02  0.32016869529E+02  0.41800000000E+01 0. -1.
        -11    1    4    4    0    0  0.61165628901E+02 -0.66619508050E+02  0.74895182832E+02  0.11742521630E+03  0.00000000000E+00 0.  1.
         11    1    4    4    0    0  0.22256801210E+01 -0.65073477900E+02 -0.12045890679E+02  0.66216422889E+02  0.00000000000E+00 0. -1.
</event>
<event>
 8    1  0.6380400E-009  0.2513212E+03  0.7561462E-02  0.1112473E+00
          1   -1    0    0  501    0  0.00000000000E+00  0.00000000000E+00  0.17701951412E+03  0.17701951412E+03  0.00000000000E+00 0. -1.
         -1   -1    0    0    0  501 -0.00000000000E+00 -0.00000000000E+00 -0.51896280934E+03  0.51896280934E+03  0.00000000000E+00 0.  1.
         25    2    1    2    0    0 -0.24302508196E+02  0.22745468025E+03 -0.36692389266E+03  0.45011885911E+03  0.12509037072E+03 0.  0.
         23    2    1    2    0    0  0.24302508196E+02 -0.22745468025E+03  0.24980597433E+02  0.24586346435E+03  0.86594280303E+02 0.  0.
          5    1    3    3  502    0 -0.74637948163E+02  0.12102488086E+03 -0.21655606252E+03  0.25909813914E+03  0.41800000000E+01 0.  1.
         -5    1    3    3    0  502  0.50335439967E+02  0.10642979940E+03 -0.15036783014E+03  0.19102071996E+03  0.41800000000E+01 0.  1.
        -11    1    4    4    0    0  0.44865927172E+02 -0.65877805674E+02  0.23054392793E+02  0.82971933378E+02  0.00000000000E+00 0. -1.
         11    1    4    4    0    0 -0.20563418976E+02 -0.16157687458E+03  0.19262046401E+01  0.16289153097E+03  0.00000000000E+00 0.  1.
</event>
<event>
 8    1  0.6380400E-009  0.2574763E+03  0.7561462E-02  0.1108669E+00
         -1   -1    0    0    0  501 -0.00000000000E+00  0.00000000000E+00  0.47796140735E+02  0.47796140735E+02  0.00000000000E+00 0.  1.
          1   -1    0    0  501    0  0.00000000000E+00 -0.00000000000E+00 -0.16359287811E+04  0.16359287811E+04  0.00000000000E+00 0. -1.
         25    2    1    2    0    0 -0.19902712634E+03 -0.13839348734E+03 -0.10706071307E+04  0.11048122055E+04  0.12508327945E+03 0.  0.
         23    2    1    2    0    0  0.19902712634E+03  0.13839348734E+03 -0.51752550974E+03  0.57891271640E+03  0.92426866286E+02 0.  0.
          5    1    3    3  502    0 -0.13225687328E+03 -0.13695166497E+03 -0.60066584900E+03  0.63013060045E+03  0.41800000000E+01 0. -1.
         -5    1    3    3    0  502 -0.66770253055E+02 -0.14418223766E+01 -0.46994128167E+03  0.47468160503E+03  0.41800000000E+01 0. -1.
        -11    1    4    4    0    0  0.73014576821E+01 -0.11919478248E+02 -0.47318721344E+02  0.49340111832E+02  0.00000000000E+00 0.  1.
         11    1    4    4    0    0  0.19172566866E+03  0.15031296559E+03 -0.47020678840E+03  0.52957260456E+03  0.00000000000E+00 0. -1.
</event>
<event>
 8    1  0.6380400E-009  0.1039289E+03  0.7561462E-02  0.1272244E+00
          3   -1    0    0  501    0  0.00000000000E+00  0.00000000000E+00  0.61829545545E+02  0.61829545545E+02  0.00000000000E+00 0. -1.
         -3   -1    0    0    0  501 -0.00000000000E+00 -0.00000000000E+00 -0.19237736618E+03  0.19237736618E+03  0.00000000000E+00 0.  1.
         25    2    1    2    0    0  0.24269913194E+02 -0.13612740279E+01 -0.83482678802E+02  0.15233996670E+03  0.12508887258E+03 0.  0.
         23    2    1    2    0    0 -0.24269913194E+02  0.13612740279E+01 -0.47065141834E+02  0.10186694502E+03  0.87010718643E+02 0.  0.
          5    1    3    3  502    0 -0.28844835804E+02  0.45382295081E+02 -0.21087816138E+02  0.57911532952E+02  0.41800000000E+01 0. -1.
         -5    1    3    3    0  502  0.53114748998E+02 -0.46743569109E+02 -0.62394862664E+02  0.94428433753E+02  0.41800000000E+01 0. -1.
        -11    1    4    4    0    0 -0.82498794336E+01 -0.38872794543E+02 -0.42717224068E+02  0.58343087836E+02  0.00000000000E+00 0.  1.
         11    1    4    4    0    0 -0.16020033760E+02  0.40234068571E+02 -0.43479177661E+01  0.43523857186E+02  0.00000000000E+00 0. -1.
</event>
<event>
 8    1  0.6380400E-009  0.1898619E+03  0.7561462E-02  0.1158586E+00
          2   -1    0    0  501    0  0.00000000000E+00  0.00000000000E+00  0.10031717388E+04  0.10031717388E+04  0.00000000000E+00 0. -1.
         -2   -1    0    0    0  501 -0.00000000000E+00 -0.00000000000E+00 -0.38001748798E+02  0.38001748798E+02  0.00000000000E+00 0.  1.
         25    2    1    2    0    0  0.10970152190E+03 -0.11737624945E+03  0.57854964123E+03  0.61334118931E+03  0.12512441527E+03 0.  0.
         23    2    1    2    0    0 -0.10970152190E+03  0.11737624945E+03  0.38662034873E+03  0.42783229824E+03  0.88054378254E+02 0.  0.
          5    1    3    3  502    0  0.44493262260E+02  0.19044194438E+02  0.19702703619E+03  0.20292722124E+03  0.41800000000E+01 0. -1.
         -5    1    3    3    0  502  0.65208259635E+02 -0.13642044388E+03  0.38152260503E+03  0.41041396807E+03  0.41800000000E+01 0. -1.
        -11    1    4    4    0    0 -0.30518463279E+02  0.91695727511E+02  0.24764369107E+03  0.26583242987E+03  0.00000000000E+00 0. -1.
         11    1    4    4    0    0 -0.79183058616E+02  0.25680521934E+02  0.13897665766E+03  0.16199986837E+03  0.00000000000E+00 0.  1.
</event>
<event>
 8    1  0.6380400E-009  0.2435981E+03  0.7561462E-02  0.1117419E+00
         -1   -1    0    0    0  501 -0.00000000000E+00  0.00000000000E+00  0.55555819703E+02  0.55555819703E+02  0.00000000000E+00 0.  1.
          1   -1    0    0  501    0  0.00000000000E+00 -0.00000000000E+00 -0.10939113900E+04  0.10939113900E+04  0.00000000000E+00 0. -1.
         25    2    1    2    0    0  0.21093634593E+03 -0.65624956123E+02 -0.49139439299E+03  0.55310026698E+03  0.12510267375E+03 0.  0.
         23    2    1    2    0    0 -0.21093634593E+03  0.65624956123E+02 -0.54696117734E+03  0.59636694274E+03  0.87671112597E+02 0.  0.
          5    1    3    3  502    0  0.22633993758E+03 -0.70371518475E+02 -0.45404956861E+03  0.51221128562E+03  0.41800000000E+01 0.  1.
         -5    1    3    3    0  502 -0.15403591647E+02  0.47465623516E+01 -0.37344824372E+02  0.40888981366E+02  0.41800000000E+01 0.  1.
        -11    1    4    4    0    0 -0.19413595543E+03  0.33189867003E+02 -0.49594958226E+03  0.53362564088E+03  0.00000000000E+00 0. -1.
         11    1    4    4    0    0 -0.16800390505E+02  0.32435089120E+02 -0.51011595074E+02  0.62741301862E+02  0.00000000000E+00 0.  1.
</event>
<event>
 8    1  0.6380400E-009  0.1750790E+03  0.7561462E-02  0.1172652E+00
          1   -1    0    0  501    0  0.00000000000E+00  0.00000000000E+00  0.33959470768E+03  0.33959470768E+03  0.00000000000E+00 0. -1.
         -1   -1    0    0    0  501 -0.00000000000E+00 -0.00000000000E+00 -0.14404874475E+03  0.14404874475E+03  0.00000000000E+00 0.  1.
         25    2    1    2    0    0  0.50095722797E+02  0.15388130432E+03 -0.13289747990E+02  0.20496470385E+03  0.12507947537E+03 0.  0.
         23    2    1    2    0    0 -0.50095722797E+02 -0.15388130432E+03  0.20883571093E+03  0.27867874859E+03  0.88659198585E+02 0.  0.
          5    1    3    3  502    0  0.56626133751E+02  0.12024406914E+03 -0.60817679543E+02  0.14622386170E+03  0.41800000000E+01 0.  1.
         -5    1    3    3    0  502 -0.65304109541E+01  0.33637235183E+02  0.47527931554E+02  0.58740842144E+02  0.41800000000E+01 0.  1.
        -11    1    4    4    0    0 -0.16625802811E+02 -0.14769262220E+03  0.18408351484E+03  0.23659304387E+03  0.00000000000E+00 0. -1.
         11    1    4    4    0    0 -0.33469919986E+02 -0.61886821169E+01  0.24752196082E+02  0.42085704712E+02  0.00000000000E+00 0.  1.
</event>
<event>
 8    1  0.6380400E-009  0.1022814E+03  0.7561462E-02  0.1275570E+00
         -1   -1    0    0    0  501 -0.00000000000E+00  0.00000000000E+00  0.27651075281E+02  0.27651075281E+02  0.00000000000E+00 0.  1.
          1   -1    0    0  501    0  0.00000000000E+00 -0.00000000000E+00 -0.50062931707E+03  0.50062931707E+03  0.00000000000E+00 0. -1.
         25    2    1    2    0    0 -0.18985200288E+02 -0.44434415280E+02 -0.25589929435E+03  0.28890766832E+03  0.12509331268E+03 0.  0.
         23    2    1    2    0    0  0.18985200288E+02  0.44434415280E+02 -0.21707894744E+03  0.23937272403E+03  0.88550417810E+02 0.  0.
          5    1    3    3  502    0  0.40668956429E+02 -0.47321209250E+02 -0.18926008010E+03  0.19932413598E+03  0.41800000000E+01 0.  1.
         -5    1    3    3    0  502 -0.59654156717E+02  0.28867939696E+01 -0.66639214242E+02  0.89583532347E+02  0.41800000000E+01 0.  1.
        -11    1    4    4    0    0 -0.17496040614E+02  0.42111794455E+02 -0.47297577974E+02  0.65700651074E+02  0.00000000000E+00 0.  1.
         11    1    4    4    0    0  0.36481240902E+02  0.23226208256E+01 -0.16978136947E+03  0.17367207295E+03  0.00000000000E+00 0. -1.
</event>
<event>
 8    1  0.6380400E-009  0.1369680E+03  0.7561462E-02  0.1217468E+00
          1   -1    0    0  501    0  0.00000000000E+00  0.00000000000E+00  0.71846561184E+02  0.71846561184E+02  0.00000000000E+00 0. -1.
         -1   -1    0    0    0  501 -0.00000000000E+00 -0.00000000000E+00 -0.31923327756E+03  0.31923327756E+03  0.00000000000E+00 0.  1.
         25    2    1    2    0    0  0.62742822261E+02 -0.81037067987E+02 -0.72036529039E+02  0.17703679761E+03  0.12509635510E+03 0.  0.
         23    2    1    2    0    0 -0.62742822261E+02  0.81037067987E+02 -0.17535018734E+03  0.21404304114E+03  0.67550478356E+02 0.  0.
          5    1    3    3  502    0 -0.12833253703E+02 -0.74054803721E+02 -0.45892706824E+01  0.75414455910E+02  0.41800000000E+01 0. -1.
         -5    1    3    3    0  502  0.75576075965E+02 -0.69822642664E+01 -0.67447258356E+02  0.10162234170E+03  0.41800000000E+01 0. -1.
        -11    1    4    4    0    0 -0.75742301408E+02  0.55191377556E+02 -0.13027588388E+03  0.16048299069E+03  0.00000000000E+00 0. -1.
         11    1    4    4    0    0  0.12999479146E+02  0.25845690431E+02 -0.45074303455E+02  0.53560050446E+02  0.00000000000E+00 0.  1.
</event>
<event>
 8    1  0.6380400E-009  0.1570033E+03  0.7561462E-02  0.1192122E+00
          2   -1    0    0  501    0  0.00000000000E+00  0.00000000000E+00  0.34253997900E+03  0.34253997900E+03  0.00000000000E+00 0. -1.
         -2   -1    0    0    0  501 -0.00000000000E+00 -0.00000000000E+00 -0.11207625916E+03  0.11207625916E+03  0.00000000000E+00 0.  1.
         25    2    1    2    0    0  0.14571529822E+03 -0.28126880220E+02  0.20059471350E+03  0.27912334319E+03  0.12509009594E+03 0.  0.
         23    2    1    2    0    0 -0.14571529822E+03  0.28126880220E+02  0.29869006338E+02  0.17549289497E+03  0.88777976547E+02 0.  0.
          5    1    3    3  502    0  0.79269325742E+02 -0.22199218821E+01  0.15755156703E+02  0.80958331378E+02  0.41800000000E+01 0. -1.
         -5    1    3    3    0  502  0.66445972475E+02 -0.25906958338E+02  0.18483955680E+03  0.19816501181E+03  0.41800000000E+01 0. -1.
        -11    1    4    4    0    0 -0.50562481032E+02  0.43585789392E+02  0.41173771539E+02  0.78431913070E+02  0.00000000000E+00 0.  1.
         11    1    4    4    0    0 -0.95152817185E+02 -0.15458909172E+02 -0.11304765201E+02  0.97060981900E+02  0.00000000000E+00 0. -1.
</event>
<event>
 8    1  0.6380400E-009  0.1308080E+03  0.7561462E-02  0.1226262E+00
         -2   -1    0    0    0  501 -0.00000000000E+00  0.00000000000E+00  0.10670902127E+03  0.10670902127E+03  0.00000000000E+00 0.  1.
          2   -1    0    0  501    0  0.00000000000E+00 -0.00000000000E+00 -0.19739621566E+03  0.19739621566E+03  0.00000000000E+00 0. -1.
         25    2    1    2    0    0  0.93966535310E+02  0.30229694183E+01 -0.65707580918E+02  0.16971284305E+03  0.12508443070E+03 0.  0.
         23    2    1    2    0    0 -0.93966535310E+02 -0.30229694183E+01 -0.24979613470E+02  0.13439239388E+03  0.92728023502E+02 0.  0.
          5    1    3    3  502    0 -0.18140573963E+01 -0.47363114489E+02 -0.13372456704E+02  0.49425200218E+02  0.41800000000E+01 0.  1.
         -5    1    3    3    0  502  0.95780592706E+02  0.50386083907E+02 -0.52335124214E+02  0.12028764283E+03  0.41800000000E+01 0.  1.
        -11    1    4    4    0    0 -0.25766178956E+02 -0.23130677335E+02 -0.48418939871E+02  0.59525775511E+02  0.00000000000E+00 0. -1.
         11    1    4    4    0    0 -0.68200356354E+02  0.20107707917E+02  0.23439326401E+02  0.74866618373E+02  0.00000000000E+00 0.  1.
</event>
<event>
 8    1  0.6380400E-009  0.8268392E+02  0.7561462E-02  0.1321603E+00
         -1   -1    0    0    0  501 -0.00000000000E+00  0.00000000000E+00  0.65100814820E+03  0.65100814820E+03  0.00000000000E+00 0. -1.
          1   -1    0    0  501    0  0.00000000000E+00 -0.00000000000E+00 -0.34338678053E+02  0.34338678053E+02  0.00000000000E+00 0.  1.
         25    2    1    2    0    0 -0.12504274149E+02  0.66577417051E+02  0.51272823140E+03  0.53209598151E+03  0.12508790884E+03 0.  0.
         23    2    1    2    0    0  0.12504274149E+02 -0.66577417051E+02  0.10394123875E+03  0.15325084474E+03  0.89961830617E+02 0.  0.
          5    1    3    3  502    0  0.15516922191E+02  0.12200140115E+02  0.51441460960E+01  0.20821933920E+02  0.41800000000E+01 0. -1.
         -5    1    3    3    0  502 -0.28021196340E+02  0.54377276936E+02  0.50758408530E+03  0.51127404759E+03  0.41800000000E+01 0. -1.
        -11    1    4    4    0    0 -0.14985862562E+02 -0.49015546944E+02  0.10880133985E+03  0.12026982777E+03  0.00000000000E+00 0. -1.
         11    1    4    4    0    0  0.27490136711E+02 -0.17561870107E+02 -0.48601010943E+01  0.32981016975E+02  0.00000000000E+00 0.  1.
</event>
<event>
 8    1  0.6380400E-009  0.1085016E+03  0.7561462E-02  0.1263370E+00
         -1   -1    0    0    0  501 -0.00000000000E+00  0.00000000000E+00  0.31189060420E+02  0.31189060420E+02  0.00000000000E+00 0.  1.
          1   -1    0    0  501    0  0.00000000000E+00 -0.00000000000E+00 -0.75484733998E+03  0.75484733998E+03  0.00000000000E+00 0. -1.
         25    2    1    2    0    0  0.48116143095E+02 -0.20073193044E+02 -0.63233188771E+03  0.64669151866E+03  0.12509279670E+03 0.  0.
         23    2    1    2    0    0 -0.48116143095E+02  0.20073193044E+02 -0.91326391843E+02  0.13934488173E+03  0.91424230448E+02 0.  0.
          5    1    3    3  502    0 -0.12390207558E+02 -0.45678526277E+02 -0.45603602785E+03  0.45850449955E+03  0.41800000000E+01 0.  1.
         -5    1    3    3    0  502  0.60506350654E+02  0.25605333233E+02 -0.17629585986E+03  0.18818701911E+03  0.41800000000E+01 0.  1.
        -11    1    4    4    0    0  0.24610589258E+02 -0.77293764436E+01 -0.12932320095E+02  0.28856009198E+02  0.00000000000E+00 0.  1.
         11    1    4    4    0    0 -0.72726732353E+02  0.27802569488E+02 -0.78394071749E+02  0.11048887254E+03  0.00000000000E+00 0. -1.
</event>
<event>
 8    1  0.6380400E-009  0.1619841E+03  0.7561462E-02  0.1186475E+00
          3   -1    0    0  501    0  0.00000000000E+00  0.00000000000E+00  0.10586123034E+03  0.10586123034E+03  0.00000000000E+00 0. -1.
         -3   -1    0    0    0  501 -0.00000000000E+00 -0.00000000000E+00 -0.29822327177E+03  0.29822327177E+03  0.00000000000E+00 0.  1.
         25    2    1    2    0    0  0.11658743426E+03 -0.69445971375E+02 -0.62178030687E+02  0.19475289075E+03  0.12508880121E+03 0.  0.
         23    2    1    2    0    0 -0.11658743426E+03  0.69445971375E+02 -0.13018401074E+03  0.20933161136E+03  0.91959089235E+02 0.  0.
          5    1    3    3  502    0  0.67284272132E+02  0.29572083576E+02 -0.19858684017E+02  0.76246449978E+02  0.41800000000E+01 0. -1.
         -5    1    3    3    0  502  0.49303162129E+02 -0.99018054950E+02 -0.42319346670E+02  0.11850644077E+03  0.41800000000E+01 0. -1.
        -11    1    4    4    0    0 -0.54842875719E+02  0.13826682780E+02 -0.11019103865E+03  0.12385872264E+03  0.00000000000E+00 0.  1.
         11    1    4    4    0    0 -0.61744558542E+02  0.55619288595E+02 -0.19992972089E+02  0.85472888721E+02  0.00000000000E+00 0. -1.
</event>
<event>
 8    1  0.6380400E-009  0.1084913E+03  0.7561462E-02  0.1263390E+00
         -1   -1    0    0    0  501 -0.00000000000E+00  0.00000000000E+00  0.31647173407E+02  0.31647173407E+02  0.00000000000E+00 0.  1.
          1   -1    0    0  501    0  0.00000000000E+00 -0.00000000000E+00 -0.49605394032E+03  0.49605394032E+03  0.00000000000E+00 0. -1.
         25    2    1    2    0    0 -0.11910090040E+02  0.43413856348E+02 -0.17299388715E+03  0.21817892943E+03  0.12509415289E+03 0.  0.
         23    2    1    2    0    0  0.11910090040E+02 -0.43413856348E+02 -0.29141287977E+03  0.30952218431E+03  0.94105807015E+02 0.  0.
          5    1    3    3  502    0 -0.38189929951E+02 -0.33253756149E+02 -0.79790758944E+02  0.94595563641E+02  0.41800000000E+01 0.  1.
         -5    1    3    3    0  502  0.26279839911E+02  0.76667612498E+02 -0.93203128205E+02  0.12358336579E+03  0.41800000000E+01 0.  1.
        -11    1    4    4    0    0  0.28939829470E+02  0.86775547286E+01 -0.30557093828E+02  0.42971498334E+02  0.00000000000E+00 0.  1.
         11    1    4    4    0    0 -0.17029739430E+02 -0.52091411077E+02 -0.26085578594E+03  0.26655068597E+03  0.00000000000E+00 0. -1.
</event>
<event>
 8    1  0.6380400E-009  0.1387467E+03  0.7561462E-02  0.1215025E+00
          1   -1    0    0  501    0  0.00000000000E+00  0.00000000000E+00  0.68372722180E+03  0.68372722180E+03  0.00000000000E+00 0. -1.
         -1   -1    0    0    0  501 -0.00000000000E+00 -0.00000000000E+00 -0.30989293303E+02  0.30989293303E+02  0.00000000000E+00 0.  1.
         25    2    1    2    0    0 -0.97168648763E+02  0.85330281410E+01  0.34756238564E+03  0.38205024667E+03  0.12509284632E+03 0.  0.
         23    2    1    2    0    0  0.97168648763E+02 -0.85330281410E+01  0.30517554285E+03  0.33266626843E+03  0.89555431553E+02 0.  0.
          5    1    3    3  502    0  0.94125325071E+01  0.35976152999E+02  0.37369902985E+02  0.52885360941E+02  0.41800000000E+01 0.  1.
         -5    1    3    3    0  502 -0.10658118127E+03 -0.27443124858E+02  0.31019248265E+03  0.32916488573E+03  0.41800000000E+01 0.  1.
        -11    1    4    4    0    0  0.69370710386E+02  0.35450268829E+02  0.21328759989E+03  0.22706963092E+03  0.00000000000E+00 0.  1.
         11    1    4    4    0    0  0.27797938377E+02 -0.43983296970E+02  0.91887942968E+02  0.10559663751E+03  0.00000000000E+00 0. -1.
</event>
<event>
 8    1  0.6380400E-009  0.8475801E+02  0.7561462E-02  0.1316067E+00
          1   -1    0    0  501    0  0.00000000000E+00  0.00000000000E+00  0.18798545129E+03  0.18798545129E+03  0.00000000000E+00 0. -1.
         -1   -1    0    0    0  501 -0.00000000000E+00 -0.00000000000E+00 -0.64961681179E+02  0.64961681179E+02  0.00000000000E+00 0.  1.
         25    2    1    2    0    0 -0.97797364129E+01 -0.66982345489E+01  0.68321993894E+02  0.14302746200E+03  0.12509376662E+03 0.  0.
         23    2    1    2    0    0  0.97797364129E+01  0.66982345489E+01  0.54701776214E+02  0.10991967047E+03  0.94602008668E+02 0.  0.
          5    1    3    3  502    0  0.23540661303E+02  0.31176998628E+02  0.81712651710E+02  0.90667512525E+02  0.41800000000E+01 0.  1.
         -5    1    3    3    0  502 -0.33320397716E+02 -0.37875233177E+02 -0.13390657816E+02  0.52359949474E+02  0.41800000000E+01 0.  1.
        -11    1    4    4    0    0  0.51346501373E+01  0.42851318124E+02 -0.12111026813E+01  0.43174840668E+02  0.00000000000E+00 0.  1.
         11    1    4    4    0    0  0.46450862756E+01 -0.36153083575E+02  0.55912878896E+02  0.66744829799E+02  0.00000000000E+00 0. -1.
</event>
<event>
 8    1  0.6380400E-009  0.1400095E+03  0.7561462E-02  0.1213316E+00
         -1   -1    0    0    0  501 -0.00000000000E+00  0.00000000000E+00  0.68841693944E+02  0.68841693944E+02  0.00000000000E+00 0.  1.
          1   -1    0    0  501    0  0.00000000000E+00 -0.00000000000E+00 -0.40290466089E+03  0.40290466089E+03  0.00000000000E+00 0. -1.
         25    2    1    2    0    0  0.83749535539E+02 -0.94800424465E+02 -0.17066493775E+03  0.24652547837E+03  0.12508870983E+03 0.  0.
         23    2    1    2    0    0 -0.83749535539E+02  0.94800424465E+02 -0.16339802920E+03  0.22522087647E+03  0.89579138582E+02 0.  0.
          5    1    3    3  502    0 -0.11755952704E+02 -0.39549648515E+01  0.14284067238E+02  0.19373981207E+02  0.41800000000E+01 0.  1.
         -5    1    3    3    0  502  0.95505488243E+02 -0.90845459614E+02 -0.18494900499E+03  0.22715149716E+03  0.41800000000E+01 0.  1.
        -11    1    4    4    0    0 -0.16524560030E+02  0.53870385764E+02 -0.12611760717E+03  0.13813301700E+03  0.00000000000E+00 0. -1.
         11    1    4    4    0    0 -0.67224975509E+02  0.40930038701E+02 -0.37280422026E+02  0.87087859467E+02  0.00000000000E+00 0.  1.
</event>
<event>
 8    1  0.6380400E-009  0.1030245E+03  0.7561462E-02  0.1274061E+00
          1   -1    0    0  501    0  0.00000000000E+00  0.00000000000E+00  0.47424862048E+03  0.47424862048E+03  0.00000000000E+00 0. -1.
         -1   -1    0    0    0  501 -0.00000000000E+00 -0.00000000000E+00 -0.32055425990E+02  0.32055425990E+02  0.00000000000E+00 0.  1.
         25    2    1    2    0    0  0.29467133034E+02  0.11111307508E+02  0.14836219102E+03  0.19659628385E+03  0.12508791316E+03 0.  0.
         23    2    1    2    0    0 -0.29467133034E+02 -0.11111307508E+02  0.29383100347E+03  0.30970776262E+03  0.92684769728E+02 0.  0.
          5    1    3    3  502    0  0.73386387798E+02 -0.12099012517E+02  0.62179870760E+02  0.97034822336E+02  0.41800000000E+01 0. -1.
         -5    1    3    3    0  502 -0.43919254764E+02  0.23210320025E+02  0.86182320255E+02  0.99561461516E+02  0.41800000000E+01 0. -1.
        -11    1    4    4    0    0 -0.29153251692E+02  0.29275762445E+02  0.62792763453E+02  0.75165906454E+02  0.00000000000E+00 0.  1.
         11    1    4    4    0    0 -0.31388134167E+00 -0.40387069953E+02  0.23103824002E+03  0.23454185616E+03  0.00000000000E+00 0. -1.
</event>
<event>
 8    1  0.6380400E-009  0.1045795E+03  0.7561462E-02  0.1270950E+00
         -2   -1    0    0    0  501 -0.00000000000E+00  0.00000000000E+00  0.13580106030E+03  0.13580106030E+03  0.00000000000E+00 0.  1.
          2   -1    0    0  501    0  0.00000000000E+00 -0.00000000000E+00 -0.26134985054E+03  0.26134985054E+03  0.00000000000E+00 0. -1.
         25    2    1    2    0    0 -0.62736940436E+02 -0.66865138673E+02  0.61863098612E+02  0.16697823322E+03  0.12509123445E+03 0.  0.
         23    2    1    2    0    0  0.62736940436E+02  0.66865138673E+02 -0.18741188885E+03  0.23017267762E+03  0.97207895652E+02 0.  0.
          5    1    3    3  502    0  0.41082635177E+01 -0.34858779765E+02 -0.31744848030E+02  0.47510210821E+02  0.41800000000E+01 0.  1.
         -5    1    3    3    0  502 -0.66845203953E+02 -0.32006358908E+02  0.93607946642E+02  0.11946802240E+03  0.41800000000E+01 0.  1.
        -11    1    4    4    0    0  0.62266400264E+02  0.42908195882E+02 -0.19147761195E+03  0.20586863227E+03  0.00000000000E+00 0. -1.
         11    1    4    4    0    0  0.47054017191E+00  0.23956942791E+02  0.40657231034E+01  0.24304045349E+02  0.00000000000E+00 0.  1.
</event>
<event>
 8    1  0.6380400E-009  0.1096980E+03  0.7561462E-02  0.1261130E+00
         -3   -1    0    0    0  501 -0.00000000000E+00  0.00000000000E+00  0.13897679827E+03  0.13897679827E+03  0.00000000000E+00 0.  1.
          3   -1    0    0  501    0  0.00000000000E+00 -0.00000000000E+00 -0.13175617286E+03  0.13175617286E+03  0.00000000000E+00 0. -1.
         25    2    1    2    0    0 -0.32978888576E+02 -0.26450239567E+02  0.72809281829E+02  0.15077845556E+03  0.12508288803E+03 0.  0.
         23    2    1    2    0    0  0.32978888576E+02  0.26450239567E+02 -0.65588656417E+02  0.11995451557E+03  0.91104290190E+02 0.  0.
          5    1    3    3  502    0 -0.80308341626E+02 -0.24870129883E+02  0.41449671959E+02  0.93826972671E+02  0.41800000000E+01 0. -1.
         -5    1    3    3    0  502  0.47329453050E+02 -0.15801096843E+01  0.31359609870E+02  0.56951482894E+02  0.41800000000E+01 0. -1.
        -11    1    4    4    0    0  0.23482493343E+02  0.53815119572E+02 -0.69212743933E+02  0.90762869671E+02  0.00000000000E+00 0.  1.
         11    1    4    4    0    0  0.94963952328E+01 -0.27364880005E+02  0.36240875169E+01  0.29191645902E+02  0.00000000000E+00 0. -1.
</event>
<event>
 8    1  0.6380400E-009  0.9158439E+02  0.7561462E-02  0.1299060E+00
         -3   -1    0    0    0  501 -0.00000000000E+00  0.00000000000E+00  0.28218320707E+02  0.28218320707E+02  0.00000000000E+00 0.  1.
          3   -1    0    0  501    0  0.00000000000E+00 -0.00000000000E+00 -0.52308756905E+03  0.52308756905E+03  0.00000000000E+00 0. -1.
         25    2    1    2    0    0 -0.25036275687E+02 -0.19763216092E+02 -0.39633390426E+03  0.41682685927E+03  0.12508663849E+03 0.  0.
         23    2    1    2    0    0  0.25036275687E+02  0.19763216092E+02 -0.98535344083E+02  0.13447903049E+03  0.85778760760E+02 0.  0.
          5    1    3    3  502    0 -0.73593670222E+02 -0.26278949024E+02 -0.20976136548E+03  0.22388370711E+03  0.41800000000E+01 0. -1.
         -5    1    3    3    0  502  0.48557394535E+02  0.65157329328E+01 -0.18657253878E+03  0.19294315216E+03  0.41800000000E+01 0. -1.
        -11    1    4    4    0    0 -0.12324779753E+02  0.12740580021E+02  0.93860355020E+01  0.20057922068E+02  0.00000000000E+00 0.  1.
         11    1    4    4    0    0  0.37361055440E+02  0.70226360703E+01 -0.10792137959E+03  0.11442110842E+03  0.00000000000E+00 0. -1.
</event>
<event>
 8    1  0.6380400E-009  0.7172884E+02  0.7561462E-02  0.1354311E+00
          4   -1    0    0  501    0  0.00000000000E+00  0.00000000000E+00  0.34146491567E+03  0.34146491567E+03  0.00000000000E+00 0.  1.
         -4   -1    0    0    0  501 -0.00000000000E+00 -0.00000000000E+00 -0.46780553097E+02  0.46780553097E+02  0.00000000000E+00 0. -1.
         25    2    1    2    0    0  0.13014078266E+02 -0.64583476025E+02  0.15448330006E+03  0.20939644678E+03  0.12506554409E+03 0.  0.
         23    2    1    2    0    0 -0.13014078266E+02  0.64583476025E+02  0.14020106251E+03  0.17884902199E+03  0.89388159883E+02 0.  0.
          5    1    3    3  502    0  0.43971787412E+01 -0.38634632202E+02 -0.11783409843E+02  0.40844719779E+02  0.41800000000E+01 0. -1.
         -5    1    3    3    0  502  0.86168995251E+01 -0.25948843823E+02  0.16626670990E+03  0.16855172700E+03  0.41800000000E+01 0. -1.
        -11    1    4    4    0    0 -0.26710552165E+02  0.49971576466E+02  0.14712449018E+03  0.15765857941E+03  0.00000000000E+00 0.  1.
         11    1    4    4    0    0  0.13696473898E+02  0.14611899559E+02 -0.69234276653E+01  0.21190442577E+02  0.00000000000E+00 0. -1.
</event>
<event>
 8    1  0.6380400E-009  0.2108231E+03  0.7561462E-02  0.1140916E+00
          1   -1    0    0  501    0  0.00000000000E+00  0.00000000000E+00  0.13065890019E+03  0.13065890019E+03  0.00000000000E+00 0. -1.
         -1   -1    0    0    0  501 -0.00000000000E+00 -0.00000000000E+00 -0.37827719299E+03  0.37827719299E+03  0.00000000000E+00 0.  1.
         25    2    1    2    0    0  0.26335624872E+02 -0.18822036412E+03 -0.16696060531E+03  0.28221222583E+03  0.12508967215E+03 0.  0.
         23    2    1    2    0    0 -0.26335624872E+02  0.18822036412E+03 -0.80657687490E+02  0.22672386735E+03  0.93688733941E+02 0.  0.
          5    1    3    3  502    0  0.16078986023E+02  0.48382064470E+01  0.10086824407E+02  0.20028940555E+02  0.41800000000E+01 0.  1.
         -5    1    3    3    0  502  0.10256638849E+02 -0.19305857057E+03 -0.17704742972E+03  0.26218328528E+03  0.41800000000E+01 0.  1.
        -11    1    4    4    0    0  0.28506550844E+02  0.12049299605E+03 -0.57699715616E+02  0.13660323100E+03  0.00000000000E+00 0.  1.
         11    1    4    4    0    0 -0.54842175716E+02  0.67727368074E+02 -0.22957971873E+02  0.90120636350E+02  0.00000000000E+00 0. -1.
</event>
<event>
 8    1  0.6380400E-009  0.1074977E+03  0.7561462E-02  0.1265275E+00
          3   -1    0    0  501    0  0.00000000000E+00  0.00000000000E+00  0.14208592355E+02  0.14208592355E+02  0.00000000000E+00 0. -1.
         -3   -1    0    0    0  501 -0.00000000000E+00 -0.00000000000E+00 -0.10892480525E+04  0.10892480525E+04  0.00000000000E+00 0.  1.
         25    2    1    2    0    0 -0.24332815862E+02 -0.26918302801E+02 -0.78195764262E+03  0.79273112117E+03  0.12509274423E+03 0.  0.
         23    2    1    2    0    0  0.24332815862E+02  0.26918302801E+02 -0.29308181751E+03  0.31072552368E+03  0.96626695868E+02 0.  0.
          5    1    3    3  502    0  0.39562419080E+02  0.59510597925E+01 -0.50411020045E+03  0.50571253368E+03  0.41800000000E+01 0. -1.
         -5    1    3    3    0  502 -0.63895234942E+02 -0.32869362594E+02 -0.27784744217E+03  0.28701858749E+03  0.41800000000E+01 0. -1.
        -11    1    4    4    0    0  0.61171367734E+02  0.24439449029E+02 -0.20092677262E+03  0.21144926307E+03  0.00000000000E+00 0. -1.
         11    1    4    4    0    0 -0.36838551872E+02  0.24788537717E+01 -0.92155044891E+02  0.99276260601E+02  0.00000000000E+00 0.  1.
</event>
<event>
 8    1  0.6380400E-009  0.1993672E+03  0.7561462E-02  0.1150274E+00
         -1   -1    0    0    0  501 -0.00000000000E+00  0.00000000000E+00  0.18316957301E+03  0.18316957301E+03  0.00000000000E+00 0.  1.
          1   -1    0    0  501    0  0.00000000000E+00 -0.00000000000E+00 -0.26561666988E+03  0.26561666988E+03  0.00000000000E+00 0. -1.
         25    2    1    2    0    0  0.12891306147E+03  0.14223517002E+03 -0.41123182386E+02  0.23278315657E+03  0.12508981111E+03 0.  0.
         23    2    1    2    0    0 -0.12891306147E+03 -0.14223517002E+03 -0.41323914485E+02  0.21600308633E+03  0.90001368805E+02 0.  0.
          5    1    3    3  502    0  0.12371785320E+03  0.10135373446E+03 -0.77395090801E+02  0.17772495371E+03  0.41800000000E+01 0.  1.
         -5    1    3    3    0  502  0.51952082660E+01  0.40881435559E+02  0.36271908415E+02  0.55058202861E+02  0.41800000000E+01 0.  1.
        -11    1    4    4    0    0 -0.66370450030E+02 -0.40046386700E+02 -0.55531969270E+02  0.95354860054E+02  0.00000000000E+00 0.  1.
         11    1    4    4    0    0 -0.62542611437E+02 -0.10218878332E+03  0.14208054785E+02  0.12064822627E+03  0.00000000000E+00 0. -1.
</event>
<event>
 8    1  0.6380400E-009  0.1645650E+03  0.7561462E-02  0.1183637E+00
          1   -1    0    0  501    0  0.00000000000E+00  0.00000000000E+00  0.83905142710E+03  0.83905142710E+03  0.00000000000E+00 0. -1.
         -1   -1    0    0    0  501 -0.00000000000E+00 -0.00000000000E+00 -0.48255186355E+02  0.48255186355E+02  0.00000000000E+00 0.  1.
         25    2    1    2    0    0 -0.11395528803E+03 -0.76308506755E+02  0.19598898180E+03  0.26994146031E+03  0.12509162694E+03 0.  0.
         23    2    1    2    0    0  0.11395528803E+03  0.76308506755E+02  0.59480725894E+03  0.61736515314E+03  0.92386477130E+02 0.  0.
          5    1    3    3  502    0 -0.16206947966E+02  0.25334582681E+02  0.24810912129E+01  0.30465299204E+02  0.41800000000E+01 0. -1.
         -5    1    3    3    0  502 -0.97748340068E+02 -0.10164308944E+03  0.19350789059E+03  0.23947616110E+03  0.41800000000E+01 0. -1.
        -11    1    4    4    0    0  0.78332222992E+02  0.90186453136E+02  0.51766840732E+03  0.53127216512E+03  0.00000000000E+00 0. -1.
         11    1    4    4    0    0  0.35623065043E+02 -0.13877946381E+02  0.77138851615E+02  0.86092988026E+02  0.00000000000E+00 0.  1.
</event>
<event>
 8    1  0.6380400E-009  0.8951150E+02  0.7561462E-02  0.1304039E+00
          1   -1    0    0  501    0  0.00000000000E+00  0.00000000000E+00  0.14293257164E+03  0.14293257164E+03  0.00000000000E+00 0. -1.
         -1   -1    0    0    0  501 -0.00000000000E+00 -0.00000000000E+00 -0.89788323123E+02  0.89788323123E+02  0.00000000000E+00 0.  1.
         25    2    1    2    0    0 -0.36073191164E+02 -0.82839805248E+01  0.23927713501E+02  0.13262798425E+03  0.12509095602E+03 0.  0.
         23    2    1    2    0    0  0.36073191164E+02  0.82839805248E+01  0.29216535013E+02  0.10009291051E+03  0.88289780625E+02 0.  0.
          5    1    3    3  502    0 -0.81939280874E+02 -0.16132568530E+02  0.18011623187E+02  0.85534767711E+02  0.41800000000E+01 0.  1.
         -5    1    3    3    0  502  0.45866089710E+02  0.78485880054E+01  0.59160903143E+01  0.47093216535E+02  0.41800000000E+01 0.  1.
        -11    1    4    4    0    0  0.59137831334E+01  0.16416646847E+02 -0.29103893944E+02  0.33933991327E+02  0.00000000000E+00 0.  1.
         11    1    4    4    0    0  0.30159408030E+02 -0.81326663223E+01  0.58320428957E+02  0.66158919187E+02  0.00000000000E+00 0. -1.
</event>
<event>
 8    1  0.6380400E-009  0.1481735E+03  0.7561462E-02  0.1202736E+00
          2   -1    0    0  501    0  0.00000000000E+00  0.00000000000E+00  0.27926865821E+03  0.27926865821E+03  0.00000000000E+00 0. -1.
         -2   -1    0    0    0  501 -0.00000000000E+00 -0.00000000000E+00 -0.80383647083E+02  0.80383647083E+02  0.00000000000E+00 0.  1.
         25    2    1    2    0    0 -0.47319121872E+01  0.10335980033E+03  0.10438694297E+03  0.19300221470E+03  0.12509029419E+03 0.  0.
         23    2    1    2    0    0  0.47319121872E+01 -0.10335980033E+03  0.94498068154E+02  0.16665009059E+03  0.90203816404E+02 0.  0.
          5    1    3    3  502    0  0.39922006048E+02 -0.68673441151E+01  0.42533298979E+02  0.58885319937E+02  0.41800000000E+01 0.  1.
         -5    1    3    3    0  502 -0.44653918236E+02  0.11022714444E+03  0.61853643996E+02  0.13411689476E+03  0.41800000000E+01 0.  1.
        -11    1    4    4    0    0 -0.39732019119E+02 -0.71919882594E+02  0.64649467344E+02  0.10454977993E+03  0.00000000000E+00 0.  1.
         11    1    4    4    0    0  0.44463931307E+02 -0.31439917732E+02  0.29848600810E+02  0.62100310664E+02  0.00000000000E+00 0. -1.
</event>
<event>
 8    1  0.6380400E-009  0.8964531E+02  0.7561462E-02  0.1303713E+00
         -4   -1    0    0    0  501 -0.00000000000E+00  0.00000000000E+00  0.11926794099E+03  0.11926794099E+03  0.00000000000E+00 0.  1.
          4   -1    0    0  501    0  0.00000000000E+00 -0.00000000000E+00 -0.12814698477E+03  0.12814698477E+03  0.00000000000E+00 0. -1.
         25    2    1    2    0    0 -0.34410357858E+02  0.18033765044E+02 -0.49089292498E+02  0.13987464544E+03  0.12508344571E+03 0.  0.
         23    2    1    2    0    0  0.34410357858E+02 -0.18033765044E+02  0.40210248715E+02  0.10754028031E+03  0.91862714839E+02 0.  0.
          5    1    3    3  502    0  0.47491357811E+02  0.68510041065E+01 -0.16279742156E+02  0.50841594474E+02  0.41800000000E+01 0.  1.
         -5    1    3    3    0  502 -0.81901715668E+02  0.11182760938E+02 -0.32809550341E+02  0.89033050971E+02  0.41800000000E+01 0.  1.
        -11    1    4    4    0    0  0.14412036660E+02 -0.23553187437E+02  0.67691930856E+02  0.73107160677E+02  0.00000000000E+00 0.  1.
         11    1    4    4    0    0  0.19998321197E+02  0.55194223931E+01 -0.27481682141E+02  0.34433119632E+02  0.00000000000E+00 0. -1.
</event>
<event>
 8    1  0.6380400E-009  0.1600116E+03  0.7561462E-02  0.1188684E+00
          2   -1    0    0  501    0  0.00000000000E+00  0.00000000000E+00  0.12948950195E+04  0.12948950195E+04  0.00000000000E+00 0. -1.
         -2   -1    0    0    0  501 -0.00000000000E+00 -0.00000000000E+00 -0.27319362758E+02  0.27319362758E+02  0.00000000000E+00 0.  1.
         25    2    1    2    0    0  0.82104947579E+01 -0.14680934572E+03  0.81265375655E+03  0.83527245292E+03  0.12511413329E+03 0.  0.
         23    2    1    2    0    0 -0.82104947579E+01  0.14680934572E+03  0.45492190015E+03  0.48694192930E+03  0.92401899648E+02 0.  0.
          5    1    3    3  502    0  0.75558884904E+01 -0.81679052219E+02  0.70211814449E+03  0.70690587792E+03  0.41800000000E+01 0. -1.
         -5    1    3    3    0  502  0.65460626746E+00 -0.65130293506E+02  0.11053561206E+03  0.12836657499E+03  0.41800000000E+01 0. -1.
        -11    1    4    4    0    0  0.41290920488E+02  0.68080156220E+02  0.18351259856E+03  0.20004179967E+03  0.00000000000E+00 0.  1.
         11    1    4    4    0    0 -0.49501415246E+02  0.78729189505E+02  0.27140930159E+03  0.28690012963E+03  0.00000000000E+00 0. -1.
</event>
<event>
 8    1  0.6380400E-009  0.1529445E+03  0.7561462E-02  0.1196901E+00
         -1   -1    0    0    0  501 -0.00000000000E+00  0.00000000000E+00  0.39491919984E+02  0.39491919984E+02  0.00000000000E+00 0.  1.
          1   -1    0    0  501    0  0.00000000000E+00 -0.00000000000E+00 -0.91699789260E+03  0.91699789260E+03  0.00000000000E+00 0. -1.
         25    2    1    2    0    0 -0.79020129301E+02 -0.82067509887E+02 -0.19238533502E+03  0.25620210261E+03  0.12509253870E+03 0.  0.
         23    2    1    2    0    0  0.79020129301E+02  0.82067509887E+02 -0.68512063760E+03  0.70028770997E+03  0.89628855077E+02 0.  0.
          5    1    3    3  502    0 -0.11300753917E+03 -0.68896757768E+02 -0.14718855240E+03  0.19798840748E+03  0.41800000000E+01 0. -1.
         -5    1    3    3    0  502  0.33987409872E+02 -0.13170752119E+02 -0.45196782619E+02  0.58213695127E+02  0.41800000000E+01 0. -1.
        -11    1    4    4    0    0 -0.15189563838E+02  0.12430431074E+02 -0.39316228951E+02  0.43943194299E+02  0.00000000000E+00 0.  1.
         11    1    4    4    0    0  0.94209693140E+02  0.69637078814E+02 -0.64580440865E+03  0.65634451567E+03  0.00000000000E+00 0. -1.
</event>
<event>
 8    1  0.6380400E-009  0.1270933E+03  0.7561462E-02  0.1231834E+00
         -2   -1    0    0    0  501 -0.00000000000E+00  0.00000000000E+00  0.20248758584E+03  0.20248758584E+03  0.00000000000E+00 0.  1.
          2   -1    0    0  501    0  0.00000000000E+00 -0.00000000000E+00 -0.93571649188E+02  0.93571649188E+02  0.00000000000E+00 0. -1.
         25    2    1    2    0    0 -0.72900215032E+02 -0.40887598429E+02  0.41087662503E+02  0.15595319540E+03  0.12508783349E+03 0.  0.
         23    2    1    2    0    0  0.72900215032E+02  0.40887598429E+02  0.67828274149E+02  0.14010603963E+03  0.89681606306E+02 0.  0.
          5    1    3    3  502    0 -0.79920152998E+02  0.10856525219E+02 -0.11675060224E+02  0.81601926609E+02  0.41800000000E+01 0.  1.
         -5    1    3    3    0  502  0.70199379654E+01 -0.51744123649E+02  0.52762722727E+02  0.74351268791E+02  0.41800000000E+01 0.  1.
        -11    1    4    4    0    0  0.89297673478E+02  0.49934976897E+02  0.64877176101E+02  0.12114711877E+03  0.00000000000E+00 0.  1.
         11    1    4    4    0    0 -0.16397458446E+02 -0.90473784680E+01  0.29510980476E+01  0.18958920864E+02  0.00000000000E+00 0. -1.
</event>
<event>
 8    1  0.6380400E-009  0.9866395E+02  0.7561462E-02  0.1283131E+00
          2   -1    0    0  501    0  0.00000000000E+00  0.00000000000E+00  0.14846436820E+03  0.14846436820E+03  0.00000000000E+00 0.  1.
         -2   -1    0    0    0  501 -0.00000000000E+00 -0.00000000000E+00 -0.20407015439E+03  0.20407015439E+03  0.00000000000E+00 0. -1.
         25    2    1    2    0    0 -0.26030204046E+02 -0.19247217333E+02  0.10420950535E+03  0.16599870488E+03  0.12509165487E+03 0.  0.
         23    2    1    2    0    0  0.26030204046E+02  0.19247217333E+02 -0.15981529154E+03  0.18653581770E+03  0.90590600932E+02 0.  0.
          5    1    3    3  502    0  0.12305755010E+01 -0.60582001388E+02  0.98850340833E+02  0.11601963408E+03  0.41800000000E+01 0.  1.
         -5    1    3    3    0  502 -0.27260779547E+02  0.41334784055E+02  0.53591645212E+01  0.49979070807E+02  0.41800000000E+01 0.  1.
        -11    1    4    4    0    0 -0.78235918514E+01  0.44171644578E+02 -0.42027501731E+02  0.61470754639E+02  0.00000000000E+00 0.  1.
         11    1    4    4    0    0  0.33853795897E+02 -0.24924427245E+02 -0.11778778981E+03  0.12506506306E+03  0.00000000000E+00 0. -1.
</event>
<event>
 8    1  0.6380400E-009  0.2124815E+03  0.7561462E-02  0.1139616E+00
          1   -1    0    0  501    0  0.00000000000E+00  0.00000000000E+00  0.88704477283E+03  0.88704477283E+03  0.00000000000E+00 0. -1.
         -1   -1    0    0    0  501 -0.00000000000E+00 -0.00000000000E+00 -0.59658355573E+02  0.59658355573E+02  0.00000000000E+00 0.  1.
         25    2    1    2    0    0  0.15868756643E+03 -0.12143151914E+03  0.36131670227E+03  0.43142438998E+03  0.12509950978E+03 0.  0.
         23    2    1    2    0    0 -0.15868756643E+03  0.12143151914E+03  0.46606971498E+03  0.51527873842E+03  0.91454040184E+02 0.  0.
          5    1    3    3  502    0  0.24434691624E+02  0.74966369156E+01  0.13924065607E+03  0.14162869209E+03  0.41800000000E+01 0.  1.
         -5    1    3    3    0  502  0.13425287481E+03 -0.12892815606E+03  0.22207604620E+03  0.28979569789E+03  0.41800000000E+01 0.  1.
        -11    1    4    4    0    0 -0.76659183388E+02  0.10370178688E+03  0.21674110594E+03  0.25220507133E+03  0.00000000000E+00 0.  1.
         11    1    4    4    0    0 -0.82028383043E+02  0.17729732259E+02  0.24932860904E+03  0.26307366709E+03  0.00000000000E+00 0. -1.
</event>
<event>
 8    1  0.6380400E-009  0.1121207E+03  0.7561462E-02  0.1256692E+00
          2   -1    0    0  501    0  0.00000000000E+00  0.00000000000E+00  0.36587862800E+03  0.36587862800E+03  0.00000000000E+00 0. -1.
         -2   -1    0    0    0  501 -0.00000000000E+00 -0.00000000000E+00 -0.61357293738E+02  0.61357293738E+02  0.00000000000E+00 0.  1.
         25    2    1    2    0    0  0.23994082993E+02 -0.73840278905E+02  0.10168849779E+03  0.17892650889E+03  0.12508414046E+03 0.  0.
         23    2    1    2    0    0 -0.23994082993E+02  0.73840278905E+02  0.20283283647E+03  0.24830941284E+03  0.12036736330E+03 0.  0.
          5    1    3    3  502    0 -0.32195612629E+02 -0.82148507180E+02  0.75666637033E+02  0.11630927334E+03  0.41800000000E+01 0.  1.
         -5    1    3    3    0  502  0.56189695623E+02  0.83082282750E+01  0.26021860756E+02  0.62617235554E+02  0.41800000000E+01 0.  1.
        -11    1    4    4    0    0 -0.72239650274E+01  0.45147674292E+02  0.30961176333E+01  0.45826674645E+02  0.00000000000E+00 0.  1.
         11    1    4    4    0    0 -0.16770117966E+02  0.28692604613E+02  0.19973671884E+03  0.20248273820E+03  0.00000000000E+00 0. -1.
</event>
<event>
 8    1  0.6380400E-009  0.1474705E+03  0.7561462E-02  0.1203616E+00
          3   -1    0    0  501    0  0.00000000000E+00  0.00000000000E+00  0.11009540174E+03  0.11009540174E+03  0.00000000000E+00 0. -1.
         -3   -1    0    0    0  501 -0.00000000000E+00 -0.00000000000E+00 -0.30305497544E+03  0.30305497544E+03  0.00000000000E+00 0.  1.
         25    2    1    2    0    0  0.11438617037E+03  0.57526730465E+02 -0.18137592107E+03  0.25482803961E+03  0.12508630756E+03 0.  0.
         23    2    1    2    0    0 -0.11438617037E+03 -0.57526730465E+02 -0.11583652632E+02  0.15832233758E+03  0.92402710337E+02 0.  0.
          5    1    3    3  502    0 -0.13145347149E+02 -0.11282989667E+02 -0.69388519678E+02  0.71640387147E+02  0.41800000000E+01 0. -1.
         -5    1    3    3    0  502  0.12753151752E+03  0.68809720132E+02 -0.11198740139E+03  0.18318765246E+03  0.41800000000E+01 0. -1.
        -11    1    4    4    0    0 -0.39986666574E+02 -0.38154098447E+02  0.37789736905E+02  0.66953214615E+02  0.00000000000E+00 0. -1.
         11    1    4    4    0    0 -0.74399503794E+02 -0.19372632018E+02 -0.49373389538E+02  0.91369122960E+02  0.00000000000E+00 0.  1.
</event>
<event>
 8    1  0.6380400E-009  0.1414124E+03  0.7561462E-02  0.1211441E+00
          3   -1    0    0  501    0  0.00000000000E+00  0.00000000000E+00  0.43692145774E+02  0.43692145774E+02  0.00000000000E+00 0. -1.
         -3   -1    0    0    0  501 -0.00000000000E+00 -0.00000000000E+00 -0.46315331493E+03  0.46315331493E+03  0.00000000000E+00 0.  1.
         25    2    1    2    0    0 -0.84819368375E+02 -0.32659635392E+02 -0.24368125339E+03  0.28859876391E+03  0.12509083195E+03 0.  0.
         23    2    1    2    0    0  0.84819368375E+02  0.32659635392E+02 -0.17577991577E+03  0.21824669680E+03  0.92043820229E+02 0.  0.
          5    1    3    3  502    0 -0.51374414761E+02  0.45937339456E+02 -0.10481854501E+03  0.12551481756E+03  0.41800000000E+01 0.  1.
         -5    1    3    3    0  502 -0.33444953614E+02 -0.78596974848E+02 -0.13886270838E+03  0.16308394635E+03  0.41800000000E+01 0.  1.
        -11    1    4    4    0    0  0.10243145285E+03  0.15363755674E+02 -0.15226436215E+03  0.18415396684E+03  0.00000000000E+00 0.  1.
         11    1    4    4    0    0 -0.17612084470E+02  0.17295879718E+02 -0.23515553615E+02  0.34092729965E+02  0.00000000000E+00 0. -1.
</event>
<event>
 8    1  0.6380400E-009  0.1933880E+03  0.7561462E-02  0.1155441E+00
          1   -1    0    0  501    0  0.00000000000E+00  0.00000000000E+00  0.55055679015E+02  0.55055679015E+02  0.00000000000E+00 0. -1.
         -1   -1    0    0    0  501 -0.00000000000E+00 -0.00000000000E+00 -0.79147290990E+03  0.79147290990E+03  0.00000000000E+00 0.  1.
         25    2    1    2    0    0 -0.13942534769E+03 -0.10406132794E+03 -0.46953120542E+03  0.51611633584E+03  0.12509329203E+03 0.  0.
         23    2    1    2    0    0  0.13942534769E+03  0.10406132794E+03 -0.26688602547E+03  0.33041225307E+03  0.87612321254E+02 0.  0.
          5    1    3    3  502    0 -0.71270613183E+02  0.46289163368E+01 -0.87082987614E+02  0.11270246804E+03  0.41800000000E+01 0.  1.
         -5    1    3    3    0  502 -0.68154734511E+02 -0.10869024428E+03 -0.38244821780E+03  0.40341386781E+03  0.41800000000E+01 0.  1.
        -11    1    4    4    0    0  0.33090312301E+02  0.66181752294E+02 -0.62199019599E+02  0.96662873659E+02  0.00000000000E+00 0. -1.
         11    1    4    4    0    0  0.10633503539E+03  0.37879575650E+02 -0.20468700587E+03  0.23374937941E+03  0.00000000000E+00 0.  1.
</event>
<event>
 8    1  0.6380400E-009  0.8946908E+02  0.7561462E-02  0.1304143E+00
          2   -1    0    0  501    0  0.00000000000E+00  0.00000000000E+00  0.38594264233E+03  0.38594264233E+03  0.00000000000E+00 0.  1.
         -2   -1    0    0    0  501 -0.00000000000E+00 -0.00000000000E+00 -0.31270088023E+02  0.31270088023E+02  0.00000000000E+00 0. -1.
         25    2    1    2    0    0 -0.21625619677E+02 -0.96444053681E+01  0.19539009048E+03  0.23320527623E+03  0.12508689548E+03 0.  0.
         23    2    1    2    0    0  0.21625619677E+02  0.96444053681E+01  0.15928246383E+03  0.18400745413E+03  0.89034588275E+02 0.  0.
          5    1    3    3  502    0  0.31786688429E+02  0.14868239139E+01  0.19271147605E+01  0.32152610748E+02  0.41800000000E+01 0. -1.
         -5    1    3    3    0  502 -0.53412308106E+02 -0.11131229282E+02  0.19346297572E+03  0.20105266548E+03  0.41800000000E+01 0. -1.
        -11    1    4    4    0    0  0.27449256731E+02  0.46939661354E+02  0.92993831167E+02  0.10772486314E+03  0.00000000000E+00 0.  1.
         11    1    4    4    0    0 -0.58236370545E+01 -0.37295255986E+02  0.66288632665E+02  0.76282590990E+02  0.00000000000E+00 0. -1.
</event>
<event>
 8    1  0.6380400E-009  0.1463380E+03  0.7561462E-02  0.1205046E+00
          3   -1    0    0  501    0  0.00000000000E+00  0.00000000000E+00  0.18338691938E+03  0.18338691938E+03  0.00000000000E+00 0. -1.
         -3   -1    0    0    0  501 -0.00000000000E+00 -0.00000000000E+00 -0.18128843817E+03  0.18128843817E+03  0.00000000000E+00 0.  1.
         25    2    1    2    0    0 -0.86741106358E+02 -0.66377428885E+02 -0.96627587352E+02  0.19212977423E+03  0.12508787675E+03 0.  0.
         23    2    1    2    0    0  0.86741106358E+02  0.66377428885E+02  0.98726068556E+02  0.17254558332E+03  0.89973102162E+02 0.  0.
          5    1    3    3  502    0 -0.11720946226E+03 -0.48159574784E+02 -0.57756787710E+02  0.13932236581E+03  0.41800000000E+01 0. -1.
         -5    1    3    3    0  502  0.30468355905E+02 -0.18217854101E+02 -0.38870799642E+02  0.52807408424E+02  0.41800000000E+01 0. -1.
        -11    1    4    4    0    0  0.94071375488E+02  0.39055641730E+02  0.44026737509E+02  0.11096450087E+03  0.00000000000E+00 0.  1.
         11    1    4    4    0    0 -0.73302691297E+01  0.27321787155E+02  0.54699331047E+02  0.61581082451E+02  0.00000000000E+00 0. -1.
</event>
<event>
 8    1  0.6380400E-009  0.1272631E+03  0.7561462E-02  0.1231574E+00
          1   -1    0    0  501    0  0.00000000000E+00  0.00000000000E+00  0.27487844788E+02  0.27487844788E+02  0.00000000000E+00 0. -1.
         -1   -1    0    0    0  501 -0.00000000000E+00 -0.00000000000E+00 -0.78058259832E+03  0.78058259832E+03  0.00000000000E+00 0.  1.
         25    2    1    2    0    0  0.27063574382E+02 -0.93625716876E+02 -0.40285722631E+03  0.43294164248E+03  0.12508520727E+03 0.  0.
         23    2    1    2    0    0 -0.27063574382E+02  0.93625716876E+02 -0.35023752722E+03  0.37512880063E+03  0.92504484608E+02 0.  0.
          5    1    3    3  502    0  0.38280365121E+01 -0.11363359684E+03 -0.22200983561E+03  0.24946560425E+03  0.41800000000E+01 0. -1.
         -5    1    3    3    0  502  0.23235537870E+02  0.20007879963E+02 -0.18084739070E+03  0.18347603823E+03  0.41800000000E+01 0. -1.
        -11    1    4    4    0    0 -0.25262963248E+02  0.11667891896E+02 -0.18507895955E+02  0.33420042280E+02  0.00000000000E+00 0. -1.
         11    1    4    4    0    0 -0.18006111346E+01  0.81957824981E+02 -0.33172963126E+03  0.34170875835E+03  0.00000000000E+00 0.  1.
</event>
<event>
 8    1  0.6380400E-009  0.9522005E+02  0.7561462E-02  0.1290681E+00
         -1   -1    0    0    0  501 -0.00000000000E+00  0.00000000000E+00  0.16100683577E+02  0.16100683577E+02  0.00000000000E+00 0.  1.
          1   -1    0    0  501    0  0.00000000000E+00 -0.00000000000E+00 -0.83596957826E+03  0.83596957826E+03  0.00000000000E+00 0. -1.
         25    2    1    2    0    0  0.10529834040E+02  0.23086177692E+02 -0.56181380615E+03  0.57613083346E+03  0.12509250768E+03 0.  0.
         23    2    1    2    0    0 -0.10529834040E+02 -0.23086177692E+02 -0.25805508853E+03  0.27593942837E+03  0.94373144535E+02 0.  0.
          5    1    3    3  502    0  0.48651108069E+02  0.26536842862E+02 -0.50152731461E+03  0.50459712053E+03  0.41800000000E+01 0.  1.
         -5    1    3    3    0  502 -0.38121274029E+02 -0.34506651707E+01 -0.60286491540E+02  0.71533712932E+02  0.41800000000E+01 0.  1.
        -11    1    4    4    0    0 -0.49312533845E+02 -0.28880136440E+02 -0.12978916179E+03  0.14181330965E+03  0.00000000000E+00 0.  1.
         11    1    4    4    0    0  0.38782699805E+02  0.57939587480E+01 -0.12826592673E+03  0.13412611872E+03  0.00000000000E+00 0. -1.
</event>
<event>
 8    1  0.6380400E-009  0.1016861E+03  0.7561462E-02  0.1276790E+00
          1   -1    0    0  501    0  0.00000000000E+00  0.00000000000E+00  0.10489859963E+04  0.10489859963E+04  0.00000000000E+00 0. -1.
         -1   -1    0    0    0  501 -0.00000000000E+00 -0.00000000000E+00 -0.11758721788E+02  0.11758721788E+02  0.00000000000E+00 0.  1.
         25    2    1    2    0    0 -0.75379714105E-02 -0.25945888888E+02  0.62491181820E+03  0.63783604777E+03  0.12508738588E+03 0.  0.
         23    2    1    2    0    0  0.75379714105E-02  0.25945888888E+02  0.41231545630E+03  0.42290867030E+03  0.90413044993E+02 0.  0.
          5    1    3    3  502    0 -0.80199055157E+01  0.41556659948E+02  0.41451623444E+03  0.41669227961E+03  0.41800000000E+01 0. -1.
         -5    1    3    3    0  502  0.80123675443E+01 -0.67502548836E+02  0.21039558376E+03  0.22114376816E+03  0.41800000000E+01 0. -1.
        -11    1    4    4    0    0  0.81221529333E+01  0.58564609151E+02  0.29531706940E+03  0.30117761253E+03  0.00000000000E+00 0. -1.
         11    1    4    4    0    0 -0.81146149619E+01 -0.32618720264E+02  0.11699838690E+03  0.12173105777E+03  0.00000000000E+00 0.  1.
</event>
<event>
 8    1  0.6380400E-009  0.1334716E+03  0.7561462E-02  0.1222394E+00
          2   -1    0    0  501    0  0.00000000000E+00  0.00000000000E+00  0.31318581320E+03  0.31318581320E+03  0.00000000000E+00 0.  1.
         -2   -1    0    0    0  501 -0.00000000000E+00 -0.00000000000E+00 -0.74517321947E+02  0.74517321947E+02  0.00000000000E+00 0. -1.
         25    2    1    2    0    0  0.90649205872E+02  0.56873208254E+02  0.15842800686E+03  0.22848112735E+03  0.12510935959E+03 0.  0.
         23    2    1    2    0    0 -0.90649205872E+02 -0.56873208254E+02  0.80240484393E+02  0.15922200780E+03  0.86378655284E+02 0.  0.
          5    1    3    3  502    0 -0.18280772299E+02  0.60572256202E+01  0.85683928488E+02  0.87920899786E+02  0.41800000000E+01 0.  1.
         -5    1    3    3    0  502  0.10892997817E+03  0.50815982634E+02  0.72744078373E+02  0.14056022757E+03  0.41800000000E+01 0.  1.
        -11    1    4    4    0    0 -0.15551132642E+01 -0.35249109382E+02  0.52834489456E+02  0.63532679509E+02  0.00000000000E+00 0.  1.
         11    1    4    4    0    0 -0.89094092607E+02 -0.21624098872E+02  0.27405994938E+02  0.95689328287E+02  0.00000000000E+00 0. -1.
</event>
<event>
 8    1  0.6380400E-009  0.1139068E+03  0.7561462E-02  0.1253501E+00
         -2   -1    0    0    0  501 -0.00000000000E+00  0.00000000000E+00  0.59265966993E+02  0.59265966993E+02  0.00000000000E+00 0.  1.
          2   -1    0    0  501    0  0.00000000000E+00 -0.00000000000E+00 -0.27339833723E+03  0.27339833723E+03  0.00000000000E+00 0. -1.
         25    2    1    2    0    0 -0.32308324678E+02  0.62089252577E+02 -0.12551334800E+03  0.19052181429E+03  0.12508420390E+03 0.  0.
         23    2    1    2    0    0  0.32308324678E+02 -0.62089252577E+02 -0.88619022239E+02  0.14214248993E+03  0.86326434029E+02 0.  0.
          5    1    3    3  502    0 -0.57021536939E+02  0.78267379651E+02 -0.49437899305E+02  0.10880632647E+03  0.41800000000E+01 0.  1.
         -5    1    3    3    0  502  0.24713212262E+02 -0.16178127074E+02 -0.76075448691E+02  0.81715487818E+02  0.41800000000E+01 0.  1.
        -11    1    4    4    0    0  0.95353475763E+01  0.16596345099E+02  0.28545239947E+01  0.19352256491E+02  0.00000000000E+00 0.  1.
         11    1    4    4    0    0  0.22772977101E+02 -0.78685597677E+02 -0.91473546234E+02  0.12279023344E+03  0.00000000000E+00 0. -1.
</event>
<event>
 8    1  0.6380400E-009  0.2512615E+03  0.7561462E-02  0.1112510E+00
          1   -1    0    0  501    0  0.00000000000E+00  0.00000000000E+00  0.22183247132E+04  0.22183247132E+04  0.00000000000E+00 0. -1.
         -1   -1    0    0    0  501 -0.00000000000E+00 -0.00000000000E+00 -0.33271265761E+02  0.33271265761E+02  0.00000000000E+00 0.  1.
         25    2    1    2    0    0 -0.15232753476E+03 -0.18994900586E+03  0.13319298557E+04  0.13597680372E+04  0.12509065430E+03 0.  0.
         23    2    1    2    0    0  0.15232753476E+03  0.18994900586E+03  0.85312359180E+03  0.89182794183E+03  0.90845540732E+02 0.  0.
          5    1    3    3  502    0 -0.77392776762E+01 -0.31412222587E+02  0.48060160929E+02  0.58085072225E+02  0.41800000000E+01 0.  1.
         -5    1    3    3    0  502 -0.14458825708E+03 -0.15853678327E+03  0.12838696948E+04  0.13016829650E+04  0.41800000000E+01 0.  1.
        -11    1    4    4    0    0  0.13163041387E+03  0.10650803858E+03  0.48196941110E+03  0.51084737581E+03  0.00000000000E+00 0.  1.
         11    1    4    4    0    0  0.20697120896E+02  0.83440967276E+02  0.37115418070E+03  0.38098056602E+03  0.00000000000E+00 0. -1.
</event>
<event>
 8    1  0.6380400E-009  0.1140609E+03  0.7561462E-02  0.1253229E+00
          2   -1    0    0  501    0  0.00000000000E+00  0.00000000000E+00  0.55721735082E+03  0.55721735082E+03  0.00000000000E+00 0. -1.
         -2   -1    0    0    0  501 -0.00000000000E+00 -0.00000000000E+00 -0.52729899289E+02  0.52729899289E+02  0.00000000000E+00 0.  1.
         25    2    1    2    0    0 -0.17599650066E+01  0.89589390985E+02  0.44106171838E+03  0.46713015941E+03  0.12508313218E+03 0.  0.
         23    2    1    2    0    0  0.17599650066E+01 -0.89589390985E+02  0.63425733145E+02  0.14281709069E+03  0.91348460933E+02 0.  0.
          5    1    3    3  502    0  0.40143073471E+02  0.85225074403E+02  0.38775559225E+03  0.39905720314E+03  0.41800000000E+01 0.  1.
         -5    1    3    3    0  502 -0.41903038478E+02  0.43643165812E+01  0.53306126135E+02  0.68072956278E+02  0.41800000000E+01 0.  1.
        -11    1    4    4    0    0 -0.82348582827E+01 -0.32388184349E+02 -0.21646140205E+02  0.39816614147E+02  0.00000000000E+00 0.  1.
         11    1    4    4    0    0  0.99948232892E+01 -0.57201206636E+02  0.85071873350E+02  0.10300047654E+03  0.00000000000E+00 0. -1.
</event>
<event>
 8    1  0.6380400E-009  0.9764026E+02  0.7561462E-02  0.1285338E+00
          1   -1    0    0  501    0  0.00000000000E+00  0.00000000000E+00  0.19824355438E+03  0.19824355438E+03  0.00000000000E+00 0. -1.
         -1   -1    0    0    0  501 -0.00000000000E+00 -0.00000000000E+00 -0.83841651839E+02  0.83841651839E+02  0.00000000000E+00 0.  1.
         25    2    1    2    0    0 -0.13681613571E+02 -0.14538830888E+02 -0.10981025212E+02  0.12714836205E+03  0.12509020307E+03 0.  0.
         23    2    1    2    0    0  0.13681613571E+02  0.14538830888E+02  0.12538292775E+03  0.15493684417E+03  0.88803057133E+02 0.  0.
          5    1    3    3  502    0 -0.60271627850E+02  0.14320016040E+02 -0.30039031016E+02  0.68974979286E+02  0.41800000000E+01 0.  1.
         -5    1    3    3    0  502  0.46590014280E+02 -0.28858846929E+02  0.19058005804E+02  0.58173382761E+02  0.41800000000E+01 0.  1.
        -11    1    4    4    0    0  0.45114533182E+02  0.12048984724E+02  0.11071748528E+03  0.12016181042E+03  0.00000000000E+00 0. -1.
         11    1    4    4    0    0 -0.31432919611E+02  0.24898461648E+01  0.14665442468E+02  0.34775033745E+02  0.00000000000E+00 0.  1.
</event>
<event>
 8    1  0.6380400E-009  0.1618429E+03  0.7561462E-02  0.1186632E+00
         -1   -1    0    0    0  501 -0.00000000000E+00  0.00000000000E+00  0.74802796786E+03  0.74802796786E+03  0.00000000000E+00 0.  1.
          1   -1    0    0  501    0  0.00000000000E+00 -0.00000000000E+00 -0.37880301849E+02  0.37880301849E+02  0.00000000000E+00 0. -1.
         25    2    1    2    0    0  0.69101179863E+02  0.10602048047E+03  0.32370991175E+03  0.36939278698E+03  0.12509040241E+03 0.  0.
         23    2    1    2    0    0 -0.69101179863E+02 -0.10602048047E+03  0.38643775426E+03  0.41651548272E+03  0.90198082541E+02 0.  0.
          5    1    3    3  502    0  0.79027737599E+02  0.12786351098E+03  0.29908239864E+03  0.33475694814E+03  0.41800000000E+01 0.  1.
         -5    1    3    3    0  502 -0.99265577363E+01 -0.21843030516E+02  0.24627513112E+02  0.34635838847E+02  0.41800000000E+01 0.  1.
        -11    1    4    4    0    0  0.17648537879E+02 -0.21840255527E+02  0.13024191866E+03  0.13323447387E+03  0.00000000000E+00 0.  1.
         11    1    4    4    0    0 -0.86749717742E+02 -0.84180224940E+02  0.25619583560E+03  0.28328100886E+03  0.00000000000E+00 0. -1.
</event>
<event>
 8    1  0.6380400E-009  0.1363847E+03  0.7561462E-02  0.1218278E+00
          1   -1    0    0  501    0  0.00000000000E+00  0.00000000000E+00  0.24464860203E+03  0.24464860203E+03  0.00000000000E+00 0. -1.
         -1   -1    0    0    0  501 -0.00000000000E+00 -0.00000000000E+00 -0.14353643957E+03  0.14353643957E+03  0.00000000000E+00 0.  1.
         25    2    1    2    0    0 -0.11922582350E+03 -0.50639871208E+01 -0.44021096223E+02  0.17839962152E+03  0.12509247415E+03 0.  0.
         23    2    1    2    0    0  0.11922582350E+03  0.50639871208E+01  0.14513325868E+03  0.20978542008E+03  0.93304977090E+02 0.  0.
          5    1    3    3  502    0 -0.41554650049E+02 -0.14591311734E+02 -0.80580714521E+02  0.91926162062E+02  0.41800000000E+01 0. -1.
         -5    1    3    3    0  502 -0.77671173453E+02  0.95273246133E+01  0.36559618298E+02  0.86473459454E+02  0.41800000000E+01 0. -1.
        -11    1    4    4    0    0  0.73501848412E+02 -0.41910500143E+02  0.95301467254E+02  0.12744167844E+03  0.00000000000E+00 0.  1.
         11    1    4    4    0    0  0.45723975090E+02  0.46974487264E+02  0.49831791426E+02  0.82343741647E+02  0.00000000000E+00 0. -1.
</event>
<event>
 8    1  0.6380400E-009  0.6521057E+02  0.7561462E-02  0.1377181E+00
         -4   -1    0    0    0  501 -0.00000000000E+00  0.00000000000E+00  0.70522695300E+02  0.70522695300E+02  0.00000000000E+00 0.  1.
          4   -1    0    0  501    0  0.00000000000E+00 -0.00000000000E+00 -0.16553522830E+03  0.16553522830E+03  0.00000000000E+00 0. -1.
         25    2    1    2    0    0 -0.13934655022E+02  0.28366543570E+01 -0.49483806187E+02  0.13527940530E+03  0.12509855796E+03 0.  0.
         23    2    1    2    0    0  0.13934655022E+02 -0.28366543570E+01 -0.45528726809E+02  0.10077851830E+03  0.88776255651E+02 0.  0.
          5    1    3    3  502    0  0.21403958929E+02  0.21672575593E+02 -0.79383063339E+02  0.85129155615E+02  0.41800000000E+01 0. -1.
         -5    1    3    3    0  502 -0.35338613951E+02 -0.18835921236E+02  0.29899257152E+02  0.50150249681E+02  0.41800000000E+01 0. -1.
        -11    1    4    4    0    0 -0.12839799003E+02 -0.22696576563E+02  0.16146275677E+02  0.30670788127E+02  0.00000000000E+00 0.  1.
         11    1    4    4    0    0  0.26774454025E+02  0.19859922205E+02 -0.61675002486E+02  0.70107730173E+02  0.00000000000E+00 0. -1.
</event>
<event>
 8    1  0.6380400E-009  0.1100029E+03  0.7561462E-02  0.1260565E+00
         -2   -1    0    0    0  501 -0.00000000000E+00  0.00000000000E+00  0.13514421218E+03  0.13514421218E+03  0.00000000000E+00 0.  1.
          2   -1    0    0  501    0  0.00000000000E+00 -0.00000000000E+00 -0.10361908344E+03  0.10361908344E+03  0.00000000000E+00 0. -1.
         25    2    1    2    0    0 -0.12487394049E+02 -0.82249510239E+01  0.54076547510E+02  0.13709631216E+03  0.12509013146E+03 0.  0.
         23    2    1    2    0    0  0.12487394049E+02  0.82249510239E+01 -0.22551418767E+02  0.10166698346E+03  0.98000123507E+02 0.  0.
          5    1    3    3  502    0  0.25867827170E+02  0.49669526218E+02  0.28459109671E+02  0.62957125415E+02  0.41800000000E+01 0. -1.
         -5    1    3    3    0  502 -0.38355221219E+02 -0.57894477242E+02  0.25617437839E+02  0.74139186746E+02  0.41800000000E+01 0. -1.
        -11    1    4    4    0    0  0.39734903422E+02 -0.28245058280E+02  0.40862464887E+01  0.48921807792E+02  0.00000000000E+00 0.  1.
         11    1    4    4    0    0 -0.27247509374E+02  0.36470009304E+02 -0.26637665255E+02  0.52745175665E+02  0.00000000000E+00 0. -1.
</event>
<event>
 8    1  0.6380400E-009  0.1271606E+03  0.7561462E-02  0.1231731E+00
          3   -1    0    0  501    0  0.00000000000E+00  0.00000000000E+00  0.19384931402E+02  0.19384931402E+02  0.00000000000E+00 0. -1.
         -3   -1    0    0    0  501 -0.00000000000E+00 -0.00000000000E+00 -0.11926663336E+04  0.11926663336E+04  0.00000000000E+00 0.  1.
         25    2    1    2    0    0  0.86806886584E+02  0.46321362720E+02 -0.75231464091E+03  0.76896431411E+03  0.12509074000E+03 0.  0.
         23    2    1    2    0    0 -0.86806886584E+02 -0.46321362720E+02 -0.42096676125E+03  0.44308695087E+03  0.97118112338E+02 0.  0.
          5    1    3    3  502    0  0.61757506265E+02  0.65023419412E+02 -0.71268141684E+03  0.71831351718E+03  0.41800000000E+01 0.  1.
         -5    1    3    3    0  502  0.25049380320E+02 -0.18702056692E+02 -0.39633224070E+02  0.50650796925E+02  0.41800000000E+01 0.  1.
        -11    1    4    4    0    0 -0.39581790602E+02  0.25475421972E+02 -0.21154999173E+03  0.21672358956E+03  0.00000000000E+00 0.  1.
         11    1    4    4    0    0 -0.47225095983E+02 -0.71796784692E+02 -0.20941676953E+03  0.22636336131E+03  0.00000000000E+00 0. -1.
</event>
<event>
 8    1  0.6380400E-009  0.1123012E+03  0.7561462E-02  0.1256367E+00
         -2   -1    0    0    0  501 -0.00000000000E+00  0.00000000000E+00  0.47322853782E+02  0.47322853782E+02  0.00000000000E+00 0.  1.
          2   -1    0    0  501    0  0.00000000000E+00 -0.00000000000E+00 -0.33878068654E+03  0.33878068654E+03  0.00000000000E+00 0. -1.
         25    2    1    2    0    0 -0.62631861615E+02  0.16395723243E+02 -0.11234403047E+03  0.18016850889E+03  0.12509172867E+03 0.  0.
         23    2    1    2    0    0  0.62631861615E+02 -0.16395723243E+02 -0.17911380229E+03  0.20593503144E+03  0.78332069876E+02 0.  0.
          5    1    3    3  502    0 -0.86626832802E+02 -0.14903554236E+02 -0.37887880270E+02  0.95808600665E+02  0.41800000000E+01 0.  1.
         -5    1    3    3    0  502  0.23994971187E+02  0.31299277479E+02 -0.74456150195E+02  0.84359908220E+02  0.41800000000E+01 0.  1.
        -11    1    4    4    0    0  0.76075795157E+02 -0.43669335203E+00 -0.16190256159E+03  0.17888587635E+03  0.00000000000E+00 0.  1.
         11    1    4    4    0    0 -0.13443933542E+02 -0.15959029891E+02 -0.17211240705E+02  0.27049155084E+02  0.00000000000E+00 0. -1.
</event>
<event>
 8    1  0.6380400E-009  0.1177766E+03  0.7561462E-02  0.1246811E+00
         -1   -1    0    0    0  501 -0.00000000000E+00  0.00000000000E+00  0.30048980859E+02  0.30048980859E+02  0.00000000000E+00 0.  1.
          1   -1    0    0  501    0  0.00000000000E+00 -0.00000000000E+00 -0.74696810707E+03  0.74696810707E+03  0.00000000000E+00 0. -1.
         25    2    1    2    0    0  0.30400570258E+02 -0.80537038978E+02 -0.53403421156E+03  0.55520197056E+03  0.12508508975E+03 0.  0.
         23    2    1    2    0    0 -0.30400570258E+02  0.80537038978E+02 -0.18288491464E+03  0.22181511736E+03  0.91349028273E+02 0.  0.
          5    1    3    3  502    0  0.64717685654E+02 -0.52077160834E+02 -0.46852979713E+03  0.47585507533E+03  0.41800000000E+01 0. -1.
         -5    1    3    3    0  502 -0.34317115396E+02 -0.28459878144E+02 -0.65504414431E+02  0.79346895232E+02  0.41800000000E+01 0. -1.
        -11    1    4    4    0    0 -0.50864387054E+02  0.58792655725E+02 -0.68557489016E+02  0.10365274496E+03  0.00000000000E+00 0.  1.
         11    1    4    4    0    0  0.20463816796E+02  0.21744383253E+02 -0.11432742563E+03  0.11816237240E+03  0.00000000000E+00 0. -1.
</event>
<event>
 8    1  0.6380400E-009  0.2261638E+03  0.7561462E-02  0.1129369E+00
          1   -1    0    0  501    0  0.00000000000E+00  0.00000000000E+00  0.99706871431E+03  0.99706871431E+03  0.00000000000E+00 0. -1.
         -1   -1    0    0    0  501 -0.00000000000E+00 -0.00000000000E+00 -0.64875688984E+02  0.64875688984E+02  0.00000000000E+00 0.  1.
         25    2    1    2    0    0  0.14403861352E+03 -0.15293897238E+03  0.28405485803E+03  0.37479068314E+03  0.12507374761E+03 0.  0.
         23    2    1    2    0    0 -0.14403861352E+03  0.15293897238E+03  0.64813816730E+03  0.68715372015E+03  0.89217149460E+02 0.  0.
          5    1    3    3  502    0  0.14451947873E+03 -0.17071629492E+03  0.27468726169E+03  0.35426049344E+03  0.41800000000E+01 0. -1.
         -5    1    3    3    0  502 -0.48086521479E+00  0.17777322531E+02  0.93675963461E+01  0.20530189698E+02  0.41800000000E+01 0. -1.
        -11    1    4    4    0    0 -0.98752247760E+02  0.97671753353E+02  0.28489007650E+03  0.31694500080E+03  0.00000000000E+00 0.  1.
         11    1    4    4    0    0 -0.45286365758E+02  0.55267219031E+02  0.36324809079E+03  0.37020871935E+03  0.00000000000E+00 0. -1.
</event>
<event>
 8    1  0.6380400E-009  0.1059115E+03  0.7561462E-02  0.1268334E+00
          2   -1    0    0  501    0  0.00000000000E+00  0.00000000000E+00  0.74917690382E+02  0.74917690382E+02  0.00000000000E+00 0. -1.
         -2   -1    0    0    0  501 -0.00000000000E+00 -0.00000000000E+00 -0.32044097488E+03  0.32044097488E+03  0.00000000000E+00 0.  1.
         25    2    1    2    0    0  0.53284018293E+02 -0.35314050245E+01 -0.22888117701E+03  0.26624506659E+03  0.12509270508E+03 0.  0.
         23    2    1    2    0    0 -0.53284018293E+02  0.35314050245E+01 -0.16642107488E+02  0.12911359868E+03  0.11636882828E+03 0.  0.
          5    1    3    3  502    0  0.23730539978E+02  0.44535367782E+02 -0.19233405510E+03  0.19888790476E+03  0.41800000000E+01 0. -1.
         -5    1    3    3    0  502  0.29553478314E+02 -0.48066772807E+02 -0.36547121914E+02  0.67357161822E+02  0.41800000000E+01 0. -1.
        -11    1    4    4    0    0  0.15589538920E+02 -0.25481513567E+02  0.28926135448E+02  0.41581998141E+02  0.00000000000E+00 0. -1.
         11    1    4    4    0    0 -0.68873557213E+02  0.29012918591E+02 -0.45568242937E+02  0.87531600538E+02  0.00000000000E+00 0.  1.
</event>
<event>
 8    1  0.6380400E-009  0.1188589E+03  0.7561462E-02  0.1244991E+00
          1   -1    0    0  501    0  0.00000000000E+00  0.00000000000E+00  0.38243209192E+03  0.38243209192E+03  0.00000000000E+00 0. -1.
         -1   -1    0    0    0  501 -0.00000000000E+00 -0.00000000000E+00 -0.52402603519E+02  0.52402603519E+02  0.00000000000E+00 0.  1.
         25    2    1    2    0    0 -0.29186190730E+02 -0.84467701140E+02  0.20845833108E+03  0.25901593357E+03  0.12509097404E+03 0.  0.
         23    2    1    2    0    0  0.29186190730E+02  0.84467701140E+02  0.12157115733E+03  0.17581876187E+03  0.90255550885E+02 0.  0.
          5    1    3    3  502    0 -0.21947917293E+02 -0.11102847614E+03  0.20012809778E+03  0.22995165037E+03  0.41800000000E+01 0. -1.
         -5    1    3    3    0  502 -0.72382734373E+01  0.26560775004E+02  0.83302332945E+01  0.29064283200E+02  0.41800000000E+01 0. -1.
        -11    1    4    4    0    0  0.28652898809E+02  0.27715257687E+02  0.11119286362E+03  0.11812272025E+03  0.00000000000E+00 0. -1.
         11    1    4    4    0    0  0.53329192171E+00  0.56752443453E+02  0.10378293706E+02  0.57696041618E+02  0.00000000000E+00 0.  1.
</event>
<event>
 8    1  0.6380400E-009  0.1160960E+03  0.7561462E-02  0.1249680E+00
         -3   -1    0    0    0  501 -0.00000000000E+00  0.00000000000E+00  0.14915167204E+03  0.14915167204E+03  0.00000000000E+00 0.  1.
          3   -1    0    0  501    0  0.00000000000E+00 -0.00000000000E+00 -0.11511343280E+03  0.11511343280E+03  0.00000000000E+00 0. -1.
         25    2    1    2    0    0  0.62503909408E+02 -0.11034967356E+02 -0.20568807557E+02  0.14177241435E+03  0.12509129638E+03 0.  0.
         23    2    1    2    0    0 -0.62503909408E+02  0.11034967356E+02  0.54607046797E+02  0.12249269049E+03  0.89409286246E+02 0.  0.
          5    1    3    3  502    0  0.21748618857E+02 -0.61198420863E+02 -0.37119207638E+02  0.74923675257E+02  0.41800000000E+01 0. -1.
         -5    1    3    3    0  502  0.40755290551E+02  0.50163453507E+02  0.16550400081E+02  0.66848739095E+02  0.41800000000E+01 0. -1.
        -11    1    4    4    0    0  0.73930478120E+01 -0.23316196216E+02 -0.43088251965E+01  0.24836830242E+02  0.00000000000E+00 0. -1.
         11    1    4    4    0    0 -0.69896957220E+02  0.34351163572E+02  0.58915871993E+02  0.97655860245E+02  0.00000000000E+00 0.  1.
</event>
<event>
 7    1  0.6380400E-009  0.1315486E+03  0.7561462E-02  0.1225176E+00
         -1   -1    0    0    0  501 -0.00000000000E+00  0.00000000000E+00  0.29333676278E+03  0.29333676278E+03  0.00000000000E+00 0.  1.
          1   -1    0    0  501    0  0.00000000000E+00 -0.00000000000E+00 -0.70250165140E+02  0.70250165140E+02  0.00000000000E+00 0. -1.
         23    2    1    2    0    0 -0.65165717735E+02  0.39813660608E+02  0.31792281227E+02  0.12246071430E+03  0.90300493151E+02 0.  0.
          5    1    1    2  502    0  0.83793825554E+02  0.16598707722E+02  0.94290166085E+02  0.12729897925E+03  0.41800000000E+01 0. -1.
         -5    1    1    2    0  502 -0.18628107819E+02 -0.56412368331E+02  0.97004150330E+02  0.11382723436E+03  0.41800000000E+01 0. -1.
        -11    1    3    3    0    0 -0.57647333662E+02 -0.17474997805E+02  0.20158007079E+02  0.63521145110E+02  0.00000000000E+00 0. -1.
         11    1    3    3    0    0 -0.75183840727E+01  0.57288658414E+02  0.11634274148E+02  0.58939569195E+02  0.00000000000E+00 0.  1.
</event>
<event>
 8    1  0.6380400E-009  0.8977256E+02  0.7561462E-02  0.1303403E+00
         -1   -1    0    0    0  501 -0.00000000000E+00  0.00000000000E+00  0.39020128520E+03  0.39020128520E+03  0.00000000000E+00 0.  1.
          1   -1    0    0  501    0  0.00000000000E+00 -0.00000000000E+00 -0.33668524471E+02  0.33668524471E+02  0.00000000000E+00 0. -1.
         25    2    1    2    0    0 -0.36632549295E+02  0.58769884003E+01  0.22576825826E+03  0.26076319399E+03  0.12509857809E+03 0.  0.
         23    2    1    2    0    0  0.36632549295E+02 -0.58769884003E+01  0.13076450247E+03  0.16310661569E+03  0.90155034879E+02 0.  0.
          5    1    3    3  502    0 -0.62651399508E+02  0.16544343467E+02  0.22292762777E+03  0.23219197399E+03  0.41800000000E+01 0. -1.
         -5    1    3    3    0  502  0.26018850213E+02 -0.10667355067E+02  0.28406304887E+01  0.28571219997E+02  0.41800000000E+01 0. -1.
        -11    1    4    4    0    0 -0.13077475304E+02  0.24609106134E+02  0.83550501133E+02  0.88075619240E+02  0.00000000000E+00 0.  1.
         11    1    4    4    0    0  0.49710024598E+02 -0.30486094534E+02  0.47214001339E+02  0.75030996448E+02  0.00000000000E+00 0. -1.
</event>
<event>
 8    1  0.6380400E-009  0.1014925E+03  0.7561462E-02  0.1277188E+00
         -2   -1    0    0    0  501 -0.00000000000E+00  0.00000000000E+00  0.33216830288E+02  0.33216830288E+02  0.00000000000E+00 0.  1.
          2   -1    0    0  501    0  0.00000000000E+00 -0.00000000000E+00 -0.45286441882E+03  0.45286441882E+03  0.00000000000E+00 0. -1.
         25    2    1    2    0    0  0.26742621386E+02 -0.32578901875E+02 -0.33047798847E+03  0.35586461561E+03  0.12508945253E+03 0.  0.
         23    2    1    2    0    0 -0.26742621386E+02  0.32578901875E+02 -0.89169600068E+02  0.13021663350E+03  0.85021182175E+02 0.  0.
          5    1    3    3  502    0 -0.35922249957E+02 -0.40015400764E+02 -0.23660941613E+03  0.24267906490E+03  0.41800000000E+01 0.  1.
         -5    1    3    3    0  502  0.62664871343E+02  0.74364988889E+01 -0.93868572338E+02  0.11318555071E+03  0.41800000000E+01 0.  1.
        -11    1    4    4    0    0 -0.23270062800E+02 -0.21460440914E+02 -0.62041720222E+02  0.69650709939E+02  0.00000000000E+00 0. -1.
         11    1    4    4    0    0 -0.34725585857E+01  0.54039342788E+02 -0.27127879846E+02  0.60565923563E+02  0.00000000000E+00 0.  1.
</event>
<event>
 8    1  0.6380400E-009  0.1171605E+03  0.7561462E-02  0.1247856E+00
          2   -1    0    0  501    0  0.00000000000E+00  0.00000000000E+00  0.40524497113E+03  0.40524497113E+03  0.00000000000E+00 0. -1.
         -2   -1    0    0    0  501 -0.00000000000E+00 -0.00000000000E+00 -0.35096466586E+02  0.35096466586E+02  0.00000000000E+00 0.  1.
         25    2    1    2    0    0  0.23564165082E+02 -0.47663941900E+02  0.21337567515E+03  0.25298933594E+03  0.12508918467E+03 0.  0.
         23    2    1    2    0    0 -0.23564165082E+02  0.47663941900E+02  0.15677282939E+03  0.18735210177E+03  0.87726670804E+02 0.  0.
          5    1    3    3  502    0 -0.48251559898E+02 -0.39747525248E+02  0.11356511750E+03  0.12970191637E+03  0.41800000000E+01 0.  1.
         -5    1    3    3    0  502  0.71815724980E+02 -0.79164166523E+01  0.99810557648E+02  0.12328741957E+03  0.41800000000E+01 0.  1.
        -11    1    4    4    0    0 -0.53164318160E+02  0.15053751598E+02  0.11006234258E+03  0.12315347911E+03  0.00000000000E+00 0. -1.
         11    1    4    4    0    0  0.29600153078E+02  0.32610190302E+02  0.46710486808E+02  0.64198622661E+02  0.00000000000E+00 0.  1.
</event>
<event>
 8    1  0.6380400E-009  0.1321747E+03  0.7561462E-02  0.1224264E+00
          1   -1    0    0  501    0  0.00000000000E+00  0.00000000000E+00  0.37288137348E+03  0.37288137348E+03  0.00000000000E+00 0. -1.
         -1   -1    0    0    0  501 -0.00000000000E+00 -0.00000000000E+00 -0.62744808978E+02  0.62744808978E+02  0.00000000000E+00 0.  1.
         25    2    1    2    0    0  0.40800725739E+02  0.95565990680E+02  0.13431028501E+03  0.21091316679E+03  0.12509018135E+03 0.  0.
         23    2    1    2    0    0 -0.40800725739E+02 -0.95565990680E+02  0.17582627950E+03  0.22471301568E+03  0.93720334267E+02 0.  0.
          5    1    3    3  502    0 -0.86317372297E+01  0.66705777498E+02  0.13781847742E+03  0.15341307884E+03  0.41800000000E+01 0. -1.
         -5    1    3    3    0  502  0.49432462968E+02  0.28860213182E+02 -0.35081924194E+01  0.57500087948E+02  0.41800000000E+01 0. -1.
        -11    1    4    4    0    0 -0.66396251952E+02 -0.37848100709E+02  0.10434174901E+03  0.12933731707E+03  0.00000000000E+00 0. -1.
         11    1    4    4    0    0  0.25595526213E+02 -0.57717889971E+02  0.71484530496E+02  0.95375698609E+02  0.00000000000E+00 0.  1.
</event>
<event>
 8    1  0.6380400E-009  0.1925206E+03  0.7561462E-02  0.1156207E+00
         -2   -1    0    0    0  501 -0.00000000000E+00  0.00000000000E+00  0.15235594607E+03  0.15235594607E+03  0.00000000000E+00 0. -1.
          2   -1    0    0  501    0  0.00000000000E+00 -0.00000000000E+00 -0.27460888444E+03  0.27460888444E+03  0.00000000000E+00 0.  1.
         25    2    1    2    0    0  0.10697149667E+03  0.13459743203E+03 -0.22270208380E+02  0.21378124445E+03  0.12508832275E+03 0.  0.
         23    2    1    2    0    0 -0.10697149667E+03 -0.13459743203E+03 -0.99982729984E+02  0.21318358606E+03  0.76754968978E+02 0.  0.
          5    1    3    3  502    0 -0.12236071977E+02  0.76406553099E+02 -0.23763735827E+02  0.81054736780E+02  0.41800000000E+01 0. -1.
         -5    1    3    3    0  502  0.11920756865E+03  0.58190878929E+02  0.14935274473E+01  0.13272650767E+03  0.41800000000E+01 0. -1.
        -11    1    4    4    0    0 -0.34139997194E+02 -0.21614050482E+02 -0.61094819481E+02  0.73248095908E+02  0.00000000000E+00 0. -1.
         11    1    4    4    0    0 -0.72831499478E+02 -0.11298338155E+03 -0.38887910503E+02  0.13993549016E+03  0.00000000000E+00 0.  1.
</event>
<event>
 8    1  0.6380400E-009  0.1131756E+03  0.7561462E-02  0.1254800E+00
          1   -1    0    0  501    0  0.00000000000E+00  0.00000000000E+00  0.71142030449E+03  0.71142030449E+03  0.00000000000E+00 0. -1.
         -1   -1    0    0    0  501 -0.00000000000E+00 -0.00000000000E+00 -0.20084397179E+02  0.20084397179E+02  0.00000000000E+00 0.  1.
         25    2    1    2    0    0 -0.85730519126E+01  0.30314317184E+02  0.27417875126E+03  0.30300790794E+03  0.12508936640E+03 0.  0.
         23    2    1    2    0    0  0.85730519126E+01 -0.30314317184E+02  0.41715715606E+03  0.42849679373E+03  0.92719762442E+02 0.  0.
          5    1    3    3  502    0  0.34684235849E+02  0.64719514844E+02  0.15896935099E+03  0.17515803941E+03  0.41800000000E+01 0.  1.
         -5    1    3    3    0  502 -0.43257287761E+02 -0.34405197661E+02  0.11520940027E+03  0.12784986853E+03  0.41800000000E+01 0.  1.
        -11    1    4    4    0    0  0.48369481095E+02 -0.17717727324E+01  0.18469612429E+03  0.19093298355E+03  0.00000000000E+00 0.  1.
         11    1    4    4    0    0 -0.39796429182E+02 -0.28542544451E+02  0.23246103177E+03  0.23756381019E+03  0.00000000000E+00 0. -1.
</event>
<event>
 7    1  0.6380400E-009  0.1486686E+03  0.7561462E-02  0.1202119E+00
         -1   -1    0    0    0  501 -0.00000000000E+00  0.00000000000E+00  0.34792610871E+02  0.34792610871E+02  0.00000000000E+00 0.  1.
          1   -1    0    0  501    0  0.00000000000E+00 -0.00000000000E+00 -0.13302435630E+04  0.13302435630E+04  0.00000000000E+00 0. -1.
         23    2    1    2    0    0 -0.12047350624E+03 -0.21258336502E+02 -0.17559730428E+03  0.23158408191E+03  0.88492887558E+02 0.  0.
          5    1    1    2  502    0  0.11990335519E+02  0.56775829342E+02 -0.47629106400E+03  0.47983112966E+03  0.41800000000E+01 0. -1.
         -5    1    1    2    0  502  0.10848317072E+03 -0.35517492840E+02 -0.64356258385E+03  0.65362096230E+03  0.41800000000E+01 0. -1.
        -11    1    3    3    0    0 -0.18632596747E+02  0.58792118195E+01  0.69988690082E+01  0.20753866159E+02  0.00000000000E+00 0.  1.
         11    1    3    3    0    0 -0.10184090949E+03 -0.27137548322E+02 -0.18259617329E+03  0.21083021575E+03  0.00000000000E+00 0. -1.
</event>
<event>
 8    1  0.6380400E-009  0.2179606E+03  0.7561462E-02  0.1135413E+00
          1   -1    0    0  501    0  0.00000000000E+00  0.00000000000E+00  0.13470601165E+03  0.13470601165E+03  0.00000000000E+00 0. -1.
         -1   -1    0    0    0  501 -0.00000000000E+00 -0.00000000000E+00 -0.38438630927E+03  0.38438630927E+03  0.00000000000E+00 0.  1.
         25    2    1    2    0    0 -0.99260231019E+01 -0.19630290169E+03 -0.17113279937E+03  0.28908030488E+03  0.12509049726E+03 0.  0.
         23    2    1    2    0    0  0.99260231019E+01  0.19630290169E+03 -0.78547498252E+02  0.23001201605E+03  0.90013681734E+02 0.  0.
          5    1    3    3  502    0 -0.59989750130E+02 -0.16019882921E+03 -0.12499174175E+03  0.21190290915E+03  0.41800000000E+01 0.  1.
         -5    1    3    3    0  502  0.50063727028E+02 -0.36104072474E+02 -0.46141057619E+02  0.77177395728E+02  0.41800000000E+01 0.  1.
        -11    1    4    4    0    0  0.28408982731E+02  0.74285252756E+02 -0.70599292479E+02  0.10634674031E+03  0.00000000000E+00 0.  1.
         11    1    4    4    0    0 -0.18482959629E+02  0.12201764893E+03 -0.79482057728E+01  0.12366527573E+03  0.00000000000E+00 0. -1.
</event>
<event>
 8    1  0.6380400E-009  0.1047123E+03  0.7561462E-02  0.1270688E+00
          2   -1    0    0  501    0  0.00000000000E+00  0.00000000000E+00  0.67668743122E+03  0.67668743122E+03  0.00000000000E+00 0. -1.
         -2   -1    0    0    0  501 -0.00000000000E+00 -0.00000000000E+00 -0.18398688906E+02  0.18398688906E+02  0.00000000000E+00 0.  1.
         25    2    1    2    0    0  0.84950487386E+01 -0.29901630062E+01  0.45709721908E+03  0.47398409425E+03  0.12506776956E+03 0.  0.
         23    2    1    2    0    0 -0.84950487386E+01  0.29901630062E+01  0.20119152323E+03  0.22110202587E+03  0.91252232290E+02 0.  0.
          5    1    3    3  502    0  0.53870729860E+01 -0.63805615832E+02  0.24709673377E+03  0.25529286204E+03  0.41800000000E+01 0.  1.
         -5    1    3    3    0  502  0.31079757527E+01  0.60815452826E+02  0.21000048531E+03  0.21869123221E+03  0.41800000000E+01 0.  1.
        -11    1    4    4    0    0  0.35351873137E+02 -0.12823964194E+02  0.13503807591E+03  0.14017664191E+03  0.00000000000E+00 0. -1.
         11    1    4    4    0    0 -0.43846921876E+02  0.15814127200E+02  0.66153447318E+02  0.80925383960E+02  0.00000000000E+00 0.  1.
</event>
<event>
 8    1  0.6380400E-009  0.1163570E+03  0.7561462E-02  0.1249231E+00
         -1   -1    0    0    0  501 -0.00000000000E+00  0.00000000000E+00  0.15972667927E+02  0.15972667927E+02  0.00000000000E+00 0.  1.
          1   -1    0    0  501    0  0.00000000000E+00 -0.00000000000E+00 -0.97846522896E+03  0.97846522896E+03  0.00000000000E+00 0. -1.
         25    2    1    2    0    0 -0.39203164165E+01  0.62251906233E+02 -0.54057739170E+03  0.55835560633E+03  0.12508556269E+03 0.  0.
         23    2    1    2    0    0  0.39203164165E+01 -0.62251906233E+02 -0.42191516934E+03  0.43608229056E+03  0.90910314671E+02 0.  0.
          5    1    3    3  502    0  0.22111348529E+02  0.89742202982E+02 -0.46022008063E+03  0.46942791752E+03  0.41800000000E+01 0. -1.
         -5    1    3    3    0  502 -0.26031664946E+02 -0.27490296749E+02 -0.80357311060E+02  0.88927688804E+02  0.41800000000E+01 0. -1.
        -11    1    4    4    0    0 -0.36652816265E+02 -0.44939791980E+02 -0.31715980955E+03  0.32241798746E+03  0.00000000000E+00 0.  1.
         11    1    4    4    0    0  0.40573132682E+02 -0.17312114253E+02 -0.10475535979E+03  0.11366430311E+03  0.00000000000E+00 0. -1.
</event>
<event>
 8    1  0.6380400E-009  0.1759334E+03  0.7561462E-02  0.1171798E+00
          2   -1    0    0  501    0  0.00000000000E+00  0.00000000000E+00  0.19392981843E+03  0.19392981843E+03  0.00000000000E+00 0. -1.
         -2   -1    0    0    0  501 -0.00000000000E+00 -0.00000000000E+00 -0.24416422637E+03  0.24416422637E+03  0.00000000000E+00 0.  1.
         25    2    1    2    0    0  0.14948573412E+03 -0.72598799524E+02 -0.11181265188E+03  0.23614899153E+03  0.12509079376E+03 0.  0.
         23    2    1    2    0    0 -0.14948573412E+03  0.72598799524E+02  0.61578243944E+02  0.20194505327E+03  0.96816083454E+02 0.  0.
          5    1    3    3  502    0  0.11700803935E+02 -0.42910997033E+02  0.14367335390E+02  0.46927126540E+02  0.41800000000E+01 0. -1.
         -5    1    3    3    0  502  0.13778493018E+03 -0.29687802491E+02 -0.12617998727E+03  0.18922186499E+03  0.41800000000E+01 0. -1.
        -11    1    4    4    0    0 -0.70371427369E+02  0.33748320994E+02  0.80150004437E+02  0.11187095321E+03  0.00000000000E+00 0. -1.
         11    1    4    4    0    0 -0.79114306749E+02  0.38850478530E+02 -0.18571760493E+02  0.90074100063E+02  0.00000000000E+00 0.  1.
</event>
<event>
 8    1  0.6380400E-009  0.4627378E+03  0.7561462E-02  0.1023990E+00
         -2   -1    0    0    0  501 -0.00000000000E+00  0.00000000000E+00  0.45406846605E+03  0.45406846605E+03  0.00000000000E+00 0.  1.
          2   -1    0    0  501    0  0.00000000000E+00 -0.00000000000E+00 -0.78068293978E+03  0.78068293978E+03  0.00000000000E+00 0. -1.
         25    2    1    2    0    0  0.12026366614E+03 -0.43990644901E+03 -0.54419702554E+03  0.72095767495E+03  0.12509409734E+03 0.  0.
         23    2    1    2    0    0 -0.12026366614E+03  0.43990644901E+03  0.21758255181E+03  0.51379373088E+03  0.93063407189E+02 0.  0.
          5    1    3    3  502    0 -0.19438825601E+02 -0.35304326531E+02 -0.23303648543E+02  0.46741799794E+02  0.41800000000E+01 0. -1.
         -5    1    3    3    0  502  0.13970249174E+03 -0.40460212248E+03 -0.52089337700E+03  0.67421587516E+03  0.41800000000E+01 0. -1.
        -11    1    4    4    0    0 -0.55592437769E+02  0.25548369917E+03  0.17246658633E+03  0.31322063003E+03  0.00000000000E+00 0.  1.
         11    1    4    4    0    0 -0.64671228373E+02  0.18442274985E+03  0.45115965473E+02  0.20057310084E+03  0.00000000000E+00 0. -1.
</event>
<event>
 8    1  0.6380400E-009  0.1044537E+03  0.7561462E-02  0.1271200E+00
         -3   -1    0    0    0  501 -0.00000000000E+00  0.00000000000E+00  0.38075978909E+03  0.38075978909E+03  0.00000000000E+00 0.  1.
          3   -1    0    0  501    0  0.00000000000E+00 -0.00000000000E+00 -0.43648527039E+02  0.43648527039E+02  0.00000000000E+00 0. -1.
         25    2    1    2    0    0 -0.56597001654E+02  0.28968400884E+02  0.14323828221E+03  0.20052233753E+03  0.12509841531E+03 0.  0.
         23    2    1    2    0    0  0.56597001654E+02 -0.28968400884E+02  0.19387297984E+03  0.22388597860E+03  0.92172719682E+02 0.  0.
          5    1    3    3  502    0 -0.13641611580E+02  0.47896274805E+02  0.14499197574E+03  0.15336326853E+03  0.41800000000E+01 0. -1.
         -5    1    3    3    0  502 -0.42955390074E+02 -0.18927873921E+02 -0.17536935323E+01  0.47159068996E+02  0.41800000000E+01 0. -1.
        -11    1    4    4    0    0  0.30206963914E+02  0.32826969674E+02  0.83443210365E+02  0.94619448122E+02  0.00000000000E+00 0.  1.
         11    1    4    4    0    0  0.26390037740E+02 -0.61795370558E+02  0.11042976948E+03  0.12926653047E+03  0.00000000000E+00 0. -1.
</event>
<event>
 8    1  0.6380400E-009  0.1002058E+03  0.7561462E-02  0.1279864E+00
         -4   -1    0    0    0  501 -0.00000000000E+00  0.00000000000E+00  0.53593573775E+02  0.53593573775E+02  0.00000000000E+00 0.  1.
          4   -1    0    0  501    0  0.00000000000E+00 -0.00000000000E+00 -0.27236842955E+03  0.27236842955E+03  0.00000000000E+00 0. -1.
         25    2    1    2    0    0  0.33882577482E+02 -0.33010285656E+02 -0.93874415628E+02  0.16338521603E+03  0.12507843496E+03 0.  0.
         23    2    1    2    0    0 -0.33882577482E+02  0.33010285656E+02 -0.12490044015E+03  0.16257678730E+03  0.92700505948E+02 0.  0.
          5    1    3    3  502    0  0.23787580116E+02  0.30894738052E+02  0.10426011569E+02  0.40577184775E+02  0.41800000000E+01 0.  1.
         -5    1    3    3    0  502  0.10094997366E+02 -0.63905023708E+02 -0.10430042720E+03  0.12280803125E+03  0.41800000000E+01 0.  1.
        -11    1    4    4    0    0  0.63302341030E+01 -0.24994516422E+02 -0.98484482537E+01  0.27600537096E+02  0.00000000000E+00 0. -1.
         11    1    4    4    0    0 -0.40212811585E+02  0.58004802079E+02 -0.11505199189E+03  0.13497625020E+03  0.00000000000E+00 0.  1.
</event>
<event>
 8    1  0.6380400E-009  0.8350087E+02  0.7561462E-02  0.1319400E+00
         -2   -1    0    0    0  501 -0.00000000000E+00  0.00000000000E+00  0.14335941913E+03  0.14335941913E+03  0.00000000000E+00 0.  1.
          2   -1    0    0  501    0  0.00000000000E+00 -0.00000000000E+00 -0.20202174261E+03  0.20202174261E+03  0.00000000000E+00 0. -1.
         25    2    1    2    0    0  0.13226687488E+02 -0.76283887020E+02 -0.13859850640E+03  0.20211658418E+03  0.12508953172E+03 0.  0.
         23    2    1    2    0    0 -0.13226687488E+02  0.76283887020E+02  0.79936182908E+02  0.14326457756E+03  0.90226211071E+02 0.  0.
          5    1    3    3  502    0 -0.94784314645E+01 -0.12354765510E+02  0.22260954523E+02  0.27486421923E+02  0.41800000000E+01 0.  1.
         -5    1    3    3    0  502  0.22705118953E+02 -0.63929121510E+02 -0.16085946092E+03  0.17463016226E+03  0.41800000000E+01 0.  1.
        -11    1    4    4    0    0 -0.22145536575E+02  0.64038433313E+02  0.98342283923E+02  0.11942592072E+03  0.00000000000E+00 0.  1.
         11    1    4    4    0    0  0.89188490869E+01  0.12245453707E+02 -0.18406101015E+02  0.23838656843E+02  0.00000000000E+00 0. -1.
</event>
<event>
 8    1  0.6380400E-009  0.1256782E+03  0.7561462E-02  0.1234013E+00
          2   -1    0    0  501    0  0.00000000000E+00  0.00000000000E+00  0.20177680342E+03  0.20177680342E+03  0.00000000000E+00 0. -1.
         -2   -1    0    0    0  501 -0.00000000000E+00 -0.00000000000E+00 -0.15719678831E+03  0.15719678831E+03  0.00000000000E+00 0.  1.
         25    2    1    2    0    0  0.66489073554E+02 -0.54537098935E+02  0.13519744653E+03  0.20327630565E+03  0.12509122602E+03 0.  0.
         23    2    1    2    0    0 -0.66489073554E+02  0.54537098935E+02 -0.90617431419E+02  0.15569728608E+03  0.92924883391E+02 0.  0.
          5    1    3    3  502    0  0.94642069189E+02 -0.19856327990E+02  0.54855362241E+02  0.11125636246E+03  0.41800000000E+01 0.  1.
         -5    1    3    3    0  502 -0.28152995636E+02 -0.34680770945E+02  0.80342084285E+02  0.92019943185E+02  0.41800000000E+01 0.  1.
        -11    1    4    4    0    0 -0.41357133587E+02 -0.81582697984E+01  0.64378995738E+00  0.42159036163E+02  0.00000000000E+00 0. -1.
         11    1    4    4    0    0 -0.25131939967E+02  0.62695368733E+02 -0.91261221376E+02  0.11353824992E+03  0.00000000000E+00 0.  1.
</event>
<event>
 8    1  0.6380400E-009  0.7113461E+02  0.7561462E-02  0.1356277E+00
         -1   -1    0    0    0  501 -0.00000000000E+00  0.00000000000E+00  0.42434782927E+02  0.42434782927E+02  0.00000000000E+00 0.  1.
          1   -1    0    0  501    0  0.00000000000E+00 -0.00000000000E+00 -0.31716545461E+03  0.31716545461E+03  0.00000000000E+00 0. -1.
         25    2    1    2    0    0 -0.26361636786E+02  0.23282377586E+02 -0.12139989221E+03  0.17782788826E+03  0.12509124276E+03 0.  0.
         23    2    1    2    0    0  0.26361636786E+02 -0.23282377586E+02 -0.15333077948E+03  0.18177234928E+03  0.91070599130E+02 0.  0.
          5    1    3    3  502    0 -0.18744121471E+02 -0.18889286187E+02  0.17689497616E+02  0.32226354871E+02  0.41800000000E+01 0. -1.
         -5    1    3    3    0  502 -0.76175153149E+01  0.42171663773E+02 -0.13908938982E+03  0.14560153339E+03  0.41800000000E+01 0. -1.
        -11    1    4    4    0    0  0.17465719778E+02  0.20881806382E+02 -0.12637213521E+03  0.12927110181E+03  0.00000000000E+00 0. -1.
         11    1    4    4    0    0  0.88959170083E+01 -0.44164183968E+02 -0.26958644269E+02  0.52501247469E+02  0.00000000000E+00 0.  1.
</event>
<event>
 8    1  0.6380400E-009  0.6550017E+02  0.7561462E-02  0.1376100E+00
         -1   -1    0    0    0  501 -0.00000000000E+00  0.00000000000E+00  0.75330936337E+02  0.75330936337E+02  0.00000000000E+00 0.  1.
          1   -1    0    0  501    0  0.00000000000E+00 -0.00000000000E+00 -0.20103104735E+03  0.20103104735E+03  0.00000000000E+00 0. -1.
         25    2    1    2    0    0 -0.29338967427E+02  0.29548547943E+02 -0.12470671274E+03  0.18147330771E+03  0.12508759137E+03 0.  0.
         23    2    1    2    0    0  0.29338967427E+02 -0.29548547943E+02 -0.99339827701E+00  0.94888675973E+02  0.85258326822E+02 0.  0.
          5    1    3    3  502    0 -0.53188220955E+02  0.27384847978E+02 -0.59616407231E+01  0.60265498482E+02  0.41800000000E+01 0. -1.
         -5    1    3    3    0  502  0.23849253528E+02  0.21636999650E+01 -0.11874507201E+03  0.12120780923E+03  0.41800000000E+01 0. -1.
        -11    1    4    4    0    0  0.90771925720E+01 -0.24080494874E+02 -0.41751136279E+02  0.49045112284E+02  0.00000000000E+00 0. -1.
         11    1    4    4    0    0  0.20261774855E+02 -0.54680530690E+01  0.40757738002E+02  0.45843563689E+02  0.00000000000E+00 0.  1.
</event>
<event>
 8    1  0.6380400E-009  0.1311225E+03  0.7561462E-02  0.1225800E+00
          2   -1    0    0  501    0  0.00000000000E+00  0.00000000000E+00  0.50752164304E+03  0.50752164304E+03  0.00000000000E+00 0. -1.
         -2   -1    0    0    0  501 -0.00000000000E+00 -0.00000000000E+00 -0.44138518741E+02  0.44138518741E+02  0.00000000000E+00 0.  1.
         25    2    1    2    0    0  0.94806965559E+02  0.10428307959E+02  0.28842536400E+03  0.32853735120E+03  0.12510191930E+03 0.  0.
         23    2    1    2    0    0 -0.94806965559E+02 -0.10428307959E+02  0.17495776031E+03  0.22312281059E+03  0.10038157394E+03 0.  0.
          5    1    3    3  502    0  0.42120889223E+02  0.51256558582E+02  0.23127062794E+03  0.24063453588E+03  0.41800000000E+01 0. -1.
         -5    1    3    3    0  502  0.52686076336E+02 -0.40828250623E+02  0.57154736052E+02  0.87902815324E+02  0.41800000000E+01 0. -1.
        -11    1    4    4    0    0 -0.27692476966E+02  0.37426029647E+02  0.10555976339E+03  0.11537090024E+03  0.00000000000E+00 0. -1.
         11    1    4    4    0    0 -0.67114488592E+02 -0.47854337606E+02  0.69397996915E+02  0.10775191034E+03  0.00000000000E+00 0.  1.
</event>
<event>
 8    1  0.6380400E-009  0.1460092E+03  0.7561462E-02  0.1205464E+00
         -1   -1    0    0    0  501 -0.00000000000E+00  0.00000000000E+00  0.53647836754E+02  0.53647836754E+02  0.00000000000E+00 0.  1.
          1   -1    0    0  501    0  0.00000000000E+00 -0.00000000000E+00 -0.47549149672E+03  0.47549149672E+03  0.00000000000E+00 0. -1.
         25    2    1    2    0    0  0.88878229061E+02 -0.50326712170E+02 -0.32079107557E+03  0.35914907263E+03  0.12509606169E+03 0.  0.
         23    2    1    2    0    0 -0.88878229061E+02  0.50326712170E+02 -0.10105258440E+03  0.16999026084E+03  0.90845728618E+02 0.  0.
          5    1    3    3  502    0 -0.96885153417E+01 -0.55720214461E+02 -0.16689288423E+03  0.17626490528E+03  0.41800000000E+01 0. -1.
         -5    1    3    3    0  502  0.98566744402E+02  0.53935022916E+01 -0.15389819134E+03  0.18288416735E+03  0.41800000000E+01 0. -1.
        -11    1    4    4    0    0 -0.29923701564E+01 -0.23232370100E+02 -0.20795613300E+02  0.31323391134E+02  0.00000000000E+00 0. -1.
         11    1    4    4    0    0 -0.85885858904E+02  0.73559082270E+02 -0.80256971096E+02  0.13866686970E+03  0.00000000000E+00 0.  1.
</event>
<event>
 8    1  0.6380400E-009  0.1013949E+03  0.7561462E-02  0.1277390E+00
          1   -1    0    0  501    0  0.00000000000E+00  0.00000000000E+00  0.18246693315E+03  0.18246693315E+03  0.00000000000E+00 0. -1.
         -1   -1    0    0    0  501 -0.00000000000E+00 -0.00000000000E+00 -0.94480964386E+02  0.94480964386E+02  0.00000000000E+00 0.  1.
         25    2    1    2    0    0  0.71319091905E+02  0.61508626616E+01  0.58758329851E+02  0.15564216372E+03  0.12509075033E+03 0.  0.
         23    2    1    2    0    0 -0.71319091905E+02 -0.61508626616E+01  0.29227638915E+02  0.12130573382E+03  0.93469675290E+02 0.  0.
          5    1    3    3  502    0  0.33966360995E+02  0.26521526807E+02  0.91874307187E+02  0.10156508152E+03  0.41800000000E+01 0.  1.
         -5    1    3    3    0  502  0.37352730909E+02 -0.20370664146E+02 -0.33115977336E+02  0.54077082198E+02  0.41800000000E+01 0.  1.
        -11    1    4    4    0    0 -0.11843418331E+02 -0.44450865495E+02  0.38959844873E+01  0.46166272279E+02  0.00000000000E+00 0.  1.
         11    1    4    4    0    0 -0.59475673574E+02  0.38300002834E+02  0.25331654427E+02  0.75139461538E+02  0.00000000000E+00 0. -1.
</event>
<event>
 7    1  0.6380400E-009  0.1205998E+03  0.7561462E-02  0.1242111E+00
         -1   -1    0    0    0  501 -0.00000000000E+00  0.00000000000E+00  0.65422623783E+02  0.65422623783E+02  0.00000000000E+00 0.  1.
          1   -1    0    0  501    0  0.00000000000E+00 -0.00000000000E+00 -0.38131591046E+03  0.38131591046E+03  0.00000000000E+00 0. -1.
         23    2    1    2    0    0 -0.98330215709E+02  0.46959670848E+02 -0.13910332657E+03  0.20421338815E+03  0.10236860080E+03 0.  0.
          5    1    1    2  502    0  0.11785585297E+02 -0.29627953867E+02  0.11804430080E+02  0.34256862680E+02  0.41800000000E+01 0.  1.
         -5    1    1    2    0  502  0.86544630412E+02 -0.17331716981E+02 -0.18859439019E+03  0.20826828341E+03  0.41800000000E+01 0.  1.
        -11    1    3    3    0    0 -0.75301427428E+02  0.84033605329E+01 -0.14011772587E+03  0.15929186591E+03  0.00000000000E+00 0. -1.
         11    1    3    3    0    0 -0.23028788280E+02  0.38556310315E+02  0.10143992981E+01  0.44921522244E+02  0.00000000000E+00 0.  1.
</event>
<event>
 8    1  0.6380400E-009  0.1110682E+03  0.7561462E-02  0.1258604E+00
         -1   -1    0    0    0  501 -0.00000000000E+00  0.00000000000E+00  0.46356416785E+03  0.46356416785E+03  0.00000000000E+00 0.  1.
          1   -1    0    0  501    0  0.00000000000E+00 -0.00000000000E+00 -0.45807579815E+02  0.45807579815E+02  0.00000000000E+00 0. -1.
         25    2    1    2    0    0 -0.24723687473E+02 -0.75350505897E+02  0.13067809132E+03  0.19751837916E+03  0.12509111516E+03 0.  0.
         23    2    1    2    0    0  0.24723687473E+02  0.75350505897E+02  0.28707849671E+03  0.31185336850E+03  0.92463510165E+02 0.  0.
          5    1    3    3  502    0 -0.31078232549E+02  0.10887824815E+02 -0.78991988103E+01  0.34121415701E+02  0.41800000000E+01 0.  1.
         -5    1    3    3    0  502  0.63545450768E+01 -0.86238330712E+02  0.13857729013E+03  0.16339696346E+03  0.41800000000E+01 0.  1.
        -11    1    4    4    0    0 -0.15370924856E+02  0.55577252938E+02  0.24040476735E+03  0.24722368118E+03  0.00000000000E+00 0.  1.
         11    1    4    4    0    0  0.40094612328E+02  0.19773252959E+02  0.46673729365E+02  0.64629687321E+02  0.00000000000E+00 0. -1.
</event>
<event>
 8    1  0.6380400E-009  0.1630537E+03  0.7561462E-02  0.1185292E+00
          1   -1    0    0  501    0  0.00000000000E+00  0.00000000000E+00  0.12270963545E+03  0.12270963545E+03  0.00000000000E+00 0. -1.
         -1   -1    0    0    0  501 -0.00000000000E+00 -0.00000000000E+00 -0.25925342855E+03  0.25925342855E+03  0.00000000000E+00 0.  1.
         25    2    1    2    0    0  0.13980283298E+03 -0.19744081513E+02 -0.69365215550E+02  0.20098171019E+03  0.12508978312E+03 0.  0.
         23    2    1    2    0    0 -0.13980283298E+03  0.19744081513E+02 -0.67178577546E+02  0.18098135381E+03  0.91140705955E+02 0.  0.
          5    1    3    3  502    0  0.10675407767E+03 -0.67502320135E+02 -0.66209182998E+02  0.14266788229E+03  0.41800000000E+01 0.  1.
         -5    1    3    3    0  502  0.33048755302E+02  0.47758238622E+02 -0.31560325523E+01  0.58313827904E+02  0.41800000000E+01 0.  1.
        -11    1    4    4    0    0 -0.80647047821E+02  0.16087702430E+02  0.10900441344E+02  0.82955289844E+02  0.00000000000E+00 0. -1.
         11    1    4    4    0    0 -0.59155785156E+02  0.36563790823E+01 -0.78079018890E+02  0.98026063964E+02  0.00000000000E+00 0.  1.
</event>
<event>
 8    1  0.6380400E-009  0.1583678E+03  0.7561462E-02  0.1190552E+00
         -1   -1    0    0    0  501 -0.00000000000E+00  0.00000000000E+00  0.43519224302E+03  0.43519224302E+03  0.00000000000E+00 0.  1.
          1   -1    0    0  501    0  0.00000000000E+00 -0.00000000000E+00 -0.68770219758E+02  0.68770219758E+02  0.00000000000E+00 0. -1.
         25    2    1    2    0    0  0.45918442253E+02 -0.10637663937E+03  0.29002821876E+03  0.33643546950E+03  0.12509182515E+03 0.  0.
         23    2    1    2    0    0 -0.45918442253E+02  0.10637663937E+03  0.76393804499E+02  0.16752699327E+03  0.93833828476E+02 0.  0.
          5    1    3    3  502    0 -0.10461504069E+02  0.23829356030E+02  0.67765695992E+02  0.72711369328E+02  0.41800000000E+01 0.  1.
         -5    1    3    3    0  502  0.56379946322E+02 -0.13020599540E+03  0.22226252277E+03  0.26372410017E+03  0.41800000000E+01 0.  1.
        -11    1    4    4    0    0 -0.71446580224E+02  0.98555183320E+02  0.68533263184E+02  0.13969447429E+03  0.00000000000E+00 0.  1.
         11    1    4    4    0    0  0.25528137972E+02  0.78214560500E+01  0.78605413146E+01  0.27832518981E+02  0.00000000000E+00 0. -1.
</event>
<event>
 8    1  0.6380400E-009  0.1109953E+03  0.7561462E-02  0.1258738E+00
          1   -1    0    0  501    0  0.00000000000E+00  0.00000000000E+00  0.38390148672E+03  0.38390148672E+03  0.00000000000E+00 0. -1.
         -1   -1    0    0    0  501 -0.00000000000E+00 -0.00000000000E+00 -0.67465951594E+02  0.67465951594E+02  0.00000000000E+00 0.  1.
         25    2    1    2    0    0  0.53174785785E+02  0.31154636387E+02  0.27665331558E+02  0.14216881590E+03  0.12509369461E+03 0.  0.
         23    2    1    2    0    0 -0.53174785785E+02 -0.31154636387E+02  0.28877020357E+03  0.30919862242E+03  0.91746326489E+02 0.  0.
          5    1    3    3  502    0  0.35902894564E+02 -0.31035054927E+02 -0.29342822761E+02  0.55952355803E+02  0.41800000000E+01 0. -1.
         -5    1    3    3    0  502  0.17271891222E+02  0.62189691314E+02  0.57008154319E+02  0.86216460093E+02  0.41800000000E+01 0. -1.
        -11    1    4    4    0    0 -0.75203529973E+02 -0.48490861778E+01  0.21539772281E+03  0.22820005160E+03  0.00000000000E+00 0. -1.
         11    1    4    4    0    0  0.22028744188E+02 -0.26305550209E+02  0.73372480759E+02  0.80998570821E+02  0.00000000000E+00 0.  1.
</event>
<event>
 8    1  0.6380400E-009  0.7043715E+02  0.7561462E-02  0.1358613E+00
         -1   -1    0    0    0  501 -0.00000000000E+00  0.00000000000E+00  0.25965008600E+03  0.25965008600E+03  0.00000000000E+00 0.  1.
          1   -1    0    0  501    0  0.00000000000E+00 -0.00000000000E+00 -0.47142264044E+02  0.47142264044E+02  0.00000000000E+00 0. -1.
         25    2    1    2    0    0  0.18589173304E+02  0.12810289364E+02  0.11186904942E+03  0.16932606707E+03  0.12508785671E+03 0.  0.
         23    2    1    2    0    0 -0.18589173304E+02 -0.12810289364E+02  0.10063877254E+03  0.13746628297E+03  0.90879896219E+02 0.  0.
          5    1    3    3  502    0 -0.15575320079E+02 -0.44017142771E+00  0.12804192648E+03  0.12905421994E+03  0.41800000000E+01 0. -1.
         -5    1    3    3    0  502  0.34164493383E+02  0.13250460792E+02 -0.16172877066E+02  0.40271847138E+02  0.41800000000E+01 0. -1.
        -11    1    4    4    0    0  0.31127165921E+02 -0.20895989277E+02  0.67377740920E+02  0.77105789650E+02  0.00000000000E+00 0.  1.
         11    1    4    4    0    0 -0.49716339225E+02  0.80856999131E+01  0.33261031618E+02  0.60360493315E+02  0.00000000000E+00 0. -1.
</event>
<event>
 8    1  0.6380400E-009  0.9513388E+02  0.7561462E-02  0.1290875E+00
          3   -1    0    0  501    0  0.00000000000E+00  0.00000000000E+00  0.69942402836E+02  0.69942402836E+02  0.00000000000E+00 0. -1.
         -3   -1    0    0    0  501 -0.00000000000E+00 -0.00000000000E+00 -0.20878571322E+03  0.20878571322E+03  0.00000000000E+00 0.  1.
         25    2    1    2    0    0  0.27746944414E+02 -0.49220892516E+01 -0.12637975982E+03  0.18003771382E+03  0.12509042657E+03 0.  0.
         23    2    1    2    0    0 -0.27746944414E+02  0.49220892516E+01 -0.12463550566E+02  0.98690402235E+02  0.93756789160E+02 0.  0.
          5    1    3    3  502    0 -0.31603141287E+02  0.35635824620E+02 -0.83530050616E+02  0.96246622234E+02  0.41800000000E+01 0.  1.
         -5    1    3    3    0  502  0.59350085701E+02 -0.40557913872E+02 -0.42849709200E+02  0.83791091584E+02  0.41800000000E+01 0.  1.
        -11    1    4    4    0    0 -0.24957850237E+02  0.33477534016E+02  0.27128389168E+02  0.49795472396E+02  0.00000000000E+00 0. -1.
         11    1    4    4    0    0 -0.27890941764E+01 -0.28555444765E+02 -0.39591939734E+02  0.48894929839E+02  0.00000000000E+00 0.  1.
</event>
<event>
 8    1  0.6380400E-009  0.1975869E+03  0.7561462E-02  0.1151791E+00
          2   -1    0    0  501    0  0.00000000000E+00  0.00000000000E+00  0.38421214111E+03  0.38421214111E+03  0.00000000000E+00 0. -1.
         -2   -1    0    0    0  501 -0.00000000000E+00 -0.00000000000E+00 -0.20001049199E+03  0.20001049199E+03  0.00000000000E+00 0.  1.
         25    2    1    2    0    0 -0.63826117014E+01  0.19310358203E+03  0.26984126476E+03  0.35467050379E+03  0.12508847655E+03 0.  0.
         23    2    1    2    0    0  0.63826117014E+01 -0.19310358203E+03 -0.85639615643E+02  0.22955212930E+03  0.89611970048E+02 0.  0.
          5    1    3    3  502    0 -0.67617328925E+01  0.68831988561E+02  0.20086000696E+03  0.21247535970E+03  0.41800000000E+01 0. -1.
         -5    1    3    3    0  502  0.37912119118E+00  0.12427159347E+03  0.68981257798E+02  0.14219514409E+03  0.41800000000E+01 0. -1.
        -11    1    4    4    0    0  0.26978083004E+02 -0.48667414384E+02  0.79609297275E+01  0.56211303023E+02  0.00000000000E+00 0. -1.
         11    1    4    4    0    0 -0.20595471303E+02 -0.14443616765E+03 -0.93600545370E+02  0.17334082628E+03  0.00000000000E+00 0.  1.
</event>
<event>
 8    1  0.6380400E-009  0.1162825E+03  0.7561462E-02  0.1249359E+00
          1   -1    0    0  501    0  0.00000000000E+00  0.00000000000E+00  0.83156960404E+02  0.83156960404E+02  0.00000000000E+00 0. -1.
         -1   -1    0    0    0  501 -0.00000000000E+00 -0.00000000000E+00 -0.21514819806E+03  0.21514819806E+03  0.00000000000E+00 0.  1.
         25    2    1    2    0    0 -0.50576442507E+02 -0.45507077473E+02 -0.31109062165E+02  0.14575348543E+03  0.12508970433E+03 0.  0.
         23    2    1    2    0    0  0.50576442507E+02  0.45507077473E+02 -0.10088217549E+03  0.15255167303E+03  0.92010482969E+02 0.  0.
          5    1    3    3  502    0 -0.81223019789E+02 -0.12680037639E+02 -0.50596846347E+02  0.96620264740E+02  0.41800000000E+01 0. -1.
         -5    1    3    3    0  502  0.30646577282E+02 -0.32827039834E+02  0.19487784182E+02  0.49133220693E+02  0.41800000000E+01 0. -1.
        -11    1    4    4    0    0  0.40205000231E+02 -0.15631403415E+02 -0.72479043185E+02  0.84344499034E+02  0.00000000000E+00 0.  1.
         11    1    4    4    0    0  0.10371442277E+02  0.61138480887E+02 -0.28403132310E+02  0.68207174000E+02  0.00000000000E+00 0. -1.
</event>
<event>
 7    1  0.6380400E-009  0.2458022E+03  0.7561462E-02  0.1115987E+00
          2   -1    0    0  501    0  0.00000000000E+00  0.00000000000E+00  0.11024688869E+04  0.11024688869E+04  0.00000000000E+00 0. -1.
         -2   -1    0    0    0  501 -0.00000000000E+00 -0.00000000000E+00 -0.91126724882E+02  0.91126724882E+02  0.00000000000E+00 0.  1.
         23    2    1    2    0    0 -0.17122604341E+03  0.14480117425E+03  0.12804277148E+03  0.27374927074E+03  0.90873394894E+02 0.  0.
          5    1    1    2  502    0  0.71227824537E+02  0.39411662669E+01  0.34995318029E+03  0.35717451838E+03  0.41800000000E+01 0. -1.
         -5    1    1    2    0  502  0.99998218870E+02 -0.14874234051E+03  0.53334621023E+03  0.56267182265E+03  0.41800000000E+01 0. -1.
        -11    1    3    3    0    0 -0.84103677371E+01  0.53580575858E+02  0.40027031594E+02  0.67407534097E+02  0.00000000000E+00 0. -1.
         11    1    3    3    0    0 -0.16281567567E+03  0.91220598388E+02  0.88015739888E+02  0.20634173665E+03  0.00000000000E+00 0.  1.
</event>
<event>
 8    1  0.6380400E-009  0.1064520E+03  0.7561462E-02  0.1267285E+00
         -3   -1    0    0    0  501 -0.00000000000E+00  0.00000000000E+00  0.54988961236E+02  0.54988961236E+02  0.00000000000E+00 0.  1.
          3   -1    0    0  501    0  0.00000000000E+00 -0.00000000000E+00 -0.40663758030E+03  0.40663758030E+03  0.00000000000E+00 0. -1.
         25    2    1    2    0    0 -0.20932694669E+02 -0.48805304339E+02 -0.53697308699E+02  0.14612481246E+03  0.12509566106E+03 0.  0.
         23    2    1    2    0    0  0.20932694669E+02  0.48805304339E+02 -0.29795131037E+03  0.31550172908E+03  0.89141585501E+02 0.  0.
          5    1    3    3  502    0 -0.11647612523E+02  0.36778355687E+02  0.86424125334E+01  0.39755226310E+02  0.41800000000E+01 0. -1.
         -5    1    3    3    0  502 -0.92850821465E+01 -0.85583660026E+02 -0.62339721232E+02  0.10636958615E+03  0.41800000000E+01 0. -1.
        -11    1    4    4    0    0 -0.13755963280E+02  0.51320863735E+02 -0.88827228980E+02  0.10350523749E+03  0.00000000000E+00 0.  1.
         11    1    4    4    0    0  0.34688657949E+02 -0.25155593960E+01 -0.20912408139E+03  0.21199649159E+03  0.00000000000E+00 0. -1.
</event>
<event>
 8    1  0.6380400E-009  0.1019111E+03  0.7561462E-02  0.1276328E+00
         -1   -1    0    0    0  501 -0.00000000000E+00  0.00000000000E+00  0.11229970104E+03  0.11229970104E+03  0.00000000000E+00 0.  1.
          1   -1    0    0  501    0  0.00000000000E+00 -0.00000000000E+00 -0.15612277657E+03  0.15612277657E+03  0.00000000000E+00 0. -1.
         25    2    1    2    0    0 -0.54685950034E+02 -0.52547470870E+02 -0.49150570575E+02  0.15434468972E+03  0.12511880287E+03 0.  0.
         23    2    1    2    0    0  0.54685950034E+02  0.52547470870E+02  0.53274950505E+01  0.11407778789E+03  0.85050394835E+02 0.  0.
          5    1    3    3  502    0 -0.28249209713E+01 -0.36642850160E+02  0.37087049322E+02  0.52379387871E+02  0.41800000000E+01 0. -1.
         -5    1    3    3    0  502 -0.51861029063E+02 -0.15904620711E+02 -0.86237619897E+02  0.10196530185E+03  0.41800000000E+01 0. -1.
        -11    1    4    4    0    0  0.52412050734E+02 -0.69641936832E+01  0.11795571208E+02  0.54172488921E+02  0.00000000000E+00 0.  1.
         11    1    4    4    0    0  0.22738993001E+01  0.59511664554E+02 -0.64680761579E+01  0.59905298974E+02  0.00000000000E+00 0. -1.
</event>
<event>
 8    1  0.6380400E-009  0.9732855E+02  0.7561462E-02  0.1286016E+00
          2   -1    0    0  501    0  0.00000000000E+00  0.00000000000E+00  0.14339590951E+03  0.14339590951E+03  0.00000000000E+00 0. -1.
         -2   -1    0    0    0  501 -0.00000000000E+00 -0.00000000000E+00 -0.22211372861E+03  0.22211372861E+03  0.00000000000E+00 0.  1.
         25    2    1    2    0    0  0.56183545846E+02  0.64177692682E+02 -0.15767039672E+03  0.21856588082E+03  0.12504288544E+03 0.  0.
         23    2    1    2    0    0 -0.56183545846E+02 -0.64177692682E+02  0.78952577617E+02  0.14694375729E+03  0.89908793963E+02 0.  0.
          5    1    3    3  502    0  0.19826383700E+02  0.43435268337E+02  0.71524345843E+01  0.48459650706E+02  0.41800000000E+01 0. -1.
         -5    1    3    3    0  502  0.36357162146E+02  0.20742424345E+02 -0.16482283130E+03  0.17010623012E+03  0.41800000000E+01 0. -1.
        -11    1    4    4    0    0 -0.69429065236E+02 -0.54137777218E+02  0.90844503116E+02  0.12650698703E+03  0.00000000000E+00 0. -1.
         11    1    4    4    0    0  0.13245519390E+02 -0.10039915463E+02 -0.11891925499E+02  0.20436770256E+02  0.00000000000E+00 0.  1.
</event>
<event>
 8    1  0.6380400E-009  0.9542392E+02  0.7561462E-02  0.1290224E+00
         -2   -1    0    0    0  501 -0.00000000000E+00  0.00000000000E+00  0.68882603151E+02  0.68882603151E+02  0.00000000000E+00 0.  1.
          2   -1    0    0  501    0  0.00000000000E+00 -0.00000000000E+00 -0.19025489452E+03  0.19025489452E+03  0.00000000000E+00 0. -1.
         25    2    1    2    0    0 -0.19548723640E+02  0.25076845109E+02 -0.70470167163E+02  0.14705258029E+03  0.12508963248E+03 0.  0.
         23    2    1    2    0    0  0.19548723640E+02 -0.25076845109E+02 -0.50902124205E+02  0.11208491738E+03  0.94662567567E+02 0.  0.
          5    1    3    3  502    0 -0.63331888594E+02  0.27588452702E+02 -0.75842477066E+02  0.10267231644E+03  0.41800000000E+01 0. -1.
         -5    1    3    3    0  502  0.43783164955E+02 -0.25116075928E+01  0.53723099029E+01  0.44380263855E+02  0.41800000000E+01 0. -1.
        -11    1    4    4    0    0  0.43598206843E+02 -0.10769474298E+01  0.77575205977E+01  0.44296078625E+02  0.00000000000E+00 0.  1.
         11    1    4    4    0    0 -0.24049483204E+02 -0.23999897679E+02 -0.58659644803E+02  0.67788838752E+02  0.00000000000E+00 0. -1.
</event>
<event>
 8    1  0.6380400E-009  0.1367320E+03  0.7561462E-02  0.1217795E+00
          1   -1    0    0  501    0  0.00000000000E+00  0.00000000000E+00  0.39878623075E+02  0.39878623075E+02  0.00000000000E+00 0. -1.
         -1   -1    0    0    0  501 -0.00000000000E+00 -0.00000000000E+00 -0.48427887008E+03  0.48427887008E+03  0.00000000000E+00 0.  1.
         25    2    1    2    0    0 -0.35115643733E+02 -0.76972473400E+02 -0.27993812841E+03  0.31807370742E+03  0.12509059722E+03 0.  0.
         23    2    1    2    0    0  0.35115643733E+02  0.76972473400E+02 -0.16446211860E+03  0.20608378574E+03  0.90911320511E+02 0.  0.
          5    1    3    3  502    0  0.24448413162E+02 -0.86977514941E+02 -0.16472575842E+03  0.18792248641E+03  0.41800000000E+01 0. -1.
         -5    1    3    3    0  502 -0.59564056895E+02  0.10005041541E+02 -0.11521237000E+03  0.13015122101E+03  0.41800000000E+01 0. -1.
        -11    1    4    4    0    0  0.52371852220E+02  0.87707024740E+02 -0.14849468145E+03  0.18023874032E+03  0.00000000000E+00 0. -1.
         11    1    4    4    0    0 -0.17256208487E+02 -0.10734551340E+02 -0.15967437146E+02  0.25845045422E+02  0.00000000000E+00 0.  1.
</event>
<event>
 8    1  0.6380400E-009  0.1145904E+03  0.7561462E-02  0.1252298E+00
          2   -1    0    0  501    0  0.00000000000E+00  0.00000000000E+00  0.43649192922E+03  0.43649192922E+03  0.00000000000E+00 0. -1.
         -2   -1    0    0    0  501 -0.00000000000E+00 -0.00000000000E+00 -0.48779417697E+02  0.48779417697E+02  0.00000000000E+00 0.  1.
         25    2    1    2    0    0  0.12450723378E+02 -0.46143911940E+02  0.35274344812E+03  0.37730603034E+03  0.12509044414E+03 0.  0.
         23    2    1    2    0    0 -0.12450723378E+02  0.46143911940E+02  0.34969063406E+02  0.10796531658E+03  0.90273988876E+02 0.  0.
          5    1    3    3  502    0 -0.85913008629E+01 -0.83491867219E+02  0.17106978347E+03  0.19059655180E+03  0.41800000000E+01 0. -1.
         -5    1    3    3    0  502  0.21042024241E+02  0.37347955278E+02  0.18167366465E+03  0.18670947853E+03  0.41800000000E+01 0. -1.
        -11    1    4    4    0    0 -0.49425213114E+02  0.10119268966E+02  0.15253123323E+02  0.52705873172E+02  0.00000000000E+00 0.  1.
         11    1    4    4    0    0  0.36974489736E+02  0.36024642975E+02  0.19715940083E+02  0.55259443411E+02  0.00000000000E+00 0. -1.
</event>
<event>
 8    1  0.6380400E-009  0.1839283E+03  0.7561462E-02  0.1164054E+00
          1   -1    0    0  501    0  0.00000000000E+00  0.00000000000E+00  0.99031977900E+02  0.99031977900E+02  0.00000000000E+00 0. -1.
         -1   -1    0    0    0  501 -0.00000000000E+00 -0.00000000000E+00 -0.40725325399E+03  0.40725325399E+03  0.00000000000E+00 0.  1.
         25    2    1    2    0    0 -0.66942911079E+02  0.14827744865E+03 -0.21759448531E+03  0.29910163395E+03  0.12508745851E+03 0.  0.
         23    2    1    2    0    0  0.66942911079E+02 -0.14827744865E+03 -0.90626790789E+02  0.20718359794E+03  0.90797978648E+02 0.  0.
          5    1    3    3  502    0 -0.70811566524E+02  0.15954717629E+02 -0.80759185113E+02  0.10866622911E+03  0.41800000000E+01 0.  1.
         -5    1    3    3    0  502  0.38686554448E+01  0.13232273102E+03 -0.13683530019E+03  0.19043540484E+03  0.41800000000E+01 0.  1.
        -11    1    4    4    0    0  0.31931985411E+02 -0.67969066668E+02 -0.93011113049E+02  0.11954293315E+03  0.00000000000E+00 0.  1.
         11    1    4    4    0    0  0.35010925668E+02 -0.80308381981E+02  0.23843222592E+01  0.87640664792E+02  0.00000000000E+00 0. -1.
</event>
<event>
 8    1  0.6380400E-009  0.1180543E+03  0.7561462E-02  0.1246342E+00
          3   -1    0    0  501    0  0.00000000000E+00  0.00000000000E+00  0.10947406597E+04  0.10947406597E+04  0.00000000000E+00 0. -1.
         -3   -1    0    0    0  501 -0.00000000000E+00 -0.00000000000E+00 -0.19266355400E+02  0.19266355400E+02  0.00000000000E+00 0.  1.
         25    2    1    2    0    0 -0.31123102326E+02 -0.91575753650E+02  0.57616116939E+03  0.59746459606E+03  0.12508990481E+03 0.  0.
         23    2    1    2    0    0  0.31123102326E+02  0.91575753650E+02  0.49931313493E+03  0.51654241906E+03  0.90264598898E+02 0.  0.
          5    1    3    3  502    0 -0.32598676689E+02 -0.38778611374E+02  0.60201904820E+02  0.78792107256E+02  0.41800000000E+01 0.  1.
         -5    1    3    3    0  502  0.14755743638E+01 -0.52797142276E+02  0.51595926457E+03  0.51867248881E+03  0.41800000000E+01 0.  1.
        -11    1    4    4    0    0  0.81226589841E+01  0.10523155454E+03  0.39685026037E+03  0.41064557324E+03  0.00000000000E+00 0.  1.
         11    1    4    4    0    0  0.23000443342E+02 -0.13655800891E+02  0.10246287456E+03  0.10589684582E+03  0.00000000000E+00 0. -1.
</event>
<event>
 8    1  0.6380400E-009  0.8245640E+02  0.7561462E-02  0.1322222E+00
         -2   -1    0    0    0  501 -0.00000000000E+00  0.00000000000E+00  0.30917769236E+03  0.30917769236E+03  0.00000000000E+00 0.  1.
          2   -1    0    0  501    0  0.00000000000E+00 -0.00000000000E+00 -0.44446756610E+02  0.44446756610E+02  0.00000000000E+00 0. -1.
         25    2    1    2    0    0  0.25193914743E+02 -0.30502672540E+02  0.18025371573E+03  0.22294364198E+03  0.12508924451E+03 0.  0.
         23    2    1    2    0    0 -0.25193914743E+02  0.30502672540E+02  0.84477220023E+02  0.13068080700E+03  0.91520086550E+02 0.  0.
          5    1    3    3  502    0 -0.13609528701E+02  0.14370385904E+02 -0.10741561200E+02  0.22903728943E+02  0.41800000000E+01 0. -1.
         -5    1    3    3    0  502  0.38803443444E+02 -0.44873058444E+02  0.19099527693E+03  0.20003991303E+03  0.41800000000E+01 0. -1.
        -11    1    4    4    0    0  0.15799367993E+02 -0.16500964456E+02  0.59074078002E+02  0.63337576120E+02  0.00000000000E+00 0.  1.
         11    1    4    4    0    0 -0.40993282736E+02  0.47003636996E+02  0.25403142021E+02  0.67343230876E+02  0.00000000000E+00 0. -1.
</event>
<event>
 8    1  0.6380400E-009  0.1131279E+03  0.7561462E-02  0.1254885E+00
         -2   -1    0    0    0  501 -0.00000000000E+00  0.00000000000E+00  0.13683843648E+02  0.13683843648E+02  0.00000000000E+00 0.  1.
          2   -1    0    0  501    0  0.00000000000E+00 -0.00000000000E+00 -0.12035191884E+04  0.12035191884E+04  0.00000000000E+00 0. -1.
         25    2    1    2    0    0 -0.68032825916E+02 -0.94979087896E+01 -0.69952284678E+03  0.71393180443E+03  0.12509089708E+03 0.  0.
         23    2    1    2    0    0  0.68032825916E+02  0.94979087896E+01 -0.49031249800E+03  0.50327122765E+03  0.90315597828E+02 0.  0.
          5    1    3    3  502    0 -0.67616083694E+02 -0.43560442051E+02 -0.64136451693E+03  0.64640185864E+03  0.41800000000E+01 0. -1.
         -5    1    3    3    0  502 -0.41674222246E+00  0.34062533261E+02 -0.58158329859E+02  0.67529945789E+02  0.41800000000E+01 0. -1.
        -11    1    4    4    0    0 -0.18529259467E+02 -0.12160461756E+02 -0.64250761392E+02  0.67965951961E+02  0.00000000000E+00 0.  1.
         11    1    4    4    0    0  0.86562085383E+02  0.21658370546E+02 -0.42606173661E+03  0.43530527569E+03  0.00000000000E+00 0. -1.
</event>
<event>
 8    1  0.6380400E-009  0.1273054E+03  0.7561462E-02  0.1231510E+00
         -2   -1    0    0    0  501 -0.00000000000E+00  0.00000000000E+00  0.43935061585E+02  0.43935061585E+02  0.00000000000E+00 0.  1.
          2   -1    0    0  501    0  0.00000000000E+00 -0.00000000000E+00 -0.36996902101E+03  0.36996902101E+03  0.00000000000E+00 0. -1.
         25    2    1    2    0    0  0.51876728930E+02  0.47452660008E+02 -0.18178227898E+03  0.23159415169E+03  0.12509238266E+03 0.  0.
         23    2    1    2    0    0 -0.51876728930E+02 -0.47452660008E+02 -0.14425168045E+03  0.18230993091E+03  0.86518285053E+02 0.  0.
          5    1    3    3  502    0  0.71026401640E+02 -0.19225638663E+02 -0.10096867911E+03  0.12500608574E+03  0.41800000000E+01 0. -1.
         -5    1    3    3    0  502 -0.19149672710E+02  0.66678298671E+02 -0.80813599870E+02  0.10658806595E+03  0.41800000000E+01 0. -1.
        -11    1    4    4    0    0 -0.14323948081E+02 -0.67388414818E+02 -0.92367703720E+02  0.11523092741E+03  0.00000000000E+00 0. -1.
         11    1    4    4    0    0 -0.37552780850E+02  0.19935754810E+02 -0.51883976727E+02  0.67079003499E+02  0.00000000000E+00 0.  1.
</event>
<event>
 8    1  0.6380400E-009  0.7009842E+02  0.7561462E-02  0.1359759E+00
         -1   -1    0    0    0  501 -0.00000000000E+00  0.00000000000E+00  0.42811946984E+02  0.42811946984E+02  0.00000000000E+00 0.  1.
          1   -1    0    0  501    0  0.00000000000E+00 -0.00000000000E+00 -0.63706783095E+03  0.63706783095E+03  0.00000000000E+00 0. -1.
         25    2    1    2    0    0 -0.60183271640E+01  0.25315224637E+02 -0.56491192710E+03  0.57918241048E+03  0.12509875450E+03 0.  0.
         23    2    1    2    0    0  0.60183271640E+01 -0.25315224637E+02 -0.29343956869E+02  0.10069736745E+03  0.92745949487E+02 0.  0.
          5    1    3    3  502    0 -0.37618717142E+02  0.66110998115E+01 -0.50554177995E+02  0.63498597094E+02  0.41800000000E+01 0.  1.
         -5    1    3    3    0  502  0.31600389978E+02  0.18704124826E+02 -0.51435774910E+03  0.51568381339E+03  0.41800000000E+01 0.  1.
        -11    1    4    4    0    0  0.32628598226E+02 -0.10068324800E+02 -0.52250150753E+02  0.62418545643E+02  0.00000000000E+00 0. -1.
         11    1    4    4    0    0 -0.26610271062E+02 -0.15246899837E+02  0.22906193884E+02  0.38278821806E+02  0.00000000000E+00 0.  1.
</event>
<event>
 8    1  0.6380400E-009  0.2325697E+03  0.7561462E-02  0.1124844E+00
         -1   -1    0    0    0  501 -0.00000000000E+00  0.00000000000E+00  0.11984587336E+03  0.11984587336E+03  0.00000000000E+00 0. -1.
          1   -1    0    0  501    0  0.00000000000E+00 -0.00000000000E+00 -0.10192026900E+04  0.10192026900E+04  0.00000000000E+00 0.  1.
         25    2    1    2    0    0  0.19924884033E+03 -0.10062947892E+03 -0.85559688011E+03  0.89304213409E+03  0.12510731236E+03 0.  0.
         23    2    1    2    0    0 -0.19924884033E+03  0.10062947892E+03 -0.43759936517E+02  0.24600642926E+03  0.93690121103E+02 0.  0.
          5    1    3    3  502    0  0.17755028259E+03 -0.88808034122E+02 -0.84082173452E+03  0.86395001673E+03  0.41800000000E+01 0. -1.
         -5    1    3    3    0  502  0.21698557740E+02 -0.11821444796E+02 -0.14775145590E+02  0.29092117356E+02  0.41800000000E+01 0. -1.
        -11    1    4    4    0    0 -0.10432258032E+03  0.16005422059E+01 -0.27280382922E+02  0.10784239330E+03  0.00000000000E+00 0.  1.
         11    1    4    4    0    0 -0.94926260009E+02  0.99028936712E+02 -0.16479553594E+02  0.13816403596E+03  0.00000000000E+00 0. -1.
</event>
<event>
 8    1  0.6380400E-009  0.1378286E+03  0.7561462E-02  0.1216281E+00
          1   -1    0    0  501    0  0.00000000000E+00  0.00000000000E+00  0.21019064303E+03  0.21019064303E+03  0.00000000000E+00 0. -1.
         -1   -1    0    0    0  501 -0.00000000000E+00 -0.00000000000E+00 -0.16267739057E+03  0.16267739057E+03  0.00000000000E+00 0.  1.
         25    2    1    2    0    0 -0.12441706103E+03  0.79256781805E+01 -0.56837337185E+02  0.18552747873E+03  0.12509013156E+03 0.  0.
         23    2    1    2    0    0  0.12441706103E+03 -0.79256781805E+01  0.10435058964E+03  0.18734055488E+03  0.93086070361E+02 0.  0.
          5    1    3    3  502    0  0.56873761864E+01 -0.89988638305E+00  0.28666066967E+02  0.29535941474E+02  0.41800000000E+01 0.  1.
         -5    1    3    3    0  502 -0.13010443721E+03  0.88255645635E+01 -0.85503404152E+02  0.15599153725E+03  0.41800000000E+01 0.  1.
        -11    1    4    4    0    0  0.12349249662E+03 -0.20741626750E+02  0.11547998190E+03  0.17034153346E+03  0.00000000000E+00 0. -1.
         11    1    4    4    0    0  0.92456440356E+00  0.12815948569E+02 -0.11129392260E+02  0.16999021418E+02  0.00000000000E+00 0.  1.
</event>
<event>
 8    1  0.6380400E-009  0.1082443E+03  0.7561462E-02  0.1263856E+00
          3   -1    0    0  501    0  0.00000000000E+00  0.00000000000E+00  0.52266297989E+02  0.52266297989E+02  0.00000000000E+00 0. -1.
         -3   -1    0    0    0  501 -0.00000000000E+00 -0.00000000000E+00 -0.33767511223E+03  0.33767511223E+03  0.00000000000E+00 0.  1.
         25    2    1    2    0    0  0.55853392430E+02 -0.11844714179E+02 -0.18306108216E+03  0.22896923102E+03  0.12512254095E+03 0.  0.
         23    2    1    2    0    0 -0.55853392430E+02  0.11844714179E+02 -0.10234773208E+03  0.16097217920E+03  0.11034983241E+03 0.  0.
          5    1    3    3  502    0  0.65023322020E+02 -0.34615380223E+02 -0.18940882355E+03  0.20327181750E+03  0.41800000000E+01 0. -1.
         -5    1    3    3    0  502 -0.91699295902E+01  0.22770666044E+02  0.63477413850E+01  0.25697413517E+02  0.41800000000E+01 0. -1.
        -11    1    4    4    0    0  0.26981321090E+02 -0.14822310744E+02 -0.64060314562E+01  0.31444074522E+02  0.00000000000E+00 0. -1.
         11    1    4    4    0    0 -0.82834713520E+02  0.26667024924E+02 -0.95941700626E+02  0.12952810468E+03  0.00000000000E+00 0.  1.
</event>
<event>
 8    1  0.6380400E-009  0.7029673E+02  0.7561462E-02  0.1359087E+00
          1   -1    0    0  501    0  0.00000000000E+00  0.00000000000E+00  0.28540439832E+03  0.28540439832E+03  0.00000000000E+00 0. -1.
         -1   -1    0    0    0  501 -0.00000000000E+00 -0.00000000000E+00 -0.42884743438E+02  0.42884743438E+02  0.00000000000E+00 0.  1.
         25    2    1    2    0    0  0.10240756380E+02 -0.12598992951E+02  0.85056182682E+02  0.15213791773E+03  0.12509110313E+03 0.  0.
         23    2    1    2    0    0 -0.10240756380E+02  0.12598992951E+02  0.15746347220E+03  0.17615122403E+03  0.77271604980E+02 0.  0.
          5    1    3    3  502    0  0.39395965692E+02  0.20323408767E+02 -0.11473731583E+02  0.45980452077E+02  0.41800000000E+01 0.  1.
         -5    1    3    3    0  502 -0.29155209312E+02 -0.32922401718E+02  0.96529914265E+02  0.10615746565E+03  0.41800000000E+01 0.  1.
        -11    1    4    4    0    0  0.15066835247E+02  0.20445158786E+02  0.11635315144E+02  0.27935543679E+02  0.00000000000E+00 0.  1.
         11    1    4    4    0    0 -0.25307591627E+02 -0.78461658354E+01  0.14582815705E+03  0.14821568035E+03  0.00000000000E+00 0. -1.
</event>
<event>
 8    1  0.6380400E-009  0.8296202E+02  0.7561462E-02  0.1320850E+00
          2   -1    0    0  501    0  0.00000000000E+00  0.00000000000E+00  0.10814170734E+03  0.10814170734E+03  0.00000000000E+00 0. -1.
         -2   -1    0    0    0  501 -0.00000000000E+00 -0.00000000000E+00 -0.13571288746E+03  0.13571288746E+03  0.00000000000E+00 0.  1.
         25    2    1    2    0    0 -0.38444998438E+02 -0.16682864426E+02  0.18823687589E+02  0.13325140194E+03  0.12508104986E+03 0.  0.
         23    2    1    2    0    0  0.38444998438E+02  0.16682864426E+02 -0.46394867714E+02  0.11060319286E+03  0.91237309532E+02 0.  0.
          5    1    3    3  502    0 -0.11705213013E+01  0.23297799884E+02  0.60116446462E+02  0.64619015273E+02  0.41800000000E+01 0.  1.
         -5    1    3    3    0  502 -0.37274477137E+02 -0.39980664310E+02 -0.41292758874E+02  0.68632386669E+02  0.41800000000E+01 0.  1.
        -11    1    4    4    0    0  0.25743290001E+02 -0.29705793023E+02 -0.48538742400E+02  0.62459271793E+02  0.00000000000E+00 0.  1.
         11    1    4    4    0    0  0.12701708438E+02  0.46388657449E+02  0.21438746860E+01  0.48143921068E+02  0.00000000000E+00 0. -1.
</event>
<event>
 8    1  0.6380400E-009  0.8255780E+02  0.7561462E-02  0.1321946E+00
          2   -1    0    0  501    0  0.00000000000E+00  0.00000000000E+00  0.14237460842E+03  0.14237460842E+03  0.00000000000E+00 0. -1.
         -2   -1    0    0    0  501 -0.00000000000E+00 -0.00000000000E+00 -0.92420209383E+02  0.92420209383E+02  0.00000000000E+00 0.  1.
         25    2    1    2    0    0  0.35409927812E+02  0.15881951778E+02  0.32732308955E+02  0.13499983542E+03  0.12508977630E+03 0.  0.
         23    2    1    2    0    0 -0.35409927812E+02 -0.15881951778E+02  0.17222090081E+02  0.99794982381E+02  0.90312450646E+02 0.  0.
          5    1    3    3  502    0  0.61602310535E+02  0.43251259460E+02 -0.11888827006E+02  0.76317315962E+02  0.41800000000E+01 0.  1.
         -5    1    3    3    0  502 -0.26192382722E+02 -0.27369307682E+02  0.44621135962E+02  0.58682519460E+02  0.41800000000E+01 0.  1.
        -11    1    4    4    0    0 -0.34460921183E+02  0.12261267118E+01 -0.32388828826E+02  0.47308505665E+02  0.00000000000E+00 0.  1.
         11    1    4    4    0    0 -0.94900662863E+00 -0.17108078490E+02  0.49610918907E+02  0.52486476716E+02  0.00000000000E+00 0. -1.
</event>
<event>
 8    1  0.6380400E-009  0.1377692E+03  0.7561462E-02  0.1216363E+00
         -1   -1    0    0    0  501 -0.00000000000E+00  0.00000000000E+00  0.47035824183E+02  0.47035824183E+02  0.00000000000E+00 0.  1.
          1   -1    0    0  501    0  0.00000000000E+00 -0.00000000000E+00 -0.59112408778E+03  0.59112408778E+03  0.00000000000E+00 0. -1.
         25    2    1    2    0    0 -0.22024173418E+02 -0.12300039277E+03 -0.26997515996E+03  0.32272002636E+03  0.12508983804E+03 0.  0.
         23    2    1    2    0    0  0.22024173418E+02  0.12300039277E+03 -0.27411310363E+03  0.31543988560E+03  0.93542327369E+02 0.  0.
          5    1    3    3  502    0  0.17125063097E+02 -0.66631917755E+01  0.67070904370E+01  0.20003084084E+02  0.41800000000E+01 0. -1.
         -5    1    3    3    0  502 -0.39149236515E+02 -0.11633720099E+03 -0.27668225040E+03  0.30271694228E+03  0.41800000000E+01 0. -1.
        -11    1    4    4    0    0  0.30340226799E+02  0.38750920760E+02 -0.31383492986E+02  0.58370256586E+02  0.00000000000E+00 0.  1.
         11    1    4    4    0    0 -0.83160533803E+01  0.84249472008E+02 -0.24272961065E+03  0.25706962902E+03  0.00000000000E+00 0. -1.
</event>
<event>
 8    1  0.6380400E-009  0.1200708E+03  0.7561462E-02  0.1242980E+00
         -1   -1    0    0    0  501 -0.00000000000E+00  0.00000000000E+00  0.31805451042E+03  0.31805451042E+03  0.00000000000E+00 0.  1.
          1   -1    0    0  501    0  0.00000000000E+00 -0.00000000000E+00 -0.68538070527E+02  0.68538070527E+02  0.00000000000E+00 0. -1.
         25    2    1    2    0    0 -0.92097642590E+02  0.11616462643E+02  0.18055399358E+03  0.23846118103E+03  0.12508825799E+03 0.  0.
         23    2    1    2    0    0  0.92097642590E+02 -0.11616462643E+02  0.68962446311E+02  0.14813139991E+03  0.92575237851E+02 0.  0.
          5    1    3    3  502    0 -0.15366868436E+02 -0.44164370008E+02  0.18149283408E+02  0.50333896253E+02  0.41800000000E+01 0.  1.
         -5    1    3    3    0  502 -0.76730774154E+02  0.55780832652E+02  0.16240471017E+03  0.18812728478E+03  0.41800000000E+01 0.  1.
        -11    1    4    4    0    0  0.31257835830E+02  0.11282147740E+02 -0.19364173627E+02  0.38461804152E+02  0.00000000000E+00 0. -1.
         11    1    4    4    0    0  0.60839806760E+02 -0.22898610384E+02  0.88326619938E+02  0.10966959576E+03  0.00000000000E+00 0.  1.
</event>
<event>
 8    1  0.6380400E-009  0.1226327E+03  0.7561462E-02  0.1238816E+00
          2   -1    0    0  501    0  0.00000000000E+00  0.00000000000E+00  0.29838137063E+03  0.29838137063E+03  0.00000000000E+00 0. -1.
         -2   -1    0    0    0  501 -0.00000000000E+00 -0.00000000000E+00 -0.52509143376E+02  0.52509143376E+02  0.00000000000E+00 0.  1.
         25    2    1    2    0    0 -0.76519630766E+01  0.58930829355E+02  0.15453449902E+03  0.20751123710E+03  0.12509439215E+03 0.  0.
         23    2    1    2    0    0  0.76519630766E+01 -0.58930829355E+02  0.91337728232E+02  0.14337927690E+03  0.93186057214E+02 0.  0.
          5    1    3    3  502    0 -0.50729327615E+02 -0.12585706000E+02  0.41203596444E+02  0.66686381186E+02  0.41800000000E+01 0. -1.
         -5    1    3    3    0  502  0.43077364539E+02  0.71516535355E+02  0.11333090257E+03  0.14082485591E+03  0.41800000000E+01 0. -1.
        -11    1    4    4    0    0  0.37911590081E+02  0.52583692723E+01  0.42722663561E+02  0.57359960701E+02  0.00000000000E+00 0. -1.
         11    1    4    4    0    0 -0.30259627004E+02 -0.64189198627E+02  0.48615064672E+02  0.86019316202E+02  0.00000000000E+00 0.  1.
</event>
<event>
 8    1  0.6380400E-009  0.1526660E+03  0.7561462E-02  0.1197235E+00
          1   -1    0    0  501    0  0.00000000000E+00  0.00000000000E+00  0.28097218921E+03  0.28097218921E+03  0.00000000000E+00 0. -1.
         -1   -1    0    0    0  501 -0.00000000000E+00 -0.00000000000E+00 -0.12942279475E+03  0.12942279475E+03  0.00000000000E+00 0.  1.
         25    2    1    2    0    0  0.14782951735E+03  0.33149059740E+02  0.42645221642E+02  0.20104232055E+03  0.12508786257E+03 0.  0.
         23    2    1    2    0    0 -0.14782951735E+03 -0.33149059740E+02  0.10890417282E+03  0.20935266341E+03  0.94952580043E+02 0.  0.
          5    1    3    3  502    0  0.12124914516E+02  0.50847452517E+01  0.59777218017E+02  0.61348646116E+02  0.41800000000E+01 0. -1.
         -5    1    3    3    0  502  0.13570460284E+03  0.28064314489E+02 -0.17131996376E+02  0.13969367444E+03  0.41800000000E+01 0. -1.
        -11    1    4    4    0    0 -0.10561004289E+03 -0.13987796534E+02  0.19022512345E+02  0.10821735345E+03  0.00000000000E+00 0.  1.
         11    1    4    4    0    0 -0.42219474459E+02 -0.19161263206E+02  0.89881660472E+02  0.10113530996E+03  0.00000000000E+00 0. -1.
</event>
<event>
 8    1  0.6380400E-009  0.9733504E+02  0.7561462E-02  0.1286002E+00
         -2   -1    0    0    0  501 -0.00000000000E+00  0.00000000000E+00  0.67507608556E+03  0.67507608556E+03  0.00000000000E+00 0.  1.
          2   -1    0    0  501    0  0.00000000000E+00 -0.00000000000E+00 -0.21801186302E+02  0.21801186302E+02  0.00000000000E+00 0. -1.
         25    2    1    2    0    0 -0.12090760245E+02  0.26203101118E+02  0.23395286666E+03  0.26686013094E+03  0.12509035405E+03 0.  0.
         23    2    1    2    0    0  0.12090760245E+02 -0.26203101118E+02  0.41932203260E+03  0.43001714093E+03  0.90834935308E+02 0.  0.
          5    1    3    3  502    0  0.94000610435E+01 -0.34570190409E+02  0.17732640373E+03  0.18095741232E+03  0.41800000000E+01 0.  1.
         -5    1    3    3    0  502 -0.21490821289E+02  0.60773291527E+02  0.56626462922E+02  0.85902718617E+02  0.41800000000E+01 0.  1.
        -11    1    4    4    0    0 -0.39079738277E+02 -0.12528505908E+02  0.14861878900E+03  0.15418084786E+03  0.00000000000E+00 0.  1.
         11    1    4    4    0    0  0.51170498523E+02 -0.13674595210E+02  0.27070324361E+03  0.27583629307E+03  0.00000000000E+00 0. -1.
</event>
<event>
 8    1  0.6380400E-009  0.1148265E+03  0.7561462E-02  0.1251884E+00
         -2   -1    0    0    0  501 -0.00000000000E+00  0.00000000000E+00  0.72224101758E+03  0.72224101758E+03  0.00000000000E+00 0. -1.
          2   -1    0    0  501    0  0.00000000000E+00 -0.00000000000E+00 -0.19500814600E+02  0.19500814600E+02  0.00000000000E+00 0.  1.
         25    2    1    2    0    0 -0.57491729239E+02  0.34365943692E+02  0.46417777327E+03  0.48538114502E+03  0.12509010245E+03 0.  0.
         23    2    1    2    0    0  0.57491729239E+02 -0.34365943692E+02  0.23856242971E+03  0.25636068715E+03  0.65745357499E+02 0.  0.
          5    1    3    3  502    0 -0.89919676893E+02  0.52557949576E+02  0.32874461216E+03  0.34487443915E+03  0.41800000000E+01 0. -1.
         -5    1    3    3    0  502  0.32427947653E+02 -0.18192005884E+02  0.13543316111E+03  0.14050670587E+03  0.41800000000E+01 0. -1.
        -11    1    4    4    0    0  0.23083076768E+01 -0.32709783775E+02  0.13584564315E+03  0.13974726116E+03  0.00000000000E+00 0.  1.
         11    1    4    4    0    0  0.55183421562E+02 -0.16561599170E+01  0.10271678656E+03  0.11661342599E+03  0.00000000000E+00 0. -1.
</event>
<event>
 8    1  0.6380400E-009  0.1530749E+03  0.7561462E-02  0.1196745E+00
         -1   -1    0    0    0  501 -0.00000000000E+00  0.00000000000E+00  0.19638087561E+03  0.19638087561E+03  0.00000000000E+00 0.  1.
          1   -1    0    0  501    0  0.00000000000E+00 -0.00000000000E+00 -0.12856652224E+03  0.12856652224E+03  0.00000000000E+00 0. -1.
         25    2    1    2    0    0  0.61900452437E+02 -0.93952734677E+02  0.60115631165E+02  0.17864338159E+03  0.12506312931E+03 0.  0.
         23    2    1    2    0    0 -0.61900452437E+02  0.93952734677E+02  0.76987222005E+01  0.14630401626E+03  0.93203071215E+02 0.  0.
          5    1    3    3  502    0  0.55912588167E+02 -0.12445930663E+03  0.44304639445E+02  0.14351553922E+03  0.41800000000E+01 0. -1.
         -5    1    3    3    0  502  0.59878642699E+01  0.30506571950E+02  0.15810991720E+02  0.35127842374E+02  0.41800000000E+01 0. -1.
        -11    1    4    4    0    0 -0.34784620853E+02  0.10376421923E+03  0.25559384345E+02  0.11238445252E+03  0.00000000000E+00 0.  1.
         11    1    4    4    0    0 -0.27115831584E+02 -0.98114845546E+01 -0.17860662144E+02  0.33919563733E+02  0.00000000000E+00 0. -1.
</event>
<event>
 8    1  0.6380400E-009  0.1097837E+03  0.7561462E-02  0.1260971E+00
          4   -1    0    0  501    0  0.00000000000E+00  0.00000000000E+00  0.31192157116E+02  0.31192157116E+02  0.00000000000E+00 0. -1.
         -4   -1    0    0    0  501 -0.00000000000E+00 -0.00000000000E+00 -0.75538272788E+03  0.75538272788E+03  0.00000000000E+00 0.  1.
         25    2    1    2    0    0 -0.14148136434E+02 -0.69178354204E+02 -0.59478592829E+03  0.61188543855E+03  0.12509066698E+03 0.  0.
         23    2    1    2    0    0  0.14148136434E+02  0.69178354204E+02 -0.12940464247E+03  0.17468944644E+03  0.93728473527E+02 0.  0.
          5    1    3    3  502    0 -0.48635861596E+02 -0.68383493495E+02 -0.22009410415E+03  0.23558573025E+03  0.41800000000E+01 0.  1.
         -5    1    3    3    0  502  0.34487725163E+02 -0.79486070887E+00 -0.37469182414E+03  0.37629970830E+03  0.41800000000E+01 0.  1.
        -11    1    4    4    0    0 -0.29199060108E+02  0.35117919428E+02 -0.15645777150E+02  0.48276740970E+02  0.00000000000E+00 0. -1.
         11    1    4    4    0    0  0.43347196541E+02  0.34060434776E+02 -0.11375886532E+03  0.12641270547E+03  0.00000000000E+00 0.  1.
</event>
<event>
 8    1  0.6380400E-009  0.1789343E+03  0.7561462E-02  0.1168838E+00
          2   -1    0    0  501    0  0.00000000000E+00  0.00000000000E+00  0.47022536781E+03  0.47022536781E+03  0.00000000000E+00 0. -1.
         -2   -1    0    0    0  501 -0.00000000000E+00 -0.00000000000E+00 -0.71907750732E+02  0.71907750732E+02  0.00000000000E+00 0.  1.
         25    2    1    2    0    0  0.26026412563E+02  0.14069373809E+03  0.26488503780E+03  0.32601174870E+03  0.12508986749E+03 0.  0.
         23    2    1    2    0    0 -0.26026412563E+02 -0.14069373809E+03  0.13343257928E+03  0.21612136984E+03  0.91826418863E+02 0.  0.
          5    1    3    3  502    0 -0.47999264861E+02  0.82148157963E+02  0.14279037741E+03  0.17163570014E+03  0.41800000000E+01 0.  1.
         -5    1    3    3    0  502  0.74025677424E+02  0.58545580128E+02  0.12209466039E+03  0.15437604855E+03  0.41800000000E+01 0.  1.
        -11    1    4    4    0    0 -0.58985563598E+02 -0.85400506618E+02  0.66550968152E+02  0.12329466576E+03  0.00000000000E+00 0.  1.
         11    1    4    4    0    0  0.32959151035E+02 -0.55293231473E+02  0.66881611124E+02  0.92826704079E+02  0.00000000000E+00 0. -1.
</event>
<event>
 8    1  0.6380400E-009  0.1857486E+03  0.7561462E-02  0.1162353E+00
          1   -1    0    0  501    0  0.00000000000E+00  0.00000000000E+00  0.13945064048E+04  0.13945064048E+04  0.00000000000E+00 0. -1.
         -1   -1    0    0    0  501 -0.00000000000E+00 -0.00000000000E+00 -0.35903269257E+02  0.35903269257E+02  0.00000000000E+00 0.  1.
         25    2    1    2    0    0  0.45539613178E+02 -0.17212273292E+03  0.95760612642E+03  0.98201703080E+03  0.12509142200E+03 0.  0.
         23    2    1    2    0    0 -0.45539613178E+02  0.17212273292E+03  0.40099700909E+03  0.44839264323E+03  0.92505511439E+02 0.  0.
          5    1    3    3  502    0  0.35025737740E+02 -0.13674319547E+03  0.91351035048E+03  0.92436147510E+03  0.41800000000E+01 0.  1.
         -5    1    3    3    0  502  0.10513875438E+02 -0.35379537452E+02  0.44095775941E+02  0.57655555698E+02  0.41800000000E+01 0.  1.
        -11    1    4    4    0    0 -0.66549188313E+02  0.13337021957E+03  0.35325083816E+03  0.38340913473E+03  0.00000000000E+00 0.  1.
         11    1    4    4    0    0  0.21009575135E+02  0.38752513353E+02  0.47746170930E+02  0.64983508500E+02  0.00000000000E+00 0. -1.
</event>
<event>
 8    1  0.6380400E-009  0.1259211E+03  0.7561462E-02  0.1233637E+00
          1   -1    0    0  501    0  0.00000000000E+00  0.00000000000E+00  0.13679123963E+03  0.13679123963E+03  0.00000000000E+00 0. -1.
         -1   -1    0    0    0  501 -0.00000000000E+00 -0.00000000000E+00 -0.12142932211E+03  0.12142932211E+03  0.00000000000E+00 0.  1.
         25    2    1    2    0    0 -0.41654657788E+02  0.56432441735E+02  0.17557085755E+02  0.14448283034E+03  0.12508919221E+03 0.  0.
         23    2    1    2    0    0  0.41654657788E+02 -0.56432441735E+02 -0.21951682310E+01  0.11373773140E+03  0.89508221889E+02 0.  0.
          5    1    3    3  502    0  0.35804734899E+00 -0.37900769461E+02 -0.56784436815E+01  0.38552738505E+02  0.41800000000E+01 0.  1.
         -5    1    3    3    0  502 -0.42012705137E+02  0.94333211196E+02  0.23235529437E+02  0.10593009183E+03  0.41800000000E+01 0.  1.
        -11    1    4    4    0    0  0.23730795152E+02  0.20504609003E+02 -0.13105922334E+02  0.33990510868E+02  0.00000000000E+00 0.  1.
         11    1    4    4    0    0  0.17923862636E+02 -0.76937050738E+02  0.10910754103E+02  0.79747220536E+02  0.00000000000E+00 0. -1.
</event>
<event>
 8    1  0.6380400E-009  0.9121953E+02  0.7561462E-02  0.1299925E+00
          2   -1    0    0  501    0  0.00000000000E+00  0.00000000000E+00  0.57765913789E+02  0.57765913789E+02  0.00000000000E+00 0. -1.
         -2   -1    0    0    0  501 -0.00000000000E+00 -0.00000000000E+00 -0.30492757171E+03  0.30492757171E+03  0.00000000000E+00 0.  1.
         25    2    1    2    0    0 -0.40636513341E+02  0.89483274275E+01 -0.22592292524E+03  0.26157071468E+03  0.12508665737E+03 0.  0.
         23    2    1    2    0    0  0.40636513341E+02 -0.89483274275E+01 -0.21238732687E+02  0.10112277082E+03  0.89684626508E+02 0.  0.
          5    1    3    3  502    0 -0.11391288136E+02 -0.52547529856E+02 -0.15049322061E+03  0.15986458704E+03  0.41800000000E+01 0. -1.
         -5    1    3    3    0  502 -0.29245225206E+02  0.61495857284E+02 -0.75429704628E+02  0.10170612765E+03  0.41800000000E+01 0. -1.
        -11    1    4    4    0    0 -0.24691509224E+01  0.12075629796E+02 -0.45666533927E+02  0.47300632788E+02  0.00000000000E+00 0.  1.
         11    1    4    4    0    0  0.43105664264E+02 -0.21023957224E+02  0.24427801239E+02  0.53822138032E+02  0.00000000000E+00 0. -1.
</event>
<event>
 8    1  0.6380400E-009  0.7962125E+02  0.7561462E-02  0.1330130E+00
          2   -1    0    0  501    0  0.00000000000E+00  0.00000000000E+00  0.91679751972E+02  0.91679751972E+02  0.00000000000E+00 0. -1.
         -2   -1    0    0    0  501 -0.00000000000E+00 -0.00000000000E+00 -0.13274604727E+03  0.13274604727E+03  0.00000000000E+00 0.  1.
         25    2    1    2    0    0  0.16174128536E+02 -0.65747689296E+01 -0.10707767831E+02  0.12675725028E+03  0.12509162316E+03 0.  0.
         23    2    1    2    0    0 -0.16174128536E+02  0.65747689296E+01 -0.30358527466E+02  0.97668548965E+02  0.91173873707E+02 0.  0.
          5    1    3    3  502    0 -0.25188720592E+02 -0.29192343137E+02  0.41152271169E+02  0.56547735279E+02  0.41800000000E+01 0. -1.
         -5    1    3    3    0  502  0.41362849127E+02  0.22617574207E+02 -0.51860039000E+02  0.70209514996E+02  0.41800000000E+01 0. -1.
        -11    1    4    4    0    0 -0.95858571504E+01 -0.32305181468E+02  0.15581001776E+02  0.37125207384E+02  0.00000000000E+00 0. -1.
         11    1    4    4    0    0 -0.65882713852E+01  0.38879950397E+02 -0.45939529242E+02  0.60543341581E+02  0.00000000000E+00 0.  1.
</event>
<event>
 8    1  0.6380400E-009  0.1384078E+03  0.7561462E-02  0.1215488E+00
          1   -1    0    0  501    0  0.00000000000E+00  0.00000000000E+00  0.74066064621E+03  0.74066064621E+03  0.00000000000E+00 0. -1.
         -1   -1    0    0    0  501 -0.00000000000E+00 -0.00000000000E+00 -0.26672657254E+02  0.26672657254E+02  0.00000000000E+00 0.  1.
         25    2    1    2    0    0  0.88697593301E+02  0.58733481285E+01  0.36104896786E+03  0.39230802025E+03  0.12508983286E+03 0.  0.
         23    2    1    2    0    0 -0.88697593301E+02 -0.58733481285E+01  0.35293902110E+03  0.37502528322E+03  0.90422625267E+02 0.  0.
          5    1    3    3  502    0  0.17550574569E+02 -0.56127286888E+02  0.14300543691E+03  0.15468135760E+03  0.41800000000E+01 0.  1.
         -5    1    3    3    0  502  0.71147018732E+02  0.62000635017E+02  0.21804353095E+03  0.23762666265E+03  0.41800000000E+01 0.  1.
        -11    1    4    4    0    0 -0.78518413976E+02  0.31544712686E+02  0.19832129357E+03  0.21561898273E+03  0.00000000000E+00 0.  1.
         11    1    4    4    0    0 -0.10179179325E+02 -0.37418060814E+02  0.15461772753E+03  0.15940630048E+03  0.00000000000E+00 0. -1.
</event>
<event>
 8    1  0.6380400E-009  0.1135395E+03  0.7561462E-02  0.1254152E+00
         -2   -1    0    0    0  501 -0.00000000000E+00  0.00000000000E+00  0.80624118193E+02  0.80624118193E+02  0.00000000000E+00 0. -1.
          2   -1    0    0  501    0  0.00000000000E+00 -0.00000000000E+00 -0.19897388494E+03  0.19897388494E+03  0.00000000000E+00 0.  1.
         25    2    1    2    0    0 -0.10169318053E+02  0.56038850674E+02 -0.40880918092E+02  0.14339477482E+03  0.12508814559E+03 0.  0.
         23    2    1    2    0    0  0.10169318053E+02 -0.56038850674E+02 -0.77468848657E+02  0.13620322832E+03  0.96468280163E+02 0.  0.
          5    1    3    3  502    0  0.28036547944E+02  0.68932506541E+02 -0.62662678389E+02  0.97374648351E+02  0.41800000000E+01 0. -1.
         -5    1    3    3    0  502 -0.38205865996E+02 -0.12893655867E+02  0.21781760298E+02  0.46020126465E+02  0.41800000000E+01 0. -1.
        -11    1    4    4    0    0 -0.31876408896E+02 -0.61830826860E+02 -0.49342746109E+02  0.85286946175E+02  0.00000000000E+00 0. -1.
         11    1    4    4    0    0  0.42045726949E+02  0.57919761862E+01 -0.28126102549E+02  0.50916282144E+02  0.00000000000E+00 0.  1.
</event>
<event>
 8    1  0.6380400E-009  0.1120999E+03  0.7561462E-02  0.1256730E+00
         -2   -1    0    0    0  501 -0.00000000000E+00  0.00000000000E+00  0.23134366830E+02  0.23134366830E+02  0.00000000000E+00 0.  1.
          2   -1    0    0  501    0  0.00000000000E+00 -0.00000000000E+00 -0.63887693425E+03  0.63887693425E+03  0.00000000000E+00 0. -1.
         25    2    1    2    0    0  0.24824112822E+02  0.19158754184E+02 -0.22533559455E+03  0.25962870056E+03  0.12509051742E+03 0.  0.
         23    2    1    2    0    0 -0.24824112822E+02 -0.19158754184E+02 -0.39040697287E+03  0.40238260051E+03  0.92254313120E+02 0.  0.
          5    1    3    3  502    0  0.41850355170E+02  0.65624410133E+02 -0.15541249234E+03  0.17386354020E+03  0.41800000000E+01 0. -1.
         -5    1    3    3    0  502 -0.17026242348E+02 -0.46465655949E+02 -0.69923102201E+02  0.85765160367E+02  0.41800000000E+01 0. -1.
        -11    1    4    4    0    0 -0.49317175522E+02  0.17648137557E+02 -0.18505356270E+03  0.19232384571E+03  0.00000000000E+00 0. -1.
         11    1    4    4    0    0  0.24493062700E+02 -0.36806891741E+02 -0.20535341018E+03  0.21005875481E+03  0.00000000000E+00 0.  1.
</event>
<event>
 8    1  0.6380400E-009  0.8237917E+02  0.7561462E-02  0.1322432E+00
          4   -1    0    0  501    0  0.00000000000E+00  0.00000000000E+00  0.12707949176E+03  0.12707949176E+03  0.00000000000E+00 0. -1.
         -4   -1    0    0    0  501 -0.00000000000E+00 -0.00000000000E+00 -0.95260629948E+02  0.95260629948E+02  0.00000000000E+00 0.  1.
         25    2    1    2    0    0 -0.93288646301E+01 -0.25249216419E+02  0.18802532580E+02  0.12932807874E+03  0.12509063144E+03 0.  0.
         23    2    1    2    0    0  0.93288646301E+01  0.25249216419E+02  0.13016329228E+02  0.93012042966E+02  0.88075335169E+02 0.  0.
          5    1    3    3  502    0 -0.20598995766E+01 -0.54103111925E+02  0.58318070811E+02  0.79686006860E+02  0.41800000000E+01 0.  1.
         -5    1    3    3    0  502 -0.72689650535E+01  0.28853895506E+02 -0.39515538230E+02  0.49642071879E+02  0.41800000000E+01 0.  1.
        -11    1    4    4    0    0  0.26116669363E+02  0.46495904489E+02  0.29862860305E+02  0.61120700081E+02  0.00000000000E+00 0. -1.
         11    1    4    4    0    0 -0.16787804733E+02 -0.21246688070E+02 -0.16846531076E+02  0.31891342885E+02  0.00000000000E+00 0.  1.
</event>
<event>
 8    1  0.6380400E-009  0.1082418E+03  0.7561462E-02  0.1263861E+00
         -2   -1    0    0    0  501 -0.00000000000E+00  0.00000000000E+00  0.40978159942E+02  0.40978159942E+02  0.00000000000E+00 0.  1.
          2   -1    0    0  501    0  0.00000000000E+00 -0.00000000000E+00 -0.35022846337E+03  0.35022846337E+03  0.00000000000E+00 0. -1.
         25    2    1    2    0    0  0.37826638430E+02  0.41083879796E+01 -0.12057820498E+03  0.17783431005E+03  0.12505280839E+03 0.  0.
         23    2    1    2    0    0 -0.37826638430E+02 -0.41083879796E+01 -0.18867209844E+03  0.21337231326E+03  0.92102388188E+02 0.  0.
          5    1    3    3  502    0 -0.39895106784E+02  0.27015342036E+02 -0.57027342610E+02  0.74773246926E+02  0.41800000000E+01 0. -1.
         -5    1    3    3    0  502  0.77721745215E+02 -0.22906954056E+02 -0.63550862374E+02  0.10306106312E+03  0.41800000000E+01 0. -1.
        -11    1    4    4    0    0 -0.62322801670E+02 -0.45225165189E+01 -0.77603737616E+02  0.99633954331E+02  0.00000000000E+00 0.  1.
         11    1    4    4    0    0  0.24496163239E+02  0.41412853934E+00 -0.11106836083E+03  0.11373835893E+03  0.00000000000E+00 0. -1.
</event>
<event>
 8    1  0.6380400E-009  0.1125111E+03  0.7561462E-02  0.1255989E+00
         -2   -1    0    0    0  501 -0.00000000000E+00  0.00000000000E+00  0.34506454700E+03  0.34506454700E+03  0.00000000000E+00 0.  1.
          2   -1    0    0  501    0  0.00000000000E+00 -0.00000000000E+00 -0.53635460419E+02  0.53635460419E+02  0.00000000000E+00 0. -1.
         25    2    1    2    0    0 -0.11997157253E+02 -0.81575877567E+02  0.14573814762E+03  0.20901519291E+03  0.12509671304E+03 0.  0.
         23    2    1    2    0    0  0.11997157253E+02  0.81575877567E+02  0.14569093895E+03  0.18968481450E+03  0.89195984087E+02 0.  0.
          5    1    3    3  502    0  0.26070912553E+02 -0.75822445159E+02  0.14991807965E+03  0.17006363126E+03  0.41800000000E+01 0. -1.
         -5    1    3    3    0  502 -0.38068069806E+02 -0.57534324079E+01 -0.41799320291E+01  0.38951561650E+02  0.41800000000E+01 0. -1.
        -11    1    4    4    0    0  0.28302904894E+02  0.63131476055E+01  0.51839111012E+01  0.29458160032E+02  0.00000000000E+00 0. -1.
         11    1    4    4    0    0 -0.16305747641E+02  0.75262729962E+02  0.14050702785E+03  0.16022665447E+03  0.00000000000E+00 0.  1.
</event>
<event>
 8    1  0.6380400E-009  0.1262488E+03  0.7561462E-02  0.1233130E+00
          2   -1    0    0  501    0  0.00000000000E+00  0.00000000000E+00  0.24400043625E+03  0.24400043625E+03  0.00000000000E+00 0. -1.
         -2   -1    0    0    0  501 -0.00000000000E+00 -0.00000000000E+00 -0.67701469145E+02  0.67701469145E+02  0.00000000000E+00 0.  1.
         25    2    1    2    0    0 -0.63224094494E+02  0.36100815512E+02  0.10145322277E+03  0.17675038649E+03  0.12508951879E+03 0.  0.
         23    2    1    2    0    0  0.63224094494E+02 -0.36100815512E+02  0.74845744338E+02  0.13495151890E+03  0.85495450194E+02 0.  0.
          5    1    3    3  502    0 -0.94293828883E+02  0.22098914185E+01  0.47329831953E+02  0.10561152957E+03  0.41800000000E+01 0.  1.
         -5    1    3    3    0  502  0.31069734389E+02  0.33890924093E+02  0.54123390817E+02  0.71138856924E+02  0.41800000000E+01 0.  1.
        -11    1    4    4    0    0  0.76016605497E+02 -0.26032915906E+01  0.55928353969E+02  0.94410180680E+02  0.00000000000E+00 0. -1.
         11    1    4    4    0    0 -0.12792511003E+02 -0.33497523921E+02  0.18917390370E+02  0.40541338224E+02  0.00000000000E+00 0.  1.
</event>
<event>
 8    1  0.6380400E-009  0.8121309E+02  0.7561462E-02  0.1325644E+00
         -4   -1    0    0    0  501 -0.00000000000E+00  0.00000000000E+00  0.28621885496E+03  0.28621885496E+03  0.00000000000E+00 0.  1.
          4   -1    0    0  501    0  0.00000000000E+00 -0.00000000000E+00 -0.49225150537E+02  0.49225150537E+02  0.00000000000E+00 0. -1.
         25    2    1    2    0    0 -0.27511293371E+02 -0.37628418762E+02  0.15842558654E+03  0.20717342459E+03  0.12509753084E+03 0.  0.
         23    2    1    2    0    0  0.27511293371E+02  0.37628418762E+02  0.78568117883E+02  0.12827058091E+03  0.90042343474E+02 0.  0.
          5    1    3    3  502    0  0.14655901361E+02 -0.16530099191E+02  0.15824799525E+03  0.15983722978E+03  0.41800000000E+01 0.  1.
         -5    1    3    3    0  502 -0.42167194732E+02 -0.21098319571E+02  0.17759129660E+00  0.47336194809E+02  0.41800000000E+01 0.  1.
        -11    1    4    4    0    0 -0.16106840711E+02  0.45515381794E+02  0.66778226679E+02  0.82403955341E+02  0.00000000000E+00 0.  1.
         11    1    4    4    0    0  0.43618134081E+02 -0.78869630321E+01  0.11789891204E+02  0.45866625570E+02  0.00000000000E+00 0. -1.
</event>
<event>
 8    1  0.6380400E-009  0.1227806E+03  0.7561462E-02  0.1238579E+00
          1   -1    0    0  501    0  0.00000000000E+00  0.00000000000E+00  0.77084722526E+02  0.77084722526E+02  0.00000000000E+00 0. -1.
         -1   -1    0    0    0  501 -0.00000000000E+00 -0.00000000000E+00 -0.24592897268E+03  0.24592897268E+03  0.00000000000E+00 0.  1.
         25    2    1    2    0    0 -0.85538967790E+02  0.19231035606E+02 -0.10629140486E+03  0.18609661295E+03  0.12508932353E+03 0.  0.
         23    2    1    2    0    0  0.85538967790E+02 -0.19231035606E+02 -0.62552845300E+02  0.13691708226E+03  0.84538045987E+02 0.  0.
          5    1    3    3  502    0 -0.24893394778E+02  0.67814349851E+02 -0.34270639758E+02  0.80065075399E+02  0.41800000000E+01 0.  1.
         -5    1    3    3    0  502 -0.60645573012E+02 -0.48583314245E+02 -0.72020765099E+02  0.10603153755E+03  0.41800000000E+01 0.  1.
        -11    1    4    4    0    0  0.62171889148E+02 -0.30716519997E+02 -0.79773113068E+02  0.10570051073E+03  0.00000000000E+00 0.  1.
         11    1    4    4    0    0  0.23367078642E+02  0.11485484392E+02  0.17220267768E+02  0.31216571529E+02  0.00000000000E+00 0. -1.
</event>
<event>
 8    1  0.6380400E-009  0.1087579E+03  0.7561462E-02  0.1262888E+00
          1   -1    0    0  501    0  0.00000000000E+00  0.00000000000E+00  0.31557801179E+03  0.31557801179E+03  0.00000000000E+00 0. -1.
         -1   -1    0    0    0  501 -0.00000000000E+00 -0.00000000000E+00 -0.66864682930E+02  0.66864682930E+02  0.00000000000E+00 0.  1.
         25    2    1    2    0    0 -0.91413369148E+02  0.10018164666E+02  0.10192017176E+03  0.18572371715E+03  0.12509520382E+03 0.  0.
         23    2    1    2    0    0  0.91413369148E+02 -0.10018164666E+02  0.14679315710E+03  0.19671897756E+03  0.93238176092E+02 0.  0.
          5    1    3    3  502    0 -0.15750432598E+02 -0.31233973049E+02  0.92439706966E+02  0.98925269893E+02  0.41800000000E+01 0. -1.
         -5    1    3    3    0  502 -0.75662936551E+02  0.41252137716E+02  0.94804647911E+01  0.86798447257E+02  0.41800000000E+01 0. -1.
        -11    1    4    4    0    0  0.41870686728E+02  0.91968063484E+01  0.24879678153E+01  0.42940955252E+02  0.00000000000E+00 0.  1.
         11    1    4    4    0    0  0.49542682420E+02 -0.19214971015E+02  0.14430518928E+03  0.15377802231E+03  0.00000000000E+00 0. -1.
</event>
<event>
 8    1  0.6380400E-009  0.1565515E+03  0.7561462E-02  0.1192646E+00
          2   -1    0    0  501    0  0.00000000000E+00  0.00000000000E+00  0.77080592230E+03  0.77080592230E+03  0.00000000000E+00 0. -1.
         -2   -1    0    0    0  501 -0.00000000000E+00 -0.00000000000E+00 -0.32848438472E+02  0.32848438472E+02  0.00000000000E+00 0.  1.
         25    2    1    2    0    0  0.77143058879E+02 -0.87259775679E+02  0.40746891233E+03  0.44186265302E+03  0.12508544934E+03 0.  0.
         23    2    1    2    0    0 -0.77143058879E+02  0.87259775679E+02  0.33048857150E+03  0.36179170775E+03  0.90029017098E+02 0.  0.
          5    1    3    3  502    0  0.98268835529E+02 -0.20813707647E+02  0.22310273962E+03  0.24470855990E+03  0.41800000000E+01 0.  1.
         -5    1    3    3    0  502 -0.21125776650E+02 -0.66446068032E+02  0.18436617271E+03  0.19715409312E+03  0.41800000000E+01 0.  1.
        -11    1    4    4    0    0 -0.90336094977E+02  0.50127239630E+02  0.19484665378E+03  0.22054153509E+03  0.00000000000E+00 0.  1.
         11    1    4    4    0    0  0.13193036098E+02  0.37132536049E+02  0.13564191772E+03  0.14125017266E+03  0.00000000000E+00 0. -1.
</event>
<event>
 8    1  0.6380400E-009  0.8321376E+02  0.7561462E-02  0.1320171E+00
         -2   -1    0    0    0  501 -0.00000000000E+00  0.00000000000E+00  0.46690172167E+02  0.46690172167E+02  0.00000000000E+00 0.  1.
          2   -1    0    0  501    0  0.00000000000E+00 -0.00000000000E+00 -0.26993774295E+03  0.26993774295E+03  0.00000000000E+00 0. -1.
         25    2    1    2    0    0  0.13456600821E+02 -0.25296693817E+02 -0.13362713979E+03  0.18527062210E+03  0.12509191861E+03 0.  0.
         23    2    1    2    0    0 -0.13456600821E+02  0.25296693817E+02 -0.89620430987E+02  0.13135729301E+03  0.91661954777E+02 0.  0.
          5    1    3    3  502    0 -0.19488988213E+02  0.15955643403E+02  0.13514995969E+02  0.28888245603E+02  0.41800000000E+01 0.  1.
         -5    1    3    3    0  502  0.32945589034E+02 -0.41252337220E+02 -0.14714213576E+03  0.15638237650E+03  0.41800000000E+01 0.  1.
        -11    1    4    4    0    0 -0.25172208774E+02  0.52552311832E+02 -0.31829847649E+02  0.66396722621E+02  0.00000000000E+00 0.  1.
         11    1    4    4    0    0  0.11715607953E+02 -0.27255618015E+02 -0.57790583338E+02  0.64960570392E+02  0.00000000000E+00 0. -1.
</event>
<event>
 8    1  0.6380400E-009  0.8952301E+02  0.7561462E-02  0.1304011E+00
          2   -1    0    0  501    0  0.00000000000E+00  0.00000000000E+00  0.86307610227E+02  0.86307610227E+02  0.00000000000E+00 0. -1.
         -2   -1    0    0    0  501 -0.00000000000E+00 -0.00000000000E+00 -0.16308860165E+03  0.16308860165E+03  0.00000000000E+00 0.  1.
         25    2    1    2    0    0  0.74091523424E+00  0.12099223885E+02 -0.95487137729E+02  0.15783669391E+03  0.12509072027E+03 0.  0.
         23    2    1    2    0    0 -0.74091523424E+00 -0.12099223885E+02  0.18706146308E+02  0.91559517971E+02  0.88804759148E+02 0.  0.
          5    1    3    3  502    0  0.43997875282E+02  0.14484229754E+02  0.64903464984E+01  0.46959588356E+02  0.41800000000E+01 0.  1.
         -5    1    3    3    0  502 -0.43256960048E+02 -0.23850058695E+01 -0.10197748423E+03  0.11087710555E+03  0.41800000000E+01 0.  1.
        -11    1    4    4    0    0 -0.44222036123E+02 -0.14438531765E+01  0.14652553964E+02  0.46608695847E+02  0.00000000000E+00 0.  1.
         11    1    4    4    0    0  0.43481120889E+02 -0.10655370708E+02  0.40535923431E+01  0.44950822124E+02  0.00000000000E+00 0. -1.
</event>
<event>
 8    1  0.6380400E-009  0.1362971E+03  0.7561462E-02  0.1218400E+00
          1   -1    0    0  501    0  0.00000000000E+00  0.00000000000E+00  0.11369727787E+03  0.11369727787E+03  0.00000000000E+00 0. -1.
         -1   -1    0    0    0  501 -0.00000000000E+00 -0.00000000000E+00 -0.25361689976E+03  0.25361689976E+03  0.00000000000E+00 0.  1.
         25    2    1    2    0    0  0.14058139874E+02 -0.12063939274E+03 -0.12606544015E+03  0.21515293050E+03  0.12508714533E+03 0.  0.
         23    2    1    2    0    0 -0.14058139874E+02  0.12063939274E+03 -0.13854181750E+02  0.15216124713E+03  0.90606911419E+02 0.  0.
          5    1    3    3  502    0 -0.13738938513E+02 -0.47613620426E+02  0.16606664560E+02  0.52431564819E+02  0.41800000000E+01 0. -1.
         -5    1    3    3    0  502  0.27797078386E+02 -0.73025772318E+02 -0.14267210471E+03  0.16272136569E+03  0.41800000000E+01 0. -1.
        -11    1    4    4    0    0 -0.43451927763E+02  0.98990088554E+02 -0.30077073237E+02  0.11221291366E+03  0.00000000000E+00 0.  1.
         11    1    4    4    0    0  0.29393787889E+02  0.21649304190E+02  0.16222891487E+02  0.39948333464E+02  0.00000000000E+00 0. -1.
</event>
<event>
 8    1  0.6380400E-009  0.1251427E+03  0.7561462E-02  0.1234846E+00
         -2   -1    0    0    0  501 -0.00000000000E+00  0.00000000000E+00  0.12537424955E+03  0.12537424955E+03  0.00000000000E+00 0.  1.
          2   -1    0    0  501    0  0.00000000000E+00 -0.00000000000E+00 -0.15586862353E+03  0.15586862353E+03  0.00000000000E+00 0. -1.
         25    2    1    2    0    0 -0.68408625684E+02 -0.55281166193E+02 -0.15218944117E+02  0.15367882476E+03  0.12509923068E+03 0.  0.
         23    2    1    2    0    0  0.68408625684E+02  0.55281166193E+02 -0.15275429858E+02  0.12756404832E+03  0.91123543950E+02 0.  0.
          5    1    3    3  502    0 -0.58330688750E+02  0.20657293236E+02  0.25222470307E+02  0.66954002287E+02  0.41800000000E+01 0.  1.
         -5    1    3    3    0  502 -0.10077936934E+02 -0.75938459428E+02 -0.40441414424E+02  0.86724822478E+02  0.41800000000E+01 0.  1.
        -11    1    4    4    0    0 -0.54299303947E+01 -0.11035057066E+02 -0.24980240240E+02  0.27843653334E+02  0.00000000000E+00 0. -1.
         11    1    4    4    0    0  0.73838556078E+02  0.66316223258E+02  0.97048103819E+01  0.99720394983E+02  0.00000000000E+00 0.  1.
</event>
<event>
 8    1  0.6380400E-009  0.9995747E+02  0.7561462E-02  0.1280385E+00
         -1   -1    0    0    0  501 -0.00000000000E+00  0.00000000000E+00  0.22167070670E+02  0.22167070670E+02  0.00000000000E+00 0.  1.
          1   -1    0    0  501    0  0.00000000000E+00 -0.00000000000E+00 -0.83513993260E+03  0.83513993260E+03  0.00000000000E+00 0. -1.
         25    2    1    2    0    0 -0.46870700053E+01  0.70644627358E+02 -0.57959983114E+03  0.59715698247E+03  0.12509142837E+03 0.  0.
         23    2    1    2    0    0  0.46870700053E+01 -0.70644627358E+02 -0.23337303078E+03  0.26015002080E+03  0.90567266845E+02 0.  0.
          5    1    3    3  502    0  0.60304663561E+01  0.73311683947E+02 -0.14732870707E+03  0.16472458789E+03  0.41800000000E+01 0. -1.
         -5    1    3    3    0  502 -0.10717536361E+02 -0.26670565895E+01 -0.43227112407E+03  0.43243239458E+03  0.41800000000E+01 0. -1.
        -11    1    4    4    0    0  0.38648812814E+02 -0.30349172225E+01 -0.67608966772E+02  0.77935318325E+02  0.00000000000E+00 0.  1.
         11    1    4    4    0    0 -0.33961742809E+02 -0.67609710135E+02 -0.16576406401E+03  0.18221470247E+03  0.00000000000E+00 0. -1.
</event>
<event>
 8    1  0.6380400E-009  0.7412004E+02  0.7561462E-02  0.1346618E+00
          3   -1    0    0  501    0  0.00000000000E+00  0.00000000000E+00  0.15519412541E+03  0.15519412541E+03  0.00000000000E+00 0. -1.
         -3   -1    0    0    0  501 -0.00000000000E+00 -0.00000000000E+00 -0.80516757768E+02  0.80516757768E+02  0.00000000000E+00 0.  1.
         25    2    1    2    0    0 -0.24878987664E+02 -0.37095394921E+01  0.34576708377E+02  0.13219441671E+03  0.12508833014E+03 0.  0.
         23    2    1    2    0    0  0.24878987664E+02  0.37095394921E+01  0.40100659265E+02  0.10351646647E+03  0.92059063899E+02 0.  0.
          5    1    3    3  502    0 -0.28186755770E+02  0.17439250169E+02  0.77308677898E+02  0.84218315857E+02  0.41800000000E+01 0. -1.
         -5    1    3    3    0  502  0.33077681064E+01 -0.21148789661E+02 -0.42731969521E+02  0.47976100854E+02  0.41800000000E+01 0. -1.
        -11    1    4    4    0    0 -0.20665061780E+02 -0.29951455386E+02  0.27203954894E+02  0.45433353607E+02  0.00000000000E+00 0. -1.
         11    1    4    4    0    0  0.45544049444E+02  0.33660994878E+02  0.12896704370E+02  0.58083112860E+02  0.00000000000E+00 0.  1.
</event>
<event>
 8    1  0.6380400E-009  0.2050540E+03  0.7561462E-02  0.1145544E+00
         -2   -1    0    0    0  501 -0.00000000000E+00  0.00000000000E+00  0.10025400892E+03  0.10025400892E+03  0.00000000000E+00 0.  1.
          2   -1    0    0  501    0  0.00000000000E+00 -0.00000000000E+00 -0.59222204949E+03  0.59222204949E+03  0.00000000000E+00 0. -1.
         25    2    1    2    0    0 -0.16705888596E+02 -0.18538314602E+03 -0.41446266534E+03  0.47124571356E+03  0.12508886459E+03 0.  0.
         23    2    1    2    0    0  0.16705888596E+02  0.18538314602E+03 -0.77505375229E+02  0.22123034485E+03  0.91048255084E+02 0.  0.
          5    1    3    3  502    0 -0.89387495675E+01 -0.20353919882E+03 -0.36968338121E+03  0.42212721003E+03  0.41800000000E+01 0.  1.
         -5    1    3    3    0  502 -0.77671390289E+01  0.18156052803E+02 -0.44779284127E+02  0.49118503530E+02  0.41800000000E+01 0.  1.
        -11    1    4    4    0    0  0.45047106706E+01  0.41011453663E+02  0.20737802822E+02  0.46176706418E+02  0.00000000000E+00 0.  1.
         11    1    4    4    0    0  0.12201177926E+02  0.14437169235E+03 -0.98243178051E+02  0.17505363844E+03  0.00000000000E+00 0. -1.
</event>
<event>
 8    1  0.6380400E-009  0.1531660E+03  0.7561462E-02  0.1196636E+00
         -2   -1    0    0    0  501 -0.00000000000E+00  0.00000000000E+00  0.66239605293E+02  0.66239605293E+02  0.00000000000E+00 0.  1.
          2   -1    0    0  501    0  0.00000000000E+00 -0.00000000000E+00 -0.69901041934E+03  0.69901041934E+03  0.00000000000E+00 0. -1.
         25    2    1    2    0    0 -0.35454479440E+02  0.12044981547E+03 -0.57093953826E+03  0.59781533052E+03  0.12508411128E+03 0.  0.
         23    2    1    2    0    0  0.35454479440E+02 -0.12044981547E+03 -0.61831275783E+02  0.16743469411E+03  0.91902622210E+02 0.  0.
          5    1    3    3  502    0 -0.66547759975E+02  0.66991801102E+02 -0.19385583854E+03  0.21567119489E+03  0.41800000000E+01 0. -1.
         -5    1    3    3    0  502  0.31093280535E+02  0.53458014365E+02 -0.37708369973E+03  0.38214413563E+03  0.41800000000E+01 0. -1.
        -11    1    4    4    0    0  0.61954134525E+02 -0.92326926422E+02 -0.24810856128E+02  0.11392170429E+03  0.00000000000E+00 0. -1.
         11    1    4    4    0    0 -0.26499655085E+02 -0.28122889044E+02 -0.37020419655E+02  0.53512989818E+02  0.00000000000E+00 0.  1.
</event>
<event>
 8    1  0.6380400E-009  0.1085221E+03  0.7561462E-02  0.1263331E+00
         -3   -1    0    0    0  501 -0.00000000000E+00  0.00000000000E+00  0.42889344262E+02  0.42889344262E+02  0.00000000000E+00 0.  1.
          3   -1    0    0  501    0  0.00000000000E+00 -0.00000000000E+00 -0.31030211891E+03  0.31030211891E+03  0.00000000000E+00 0. -1.
         25    2    1    2    0    0 -0.23666259536E+01 -0.47673243373E+02 -0.15504980798E+03  0.20485662424E+03  0.12508978570E+03 0.  0.
         23    2    1    2    0    0  0.23666259536E+01  0.47673243373E+02 -0.11236296667E+03  0.14833483894E+03  0.84258228747E+02 0.  0.
          5    1    3    3  502    0  0.54296839570E+02 -0.66977815491E+01 -0.32703219249E+02  0.63874721245E+02  0.41800000000E+01 0.  1.
         -5    1    3    3    0  502 -0.56663465523E+02 -0.40975461824E+02 -0.12234658873E+03  0.14098190299E+03  0.41800000000E+01 0.  1.
        -11    1    4    4    0    0 -0.29150010615E+02  0.52685643463E+02 -0.49939328275E+02  0.78226828228E+02  0.00000000000E+00 0. -1.
         11    1    4    4    0    0  0.31516636568E+02 -0.50124000906E+01 -0.62423638393E+02  0.70108010709E+02  0.00000000000E+00 0.  1.
</event>
<event>
 8    1  0.6380400E-009  0.1220308E+03  0.7561462E-02  0.1239784E+00
          1   -1    0    0  501    0  0.00000000000E+00  0.00000000000E+00  0.26584836864E+03  0.26584836864E+03  0.00000000000E+00 0. -1.
         -1   -1    0    0    0  501 -0.00000000000E+00 -0.00000000000E+00 -0.11158471458E+03  0.11158471458E+03  0.00000000000E+00 0.  1.
         25    2    1    2    0    0  0.90201380726E+02 -0.25959774239E+01 -0.36900674686E+02  0.15859884531E+03  0.12509558648E+03 0.  0.
         23    2    1    2    0    0 -0.90201380726E+02  0.25959774239E+01  0.19116432874E+03  0.21883423791E+03  0.56582637912E+02 0.  0.
          5    1    3    3  502    0 -0.14381749463E+01 -0.44037513548E+02 -0.37387013663E+02  0.57936449125E+02  0.41800000000E+01 0. -1.
         -5    1    3    3    0  502  0.91639555673E+02  0.41441536124E+02  0.48633897646E+00  0.10066239619E+03  0.41800000000E+01 0. -1.
        -11    1    4    4    0    0 -0.12513443013E+02 -0.14950935509E+02  0.78345784314E+02  0.80735237959E+02  0.00000000000E+00 0. -1.
         11    1    4    4    0    0 -0.77687937713E+02  0.17546912933E+02  0.11281854443E+03  0.13809899995E+03  0.00000000000E+00 0.  1.
</event>
<event>
 8    1  0.6380400E-009  0.9991241E+02  0.7561462E-02  0.1280480E+00
          2   -1    0    0  501    0  0.00000000000E+00  0.00000000000E+00  0.93494865096E+03  0.93494865096E+03  0.00000000000E+00 0. -1.
         -2   -1    0    0    0  501 -0.00000000000E+00 -0.00000000000E+00 -0.14821043073E+02  0.14821043073E+02  0.00000000000E+00 0.  1.
         25    2    1    2    0    0  0.26771891961E+02 -0.23168093678E+02  0.58384941585E+03  0.59814803829E+03  0.12508973000E+03 0.  0.
         23    2    1    2    0    0 -0.26771891961E+02  0.23168093678E+02  0.33627819204E+03  0.35162165575E+03  0.96443100259E+02 0.  0.
          5    1    3    3  502    0  0.29843598632E+02  0.32515404993E+02  0.46148534173E+03  0.46360984132E+03  0.41800000000E+01 0. -1.
         -5    1    3    3    0  502 -0.30717066717E+01 -0.55683498671E+02  0.12236407412E+03  0.13453819696E+03  0.41800000000E+01 0. -1.
        -11    1    4    4    0    0  0.33046636237E+02  0.22070915194E+02  0.17876508777E+03  0.18312881278E+03  0.00000000000E+00 0. -1.
         11    1    4    4    0    0 -0.59818528197E+02  0.10971784838E+01  0.15751310426E+03  0.16849284297E+03  0.00000000000E+00 0.  1.
</event>
<event>
 8    1  0.6380400E-009  0.1710267E+03  0.7561462E-02  0.1176781E+00
         -4   -1    0    0    0  501 -0.00000000000E+00  0.00000000000E+00  0.18023416372E+03  0.18023416372E+03  0.00000000000E+00 0.  1.
          4   -1    0    0  501    0  0.00000000000E+00 -0.00000000000E+00 -0.18177318587E+03  0.18177318587E+03  0.00000000000E+00 0. -1.
         25    2    1    2    0    0  0.91328389218E+02 -0.10622162942E+03  0.33987238601E+02  0.19085726273E+03  0.12508978022E+03 0.  0.
         23    2    1    2    0    0 -0.91328389218E+02  0.10622162942E+03 -0.35526260752E+02  0.17115008686E+03  0.91686028356E+02 0.  0.
          5    1    3    3  502    0 -0.20243946451E+02 -0.40972957802E+02 -0.20832734679E+02  0.50399165402E+02  0.41800000000E+01 0. -1.
         -5    1    3    3    0  502  0.11157233567E+03 -0.65248671620E+02  0.54819973280E+02  0.14045809733E+03  0.41800000000E+01 0. -1.
        -11    1    4    4    0    0 -0.41617253554E+02  0.10938187004E+03 -0.31384374419E+02  0.12116669610E+03  0.00000000000E+00 0.  1.
         11    1    4    4    0    0 -0.49711135664E+02 -0.31602406145E+01 -0.41418863331E+01  0.49983390763E+02  0.00000000000E+00 0. -1.
</event>
<event>
 8    1  0.6380400E-009  0.7372218E+02  0.7561462E-02  0.1347874E+00
         -2   -1    0    0    0  501 -0.00000000000E+00  0.00000000000E+00  0.10369212873E+03  0.10369212873E+03  0.00000000000E+00 0.  1.
          2   -1    0    0  501    0  0.00000000000E+00 -0.00000000000E+00 -0.25987988560E+03  0.25987988560E+03  0.00000000000E+00 0. -1.
         25    2    1    2    0    0  0.13372369962E+02  0.11894855635E+02  0.50719351861E+02  0.13616350275E+03  0.12509092276E+03 0.  0.
         23    2    1    2    0    0 -0.13372369962E+02 -0.11894855635E+02 -0.20690710873E+03  0.22740851158E+03  0.92648646109E+02 0.  0.
          5    1    3    3  502    0  0.28487373836E+02 -0.16269012294E+02 -0.32837218706E+02  0.46604362043E+02  0.41800000000E+01 0. -1.
         -5    1    3    3    0  502 -0.15115003874E+02  0.28163867929E+02  0.83556570567E+02  0.89559140705E+02  0.41800000000E+01 0. -1.
        -11    1    4    4    0    0 -0.43472522016E+02 -0.24043485405E+02 -0.64856269605E+02  0.81696297762E+02  0.00000000000E+00 0. -1.
         11    1    4    4    0    0  0.30100152054E+02  0.12148629770E+02 -0.14205083912E+03  0.14571221382E+03  0.00000000000E+00 0.  1.
</event>
<event>
 8    1  0.6380400E-009  0.1574347E+03  0.7561462E-02  0.1191624E+00
         -3   -1    0    0    0  501 -0.00000000000E+00  0.00000000000E+00  0.28063706107E+02  0.28063706107E+02  0.00000000000E+00 0.  1.
          3   -1    0    0  501    0  0.00000000000E+00 -0.00000000000E+00 -0.12504810578E+04  0.12504810578E+04  0.00000000000E+00 0. -1.
         25    2    1    2    0    0  0.14613983327E+03 -0.57451173868E+01 -0.78463301513E+03  0.80788575080E+03  0.12506222719E+03 0.  0.
         23    2    1    2    0    0 -0.14613983327E+03  0.57451173868E+01 -0.43778433659E+03  0.47065901313E+03  0.92059350627E+02 0.  0.
          5    1    3    3  502    0  0.25917559146E+01 -0.80658743361E+01  0.75082804451E+00  0.94769019347E+01  0.41800000000E+01 0. -1.
         -5    1    3    3    0  502  0.14354807736E+03  0.23207569493E+01 -0.78538384318E+03  0.79840884887E+03  0.41800000000E+01 0. -1.
        -11    1    4    4    0    0 -0.23925567561E+02  0.28782325460E+02 -0.18725882858E+03  0.19096262441E+03  0.00000000000E+00 0. -1.
         11    1    4    4    0    0 -0.12221426571E+03 -0.23037208074E+02 -0.25052550801E+03  0.27969638872E+03  0.00000000000E+00 0.  1.
</event>
<event>
 8    1  0.6380400E-009  0.1279419E+03  0.7561462E-02  0.1230542E+00
          1   -1    0    0  501    0  0.00000000000E+00  0.00000000000E+00  0.70545182008E+03  0.70545182008E+03  0.00000000000E+00 0. -1.
         -1   -1    0    0    0  501 -0.00000000000E+00 -0.00000000000E+00 -0.31421430129E+02  0.31421430129E+02  0.00000000000E+00 0.  1.
         25    2    1    2    0    0 -0.50188825126E+02  0.68991619720E+02  0.50587892727E+03  0.52805271778E+03  0.12508965562E+03 0.  0.
         23    2    1    2    0    0  0.50188825126E+02 -0.68991619720E+02  0.16815146268E+03  0.20882053242E+03  0.89734823795E+02 0.  0.
          5    1    3    3  502    0  0.26088745736E+02  0.49863216313E+02  0.33728743786E+03  0.34197551247E+03  0.41800000000E+01 0. -1.
         -5    1    3    3    0  502 -0.76277570862E+02  0.19128403407E+02  0.16859148942E+03  0.18607720531E+03  0.41800000000E+01 0. -1.
        -11    1    4    4    0    0  0.48821898346E+00 -0.70961191620E+02  0.12105711911E+03  0.14032303859E+03  0.00000000000E+00 0.  1.
         11    1    4    4    0    0  0.49700606143E+02  0.19695719004E+01  0.47094343574E+02  0.68497493831E+02  0.00000000000E+00 0. -1.
</event>
<event>
 8    1  0.6380400E-009  0.1199260E+03  0.7561462E-02  0.1243219E+00
          4   -1    0    0  501    0  0.00000000000E+00  0.00000000000E+00  0.10968066152E+03  0.10968066152E+03  0.00000000000E+00 0. -1.
         -4   -1    0    0    0  501 -0.00000000000E+00 -0.00000000000E+00 -0.13334590385E+03  0.13334590385E+03  0.00000000000E+00 0.  1.
         25    2    1    2    0    0 -0.53035490742E+02  0.51774146324E+01 -0.14026562757E+02  0.13669806904E+03  0.12510015474E+03 0.  0.
         23    2    1    2    0    0  0.53035490742E+02 -0.51774146324E+01 -0.96386795774E+01  0.10632849633E+03  0.91505606861E+02 0.  0.
          5    1    3    3  502    0 -0.46343199206E+02  0.62126964449E+02 -0.15646551491E+02  0.79181682211E+02  0.41800000000E+01 0. -1.
         -5    1    3    3    0  502 -0.66922915364E+01 -0.56949549816E+02  0.16199887339E+01  0.57516386828E+02  0.41800000000E+01 0. -1.
        -11    1    4    4    0    0 -0.19717259590E+02 -0.22535092049E+02 -0.98869474034E+01  0.31533354220E+02  0.00000000000E+00 0. -1.
         11    1    4    4    0    0  0.72752750332E+02  0.17357677417E+02  0.24826782602E+00  0.74795142109E+02  0.00000000000E+00 0.  1.
</event>
<event>
 8    1  0.6380400E-009  0.1135065E+03  0.7561462E-02  0.1254211E+00
          1   -1    0    0  501    0  0.00000000000E+00  0.00000000000E+00  0.10239446106E+03  0.10239446106E+03  0.00000000000E+00 0. -1.
         -1   -1    0    0    0  501 -0.00000000000E+00 -0.00000000000E+00 -0.23641958659E+03  0.23641958659E+03  0.00000000000E+00 0.  1.
         25    2    1    2    0    0 -0.57809801053E+02  0.45810752549E+02 -0.15826423662E+03  0.21478756432E+03  0.12508209724E+03 0.  0.
         23    2    1    2    0    0  0.57809801053E+02 -0.45810752549E+02  0.24239111094E+02  0.12402648332E+03  0.96718332862E+02 0.  0.
          5    1    3    3  502    0  0.15091542314E+02 -0.33196802599E+02 -0.30207115630E+02  0.47536560528E+02  0.41800000000E+01 0.  1.
         -5    1    3    3    0  502 -0.72901343366E+02  0.79007555147E+02 -0.12805712099E+03  0.16725100380E+03  0.41800000000E+01 0.  1.
        -11    1    4    4    0    0  0.16396311248E+02  0.50303502762E+01 -0.32866859193E+02  0.37072548870E+02  0.00000000000E+00 0.  1.
         11    1    4    4    0    0  0.41413489805E+02 -0.50841102825E+02  0.57105970287E+02  0.86953934452E+02  0.00000000000E+00 0. -1.
</event>
<event>
 8    1  0.6380400E-009  0.1233144E+03  0.7561462E-02  0.1237727E+00
         -3   -1    0    0    0  501 -0.00000000000E+00  0.00000000000E+00  0.10590421516E+04  0.10590421516E+04  0.00000000000E+00 0.  1.
          3   -1    0    0  501    0  0.00000000000E+00 -0.00000000000E+00 -0.25916768793E+02  0.25916768793E+02  0.00000000000E+00 0. -1.
         25    2    1    2    0    0 -0.12127443707E+03  0.62652393817E+01  0.64642793956E+03  0.66952797396E+03  0.12510749204E+03 0.  0.
         23    2    1    2    0    0  0.12127443707E+03 -0.62652393817E+01  0.38669744321E+03  0.41543094639E+03  0.91111010999E+02 0.  0.
          5    1    3    3  502    0 -0.77638853142E+02  0.17007148723E+02  0.13959850418E+03  0.16069302845E+03  0.41800000000E+01 0. -1.
         -5    1    3    3    0  502 -0.43635583925E+02 -0.10741909342E+02  0.50682943538E+03  0.50883494551E+03  0.41800000000E+01 0. -1.
        -11    1    4    4    0    0  0.60688296862E+02  0.22229211816E+01  0.31668512393E+03  0.32245538990E+03  0.00000000000E+00 0.  1.
         11    1    4    4    0    0  0.60586140205E+02 -0.84881605633E+01  0.70012319274E+02  0.92975556491E+02  0.00000000000E+00 0. -1.
</event>
<event>
 8    1  0.6380400E-009  0.1508406E+03  0.7561462E-02  0.1199444E+00
         -2   -1    0    0    0  501 -0.00000000000E+00  0.00000000000E+00  0.59592643574E+02  0.59592643574E+02  0.00000000000E+00 0.  1.
          2   -1    0    0  501    0  0.00000000000E+00 -0.00000000000E+00 -0.41354998941E+03  0.41354998941E+03  0.00000000000E+00 0. -1.
         25    2    1    2    0    0  0.11020271388E+03 -0.28145698267E+02 -0.16835927015E+03  0.23859901830E+03  0.12509128350E+03 0.  0.
         23    2    1    2    0    0 -0.11020271388E+03  0.28145698267E+02 -0.18559807569E+03  0.23454361469E+03  0.87334088502E+02 0.  0.
          5    1    3    3  502    0  0.71268495769E+02 -0.72390834421E+02 -0.68582158764E+02  0.12264019039E+03  0.41800000000E+01 0.  1.
         -5    1    3    3    0  502  0.38934218115E+02  0.44245136155E+02 -0.99777111391E+02  0.11595882791E+03  0.41800000000E+01 0.  1.
        -11    1    4    4    0    0 -0.62589379295E+02  0.57498367314E+02 -0.90027086163E+02  0.12380779009E+03  0.00000000000E+00 0. -1.
         11    1    4    4    0    0 -0.47613334589E+02 -0.29352669047E+02 -0.95570989523E+02  0.11073582460E+03  0.00000000000E+00 0.  1.
</event>
<event>
 8    1  0.6380400E-009  0.1092264E+03  0.7561462E-02  0.1262009E+00
         -1   -1    0    0    0  501 -0.00000000000E+00  0.00000000000E+00  0.19452742898E+03  0.19452742898E+03  0.00000000000E+00 0.  1.
          1   -1    0    0  501    0  0.00000000000E+00 -0.00000000000E+00 -0.70732572206E+02  0.70732572206E+02  0.00000000000E+00 0. -1.
         25    2    1    2    0    0 -0.20196981543E+02 -0.39647575149E+02  0.52770539636E+02  0.14287281380E+03  0.12509221715E+03 0.  0.
         23    2    1    2    0    0  0.20196981543E+02  0.39647575149E+02  0.71024317135E+02  0.12238718738E+03  0.89187004278E+02 0.  0.
          5    1    3    3  502    0 -0.16240255682E+02 -0.78271979804E+02  0.63723193895E+02  0.10231503588E+03  0.41800000000E+01 0. -1.
         -5    1    3    3    0  502 -0.39567258607E+01  0.38624404655E+02 -0.10952654259E+02  0.40557777920E+02  0.41800000000E+01 0. -1.
        -11    1    4    4    0    0  0.51188364322E+02  0.44693529956E+02  0.53029887773E+02  0.86197037415E+02  0.00000000000E+00 0.  1.
         11    1    4    4    0    0 -0.30991382779E+02 -0.50459548075E+01  0.17994429362E+02  0.36190149966E+02  0.00000000000E+00 0. -1.
</event>
<event>
 8    1  0.6380400E-009  0.1057379E+03  0.7561462E-02  0.1268673E+00
          1   -1    0    0  501    0  0.00000000000E+00  0.00000000000E+00  0.14427600401E+03  0.14427600401E+03  0.00000000000E+00 0. -1.
         -1   -1    0    0    0  501 -0.00000000000E+00 -0.00000000000E+00 -0.10760296013E+03  0.10760296013E+03  0.00000000000E+00 0.  1.
         25    2    1    2    0    0 -0.37984598178E+02  0.28452030029E+02  0.57464085536E+02  0.14556542055E+03  0.12503928512E+03 0.  0.
         23    2    1    2    0    0  0.37984598178E+02 -0.28452030029E+02 -0.20791041657E+02  0.10631354358E+03  0.92832938254E+02 0.  0.
          5    1    3    3  502    0  0.36148377286E+02  0.49711101906E+00 -0.13798893152E+02  0.38920870391E+02  0.41800000000E+01 0. -1.
         -5    1    3    3    0  502 -0.74132975463E+02  0.27954919010E+02  0.71262978688E+02  0.10664455016E+03  0.41800000000E+01 0. -1.
        -11    1    4    4    0    0  0.44933081641E+01 -0.53646659639E+02  0.94164930027E+01  0.54651845798E+02  0.00000000000E+00 0. -1.
         11    1    4    4    0    0  0.33491290013E+02  0.25194629610E+02 -0.30207534660E+02  0.51661697787E+02  0.00000000000E+00 0.  1.
</event>
<event>
 8    1  0.6380400E-009  0.2242535E+03  0.7561462E-02  0.1130751E+00
          1   -1    0    0  501    0  0.00000000000E+00  0.00000000000E+00  0.28976132406E+03  0.28976132406E+03  0.00000000000E+00 0. -1.
         -1   -1    0    0    0  501 -0.00000000000E+00 -0.00000000000E+00 -0.40036616140E+03  0.40036616140E+03  0.00000000000E+00 0.  1.
         25    2    1    2    0    0  0.19446217499E+03  0.33646820164E+02 -0.31471645774E+03  0.39197182066E+03  0.12509122036E+03 0.  0.
         23    2    1    2    0    0 -0.19446217499E+03 -0.33646820164E+02  0.20411162040E+03  0.29815566480E+03  0.91036261222E+02 0.  0.
          5    1    3    3  502    0  0.21162535549E+03  0.37999001027E+02 -0.28342334894E+03  0.35577448235E+03  0.41800000000E+01 0. -1.
         -5    1    3    3    0  502 -0.17163180495E+02 -0.43521808631E+01 -0.31293108796E+02  0.36197338315E+02  0.41800000000E+01 0. -1.
        -11    1    4    4    0    0 -0.13315096228E+03  0.18937661754E+02  0.14694516359E+03  0.19920013778E+03  0.00000000000E+00 0. -1.
         11    1    4    4    0    0 -0.61311212707E+02 -0.52584481918E+02  0.57166456814E+02  0.98955527015E+02  0.00000000000E+00 0.  1.
</event>
<event>
 8    1  0.6380400E-009  0.5670469E+02  0.7561462E-02  0.1412205E+00
          2   -1    0    0  501    0  0.00000000000E+00  0.00000000000E+00  0.11300104459E+03  0.11300104459E+03  0.00000000000E+00 0. -1.
         -2   -1    0    0    0  501 -0.00000000000E+00 -0.00000000000E+00 -0.10684626904E+03  0.10684626904E+03  0.00000000000E+00 0.  1.
         25    2    1    2    0    0  0.11241676809E+02  0.15342689927E+02 -0.12095022285E+02  0.12710285838E+03  0.12508826329E+03 0.  0.
         23    2    1    2    0    0 -0.11241676809E+02 -0.15342689927E+02  0.18249797840E+02  0.92744455252E+02  0.88919657147E+02 0.  0.
          5    1    3    3  502    0  0.11324684844E+02  0.82725453041E+01 -0.68529084704E+02  0.70074184569E+02  0.41800000000E+01 0. -1.
         -5    1    3    3    0  502 -0.83008034835E-01  0.70701446231E+01  0.56434062419E+02  0.57028673809E+02  0.41800000000E+01 0. -1.
        -11    1    4    4    0    0 -0.16196498763E+01 -0.52323945625E+02  0.64114569531E+01  0.52740168105E+02  0.00000000000E+00 0.  1.
         11    1    4    4    0    0 -0.96220269329E+01  0.36981255697E+02  0.11838340886E+02  0.40004287148E+02  0.00000000000E+00 0. -1.
</event>
<event>
 8    1  0.6380400E-009  0.1059986E+03  0.7561462E-02  0.1268165E+00
          2   -1    0    0  501    0  0.00000000000E+00  0.00000000000E+00  0.85502826259E+02  0.85502826259E+02  0.00000000000E+00 0. -1.
         -2   -1    0    0    0  501 -0.00000000000E+00 -0.00000000000E+00 -0.23213173519E+03  0.23213173519E+03  0.00000000000E+00 0.  1.
         25    2    1    2    0    0 -0.21630749237E+02 -0.17968218543E+02  0.15041932158E+02  0.12910019369E+03  0.12509937689E+03 0.  0.
         23    2    1    2    0    0  0.21630749237E+02  0.17968218543E+02 -0.16167084109E+03  0.18853436775E+03  0.92827801742E+02 0.  0.
          5    1    3    3  502    0 -0.62278388213E+02  0.23198473168E+02 -0.72006771543E+01  0.66978272202E+02  0.41800000000E+01 0.  1.
         -5    1    3    3    0  502  0.40647638976E+02 -0.41166691711E+02  0.22242609312E+02  0.62121921491E+02  0.41800000000E+01 0.  1.
        -11    1    4    4    0    0  0.26268469304E+02 -0.29619902209E+02 -0.11538211366E+03  0.12198525829E+03  0.00000000000E+00 0.  1.
         11    1    4    4    0    0 -0.46377200669E+01  0.47588120752E+02 -0.46288727427E+02  0.66549109467E+02  0.00000000000E+00 0. -1.
</event>
<event>
 8    1  0.6380400E-009  0.1051997E+03  0.7561462E-02  0.1269727E+00
         -2   -1    0    0    0  501 -0.00000000000E+00  0.00000000000E+00  0.20583533205E+02  0.20583533205E+02  0.00000000000E+00 0.  1.
          2   -1    0    0  501    0  0.00000000000E+00 -0.00000000000E+00 -0.60953808469E+03  0.60953808469E+03  0.00000000000E+00 0. -1.
         25    2    1    2    0    0  0.13761796471E+02  0.22240088699E+01 -0.40748870642E+03  0.42648344768E+03  0.12508697785E+03 0.  0.
         23    2    1    2    0    0 -0.13761796471E+02 -0.22240088699E+01 -0.18146584506E+03  0.20363817021E+03  0.91347239614E+02 0.  0.
          5    1    3    3  502    0  0.42078328565E+02 -0.47738464244E+02 -0.26989735693E+03  0.27732941132E+03  0.41800000000E+01 0. -1.
         -5    1    3    3    0  502 -0.28316532094E+02  0.49962473114E+02 -0.13759134949E+03  0.14915403636E+03  0.41800000000E+01 0. -1.
        -11    1    4    4    0    0 -0.47720434538E+02  0.16219592700E+02 -0.74874756728E+02  0.90258208796E+02  0.00000000000E+00 0.  1.
         11    1    4    4    0    0  0.33958638067E+02 -0.18443601570E+02 -0.10659108833E+03  0.11337996141E+03  0.00000000000E+00 0. -1.
</event>
<event>
 8    1  0.6380400E-009  0.1050652E+03  0.7561462E-02  0.1269991E+00
          1   -1    0    0  501    0  0.00000000000E+00  0.00000000000E+00  0.24115769645E+03  0.24115769645E+03  0.00000000000E+00 0. -1.
         -1   -1    0    0    0  501 -0.00000000000E+00 -0.00000000000E+00 -0.82760907689E+02  0.82760907689E+02  0.00000000000E+00 0.  1.
         25    2    1    2    0    0  0.47408588818E+02  0.17776966299E+01 -0.17852942651E+01  0.13379155080E+03  0.12508500026E+03 0.  0.
         23    2    1    2    0    0 -0.47408588818E+02 -0.17776966299E+01  0.16018208302E+03  0.19012705334E+03  0.90770381685E+02 0.  0.
          5    1    3    3  502    0  0.55856512367E+02 -0.37442280175E+02  0.37818199280E+02  0.77262946586E+02  0.41800000000E+01 0. -1.
         -5    1    3    3    0  502 -0.84479235487E+01  0.39219976804E+02 -0.39603493545E+02  0.56528604209E+02  0.41800000000E+01 0. -1.
        -11    1    4    4    0    0  0.22760863435E+02  0.18552139191E+02  0.46411982528E+02  0.54920951331E+02  0.00000000000E+00 0. -1.
         11    1    4    4    0    0 -0.70169452253E+02 -0.20329835821E+02  0.11377010049E+03  0.13520610201E+03  0.00000000000E+00 0.  1.
</event>
<event>
 8    1  0.6380400E-009  0.1024825E+03  0.7561462E-02  0.1275161E+00
          2   -1    0    0  501    0  0.00000000000E+00  0.00000000000E+00  0.75902882793E+02  0.75902882793E+02  0.00000000000E+00 0. -1.
         -2   -1    0    0    0  501 -0.00000000000E+00 -0.00000000000E+00 -0.19701759353E+03  0.19701759353E+03  0.00000000000E+00 0.  1.
         25    2    1    2    0    0  0.54475118723E+02  0.98656891041E+01 -0.87598355566E+02  0.16243553853E+03  0.12508781675E+03 0.  0.
         23    2    1    2    0    0 -0.54475118723E+02 -0.98656891041E+01 -0.33516355171E+02  0.11048493779E+03  0.89547222362E+02 0.  0.
          5    1    3    3  502    0  0.34858492635E+02 -0.48299581327E+02 -0.56739833139E+01  0.59980251348E+02  0.41800000000E+01 0. -1.
         -5    1    3    3    0  502  0.19616626088E+02  0.58165270431E+02 -0.81924372252E+02  0.10245528719E+03  0.41800000000E+01 0. -1.
        -11    1    4    4    0    0  0.19034157073E+01 -0.25223004503E+02  0.19223903842E+02  0.31770763706E+02  0.00000000000E+00 0. -1.
         11    1    4    4    0    0 -0.56378534431E+02  0.15357315399E+02 -0.52740259013E+02  0.78714174083E+02  0.00000000000E+00 0.  1.
</event>
<event>
 8    1  0.6380400E-009  0.1073928E+03  0.7561462E-02  0.1265476E+00
          1   -1    0    0  501    0  0.00000000000E+00  0.00000000000E+00  0.16370507817E+03  0.16370507817E+03  0.00000000000E+00 0. -1.
         -1   -1    0    0    0  501 -0.00000000000E+00 -0.00000000000E+00 -0.10048013746E+03  0.10048013746E+03  0.00000000000E+00 0.  1.
         25    2    1    2    0    0  0.17022226834E+02 -0.23085439144E+02 -0.28707530628E+02  0.13154732830E+03  0.12513146511E+03 0.  0.
         23    2    1    2    0    0 -0.17022226834E+02  0.23085439144E+02  0.91932471336E+02  0.13263788733E+03  0.91206009462E+02 0.  0.
          5    1    3    3  502    0  0.68846795443E+01  0.51920637388E+02 -0.10316731024E+02  0.53544922619E+02  0.41800000000E+01 0. -1.
         -5    1    3    3    0  502  0.10137547290E+02 -0.75006076532E+02 -0.18390799604E+02  0.78002405680E+02  0.41800000000E+01 0. -1.
        -11    1    4    4    0    0  0.15735887443E+02  0.44569465600E+02  0.21244870077E+02  0.51820844474E+02  0.00000000000E+00 0.  1.
         11    1    4    4    0    0 -0.32758114277E+02 -0.21484026456E+02  0.70687601259E+02  0.80817042853E+02  0.00000000000E+00 0. -1.
</event>
<event>
 8    1  0.6380400E-009  0.1295597E+03  0.7561462E-02  0.1228110E+00
         -2   -1    0    0    0  501 -0.00000000000E+00  0.00000000000E+00  0.13534365597E+03  0.13534365597E+03  0.00000000000E+00 0. -1.
          2   -1    0    0  501    0  0.00000000000E+00 -0.00000000000E+00 -0.15752413174E+03  0.15752413174E+03  0.00000000000E+00 0.  1.
         25    2    1    2    0    0 -0.49682991737E+02  0.78206063475E+02  0.17888372084E+02  0.15669019801E+03  0.12508891344E+03 0.  0.
         23    2    1    2    0    0  0.49682991737E+02 -0.78206063475E+02 -0.40068847856E+02  0.13617758970E+03  0.91401506199E+02 0.  0.
          5    1    3    3  502    0 -0.24902868228E+02  0.10873065532E+03  0.29547359233E+02  0.11546872776E+03  0.41800000000E+01 0. -1.
         -5    1    3    3    0  502 -0.24780123509E+02 -0.30524591845E+02 -0.11658987149E+02  0.41221470252E+02  0.41800000000E+01 0. -1.
        -11    1    4    4    0    0  0.58016819684E+02 -0.44175367167E+02 -0.61254488646E+02  0.95234063286E+02  0.00000000000E+00 0.  1.
         11    1    4    4    0    0 -0.83338279476E+01 -0.34030696308E+02  0.21185640790E+02  0.40943526413E+02  0.00000000000E+00 0. -1.
</event>
<event>
 8    1  0.6380400E-009  0.1357584E+03  0.7561462E-02  0.1219153E+00
          2   -1    0    0  501    0  0.00000000000E+00  0.00000000000E+00  0.32177307966E+03  0.32177307966E+03  0.00000000000E+00 0. -1.
         -2   -1    0    0    0  501 -0.00000000000E+00 -0.00000000000E+00 -0.62285835459E+02  0.62285835459E+02  0.00000000000E+00 0.  1.
         25    2    1    2    0    0  0.21320170117E+02 -0.83721437118E+02  0.10143561216E+03  0.18275284388E+03  0.12508233226E+03 0.  0.
         23    2    1    2    0    0 -0.21320170117E+02  0.83721437118E+02  0.15805163204E+03  0.20130607124E+03  0.89888749248E+02 0.  0.
          5    1    3    3  502    0  0.57955728897E+02  0.23645469317E+01  0.43592118804E+02  0.72678764547E+02  0.41800000000E+01 0.  1.
         -5    1    3    3    0  502 -0.36635558780E+02 -0.86085984050E+02  0.57843493358E+02  0.11007407933E+03  0.41800000000E+01 0.  1.
        -11    1    4    4    0    0 -0.46618018936E+02  0.82037814048E+02  0.14444051611E+03  0.17252972299E+03  0.00000000000E+00 0. -1.
         11    1    4    4    0    0  0.25297848819E+02  0.16836230694E+01  0.13611115934E+02  0.28776348248E+02  0.00000000000E+00 0.  1.
</event>
<event>
 8    1  0.6380400E-009  0.1306927E+03  0.7561462E-02  0.1226432E+00
          1   -1    0    0  501    0  0.00000000000E+00  0.00000000000E+00  0.11351539167E+03  0.11351539167E+03  0.00000000000E+00 0. -1.
         -1   -1    0    0    0  501 -0.00000000000E+00 -0.00000000000E+00 -0.22536110293E+03  0.22536110293E+03  0.00000000000E+00 0.  1.
         25    2    1    2    0    0 -0.29054983714E+02 -0.93401667146E+02  0.84689077413E+01  0.15901857732E+03  0.12508845682E+03 0.  0.
         23    2    1    2    0    0  0.29054983714E+02  0.93401667146E+02 -0.12031461900E+03  0.17985791728E+03  0.91132866505E+02 0.  0.
          5    1    3    3  502    0  0.17698998877E+02  0.67348064054E+01  0.39629353156E+02  0.44119952517E+02  0.41800000000E+01 0.  1.
         -5    1    3    3    0  502 -0.46753982591E+02 -0.10013647355E+03 -0.31160445414E+02  0.11489862480E+03  0.41800000000E+01 0.  1.
        -11    1    4    4    0    0  0.60504054965E+02  0.55024453398E+02 -0.90473155000E+02  0.12195828350E+03  0.00000000000E+00 0. -1.
         11    1    4    4    0    0 -0.31449071251E+02  0.38377213748E+02 -0.29841464002E+02  0.57899633776E+02  0.00000000000E+00 0.  1.
</event>
<event>
 8    1  0.6380400E-009  0.2348289E+03  0.7561462E-02  0.1123286E+00
          2   -1    0    0  501    0  0.00000000000E+00  0.00000000000E+00  0.11208740820E+04  0.11208740820E+04  0.00000000000E+00 0.  1.
         -2   -1    0    0    0  501 -0.00000000000E+00 -0.00000000000E+00 -0.58403602855E+02  0.58403602855E+02  0.00000000000E+00 0. -1.
         25    2    1    2    0    0  0.19667782942E+03 -0.76788848248E+02  0.76418520699E+03  0.80262397741E+03  0.12509005848E+03 0.  0.
         23    2    1    2    0    0 -0.19667782942E+03  0.76788848248E+02  0.29828527220E+03  0.37665370749E+03  0.91187805965E+02 0.  0.
          5    1    3    3  502    0  0.54469359081E+01  0.23029926492E+02  0.14374519135E+03  0.14574017655E+03  0.41800000000E+01 0.  1.
         -5    1    3    3    0  502  0.19123089351E+03 -0.99818774741E+02  0.62044001565E+03  0.65688380086E+03  0.41800000000E+01 0.  1.
        -11    1    4    4    0    0 -0.19522457246E+03  0.47991986308E+02  0.26472639957E+03  0.33240928247E+03  0.00000000000E+00 0.  1.
         11    1    4    4    0    0 -0.14532569558E+01  0.28796861941E+02  0.33558872624E+02  0.44244425019E+02  0.00000000000E+00 0. -1.
</event>
<event>
 8    1  0.6380400E-009  0.9618590E+02  0.7561462E-02  0.1288527E+00
         -2   -1    0    0    0  501 -0.00000000000E+00  0.00000000000E+00  0.27546368329E+02  0.27546368329E+02  0.00000000000E+00 0.  1.
          2   -1    0    0  501    0  0.00000000000E+00 -0.00000000000E+00 -0.52016074850E+03  0.52016074850E+03  0.00000000000E+00 0. -1.
         25    2    1    2    0    0 -0.70150673119E+01  0.35300370291E+02 -0.35864368189E+03  0.38153387154E+03  0.12508987672E+03 0.  0.
         23    2    1    2    0    0  0.70150673119E+01 -0.35300370291E+02 -0.13397069828E+03  0.16617324529E+03  0.91488098356E+02 0.  0.
          5    1    3    3  502    0  0.15701193617E+02  0.69043508461E+02 -0.11986350063E+03  0.13927765336E+03  0.41800000000E+01 0. -1.
         -5    1    3    3    0  502 -0.22716260929E+02 -0.33743138170E+02 -0.23878018126E+03  0.24225621818E+03  0.41800000000E+01 0. -1.
        -11    1    4    4    0    0  0.33197949532E+01  0.22444106542E+02 -0.91831123755E+02  0.94592358292E+02  0.00000000000E+00 0. -1.
         11    1    4    4    0    0  0.36952723587E+01 -0.57744476833E+02 -0.42139574525E+02  0.71580887000E+02  0.00000000000E+00 0.  1.
</event>
<event>
 8    1  0.6380400E-009  0.9071232E+02  0.7561462E-02  0.1301136E+00
          2   -1    0    0  501    0  0.00000000000E+00  0.00000000000E+00  0.31790351977E+03  0.31790351977E+03  0.00000000000E+00 0.  1.
         -2   -1    0    0    0  501 -0.00000000000E+00 -0.00000000000E+00 -0.45230411350E+02  0.45230411350E+02  0.00000000000E+00 0. -1.
         25    2    1    2    0    0  0.43916604479E+02  0.16472605375E+02  0.18086845487E+03  0.22485639210E+03  0.12508790598E+03 0.  0.
         23    2    1    2    0    0 -0.43916604479E+02 -0.16472605375E+02  0.91804653542E+02  0.13827753902E+03  0.92155132832E+02 0.  0.
          5    1    3    3  502    0  0.43157921016E+02 -0.39043458307E+02  0.15054373628E+03  0.16145552550E+03  0.41800000000E+01 0. -1.
         -5    1    3    3    0  502  0.75868346326E+00  0.55516063683E+02  0.30324718596E+02  0.63400866598E+02  0.41800000000E+01 0. -1.
        -11    1    4    4    0    0  0.10639516930E+02 -0.44537505953E+01 -0.14295866361E+02  0.18368642026E+02  0.00000000000E+00 0. -1.
         11    1    4    4    0    0 -0.54556121409E+02 -0.12018854780E+02  0.10610051990E+03  0.11990889699E+03  0.00000000000E+00 0.  1.
</event>
<event>
 8    1  0.6380400E-009  0.1082690E+03  0.7561462E-02  0.1263809E+00
         -3   -1    0    0    0  501 -0.00000000000E+00  0.00000000000E+00  0.43662837830E+03  0.43662837830E+03  0.00000000000E+00 0.  1.
          3   -1    0    0  501    0  0.00000000000E+00 -0.00000000000E+00 -0.32961759799E+02  0.32961759799E+02  0.00000000000E+00 0. -1.
         25    2    1    2    0    0 -0.34606282439E+02 -0.31841734134E+02  0.24061414302E+03  0.27523496652E+03  0.12509048789E+03 0.  0.
         23    2    1    2    0    0  0.34606282439E+02  0.31841734134E+02  0.16305247549E+03  0.19435517158E+03  0.94743507115E+02 0.  0.
          5    1    3    3  502    0  0.35358863438E+02 -0.27001082455E+01  0.17904197745E+02  0.39944617973E+02  0.41800000000E+01 0. -1.
         -5    1    3    3    0  502 -0.69965145877E+02 -0.29141625889E+02  0.22270994527E+03  0.23529034855E+03  0.41800000000E+01 0. -1.
        -11    1    4    4    0    0 -0.32001470326E+02  0.18594925997E+02  0.69649043992E+02  0.78872395075E+02  0.00000000000E+00 0.  1.
         11    1    4    4    0    0  0.66607752765E+02  0.13246808137E+02  0.93403431494E+02  0.11548277650E+03  0.00000000000E+00 0. -1.
</event>
<event>
 8    1  0.6380400E-009  0.1027733E+03  0.7561462E-02  0.1274570E+00
         -1   -1    0    0    0  501 -0.00000000000E+00  0.00000000000E+00  0.22824386631E+02  0.22824386631E+02  0.00000000000E+00 0.  1.
          1   -1    0    0  501    0  0.00000000000E+00 -0.00000000000E+00 -0.69609238314E+03  0.69609238314E+03  0.00000000000E+00 0. -1.
         25    2    1    2    0    0 -0.14618180383E+02 -0.65388139917E+02 -0.41683204099E+03  0.44032496273E+03  0.12509125616E+03 0.  0.
         23    2    1    2    0    0  0.14618180383E+02  0.65388139917E+02 -0.25643595551E+03  0.27859180703E+03  0.85817804839E+02 0.  0.
          5    1    3    3  502    0  0.13397394411E+02  0.30765310300E+02 -0.18007392910E+03  0.18322141478E+03  0.41800000000E+01 0. -1.
         -5    1    3    3    0  502 -0.28015574794E+02 -0.96153450217E+02 -0.23675811190E+03  0.25710354795E+03  0.41800000000E+01 0. -1.
        -11    1    4    4    0    0  0.21247071116E+02  0.40478277754E+02 -0.24691727271E+03  0.25111365667E+03  0.00000000000E+00 0. -1.
         11    1    4    4    0    0 -0.66288907328E+01  0.24909862163E+02 -0.95186827991E+01  0.27478150366E+02  0.00000000000E+00 0.  1.
</event>
<event>
 8    1  0.6380400E-009  0.1542627E+03  0.7561462E-02  0.1195331E+00
          2   -1    0    0  501    0  0.00000000000E+00  0.00000000000E+00  0.24705789563E+03  0.24705789563E+03  0.00000000000E+00 0. -1.
         -2   -1    0    0    0  501 -0.00000000000E+00 -0.00000000000E+00 -0.11860626785E+03  0.11860626785E+03  0.00000000000E+00 0.  1.
         25    2    1    2    0    0  0.12132458008E+01 -0.13158153236E+03  0.56185412836E+02  0.19004970863E+03  0.12508764731E+03 0.  0.
         23    2    1    2    0    0 -0.12132458008E+01  0.13158153236E+03  0.72266214940E+02  0.17561445485E+03  0.91120026934E+02 0.  0.
          5    1    3    3  502    0  0.34789906211E+02 -0.12375140070E+03  0.76663904787E+02  0.14973167149E+03  0.41800000000E+01 0.  1.
         -5    1    3    3    0  502 -0.33576660411E+02 -0.78301316604E+01 -0.20478491952E+02  0.40318037139E+02  0.41800000000E+01 0.  1.
        -11    1    4    4    0    0 -0.24881667927E+02  0.22458098310E+02  0.52395735597E+02  0.62199491053E+02  0.00000000000E+00 0. -1.
         11    1    4    4    0    0  0.23668422127E+02  0.10912343405E+03  0.19870479344E+02  0.11341496380E+03  0.00000000000E+00 0.  1.
</event>
<event>
 8    1  0.6380400E-009  0.9322529E+02  0.7561462E-02  0.1295224E+00
         -2   -1    0    0    0  501 -0.00000000000E+00  0.00000000000E+00  0.23938329583E+03  0.23938329583E+03  0.00000000000E+00 0. -1.
          2   -1    0    0  501    0  0.00000000000E+00 -0.00000000000E+00 -0.67413243996E+02  0.67413243996E+02  0.00000000000E+00 0.  1.
         25    2    1    2    0    0  0.51282265451E+02 -0.89868470850E+01  0.45091799947E+02  0.14279750005E+03  0.12508885413E+03 0.  0.
         23    2    1    2    0    0 -0.51282265451E+02  0.89868470850E+01  0.12687825189E+03  0.16399903978E+03  0.89927526797E+02 0.  0.
          5    1    3    3  502    0 -0.38405092991E+02 -0.19072203595E+02  0.26419806561E+02  0.50538883014E+02  0.41800000000E+01 0.  1.
         -5    1    3    3    0  502  0.89687358441E+02  0.10085356510E+02  0.18671993386E+02  0.92258617034E+02  0.41800000000E+01 0.  1.
        -11    1    4    4    0    0 -0.29129165712E+02  0.47625996948E-01  0.13550488680E+03  0.13860045062E+03  0.00000000000E+00 0. -1.
         11    1    4    4    0    0 -0.22153099738E+02  0.89392210880E+01 -0.86266349120E+01  0.25398589165E+02  0.00000000000E+00 0.  1.
</event>
<event>
 8    1  0.6380400E-009  0.2516966E+03  0.7561462E-02  0.1112237E+00
         -2   -1    0    0    0  501 -0.00000000000E+00  0.00000000000E+00  0.43446385886E+02  0.43446385886E+02  0.00000000000E+00 0.  1.
          2   -1    0    0  501    0  0.00000000000E+00 -0.00000000000E+00 -0.15469984125E+04  0.15469984125E+04  0.00000000000E+00 0. -1.
         25    2    1    2    0    0 -0.47203282397E+02  0.22322354971E+03 -0.59862649006E+03  0.65273118904E+03  0.12508967797E+03 0.  0.
         23    2    1    2    0    0  0.47203282397E+02 -0.22322354971E+03 -0.90492553657E+03  0.93771360936E+03  0.91431304407E+02 0.  0.
          5    1    3    3  502    0  0.41838210322E+02  0.94276710416E+02 -0.22482497460E+03  0.24739093672E+03  0.41800000000E+01 0.  1.
         -5    1    3    3    0  502 -0.89041492719E+02  0.12894683929E+03 -0.37380151546E+03  0.40534025232E+03  0.41800000000E+01 0.  1.
        -11    1    4    4    0    0 -0.22575519700E+02 -0.27281897476E+02 -0.18431168456E+03  0.18768258599E+03  0.00000000000E+00 0. -1.
         11    1    4    4    0    0  0.69778802097E+02 -0.19594165223E+03 -0.72061385201E+03  0.75003102336E+03  0.00000000000E+00 0.  1.
</event>
<event>
 7    1  0.6380400E-009  0.8592659E+02  0.7561462E-02  0.1313027E+00
          1   -1    0    0  501    0  0.00000000000E+00  0.00000000000E+00  0.18998831906E+02  0.18998831906E+02  0.00000000000E+00 0. -1.
         -1   -1    0    0    0  501 -0.00000000000E+00 -0.00000000000E+00 -0.43780491757E+03  0.43780491757E+03  0.00000000000E+00 0.  1.
         25    2    1    2    0    0 -0.26521324605E+02  0.50137165502E+01 -0.25236346815E+03  0.28295486549E+03  0.12509043861E+03 0.  0.
          5    1    3    3  502    0 -0.43772679891E+02 -0.51461779103E+02 -0.15278947040E+03  0.16711210872E+03  0.41800000000E+01 0. -1.
         -5    1    3    3    0  502  0.17251355286E+02  0.56475495653E+02 -0.99573997748E+02  0.11584275677E+03  0.41800000000E+01 0. -1.
        -11    1    1    2    0    0  0.36375114848E+01  0.14463627904E+02 -0.23888327605E+02  0.28161679952E+02  0.00000000000E+00 0. -1.
         11    1    1    2    0    0  0.22883813121E+02 -0.19477344454E+02 -0.14255428991E+03  0.14568720404E+03  0.00000000000E+00 0.  1.
</event>
<event>
 8    1  0.6380400E-009  0.6804345E+02  0.7561462E-02  0.1366876E+00
          2   -1    0    0  501    0  0.00000000000E+00  0.00000000000E+00  0.95836642955E+02  0.95836642955E+02  0.00000000000E+00 0. -1.
         -2   -1    0    0    0  501 -0.00000000000E+00 -0.00000000000E+00 -0.16686506789E+03  0.16686506789E+03  0.00000000000E+00 0.  1.
         25    2    1    2    0    0 -0.18940161506E+02  0.56880884859E+02 -0.54154958531E+02  0.14891402508E+03  0.12509381500E+03 0.  0.
         23    2    1    2    0    0  0.18940161506E+02 -0.56880884859E+02 -0.16873466404E+02  0.11378768576E+03  0.95230030886E+02 0.  0.
          5    1    3    3  502    0 -0.25679242811E+02  0.48245807525E+02 -0.93212537786E+02  0.10813478190E+03  0.41800000000E+01 0.  1.
         -5    1    3    3    0  502  0.67390813050E+01  0.86350773342E+01  0.39057579256E+02  0.40779243185E+02  0.41800000000E+01 0.  1.
        -11    1    4    4    0    0 -0.24453741466E+01 -0.45036037104E+02 -0.53360319697E+02  0.69868077195E+02  0.00000000000E+00 0.  1.
         11    1    4    4    0    0  0.21385535653E+02 -0.11844847756E+02  0.36486853293E+02  0.43919608568E+02  0.00000000000E+00 0. -1.
</event>
<event>
 8    1  0.6380400E-009  0.9953941E+02  0.7561462E-02  0.1281268E+00
         -2   -1    0    0    0  501 -0.00000000000E+00  0.00000000000E+00  0.44672846710E+02  0.44672846710E+02  0.00000000000E+00 0.  1.
          2   -1    0    0  501    0  0.00000000000E+00 -0.00000000000E+00 -0.38424505304E+03  0.38424505304E+03  0.00000000000E+00 0. -1.
         25    2    1    2    0    0 -0.54149667394E+02 -0.49395856298E+02 -0.18157913474E+03  0.23235353412E+03  0.12508015650E+03 0.  0.
         23    2    1    2    0    0  0.54149667394E+02  0.49395856298E+02 -0.15799307159E+03  0.19656436562E+03  0.91124102541E+02 0.  0.
          5    1    3    3  502    0 -0.65710010766E+02  0.70482526074E+01 -0.35211452518E+02  0.74998681110E+02  0.41800000000E+01 0. -1.
         -5    1    3    3    0  502  0.11560343372E+02 -0.56444108906E+02 -0.14636768222E+03  0.15735485301E+03  0.41800000000E+01 0. -1.
        -11    1    4    4    0    0  0.33590104743E+02  0.19594905652E+02 -0.48372396061E+01  0.39187425932E+02  0.00000000000E+00 0.  1.
         11    1    4    4    0    0  0.20559562651E+02  0.29800950646E+02 -0.15315583198E+03  0.15737693969E+03  0.00000000000E+00 0. -1.
</event>
<event>
 8    1  0.6380400E-009  0.1479861E+03  0.7561462E-02  0.1202970E+00
         -4   -1    0    0    0  501 -0.00000000000E+00  0.00000000000E+00  0.20874050656E+03  0.20874050656E+03  0.00000000000E+00 0.  1.
          4   -1    0    0  501    0  0.00000000000E+00 -0.00000000000E+00 -0.20722183820E+03  0.20722183820E+03  0.00000000000E+00 0. -1.
         25    2    1    2    0    0  0.10685248890E+03 -0.58498708154E+02 -0.12792049600E+03  0.21644711189E+03  0.12508455424E+03 0.  0.
         23    2    1    2    0    0 -0.10685248890E+03  0.58498708154E+02  0.12943916436E+03  0.19951523288E+03  0.90621617959E+02 0.  0.
          5    1    3    3  502    0  0.41120226204E+02 -0.81077023282E+02 -0.11326232669E+03  0.14529344016E+03  0.41800000000E+01 0.  1.
         -5    1    3    3    0  502  0.65732262692E+02  0.22578315127E+02 -0.14658169305E+02  0.71153671725E+02  0.41800000000E+01 0.  1.
        -11    1    4    4    0    0 -0.88328867659E+02  0.70717076860E+02  0.63082443986E+02  0.12954647259E+03  0.00000000000E+00 0. -1.
         11    1    4    4    0    0 -0.18523621237E+02 -0.12218368705E+02  0.66356720371E+02  0.69968760286E+02  0.00000000000E+00 0.  1.
</event>
<event>
 8    1  0.6380400E-009  0.6902108E+02  0.7561462E-02  0.1363454E+00
          2   -1    0    0  501    0  0.00000000000E+00  0.00000000000E+00  0.12087666996E+03  0.12087666996E+03  0.00000000000E+00 0. -1.
         -2   -1    0    0    0  501 -0.00000000000E+00 -0.00000000000E+00 -0.17213235200E+03  0.17213235200E+03  0.00000000000E+00 0.  1.
         25    2    1    2    0    0  0.54695566387E+01  0.31451498492E+02  0.62672910788E+02  0.14349030022E+03  0.12506981932E+03 0.  0.
         23    2    1    2    0    0 -0.54695566387E+01 -0.31451498492E+02 -0.11392859283E+03  0.14951872174E+03  0.91416689277E+02 0.  0.
          5    1    3    3  502    0 -0.10096491027E+02 -0.37125981944E+01 -0.35841473505E+02  0.37653766604E+02  0.41800000000E+01 0.  1.
         -5    1    3    3    0  502  0.15566047666E+02  0.35164096686E+02  0.98514384293E+02  0.10583653362E+03  0.41800000000E+01 0.  1.
        -11    1    4    4    0    0  0.38199497902E+02 -0.17101492932E+02 -0.23304720783E+02  0.47903785980E+02  0.00000000000E+00 0. -1.
         11    1    4    4    0    0 -0.43669054541E+02 -0.14350005560E+02 -0.90623872045E+02  0.10161493576E+03  0.00000000000E+00 0.  1.
</event>
<event>
 8    1  0.6380400E-009  0.1275538E+03  0.7561462E-02  0.1231131E+00
         -1   -1    0    0    0  501 -0.00000000000E+00  0.00000000000E+00  0.33822982518E+03  0.33822982518E+03  0.00000000000E+00 0.  1.
          1   -1    0    0  501    0  0.00000000000E+00 -0.00000000000E+00 -0.56236009083E+02  0.56236009083E+02  0.00000000000E+00 0. -1.
         25    2    1    2    0    0 -0.75434643512E+02 -0.12929974150E+02  0.20805879981E+03  0.25454676196E+03  0.12509204680E+03 0.  0.
         23    2    1    2    0    0  0.75434643512E+02  0.12929974150E+02  0.73935016283E+02  0.13991907230E+03  0.90848172724E+02 0.  0.
          5    1    3    3  502    0 -0.13091872954E+02  0.53276384850E+02  0.67505782518E+02  0.87087733886E+02  0.41800000000E+01 0. -1.
         -5    1    3    3    0  502 -0.62342770558E+02 -0.66206359000E+02  0.14055301729E+03  0.16745902807E+03  0.41800000000E+01 0. -1.
        -11    1    4    4    0    0 -0.96280329291E+01 -0.16448500116E+02 -0.55489651794E+01  0.19850521119E+02  0.00000000000E+00 0.  1.
         11    1    4    4    0    0  0.85062676441E+02  0.29378474267E+02  0.79483981463E+02  0.12006855118E+03  0.00000000000E+00 0. -1.
</event>
<event>
 8    1  0.6380400E-009  0.9681388E+02  0.7561462E-02  0.1287142E+00
         -2   -1    0    0    0  501 -0.00000000000E+00  0.00000000000E+00  0.51177379976E+02  0.51177379976E+02  0.00000000000E+00 0. -1.
          2   -1    0    0  501    0  0.00000000000E+00 -0.00000000000E+00 -0.26255317896E+03  0.26255317896E+03  0.00000000000E+00 0.  1.
         25    2    1    2    0    0  0.40335815206E+02  0.10569307513E+02 -0.11967587104E+03  0.17806770422E+03  0.12508838846E+03 0.  0.
         23    2    1    2    0    0 -0.40335815206E+02 -0.10569307513E+02 -0.91699927944E+02  0.13566285472E+03  0.90867183932E+02 0.  0.
          5    1    3    3  502    0 -0.19295649109E+02  0.42577435319E+02 -0.82799765660E+01  0.47657008769E+02  0.41800000000E+01 0.  1.
         -5    1    3    3    0  502  0.59631464315E+02 -0.32008127806E+02 -0.11139589447E+03  0.13041069545E+03  0.41800000000E+01 0.  1.
        -11    1    4    4    0    0 -0.50839657594E+02 -0.28369511907E+02 -0.98057844389E+02  0.11403876901E+03  0.00000000000E+00 0.  1.
         11    1    4    4    0    0  0.10503842388E+02  0.17800204395E+02  0.63579164447E+01  0.21624085713E+02  0.00000000000E+00 0. -1.
</event>
<event>
 8    1  0.6380400E-009  0.9083196E+02  0.7561462E-02  0.1300849E+00
          2   -1    0    0  501    0  0.00000000000E+00  0.00000000000E+00  0.74787507761E+02  0.74787507761E+02  0.00000000000E+00 0. -1.
         -2   -1    0    0    0  501 -0.00000000000E+00 -0.00000000000E+00 -0.21002428607E+03  0.21002428607E+03  0.00000000000E+00 0.  1.
         25    2    1    2    0    0 -0.62403491882E+00  0.48551683593E+02 -0.10452408630E+03  0.17008962811E+03  0.12509013380E+03 0.  0.
         23    2    1    2    0    0  0.62403491882E+00 -0.48551683593E+02 -0.30712692013E+02  0.11472216572E+03  0.99298793840E+02 0.  0.
          5    1    3    3  502    0 -0.26786198764E+02  0.13478806981E+02  0.21162222431E+02  0.36939013794E+02  0.41800000000E+01 0.  1.
         -5    1    3    3    0  502  0.26162163845E+02  0.35072876612E+02 -0.12568630873E+03  0.13315061432E+03  0.41800000000E+01 0.  1.
        -11    1    4    4    0    0 -0.47186614419E+02 -0.31209786971E+02 -0.29603728173E+02  0.63851453428E+02  0.00000000000E+00 0.  1.
         11    1    4    4    0    0  0.47810649338E+02 -0.17341896622E+02 -0.11089638406E+01  0.50870712295E+02  0.00000000000E+00 0. -1.
</event>
<event>
 8    1  0.6380400E-009  0.7132234E+02  0.7561462E-02  0.1355653E+00
         -1   -1    0    0    0  501 -0.00000000000E+00  0.00000000000E+00  0.20337209645E+02  0.20337209645E+02  0.00000000000E+00 0.  1.
          1   -1    0    0  501    0  0.00000000000E+00 -0.00000000000E+00 -0.58812611093E+03  0.58812611093E+03  0.00000000000E+00 0. -1.
         25    2    1    2    0    0 -0.69667634199E+00 -0.14762897530E+02 -0.29931711388E+03  0.32474259345E+03  0.12509431976E+03 0.  0.
         23    2    1    2    0    0  0.69667634199E+00  0.14762897530E+02 -0.26847178740E+03  0.28372072712E+03  0.90564462502E+02 0.  0.
          5    1    3    3  502    0 -0.15461280917E+02  0.17875033478E+02 -0.75772616017E+00  0.24012800302E+02  0.41800000000E+01 0.  1.
         -5    1    3    3    0  502  0.14764604575E+02 -0.32637931008E+02 -0.29855938772E+03  0.30072979315E+03  0.41800000000E+01 0.  1.
        -11    1    4    4    0    0 -0.14186490100E+02  0.45913457507E+02 -0.21323336506E+03  0.21858126648E+03  0.00000000000E+00 0.  1.
         11    1    4    4    0    0  0.14883166442E+02 -0.31150559977E+02 -0.55238422342E+02  0.65139460644E+02  0.00000000000E+00 0. -1.
</event>
<event>
 7    1  0.6380400E-009  0.1400951E+03  0.7561462E-02  0.1213201E+00
          1   -1    0    0  501    0  0.00000000000E+00  0.00000000000E+00  0.79022013967E+03  0.79022013967E+03  0.00000000000E+00 0. -1.
         -1   -1    0    0    0  501 -0.00000000000E+00 -0.00000000000E+00 -0.29130918387E+02  0.29130918387E+02  0.00000000000E+00 0.  1.
         23    2    1    2    0    0 -0.40496392344E+02  0.82071123693E+02  0.49064579753E+03  0.50751802016E+03  0.92008776804E+02 0.  0.
          5    1    1    2  502    0  0.78595561601E+02 -0.26742103227E+02  0.11026604974E+03  0.13808865454E+03  0.41800000000E+01 0.  1.
         -5    1    1    2    0  502 -0.38099169256E+02 -0.55329020466E+02  0.16017737401E+03  0.17374438335E+03  0.41800000000E+01 0.  1.
        -11    1    3    3    0    0  0.58625952481E+01  0.83178349055E+02  0.31920753553E+03  0.32991886657E+03  0.00000000000E+00 0. -1.
         11    1    3    3    0    0 -0.46358987592E+02 -0.11072253619E+01  0.17143826200E+03  0.17759915359E+03  0.00000000000E+00 0.  1.
</event>
<event>
 8    1  0.6380400E-009  0.1370271E+03  0.7561462E-02  0.1217386E+00
         -1   -1    0    0    0  501 -0.00000000000E+00  0.00000000000E+00  0.33856991237E+03  0.33856991237E+03  0.00000000000E+00 0.  1.
          1   -1    0    0  501    0  0.00000000000E+00 -0.00000000000E+00 -0.57022945028E+02  0.57022945028E+02  0.00000000000E+00 0. -1.
         25    2    1    2    0    0  0.82126901206E+02 -0.25725198889E+02  0.15934484727E+03  0.22009976154E+03  0.12508601408E+03 0.  0.
         23    2    1    2    0    0 -0.82126901206E+02  0.25725198889E+02  0.12220212007E+03  0.17549309586E+03  0.91966596030E+02 0.  0.
          5    1    3    3  502    0  0.11045333472E+02 -0.65540290894E+02  0.95888704496E+02  0.11674607133E+03  0.41800000000E+01 0. -1.
         -5    1    3    3    0  502  0.71081567733E+02  0.39815092006E+02  0.63456142777E+02  0.10335369020E+03  0.41800000000E+01 0. -1.
        -11    1    4    4    0    0 -0.25920503741E+02 -0.34726744532E+02  0.39196675130E+02  0.58431144445E+02  0.00000000000E+00 0.  1.
         11    1    4    4    0    0 -0.56206397465E+02  0.60451943420E+02  0.83005444940E+02  0.11706195141E+03  0.00000000000E+00 0. -1.
</event>
<event>
 8    1  0.6380400E-009  0.9200027E+02  0.7561462E-02  0.1298079E+00
         -1   -1    0    0    0  501 -0.00000000000E+00  0.00000000000E+00  0.13482263827E+03  0.13482263827E+03  0.00000000000E+00 0.  1.
          1   -1    0    0  501    0  0.00000000000E+00 -0.00000000000E+00 -0.15204141779E+03  0.15204141779E+03  0.00000000000E+00 0. -1.
         25    2    1    2    0    0 -0.52980905302E+02 -0.42658864222E+02  0.55825582954E+02  0.15293834668E+03  0.12508751797E+03 0.  0.
         23    2    1    2    0    0  0.52980905302E+02  0.42658864222E+02 -0.73044362472E+02  0.13392570938E+03  0.89296482128E+02 0.  0.
          5    1    3    3  502    0 -0.47835257101E+02 -0.65796268942E+02  0.83236069756E+02  0.11646062226E+03  0.41800000000E+01 0. -1.
         -5    1    3    3    0  502 -0.51456482015E+01  0.23137404720E+02 -0.27410486802E+02  0.36477724426E+02  0.41800000000E+01 0. -1.
        -11    1    4    4    0    0 -0.41576706363E+00  0.20761096168E+02  0.17093031278E+02  0.26895495806E+02  0.00000000000E+00 0.  1.
         11    1    4    4    0    0  0.53396672366E+02  0.21897768054E+02 -0.90137393750E+02  0.10703021357E+03  0.00000000000E+00 0. -1.
</event>
<event>
 8    1  0.6380400E-009  0.1068036E+03  0.7561462E-02  0.1266606E+00
         -2   -1    0    0    0  501 -0.00000000000E+00  0.00000000000E+00  0.36974073421E+02  0.36974073421E+02  0.00000000000E+00 0.  1.
          2   -1    0    0  501    0  0.00000000000E+00 -0.00000000000E+00 -0.41064036333E+03  0.41064036333E+03  0.00000000000E+00 0. -1.
         25    2    1    2    0    0 -0.64927031796E+02  0.20234408714E+02 -0.18298792688E+03  0.23184434016E+03  0.12506904463E+03 0.  0.
         23    2    1    2    0    0  0.64927031796E+02 -0.20234408714E+02 -0.19067836303E+03  0.21577009659E+03  0.74656183289E+02 0.  0.
          5    1    3    3  502    0  0.21417134119E+02 -0.17650561701E+02 -0.25113115078E+01  0.28178272618E+02  0.41800000000E+01 0.  1.
         -5    1    3    3    0  502 -0.86344165915E+02  0.37884970415E+02 -0.18047661537E+03  0.20366606754E+03  0.41800000000E+01 0.  1.
        -11    1    4    4    0    0 -0.11340089605E+02 -0.80914381720E+01 -0.52234336920E+01  0.14877945539E+02  0.00000000000E+00 0.  1.
         11    1    4    4    0    0  0.76267121400E+02 -0.12142970542E+02 -0.18545492934E+03  0.20089215106E+03  0.00000000000E+00 0. -1.
</event>
<event>
 8    1  0.6380400E-009  0.1170541E+03  0.7561462E-02  0.1248037E+00
          1   -1    0    0  501    0  0.00000000000E+00  0.00000000000E+00  0.85688019409E+02  0.85688019409E+02  0.00000000000E+00 0. -1.
         -1   -1    0    0    0  501 -0.00000000000E+00 -0.00000000000E+00 -0.19676443205E+03  0.19676443205E+03  0.00000000000E+00 0.  1.
         25    2    1    2    0    0 -0.21025874133E+02 -0.61921348165E+02 -0.37140705596E+02  0.14595349079E+03  0.12508656491E+03 0.  0.
         23    2    1    2    0    0  0.21025874133E+02  0.61921348165E+02 -0.73935707048E+02  0.13649896067E+03  0.94282218609E+02 0.  0.
          5    1    3    3  502    0  0.43695980066E+02  0.82228742612E+01 -0.40108420725E+01  0.44838750977E+02  0.41800000000E+01 0. -1.
         -5    1    3    3    0  502 -0.64721854199E+02 -0.70144222426E+02 -0.33129863523E+02  0.10111473981E+03  0.41800000000E+01 0. -1.
        -11    1    4    4    0    0  0.37882933566E+02  0.66424461892E+02 -0.18907344198E+02  0.78770638298E+02  0.00000000000E+00 0. -1.
         11    1    4    4    0    0 -0.16857059433E+02 -0.45031137271E+01 -0.55028362850E+02  0.57728322373E+02  0.00000000000E+00 0.  1.
</event>
<event>
 8    1  0.6380400E-009  0.1064884E+03  0.7561462E-02  0.1267215E+00
         -1   -1    0    0    0  501 -0.00000000000E+00  0.00000000000E+00  0.12894108688E+04  0.12894108688E+04  0.00000000000E+00 0.  1.
          1   -1    0    0  501    0  0.00000000000E+00 -0.00000000000E+00 -0.97213159965E+01  0.97213159965E+01  0.00000000000E+00 0. -1.
         25    2    1    2    0    0 -0.14030564154E+02 -0.13960315925E+02  0.87681980045E+03  0.88591873883E+03  0.12508917700E+03 0.  0.
         23    2    1    2    0    0  0.14030564154E+02  0.13960315925E+02  0.40286975233E+03  0.41321344594E+03  0.89719381477E+02 0.  0.
          5    1    3    3  502    0  0.74075893852E+00  0.53175752821E+02  0.50182852063E+03  0.50465586882E+03  0.41800000000E+01 0. -1.
         -5    1    3    3    0  502 -0.14771323093E+02 -0.67136068746E+02  0.37499127982E+03  0.38126287002E+03  0.41800000000E+01 0. -1.
        -11    1    4    4    0    0 -0.33229251029E+01 -0.36886794188E+02  0.19682202212E+03  0.20027627370E+03  0.00000000000E+00 0.  1.
         11    1    4    4    0    0  0.17353489257E+02  0.50847110113E+02  0.20604773021E+03  0.21293717224E+03  0.00000000000E+00 0. -1.
</event>
<event>
 7    1  0.6380400E-009  0.8945548E+02  0.7561462E-02  0.1304176E+00
          1   -1    0    0  501    0  0.00000000000E+00  0.00000000000E+00  0.89574321259E+03  0.89574321259E+03  0.00000000000E+00 0. -1.
         -1   -1    0    0    0  501 -0.00000000000E+00 -0.00000000000E+00 -0.15977387390E+02  0.15977387390E+02  0.00000000000E+00 0.  1.
         25    2    1    2    0    0  0.46556865224E+02 -0.60091610555E+02  0.66277601160E+03  0.67874763985E+03  0.12509106160E+03 0.  0.
          5    1    3    3  502    0 -0.11160841126E+02  0.51832884567E+00  0.13171682168E+01  0.12001682030E+02  0.41800000000E+01 0.  1.
         -5    1    3    3    0  502  0.57717706351E+02 -0.60609939401E+02  0.66145884338E+03  0.66674595782E+03  0.41800000000E+01 0.  1.
        -11    1    1    2    0    0 -0.11389352445E+02  0.42229569461E+02  0.13653166336E+03  0.14336648487E+03  0.00000000000E+00 0. -1.
         11    1    1    2    0    0 -0.35167512780E+02  0.17862041094E+02  0.80458150245E+02  0.89606475257E+02  0.00000000000E+00 0.  1.
</event>
<event>
 8    1  0.6380400E-009  0.8221935E+02  0.7561462E-02  0.1322869E+00
         -2   -1    0    0    0  501 -0.00000000000E+00  0.00000000000E+00  0.14215262761E+03  0.14215262761E+03  0.00000000000E+00 0.  1.
          2   -1    0    0  501    0  0.00000000000E+00 -0.00000000000E+00 -0.84693035917E+02  0.84693035917E+02  0.00000000000E+00 0. -1.
         25    2    1    2    0    0  0.60274621803E+01  0.93254027139E+01  0.14277927911E+02  0.12639136457E+03  0.12509046477E+03 0.  0.
         23    2    1    2    0    0 -0.60274621803E+01 -0.93254027139E+01  0.43181663778E+02  0.10045429895E+03  0.90017313089E+02 0.  0.
          5    1    3    3  502    0  0.40551519258E+02  0.10289597809E+01  0.57377847706E+02  0.70392998798E+02  0.41800000000E+01 0. -1.
         -5    1    3    3    0  502 -0.34524057078E+02  0.82964429331E+01 -0.43099919796E+02  0.55998365770E+02  0.41800000000E+01 0. -1.
        -11    1    4    4    0    0 -0.42872981744E+02  0.13031065692E+02  0.96209697630E+01  0.45830822553E+02  0.00000000000E+00 0.  1.
         11    1    4    4    0    0  0.36845519564E+02 -0.22356468406E+02  0.33560694015E+02  0.54623476402E+02  0.00000000000E+00 0. -1.
</event>
<event>
 8    1  0.6380400E-009  0.1175051E+03  0.7561462E-02  0.1247270E+00
         -2   -1    0    0    0  501 -0.00000000000E+00  0.00000000000E+00  0.98913217396E+02  0.98913217396E+02  0.00000000000E+00 0.  1.
          2   -1    0    0  501    0  0.00000000000E+00 -0.00000000000E+00 -0.18724159988E+03  0.18724159988E+03  0.00000000000E+00 0. -1.
         25    2    1    2    0    0 -0.66174868185E+02 -0.78223251960E+01  0.15032693234E+01  0.14169505876E+03  0.12503970533E+03 0.  0.
         23    2    1    2    0    0  0.66174868185E+02  0.78223251960E+01 -0.89831651809E+02  0.14445975852E+03  0.91425347759E+02 0.  0.
          5    1    3    3  502    0 -0.45708054135E+01 -0.59840263227E+02  0.80373377684E+01  0.60694485446E+02  0.41800000000E+01 0.  1.
         -5    1    3    3    0  502 -0.61604062772E+02  0.52017938031E+02 -0.65340684450E+01  0.81000573315E+02  0.41800000000E+01 0.  1.
        -11    1    4    4    0    0  0.68358742314E+01  0.29997542502E+02  0.42298332371E+01  0.31055969183E+02  0.00000000000E+00 0.  1.
         11    1    4    4    0    0  0.59338993954E+02 -0.22175217306E+02 -0.94061485047E+02  0.11340378933E+03  0.00000000000E+00 0. -1.
</event>
<event>
 8    1  0.6380400E-009  0.1000011E+03  0.7561462E-02  0.1280294E+00
         -1   -1    0    0    0  501 -0.00000000000E+00  0.00000000000E+00  0.13463158700E+02  0.13463158700E+02  0.00000000000E+00 0.  1.
          1   -1    0    0  501    0  0.00000000000E+00 -0.00000000000E+00 -0.91919157954E+03  0.91919157954E+03  0.00000000000E+00 0. -1.
         25    2    1    2    0    0  0.95492967968E+01 -0.98582738275E+01 -0.43360603188E+03  0.45149712442E+03  0.12508832019E+03 0.  0.
         23    2    1    2    0    0 -0.95492967968E+01  0.98582738275E+01 -0.47212238896E+03  0.48115761382E+03  0.91786298243E+02 0.  0.
          5    1    3    3  502    0  0.38350562631E+02 -0.47460946951E+02 -0.35010058339E+03  0.35540286722E+03  0.41800000000E+01 0.  1.
         -5    1    3    3    0  502 -0.28801265834E+02  0.37602673123E+02 -0.83505448496E+02  0.96094257207E+02  0.41800000000E+01 0.  1.
        -11    1    4    4    0    0 -0.49322900932E+02 -0.32049815604E+01 -0.29814544482E+03  0.30221470304E+03  0.00000000000E+00 0. -1.
         11    1    4    4    0    0  0.39773604136E+02  0.13063255388E+02 -0.17397694413E+03  0.17894291078E+03  0.00000000000E+00 0.  1.
</event>
<event>
 8    1  0.6380400E-009  0.1143893E+03  0.7561462E-02  0.1252651E+00
          1   -1    0    0  501    0  0.00000000000E+00  0.00000000000E+00  0.38937828188E+02  0.38937828188E+02  0.00000000000E+00 0. -1.
         -1   -1    0    0    0  501 -0.00000000000E+00 -0.00000000000E+00 -0.46285760467E+03  0.46285760467E+03  0.00000000000E+00 0.  1.
         25    2    1    2    0    0  0.38250998726E+02  0.81631242545E+01 -0.10523371474E+03  0.16807854863E+03  0.12508592362E+03 0.  0.
         23    2    1    2    0    0 -0.38250998726E+02 -0.81631242545E+01 -0.31868606173E+03  0.33371688423E+03  0.90974597413E+02 0.  0.
          5    1    3    3  502    0  0.54992064293E+02  0.56262599332E+02 -0.52669335890E+02  0.94768869160E+02  0.41800000000E+01 0. -1.
         -5    1    3    3    0  502 -0.16741065567E+02 -0.48099475077E+02 -0.52564378854E+02  0.73309679466E+02  0.41800000000E+01 0. -1.
        -11    1    4    4    0    0 -0.36205433657E+02 -0.47375998773E+02 -0.20053176031E+03  0.20920876076E+03  0.00000000000E+00 0. -1.
         11    1    4    4    0    0 -0.20455650698E+01  0.39212874518E+02 -0.11815430142E+03  0.12450812347E+03  0.00000000000E+00 0.  1.
</event>
<event>
 8    1  0.6380400E-009  0.1151230E+03  0.7561462E-02  0.1251367E+00
         -2   -1    0    0    0  501 -0.00000000000E+00  0.00000000000E+00  0.16237096831E+03  0.16237096831E+03  0.00000000000E+00 0.  1.
          2   -1    0    0  501    0  0.00000000000E+00 -0.00000000000E+00 -0.12653373546E+03  0.12653373546E+03  0.00000000000E+00 0. -1.
         25    2    1    2    0    0  0.26926344630E+02  0.60279161341E+02 -0.46757341737E+02  0.14897293232E+03  0.12509228685E+03 0.  0.
         23    2    1    2    0    0 -0.26926344630E+02 -0.60279161341E+02  0.82594574592E+02  0.13993177145E+03  0.91653868347E+02 0.  0.
          5    1    3    3  502    0 -0.27589542170E+02 -0.23822237143E+02 -0.29736225558E+02  0.47227082592E+02  0.41800000000E+01 0. -1.
         -5    1    3    3    0  502  0.54515886800E+02  0.84101398484E+02 -0.17021116178E+02  0.10174584973E+03  0.41800000000E+01 0. -1.
        -11    1    4    4    0    0  0.21893115976E+02 -0.14078195459E+02  0.65638378849E+02  0.70610911993E+02  0.00000000000E+00 0.  1.
         11    1    4    4    0    0 -0.48819460606E+02 -0.46200965882E+02  0.16956195743E+02  0.69320859460E+02  0.00000000000E+00 0. -1.
</event>
<event>
 8    1  0.6380400E-009  0.1278228E+03  0.7561462E-02  0.1230722E+00
          2   -1    0    0  501    0  0.00000000000E+00  0.00000000000E+00  0.62996192574E+03  0.62996192574E+03  0.00000000000E+00 0. -1.
         -2   -1    0    0    0  501 -0.00000000000E+00 -0.00000000000E+00 -0.36619469393E+02  0.36619469393E+02  0.00000000000E+00 0.  1.
         25    2    1    2    0    0  0.10072706987E+03 -0.32420944990E+02  0.35206063654E+03  0.38831798572E+03  0.12508839257E+03 0.  0.
         23    2    1    2    0    0 -0.10072706987E+03  0.32420944990E+02  0.24128181981E+03  0.27826340942E+03  0.89535178386E+02 0.  0.
          5    1    3    3  502    0  0.81541772553E+02  0.26732093998E+01  0.83691845723E+02  0.11695299979E+03  0.41800000000E+01 0.  1.
         -5    1    3    3    0  502  0.19185297320E+02 -0.35094154389E+02  0.26836879081E+03  0.27136498593E+03  0.41800000000E+01 0.  1.
        -11    1    4    4    0    0 -0.24813234117E+01  0.35362594906E+02  0.10046735671E+03  0.10653806760E+03  0.00000000000E+00 0. -1.
         11    1    4    4    0    0 -0.98245746461E+02 -0.29416499168E+01  0.14081446311E+03  0.17172534182E+03  0.00000000000E+00 0.  1.
</event>
<event>
 8    1  0.6380400E-009  0.1229527E+03  0.7561462E-02  0.1238304E+00
         -1   -1    0    0    0  501 -0.00000000000E+00  0.00000000000E+00  0.90007891804E+03  0.90007891804E+03  0.00000000000E+00 0.  1.
          1   -1    0    0  501    0  0.00000000000E+00 -0.00000000000E+00 -0.39984078399E+02  0.39984078399E+02  0.00000000000E+00 0. -1.
         25    2    1    2    0    0  0.87804239515E+02 -0.63765752012E+02  0.72187124148E+03  0.74062151541E+03  0.12508590732E+03 0.  0.
         23    2    1    2    0    0 -0.87804239515E+02  0.63765752012E+02  0.13822359816E+03  0.19944148103E+03  0.94315882325E+02 0.  0.
          5    1    3    3  502    0  0.64724658516E+02 -0.46288872530E+02  0.16758891039E+03  0.18556792941E+03  0.41800000000E+01 0. -1.
         -5    1    3    3    0  502  0.23079580999E+02 -0.17476879482E+02  0.55428233109E+03  0.55505358600E+03  0.41800000000E+01 0. -1.
        -11    1    4    4    0    0 -0.72122470494E+02  0.84614387483E+00  0.10271942921E+03  0.12551353651E+03  0.00000000000E+00 0.  1.
         11    1    4    4    0    0 -0.15681769021E+02  0.62919608137E+02  0.35504168954E+02  0.73927944519E+02  0.00000000000E+00 0. -1.
</event>
<event>
 8    1  0.6380400E-009  0.1444790E+03  0.7561462E-02  0.1207426E+00
          1   -1    0    0  501    0  0.00000000000E+00  0.00000000000E+00  0.15600845445E+03  0.15600845445E+03  0.00000000000E+00 0. -1.
         -1   -1    0    0    0  501 -0.00000000000E+00 -0.00000000000E+00 -0.18373741436E+03  0.18373741436E+03  0.00000000000E+00 0.  1.
         25    2    1    2    0    0 -0.29263610984E+02 -0.11769538192E+03  0.35714626393E+02  0.17785753931E+03  0.12509679411E+03 0.  0.
         23    2    1    2    0    0  0.29263610984E+02  0.11769538192E+03 -0.63443586304E+02  0.16188832951E+03  0.86453344258E+02 0.  0.
          5    1    3    3  502    0 -0.73688669395E+02 -0.79384514088E+02 -0.12358509671E+01  0.10840166420E+03  0.41800000000E+01 0. -1.
         -5    1    3    3    0  502  0.44425058411E+02 -0.38310867837E+02  0.36950477361E+02  0.69455875104E+02  0.41800000000E+01 0. -1.
        -11    1    4    4    0    0  0.14598434391E+02  0.37784648027E+02 -0.69473182896E+02  0.80419631030E+02  0.00000000000E+00 0.  1.
         11    1    4    4    0    0  0.14665176593E+02  0.79910733898E+02  0.60295965924E+01  0.81468698477E+02  0.00000000000E+00 0. -1.
</event>
<event>
 8    1  0.6380400E-009  0.1441624E+03  0.7561462E-02  0.1207835E+00
          1   -1    0    0  501    0  0.00000000000E+00  0.00000000000E+00  0.13927537686E+03  0.13927537686E+03  0.00000000000E+00 0. -1.
         -1   -1    0    0    0  501 -0.00000000000E+00 -0.00000000000E+00 -0.17573817822E+03  0.17573817822E+03  0.00000000000E+00 0.  1.
         25    2    1    2    0    0  0.64151668043E+02  0.89775950825E+02 -0.45392363979E+02  0.17287054116E+03  0.12509436211E+03 0.  0.
         23    2    1    2    0    0 -0.64151668043E+02 -0.89775950825E+02  0.89295626134E+01  0.14214301392E+03  0.89161322661E+02 0.  0.
          5    1    3    3  502    0  0.60282931372E+02  0.12037892987E+03 -0.29364823666E+02  0.13785820193E+03  0.41800000000E+01 0. -1.
         -5    1    3    3    0  502  0.38687366710E+01 -0.30602979041E+02 -0.16027540313E+02  0.35012339226E+02  0.41800000000E+01 0. -1.
        -11    1    4    4    0    0 -0.40129622996E+02 -0.89932150595E+02  0.36996410136E+02  0.10519939503E+03  0.00000000000E+00 0. -1.
         11    1    4    4    0    0 -0.24022045048E+02  0.15619976962E+00 -0.28066847523E+02  0.36943618887E+02  0.00000000000E+00 0.  1.
</event>
<event>
 8    1  0.6380400E-009  0.1418464E+03  0.7561462E-02  0.1210866E+00
          2   -1    0    0  501    0  0.00000000000E+00  0.00000000000E+00  0.15509663994E+04  0.15509663994E+04  0.00000000000E+00 0. -1.
         -2   -1    0    0    0  501 -0.00000000000E+00 -0.00000000000E+00 -0.17392137688E+02  0.17392137688E+02  0.00000000000E+00 0.  1.
         25    2    1    2    0    0 -0.16428321226E+02  0.10222491361E+03  0.11468457745E+04  0.11582845197E+04  0.12509186848E+03 0.  0.
         23    2    1    2    0    0  0.16428321226E+02 -0.10222491361E+03  0.38672848723E+03  0.41007401733E+03  0.88780370324E+02 0.  0.
          5    1    3    3  502    0 -0.46807189319E+02 -0.36976177362E+01  0.22629124701E+03  0.23114883997E+03  0.41800000000E+01 0.  1.
         -5    1    3    3    0  502  0.30378868093E+02  0.10592253134E+03  0.92055452747E+03  0.92713567978E+03  0.41800000000E+01 0.  1.
        -11    1    4    4    0    0 -0.28003861843E+02 -0.26911843829E+02  0.20193341975E+03  0.20563455359E+03  0.00000000000E+00 0. -1.
         11    1    4    4    0    0  0.44432183069E+02 -0.75313069778E+02  0.18479506748E+03  0.20443946374E+03  0.00000000000E+00 0.  1.
</event>
<event>
 8    1  0.6380400E-009  0.2598506E+03  0.7561462E-02  0.1107233E+00
         -1   -1    0    0    0  501 -0.00000000000E+00  0.00000000000E+00  0.47627986613E+03  0.47627986613E+03  0.00000000000E+00 0.  1.
          1   -1    0    0  501    0  0.00000000000E+00 -0.00000000000E+00 -0.24158410519E+03  0.24158410519E+03  0.00000000000E+00 0. -1.
         25    2    1    2    0    0 -0.73970165189E+02  0.22805159001E+03  0.34713154928E+03  0.44003147990E+03  0.12509307635E+03 0.  0.
         23    2    1    2    0    0  0.73970165189E+02 -0.22805159001E+03 -0.11243578834E+03  0.27783249143E+03  0.84083135945E+02 0.  0.
          5    1    3    3  502    0 -0.31185466173E+02  0.22480668000E+03  0.29920387356E+03  0.37556757983E+03  0.41800000000E+01 0. -1.
         -5    1    3    3    0  502 -0.42784699016E+02  0.32449100126E+01  0.47927675723E+02  0.64463900061E+02  0.41800000000E+01 0. -1.
        -11    1    4    4    0    0 -0.58125948108E+00 -0.10980396823E+03 -0.75470281590E+02  0.13324043194E+03  0.00000000000E+00 0.  1.
         11    1    4    4    0    0  0.74551424670E+02 -0.11824762178E+03 -0.36965506754E+02  0.14459205949E+03  0.00000000000E+00 0. -1.
</event>
<event>
 7    1  0.6380400E-009  0.2021253E+03  0.7561462E-02  0.1147958E+00
         -1   -1    0    0    0  501 -0.00000000000E+00  0.00000000000E+00  0.52539091760E+02  0.52539091760E+02  0.00000000000E+00 0.  1.
          1   -1    0    0  501    0  0.00000000000E+00 -0.00000000000E+00 -0.92539413937E+03  0.92539413937E+03  0.00000000000E+00 0. -1.
         23    2    1    2    0    0 -0.17912705950E+03  0.82647505555E+01 -0.27000036646E+03  0.33681820034E+03  0.91605090706E+02 0.  0.
          5    1    1    2  502    0  0.54521664400E+01 -0.28350899457E+02 -0.28721482404E+02  0.40937703531E+02  0.41800000000E+01 0. -1.
         -5    1    1    2    0  502  0.17367489306E+03  0.20086148901E+02 -0.57413319874E+03  0.60017732726E+03  0.41800000000E+01 0. -1.
        -11    1    3    3    0    0 -0.28887847909E+01 -0.21300686912E+02 -0.18911962921E+02  0.28630869390E+02  0.00000000000E+00 0.  1.
         11    1    3    3    0    0 -0.17623827471E+03  0.29565437467E+02 -0.25108840354E+03  0.30818733095E+03  0.00000000000E+00 0. -1.
</event>
<event>
 8    1  0.6380400E-009  0.2212453E+03  0.7561462E-02  0.1132958E+00
         -1   -1    0    0    0  501 -0.00000000000E+00  0.00000000000E+00  0.42332725275E+02  0.42332725275E+02  0.00000000000E+00 0.  1.
          1   -1    0    0  501    0  0.00000000000E+00 -0.00000000000E+00 -0.13853674297E+04  0.13853674297E+04  0.00000000000E+00 0. -1.
         25    2    1    2    0    0 -0.14288221482E+03  0.14881990621E+03 -0.50729109278E+03  0.56174139012E+03  0.12508574962E+03 0.  0.
         23    2    1    2    0    0  0.14288221482E+03 -0.14881990621E+03 -0.83574361161E+03  0.86595876483E+03  0.94098385932E+02 0.  0.
          5    1    3    3  502    0 -0.15429889028E+03  0.95710192834E+02 -0.43355917046E+03  0.47006341620E+03  0.41800000000E+01 0.  1.
         -5    1    3    3    0  502  0.11416675461E+02  0.53109713371E+02 -0.73731922321E+02  0.91677973920E+02  0.41800000000E+01 0.  1.
        -11    1    4    4    0    0  0.90682496817E+02 -0.98390371930E+02 -0.69325117472E+03  0.70604615413E+03  0.00000000000E+00 0.  1.
         11    1    4    4    0    0  0.52199718007E+02 -0.50429534276E+02 -0.14249243690E+03  0.15991261070E+03  0.00000000000E+00 0. -1.
</event>
<event>
 8    1  0.6380400E-009  0.1016798E+03  0.7561462E-02  0.1276803E+00
         -1   -1    0    0    0  501 -0.00000000000E+00  0.00000000000E+00  0.18950843442E+03  0.18950843442E+03  0.00000000000E+00 0.  1.
          1   -1    0    0  501    0  0.00000000000E+00 -0.00000000000E+00 -0.12665009532E+03  0.12665009532E+03  0.00000000000E+00 0. -1.
         25    2    1    2    0    0  0.56184854706E+02  0.61638164413E+02  0.10786714519E+03  0.18504298084E+03  0.12509829151E+03 0.  0.
         23    2    1    2    0    0 -0.56184854706E+02 -0.61638164413E+02 -0.45008806091E+02  0.13111554890E+03  0.90606254351E+02 0.  0.
          5    1    3    3  502    0  0.63343635471E+02  0.39538078137E+02  0.16789940086E+00  0.74787541527E+02  0.41800000000E+01 0.  1.
         -5    1    3    3    0  502 -0.71587807648E+01  0.22100086276E+02  0.10769924579E+03  0.11025543932E+03  0.41800000000E+01 0.  1.
        -11    1    4    4    0    0  0.13626134826E+02 -0.18239788480E+02 -0.43272210971E+02  0.48896274668E+02  0.00000000000E+00 0. -1.
         11    1    4    4    0    0 -0.69810989532E+02 -0.43398375933E+02 -0.17365951206E+01  0.82219274234E+02  0.00000000000E+00 0.  1.
</event>
<event>
 8    1  0.6380400E-009  0.1109779E+03  0.7561462E-02  0.1258770E+00
         -1   -1    0    0    0  501 -0.00000000000E+00  0.00000000000E+00  0.34897614165E+02  0.34897614165E+02  0.00000000000E+00 0.  1.
          1   -1    0    0  501    0  0.00000000000E+00 -0.00000000000E+00 -0.47893625535E+03  0.47893625535E+03  0.00000000000E+00 0. -1.
         25    2    1    2    0    0  0.33644078813E+02 -0.46380551207E+02 -0.23937174467E+03  0.27609494211E+03  0.12508599180E+03 0.  0.
         23    2    1    2    0    0 -0.33644078813E+02  0.46380551207E+02 -0.20466689652E+03  0.23773892740E+03  0.10652783440E+03 0.  0.
          5    1    3    3  502    0  0.61682725719E+02 -0.16649755781E+02 -0.22276774326E+03  0.23178635175E+03  0.41800000000E+01 0. -1.
         -5    1    3    3    0  502 -0.28038646907E+02 -0.29730795426E+02 -0.16604001402E+02  0.44308590359E+02  0.41800000000E+01 0. -1.
        -11    1    4    4    0    0 -0.11774035327E+02 -0.32723569918E+02 -0.91961532038E+02  0.98317767015E+02  0.00000000000E+00 0. -1.
         11    1    4    4    0    0 -0.21870043485E+02  0.79104121125E+02 -0.11270536448E+03  0.13942116039E+03  0.00000000000E+00 0.  1.
</event>
<event>
 8    1  0.6380400E-009  0.1054709E+03  0.7561462E-02  0.1269195E+00
         -2   -1    0    0    0  501 -0.00000000000E+00  0.00000000000E+00  0.35483226208E+03  0.35483226208E+03  0.00000000000E+00 0.  1.
          2   -1    0    0  501    0  0.00000000000E+00 -0.00000000000E+00 -0.82214531460E+02  0.82214531460E+02  0.00000000000E+00 0. -1.
         25    2    1    2    0    0 -0.69244059725E+02  0.12462430900E+02  0.28647222138E+03  0.32041238689E+03  0.12509081525E+03 0.  0.
         23    2    1    2    0    0  0.69244059725E+02 -0.12462430900E+02 -0.13854490752E+02  0.11663440666E+03  0.91986879015E+02 0.  0.
          5    1    3    3  502    0  0.33552791128E+02  0.11516537873E+01  0.11737768132E+03  0.12215608283E+03  0.41800000000E+01 0.  1.
         -5    1    3    3    0  502 -0.10279685085E+03  0.11310777113E+02  0.16909454005E+03  0.19825630406E+03  0.41800000000E+01 0.  1.
        -11    1    4    4    0    0  0.29946150073E+02  0.54205178751E+01  0.38305676056E+02  0.48923192213E+02  0.00000000000E+00 0.  1.
         11    1    4    4    0    0  0.39297909652E+02 -0.17882948775E+02 -0.52160166808E+02  0.67711214443E+02  0.00000000000E+00 0. -1.
</event>
<event>
 8    1  0.6380400E-009  0.1479918E+03  0.7561462E-02  0.1202963E+00
          2   -1    0    0  501    0  0.00000000000E+00  0.00000000000E+00  0.91636258075E+03  0.91636258075E+03  0.00000000000E+00 0. -1.
         -2   -1    0    0    0  501 -0.00000000000E+00 -0.00000000000E+00 -0.43238451634E+02  0.43238451634E+02  0.00000000000E+00 0.  1.
         25    2    1    2    0    0  0.63968338375E+02  0.11811858568E+03  0.22445553518E+03  0.28995192489E+03  0.12509149802E+03 0.  0.
         23    2    1    2    0    0 -0.63968338375E+02 -0.11811858568E+03  0.64866859393E+03  0.66964910749E+03  0.98056278803E+02 0.  0.
          5    1    3    3  502    0  0.58423401739E+02  0.11644230730E+03  0.23985095592E+03  0.27297995944E+03  0.41800000000E+01 0. -1.
         -5    1    3    3    0  502  0.55449366361E+01  0.16762783790E+01 -0.15395420738E+02  0.16971965449E+02  0.41800000000E+01 0. -1.
        -11    1    4    4    0    0 -0.48903731431E+02 -0.10744178255E+02  0.12090103917E+03  0.13085898359E+03  0.00000000000E+00 0. -1.
         11    1    4    4    0    0 -0.15064606944E+02 -0.10737440743E+03  0.52776755476E+03  0.53879012390E+03  0.00000000000E+00 0.  1.
</event>
<event>
 8    1  0.6380400E-009  0.1178360E+03  0.7561462E-02  0.1246710E+00
         -2   -1    0    0    0  501 -0.00000000000E+00  0.00000000000E+00  0.14012676590E+02  0.14012676590E+02  0.00000000000E+00 0.  1.
          2   -1    0    0  501    0  0.00000000000E+00 -0.00000000000E+00 -0.18320942178E+04  0.18320942178E+04  0.00000000000E+00 0. -1.
         25    2    1    2    0    0  0.66910904306E+02 -0.50169852131E+02 -0.14465033359E+04  0.14543088204E+04  0.12509261072E+03 0.  0.
         23    2    1    2    0    0 -0.66910904306E+02  0.50169852131E+02 -0.37157820531E+03  0.39179807395E+03  0.91876465502E+02 0.  0.
          5    1    3    3  502    0  0.58881649403E+01 -0.52499816886E+02 -0.11660458598E+04  0.11672494681E+04  0.41800000000E+01 0.  1.
         -5    1    3    3    0  502  0.61022739365E+02  0.23299647554E+01 -0.28045747610E+03  0.28705935232E+03  0.41800000000E+01 0.  1.
        -11    1    4    4    0    0  0.21540271982E+02  0.15158515740E+02 -0.11947953940E+03  0.12234837249E+03  0.00000000000E+00 0. -1.
         11    1    4    4    0    0 -0.88451176288E+02  0.35011336391E+02 -0.25209866591E+03  0.26944970146E+03  0.00000000000E+00 0.  1.
</event>
<event>
 8    1  0.6380400E-009  0.2746009E+03  0.7561462E-02  0.1098675E+00
         -2   -1    0    0    0  501 -0.00000000000E+00  0.00000000000E+00  0.29256656667E+02  0.29256656667E+02  0.00000000000E+00 0.  1.
          2   -1    0    0  501    0  0.00000000000E+00 -0.00000000000E+00 -0.30840923472E+04  0.30840923472E+04  0.00000000000E+00 0. -1.
         25    2    1    2    0    0  0.62669844956E+02  0.25572684178E+03 -0.20539180792E+04  0.20745002038E+04  0.12509153529E+03 0.  0.
         23    2    1    2    0    0 -0.62669844956E+02 -0.25572684178E+03 -0.10009176113E+04  0.10388488001E+04  0.89705282794E+02 0.  0.
          5    1    3    3  502    0 -0.13649945777E+02  0.88314905520E+02 -0.10538055973E+04  0.10575961199E+04  0.41800000000E+01 0.  1.
         -5    1    3    3    0  502  0.76319790733E+02  0.16741193626E+03 -0.10001124819E+04  0.10169040838E+04  0.41800000000E+01 0.  1.
        -11    1    4    4    0    0 -0.81581680445E+02 -0.22788622619E+03 -0.82652798142E+03  0.86124108514E+03  0.00000000000E+00 0.  1.
         11    1    4    4    0    0  0.18911835489E+02 -0.27840615591E+02 -0.17438962986E+03  0.17760771492E+03  0.00000000000E+00 0. -1.
</event>
<event>
 8    1  0.6380400E-009  0.1134157E+03  0.7561462E-02  0.1254372E+00
         -1   -1    0    0    0  501 -0.00000000000E+00  0.00000000000E+00  0.48558216967E+02  0.48558216967E+02  0.00000000000E+00 0.  1.
          1   -1    0    0  501    0  0.00000000000E+00 -0.00000000000E+00 -0.31959139923E+03  0.31959139923E+03  0.00000000000E+00 0. -1.
         25    2    1    2    0    0 -0.21738990847E+02 -0.49963173199E+02 -0.10733983769E+03  0.17359449140E+03  0.12507719333E+03 0.  0.
         23    2    1    2    0    0  0.21738990847E+02  0.49963173199E+02 -0.16369334458E+03  0.19455512480E+03  0.89929322961E+02 0.  0.
          5    1    3    3  502    0  0.36592521258E+02 -0.62631413497E+02 -0.79171664582E+02  0.10745851033E+03  0.41800000000E+01 0.  1.
         -5    1    3    3    0  502 -0.58331512105E+02  0.12668240298E+02 -0.28168173109E+02  0.66135981077E+02  0.41800000000E+01 0.  1.
        -11    1    4    4    0    0  0.88530313325E+01 -0.20696726075E+02 -0.94602137977E+01  0.24417745168E+02  0.00000000000E+00 0.  1.
         11    1    4    4    0    0  0.12885959514E+02  0.70659899275E+02 -0.15423313078E+03  0.17013737963E+03  0.00000000000E+00 0. -1.
</event>
<event>
 8    1  0.6380400E-009  0.1074990E+03  0.7561462E-02  0.1265273E+00
         -2   -1    0    0    0  501 -0.00000000000E+00  0.00000000000E+00  0.69135416209E+02  0.69135416209E+02  0.00000000000E+00 0.  1.
          2   -1    0    0  501    0  0.00000000000E+00 -0.00000000000E+00 -0.24991313269E+03  0.24991313269E+03  0.00000000000E+00 0. -1.
         25    2    1    2    0    0 -0.38554278235E+02 -0.37884195657E+02 -0.35546201134E+02  0.14083054842E+03  0.12509223118E+03 0.  0.
         23    2    1    2    0    0  0.38554278235E+02  0.37884195657E+02 -0.14523151535E+03  0.17821800049E+03  0.88021690479E+02 0.  0.
          5    1    3    3  502    0 -0.62943898840E+02  0.69038683630E+01  0.18800585837E+02  0.66185589273E+02  0.41800000000E+01 0.  1.
         -5    1    3    3    0  502  0.24389620605E+02 -0.44788064020E+02 -0.54346786971E+02  0.74644959146E+02  0.41800000000E+01 0.  1.
        -11    1    4    4    0    0  0.43980792015E+02 -0.15558806086E+02 -0.46787791281E+02  0.66071808860E+02  0.00000000000E+00 0.  1.
         11    1    4    4    0    0 -0.54265137801E+01  0.53443001743E+02 -0.98443724070E+02  0.11214619162E+03  0.00000000000E+00 0. -1.
</event>
<event>
 8    1  0.6380400E-009  0.1051784E+03  0.7561462E-02  0.1269769E+00
         -1   -1    0    0    0  501 -0.00000000000E+00  0.00000000000E+00  0.43947054867E+02  0.43947054867E+02  0.00000000000E+00 0.  1.
          1   -1    0    0  501    0  0.00000000000E+00 -0.00000000000E+00 -0.35802410368E+03  0.35802410368E+03  0.00000000000E+00 0. -1.
         25    2    1    2    0    0  0.15325032014E+02  0.56871303801E+02 -0.14071408470E+03  0.19727908793E+03  0.12509749438E+03 0.  0.
         23    2    1    2    0    0 -0.15325032014E+02 -0.56871303801E+02 -0.17336296411E+03  0.20469207061E+03  0.91514614374E+02 0.  0.
          5    1    3    3  502    0 -0.35404612411E+02 -0.77252948224E+01 -0.98079332567E+02  0.10464317769E+03  0.41800000000E+01 0.  1.
         -5    1    3    3    0  502  0.50729644425E+02  0.64596598623E+02 -0.42634752134E+02  0.92635910244E+02  0.41800000000E+01 0.  1.
        -11    1    4    4    0    0 -0.38241034699E+02 -0.10097992019E+02 -0.13311937885E+03  0.13887085801E+03  0.00000000000E+00 0. -1.
         11    1    4    4    0    0  0.22916002685E+02 -0.46773311782E+02 -0.40243585254E+02  0.65821212601E+02  0.00000000000E+00 0.  1.
</event>
<event>
 8    1  0.6380400E-009  0.2832153E+03  0.7561462E-02  0.1093946E+00
          1   -1    0    0  501    0  0.00000000000E+00  0.00000000000E+00  0.30826613558E+03  0.30826613558E+03  0.00000000000E+00 0. -1.
         -1   -1    0    0    0  501 -0.00000000000E+00 -0.00000000000E+00 -0.28121537001E+03  0.28121537001E+03  0.00000000000E+00 0.  1.
         25    2    1    2    0    0  0.83637734935E+02  0.24882294124E+03  0.90353988238E+02  0.30449970515E+03  0.12509236769E+03 0.  0.
         23    2    1    2    0    0 -0.83637734935E+02 -0.24882294124E+03 -0.63303222665E+02  0.28498180044E+03  0.91099954945E+02 0.  0.
          5    1    3    3  502    0 -0.31484125655E+02  0.54339118701E+02  0.59741551979E+01  0.63223041051E+02  0.41800000000E+01 0.  1.
         -5    1    3    3    0  502  0.11512186059E+03  0.19448382254E+03  0.84379833040E+02  0.24127666410E+03  0.41800000000E+01 0.  1.
        -11    1    4    4    0    0 -0.81147016336E+02 -0.10079417642E+03 -0.21785851482E+02  0.13122091139E+03  0.00000000000E+00 0.  1.
         11    1    4    4    0    0 -0.24907185997E+01 -0.14802876482E+03 -0.41517371183E+02  0.15376088905E+03  0.00000000000E+00 0. -1.
</event>
<event>
 8    1  0.6380400E-009  0.1423540E+03  0.7561462E-02  0.1210196E+00
         -1   -1    0    0    0  501 -0.00000000000E+00  0.00000000000E+00  0.16842003832E+03  0.16842003832E+03  0.00000000000E+00 0.  1.
          1   -1    0    0  501    0  0.00000000000E+00 -0.00000000000E+00 -0.22815835761E+03  0.22815835761E+03  0.00000000000E+00 0. -1.
         25    2    1    2    0    0 -0.14815722514E+02 -0.11566031921E+03 -0.14681423679E+03  0.22538849087E+03  0.12509491044E+03 0.  0.
         23    2    1    2    0    0  0.14815722514E+02  0.11566031921E+03  0.87075917504E+02  0.17118990506E+03  0.90149615159E+02 0.  0.
          5    1    3    3  502    0 -0.35998296560E+02  0.60155098899E+01 -0.72265802558E+02  0.81067147068E+02  0.41800000000E+01 0.  1.
         -5    1    3    3    0  502  0.21182574045E+02 -0.12167582910E+03 -0.74548434233E+02  0.14432134380E+03  0.41800000000E+01 0.  1.
        -11    1    4    4    0    0  0.26672684231E+02  0.10537723703E+03  0.10234041845E+03  0.14929620027E+03  0.00000000000E+00 0.  1.
         11    1    4    4    0    0 -0.11856961716E+02  0.10283082181E+02 -0.15264500946E+02  0.21893704789E+02  0.00000000000E+00 0. -1.
</event>
<event>
 8    1  0.6380400E-009  0.1536849E+03  0.7561462E-02  0.1196017E+00
         -1   -1    0    0    0  501 -0.00000000000E+00  0.00000000000E+00  0.14626234712E+03  0.14626234712E+03  0.00000000000E+00 0.  1.
          1   -1    0    0  501    0  0.00000000000E+00 -0.00000000000E+00 -0.22929104642E+03  0.22929104642E+03  0.00000000000E+00 0. -1.
         25    2    1    2    0    0 -0.59815535849E+02  0.12575188670E+03 -0.90885161113E+02  0.20808659164E+03  0.12509389183E+03 0.  0.
         23    2    1    2    0    0  0.59815535849E+02 -0.12575188670E+03  0.78564618049E+01  0.16746680190E+03  0.92692882189E+02 0.  0.
          5    1    3    3  502    0  0.10811055383E+02  0.32908977678E+02 -0.84228554951E+02  0.91169082476E+02  0.41800000000E+01 0.  1.
         -5    1    3    3    0  502 -0.70626591231E+02  0.92842909019E+02 -0.66566061620E+01  0.11691750917E+03  0.41800000000E+01 0.  1.
        -11    1    4    4    0    0  0.70712649079E+02 -0.72041806328E+02 -0.24427369882E+02  0.10386046889E+03  0.00000000000E+00 0.  1.
         11    1    4    4    0    0 -0.10897113231E+02 -0.53710080369E+02  0.32283831687E+02  0.63606333006E+02  0.00000000000E+00 0. -1.
</event>
<event>
 8    1  0.6380400E-009  0.8228326E+02  0.7561462E-02  0.1322694E+00
         -1   -1    0    0    0  501 -0.00000000000E+00  0.00000000000E+00  0.14841870933E+03  0.14841870933E+03  0.00000000000E+00 0.  1.
          1   -1    0    0  501    0  0.00000000000E+00 -0.00000000000E+00 -0.25961919988E+03  0.25961919988E+03  0.00000000000E+00 0. -1.
         25    2    1    2    0    0  0.28119472592E+02  0.50146405503E+02 -0.21701006477E+03  0.25699521894E+03  0.12509119722E+03 0.  0.
         23    2    1    2    0    0 -0.28119472592E+02 -0.50146405503E+02  0.10580957422E+03  0.15104269027E+03  0.91174895480E+02 0.  0.
          5    1    3    3  502    0  0.12638710963E+01  0.32294481645E+02  0.46890929611E+01  0.32924017186E+02  0.41800000000E+01 0.  1.
         -5    1    3    3    0  502  0.26855601495E+02  0.17851923858E+02 -0.22169915773E+03  0.22407120175E+03  0.41800000000E+01 0.  1.
        -11    1    4    4    0    0  0.20795688106E+02  0.90412226460E+01  0.53572633979E+02  0.58174147713E+02  0.00000000000E+00 0.  1.
         11    1    4    4    0    0 -0.48915160698E+02 -0.59187628149E+02  0.52236940238E+02  0.92868542561E+02  0.00000000000E+00 0. -1.
</event>
<event>
 8    1  0.6380400E-009  0.9924138E+02  0.7561462E-02  0.1281899E+00
         -1   -1    0    0    0  501 -0.00000000000E+00  0.00000000000E+00  0.81667741738E+02  0.81667741738E+02  0.00000000000E+00 0.  1.
          1   -1    0    0  501    0  0.00000000000E+00 -0.00000000000E+00 -0.23955832123E+03  0.23955832123E+03  0.00000000000E+00 0. -1.
         25    2    1    2    0    0  0.74692890655E+01 -0.65963347338E+02 -0.20957655956E+02  0.14315487033E+03  0.12508852899E+03 0.  0.
         23    2    1    2    0    0 -0.74692890655E+01  0.65963347338E+02 -0.13693292354E+03  0.17807119264E+03  0.92475784014E+02 0.  0.
          5    1    3    3  502    0  0.23160299482E+02  0.23475280192E+02  0.24717881519E+02  0.41423837570E+02  0.41800000000E+01 0.  1.
         -5    1    3    3    0  502 -0.15691010417E+02 -0.89438627530E+02 -0.45675537475E+02  0.10173103276E+03  0.41800000000E+01 0.  1.
        -11    1    4    4    0    0 -0.19046670355E+02  0.55710194552E+02 -0.14784977168E+03  0.15914130958E+03  0.00000000000E+00 0. -1.
         11    1    4    4    0    0  0.11577381289E+02  0.10253152786E+02  0.10916848139E+02  0.18929883066E+02  0.00000000000E+00 0.  1.
</event>
<event>
 8    1  0.6380400E-009  0.2550278E+03  0.7561462E-02  0.1110168E+00
          1   -1    0    0  501    0  0.00000000000E+00  0.00000000000E+00  0.22273619016E+04  0.22273619016E+04  0.00000000000E+00 0. -1.
         -1   -1    0    0    0  501 -0.00000000000E+00 -0.00000000000E+00 -0.32153904166E+02  0.32153904166E+02  0.00000000000E+00 0.  1.
         25    2    1    2    0    0  0.90982908374E+02 -0.22671823211E+03  0.11101454361E+04  0.11435689295E+04  0.12509180936E+03 0.  0.
         23    2    1    2    0    0 -0.90982908374E+02  0.22671823211E+03  0.10850625613E+04  0.11159468763E+04  0.91091285636E+02 0.  0.
          5    1    3    3  502    0 -0.14862702078E+02 -0.21138215371E+02  0.29771614540E+03  0.29886468459E+03  0.41800000000E+01 0. -1.
         -5    1    3    3    0  502  0.10584561045E+03 -0.20558001674E+03  0.81242929071E+03  0.84470424489E+03  0.41800000000E+01 0. -1.
        -11    1    4    4    0    0 -0.21517703995E+02  0.77174517768E+01  0.41376872145E+02  0.47271727233E+02  0.00000000000E+00 0.  1.
         11    1    4    4    0    0 -0.69465204380E+02  0.21900078033E+03  0.10436856892E+04  0.10686751490E+04  0.00000000000E+00 0. -1.
</event>
<event>
 8    1  0.6380400E-009  0.9403160E+02  0.7561462E-02  0.1293372E+00
          1   -1    0    0  501    0  0.00000000000E+00  0.00000000000E+00  0.14618858853E+03  0.14618858853E+03  0.00000000000E+00 0. -1.
         -1   -1    0    0    0  501 -0.00000000000E+00 -0.00000000000E+00 -0.13101451794E+03  0.13101451794E+03  0.00000000000E+00 0.  1.
         25    2    1    2    0    0  0.79166777091E+02  0.81286461309E+01  0.37862565551E+02  0.15301588892E+03  0.12508730914E+03 0.  0.
         23    2    1    2    0    0 -0.79166777091E+02 -0.81286461309E+01 -0.22688494968E+02  0.12418721755E+03  0.92597212254E+02 0.  0.
          5    1    3    3  502    0  0.30366369578E+02  0.21257798258E+02 -0.43401267968E+02  0.57228951147E+02  0.41800000000E+01 0.  1.
         -5    1    3    3    0  502  0.48800407512E+02 -0.13129152127E+02  0.81263833519E+02  0.95786937769E+02  0.41800000000E+01 0.  1.
        -11    1    4    4    0    0 -0.76424651852E+02 -0.26946292376E+02 -0.46722065820E+02  0.93540266826E+02  0.00000000000E+00 0.  1.
         11    1    4    4    0    0 -0.27421252389E+01  0.18817646245E+02  0.24033570853E+02  0.30646950728E+02  0.00000000000E+00 0. -1.
</event>
<event>
 8    1  0.6380400E-009  0.1171965E+03  0.7561462E-02  0.1247795E+00
         -1   -1    0    0    0  501 -0.00000000000E+00  0.00000000000E+00  0.15886505784E+02  0.15886505784E+02  0.00000000000E+00 0.  1.
          1   -1    0    0  501    0  0.00000000000E+00 -0.00000000000E+00 -0.10138883723E+04  0.10138883723E+04  0.00000000000E+00 0. -1.
         25    2    1    2    0    0 -0.61137065769E+02 -0.49931183008E+00 -0.67872037760E+03  0.69285391371E+03  0.12508878712E+03 0.  0.
         23    2    1    2    0    0  0.61137065769E+02  0.49931183008E+00 -0.31928148896E+03  0.33692096441E+03  0.88527266657E+02 0.  0.
          5    1    3    3  502    0 -0.38926952808E+02  0.61587252968E+02 -0.33853875151E+03  0.34631525530E+03  0.41800000000E+01 0. -1.
         -5    1    3    3    0  502 -0.22210112961E+02 -0.62086564798E+02 -0.34018162609E+03  0.34653865841E+03  0.41800000000E+01 0. -1.
        -11    1    4    4    0    0  0.50916641890E+02 -0.32762493248E+02 -0.26928298292E+03  0.27600581565E+03  0.00000000000E+00 0. -1.
         11    1    4    4    0    0  0.10220423879E+02  0.33261805078E+02 -0.49998506040E+02  0.60915148753E+02  0.00000000000E+00 0.  1.
</event>
<event>
 8    1  0.6380400E-009  0.1359462E+03  0.7561462E-02  0.1218890E+00
         -2   -1    0    0    0  501 -0.00000000000E+00  0.00000000000E+00  0.76500183005E+02  0.76500183005E+02  0.00000000000E+00 0.  1.
          2   -1    0    0  501    0  0.00000000000E+00 -0.00000000000E+00 -0.34458390071E+03  0.34458390071E+03  0.00000000000E+00 0. -1.
         25    2    1    2    0    0  0.80612900897E+02 -0.71016770585E+02 -0.20814007686E+03  0.26554013684E+03  0.12508977249E+03 0.  0.
         23    2    1    2    0    0 -0.80612900897E+02  0.71016770585E+02 -0.59943640847E+02  0.15554394688E+03  0.95178032327E+02 0.  0.
          5    1    3    3  502    0  0.17414528444E+02 -0.93520245110E+02 -0.14398273393E+03  0.17262039890E+03  0.41800000000E+01 0.  1.
         -5    1    3    3    0  502  0.63198372453E+02  0.22503474525E+02 -0.64157342925E+02  0.92919737933E+02  0.41800000000E+01 0.  1.
        -11    1    4    4    0    0 -0.24738714672E+02  0.98913004889E+01 -0.67321084526E+02  0.72401451993E+02  0.00000000000E+00 0. -1.
         11    1    4    4    0    0 -0.55874186225E+02  0.61125470096E+02  0.73774436787E+01  0.83142494887E+02  0.00000000000E+00 0.  1.
</event>
<event>
 8    1  0.6380400E-009  0.2254517E+03  0.7561462E-02  0.1129883E+00
          1   -1    0    0  501    0  0.00000000000E+00  0.00000000000E+00  0.15356578706E+03  0.15356578706E+03  0.00000000000E+00 0. -1.
         -1   -1    0    0    0  501 -0.00000000000E+00 -0.00000000000E+00 -0.41862702810E+03  0.41862702810E+03  0.00000000000E+00 0.  1.
         25    2    1    2    0    0 -0.21274446559E+03 -0.39744403692E+02 -0.22031597087E+03  0.33319911267E+03  0.12507076557E+03 0.  0.
         23    2    1    2    0    0  0.21274446559E+03  0.39744403692E+02 -0.44745270175E+02  0.23899370249E+03  0.90972662721E+02 0.  0.
          5    1    3    3  502    0 -0.10504798248E+03 -0.25183620746E+02 -0.27056620424E+02  0.11143978861E+03  0.41800000000E+01 0.  1.
         -5    1    3    3    0  502 -0.10769648311E+03 -0.14560782946E+02 -0.19325935044E+03  0.22175932406E+03  0.41800000000E+01 0.  1.
        -11    1    4    4    0    0  0.90284844873E+02 -0.27440063059E+02 -0.27283872190E+02  0.98227898054E+02  0.00000000000E+00 0. -1.
         11    1    4    4    0    0  0.12245962071E+03  0.67184466751E+02 -0.17461397985E+02  0.14076580443E+03  0.00000000000E+00 0.  1.
</event>
<event>
 8    1  0.6380400E-009  0.1119112E+03  0.7561462E-02  0.1257071E+00
          3   -1    0    0  501    0  0.00000000000E+00  0.00000000000E+00  0.61258180733E+02  0.61258180733E+02  0.00000000000E+00 0. -1.
         -3   -1    0    0    0  501 -0.00000000000E+00 -0.00000000000E+00 -0.22216909485E+03  0.22216909485E+03  0.00000000000E+00 0.  1.
         25    2    1    2    0    0 -0.37600446394E+02  0.11330716656E+02 -0.11367367696E+03  0.17352612683E+03  0.12508970042E+03 0.  0.
         23    2    1    2    0    0  0.37600446394E+02 -0.11330716656E+02 -0.47237237154E+02  0.10990114875E+03  0.91130276052E+02 0.  0.
          5    1    3    3  502    0  0.50097418980E+01 -0.51523116092E+02 -0.65137118982E+02  0.83306936536E+02  0.41800000000E+01 0. -1.
         -5    1    3    3    0  502 -0.42610188292E+02  0.62853832748E+02 -0.48536557978E+02  0.90219190296E+02  0.41800000000E+01 0. -1.
        -11    1    4    4    0    0  0.25422453910E+02 -0.49568100443E+02 -0.41272476640E+02  0.69330477225E+02  0.00000000000E+00 0.  1.
         11    1    4    4    0    0  0.12177992484E+02  0.38237383787E+02 -0.59647605141E+01  0.40570671523E+02  0.00000000000E+00 0. -1.
</event>
<event>
 8    1  0.6380400E-009  0.1356201E+03  0.7561462E-02  0.1219347E+00
          1   -1    0    0  501    0  0.00000000000E+00  0.00000000000E+00  0.87612909187E+03  0.87612909187E+03  0.00000000000E+00 0. -1.
         -1   -1    0    0    0  501 -0.00000000000E+00 -0.00000000000E+00 -0.23523864239E+02  0.23523864239E+02  0.00000000000E+00 0.  1.
         25    2    1    2    0    0 -0.15217230512E+02 -0.86766661007E+02  0.36260161618E+03  0.39355777395E+03  0.12509105409E+03 0.  0.
         23    2    1    2    0    0  0.15217230512E+02  0.86766661007E+02  0.49000361145E+03  0.50609518215E+03  0.90932813675E+02 0.  0.
          5    1    3    3  502    0  0.43500230532E+02 -0.80728792363E+02  0.18828669199E+03  0.20947257280E+03  0.41800000000E+01 0. -1.
         -5    1    3    3    0  502 -0.58717461044E+02 -0.60378686435E+01  0.17431492419E+03  0.18408520116E+03  0.41800000000E+01 0. -1.
        -11    1    4    4    0    0  0.49175454548E+02  0.54812434728E+02  0.37189317306E+03  0.37911365116E+03  0.00000000000E+00 0. -1.
         11    1    4    4    0    0 -0.33958224036E+02  0.31954226279E+02  0.11811043839E+03  0.12698153099E+03  0.00000000000E+00 0.  1.
</event>
<event>
 8    1  0.6380400E-009  0.1639395E+03  0.7561462E-02  0.1184319E+00
         -2   -1    0    0    0  501 -0.00000000000E+00  0.00000000000E+00  0.41747207292E+02  0.41747207292E+02  0.00000000000E+00 0.  1.
          2   -1    0    0  501    0  0.00000000000E+00 -0.00000000000E+00 -0.89170976856E+03  0.89170976856E+03  0.00000000000E+00 0. -1.
         25    2    1    2    0    0  0.11777021892E+03 -0.10628287267E+03 -0.42384958816E+03  0.46952627091E+03  0.12506227330E+03 0.  0.
         23    2    1    2    0    0 -0.11777021892E+03  0.10628287267E+03 -0.42611297311E+03  0.46393070495E+03  0.92160510254E+02 0.  0.
          5    1    3    3  502    0  0.68740058443E+02 -0.29032933446E+02 -0.33012621526E+03  0.33848027602E+03  0.41800000000E+01 0. -1.
         -5    1    3    3    0  502  0.49030160480E+02 -0.77249939220E+02 -0.93723372901E+02  0.13104599488E+03  0.41800000000E+01 0. -1.
        -11    1    4    4    0    0 -0.55215934661E+02  0.70279328042E+02 -0.12119027301E+03  0.15058242149E+03  0.00000000000E+00 0.  1.
         11    1    4    4    0    0 -0.62554284262E+02  0.36003544624E+02 -0.30492270011E+03  0.31334828346E+03  0.00000000000E+00 0. -1.
</event>
<event>
 8    1  0.6380400E-009  0.1254247E+03  0.7561462E-02  0.1234407E+00
         -1   -1    0    0    0  501 -0.00000000000E+00  0.00000000000E+00  0.51146044363E+02  0.51146044363E+02  0.00000000000E+00 0.  1.
          1   -1    0    0  501    0  0.00000000000E+00 -0.00000000000E+00 -0.33677719192E+03  0.33677719192E+03  0.00000000000E+00 0. -1.
         25    2    1    2    0    0  0.47975229923E+01  0.69371432174E+02 -0.11463968800E+03  0.18337110409E+03  0.12508913591E+03 0.  0.
         23    2    1    2    0    0 -0.47975229923E+01 -0.69371432174E+02 -0.17099145955E+03  0.20455213218E+03  0.88136733057E+02 0.  0.
          5    1    3    3  502    0  0.64733876935E+02  0.34883332266E+02 -0.63764148370E+02  0.97420022122E+02  0.41800000000E+01 0.  1.
         -5    1    3    3    0  502 -0.59936353942E+02  0.34488099907E+02 -0.50875539633E+02  0.85951081972E+02  0.41800000000E+01 0.  1.
        -11    1    4    4    0    0  0.36708266627E+02 -0.50226762093E+02 -0.69701875618E+02  0.93426848035E+02  0.00000000000E+00 0.  1.
         11    1    4    4    0    0 -0.41505789619E+02 -0.19144670080E+02 -0.10128958393E+03  0.11112528415E+03  0.00000000000E+00 0. -1.
</event>
<event>
 8    1  0.6380400E-009  0.1483459E+03  0.7561462E-02  0.1202520E+00
          1   -1    0    0  501    0  0.00000000000E+00  0.00000000000E+00  0.14422927302E+03  0.14422927302E+03  0.00000000000E+00 0. -1.
         -1   -1    0    0    0  501 -0.00000000000E+00 -0.00000000000E+00 -0.16828905684E+03  0.16828905684E+03  0.00000000000E+00 0.  1.
         25    2    1    2    0    0 -0.55082729014E+02 -0.90973360055E+02 -0.44360546555E+02  0.17007619886E+03  0.12509115098E+03 0.  0.
         23    2    1    2    0    0  0.55082729014E+02  0.90973360055E+02  0.20300762734E+02  0.14244213100E+03  0.92560144995E+02 0.  0.
          5    1    3    3  502    0  0.79053944982E+01 -0.99959059823E+02 -0.24739256011E+02  0.10336252750E+03  0.41800000000E+01 0.  1.
         -5    1    3    3    0  502 -0.62988123512E+02  0.89856997687E+01 -0.19621290544E+02  0.66713671361E+02  0.41800000000E+01 0.  1.
        -11    1    4    4    0    0 -0.15370095587E+02 -0.24454860123E+01  0.20117378999E+02  0.25434802495E+02  0.00000000000E+00 0.  1.
         11    1    4    4    0    0  0.70452824601E+02  0.93418846067E+02  0.18338373502E+00  0.11700732851E+03  0.00000000000E+00 0. -1.
</event>
<event>
 8    1  0.6380400E-009  0.1269853E+03  0.7561462E-02  0.1231999E+00
          1   -1    0    0  501    0  0.00000000000E+00  0.00000000000E+00  0.19304491978E+03  0.19304491978E+03  0.00000000000E+00 0. -1.
         -1   -1    0    0    0  501 -0.00000000000E+00 -0.00000000000E+00 -0.12208891017E+03  0.12208891017E+03  0.00000000000E+00 0.  1.
         25    2    1    2    0    0  0.56107423732E+02 -0.36267295998E+02  0.12643887702E+03  0.18999510334E+03  0.12509192587E+03 0.  0.
         23    2    1    2    0    0 -0.56107423732E+02  0.36267295998E+02 -0.55482867410E+02  0.12513872661E+03  0.90099903238E+02 0.  0.
          5    1    3    3  502    0  0.69535371689E+02  0.28695228187E+02  0.68150079495E+02  0.10158981136E+03  0.41800000000E+01 0.  1.
         -5    1    3    3    0  502 -0.13427947956E+02 -0.64962524185E+02  0.58288797521E+02  0.88405291987E+02  0.41800000000E+01 0.  1.
        -11    1    4    4    0    0 -0.12994858694E+02  0.61062142829E+02 -0.31334731056E+02  0.69852108127E+02  0.00000000000E+00 0.  1.
         11    1    4    4    0    0 -0.43112565038E+02 -0.24794846831E+02 -0.24148136353E+02  0.55286618479E+02  0.00000000000E+00 0. -1.
</event>
<event>
 8    1  0.6380400E-009  0.1191700E+03  0.7561462E-02  0.1244473E+00
         -3   -1    0    0    0  501 -0.00000000000E+00  0.00000000000E+00  0.28212772375E+03  0.28212772375E+03  0.00000000000E+00 0.  1.
          3   -1    0    0  501    0  0.00000000000E+00 -0.00000000000E+00 -0.53863894168E+02  0.53863894168E+02  0.00000000000E+00 0. -1.
         25    2    1    2    0    0 -0.53621831866E+02  0.40219678161E+01  0.16138063972E+03  0.21114416317E+03  0.12508664872E+03 0.  0.
         23    2    1    2    0    0  0.53621831866E+02 -0.40219678161E+01  0.66883189860E+02  0.12484745474E+03  0.90675513740E+02 0.  0.
          5    1    3    3  502    0  0.38378616246E+02 -0.13998093561E+02  0.62846190767E+02  0.75073170322E+02  0.41800000000E+01 0. -1.
         -5    1    3    3    0  502 -0.92000448112E+02  0.18020061377E+02  0.98534448951E+02  0.13607099285E+03  0.41800000000E+01 0. -1.
        -11    1    4    4    0    0 -0.10253621471E+02 -0.32071285068E+02  0.10873234469E+02  0.35382641323E+02  0.00000000000E+00 0. -1.
         11    1    4    4    0    0  0.63875453337E+02  0.28049317252E+02  0.56009955391E+02  0.89464813419E+02  0.00000000000E+00 0.  1.
</event>
<event>
 8    1  0.6380400E-009  0.9714249E+02  0.7561462E-02  0.1286422E+00
          2   -1    0    0  501    0  0.00000000000E+00  0.00000000000E+00  0.47769326254E+03  0.47769326254E+03  0.00000000000E+00 0. -1.
         -2   -1    0    0    0  501 -0.00000000000E+00 -0.00000000000E+00 -0.30386417894E+02  0.30386417894E+02  0.00000000000E+00 0.  1.
         25    2    1    2    0    0 -0.78132011705E+01 -0.48504101939E+02  0.30296534168E+03  0.33143619849E+03  0.12509301097E+03 0.  0.
         23    2    1    2    0    0  0.78132011705E+01  0.48504101939E+02  0.14434150296E+03  0.17664348194E+03  0.89189440057E+02 0.  0.
          5    1    3    3  502    0 -0.51080604125E+02 -0.56867533199E+02  0.25465145162E+03  0.26590971900E+03  0.41800000000E+01 0. -1.
         -5    1    3    3    0  502  0.43267402955E+02  0.83634312603E+01  0.48313890066E+02  0.65526479489E+02  0.41800000000E+01 0. -1.
        -11    1    4    4    0    0 -0.20681763508E+02  0.47025524003E+01  0.11454193272E+03  0.11648907112E+03  0.00000000000E+00 0. -1.
         11    1    4    4    0    0  0.28494964678E+02  0.43801549538E+02  0.29799570246E+02  0.60154410818E+02  0.00000000000E+00 0.  1.
</event>
<event>
 8    1  0.6380400E-009  0.9428239E+02  0.7561462E-02  0.1292801E+00
         -2   -1    0    0    0  501 -0.00000000000E+00  0.00000000000E+00  0.10017554871E+03  0.10017554871E+03  0.00000000000E+00 0.  1.
          2   -1    0    0  501    0  0.00000000000E+00 -0.00000000000E+00 -0.12900556950E+03  0.12900556950E+03  0.00000000000E+00 0. -1.
         25    2    1    2    0    0  0.96126580944E+00  0.16443450394E+02 -0.46723654676E+02  0.13454482120E+03  0.12509155811E+03 0.  0.
         23    2    1    2    0    0 -0.96126580944E+00 -0.16443450394E+02  0.17893633891E+02  0.94636297010E+02  0.91457834466E+02 0.  0.
          5    1    3    3  502    0  0.35056529684E+01 -0.52177944542E+02 -0.20213217852E+01  0.52501291805E+02  0.41800000000E+01 0. -1.
         -5    1    3    3    0  502 -0.25443871590E+01  0.68621394936E+02 -0.44702332891E+02  0.82043529391E+02  0.41800000000E+01 0. -1.
        -11    1    4    4    0    0  0.30596662993E+02  0.21612788136E+01 -0.24027824985E+02  0.38963614899E+02  0.00000000000E+00 0. -1.
         11    1    4    4    0    0 -0.31557928803E+02 -0.18604729207E+02  0.41921458876E+02  0.55672682112E+02  0.00000000000E+00 0.  1.
</event>
<event>
 8    1  0.6380400E-009  0.9189154E+02  0.7561462E-02  0.1298335E+00
          2   -1    0    0  501    0  0.00000000000E+00  0.00000000000E+00  0.23439626950E+03  0.23439626950E+03  0.00000000000E+00 0.  1.
         -2   -1    0    0    0  501 -0.00000000000E+00 -0.00000000000E+00 -0.76914114831E+02  0.76914114831E+02  0.00000000000E+00 0. -1.
         25    2    1    2    0    0 -0.48743562157E+01 -0.64946954630E+02  0.12552354061E+03  0.18880077533E+03  0.12509079604E+03 0.  0.
         23    2    1    2    0    0  0.48743562157E+01  0.64946954630E+02  0.31958614066E+02  0.12250960900E+03  0.98718716669E+02 0.  0.
          5    1    3    3  502    0 -0.47531137271E+01 -0.45039647516E+02 -0.14166490775E+02  0.47637420158E+02  0.41800000000E+01 0.  1.
         -5    1    3    3    0  502 -0.12124248863E+00 -0.19907307114E+02  0.13969003138E+03  0.14116335517E+03  0.41800000000E+01 0.  1.
        -11    1    4    4    0    0 -0.42810319468E+02  0.54218598166E+02  0.14344645681E+02  0.70555996909E+02  0.00000000000E+00 0.  1.
         11    1    4    4    0    0  0.47684675683E+02  0.10728356464E+02  0.17613968385E+02  0.51953612095E+02  0.00000000000E+00 0. -1.
</event>
<event>
 8    1  0.6380400E-009  0.7691701E+02  0.7561462E-02  0.1338035E+00
         -1   -1    0    0    0  501 -0.00000000000E+00  0.00000000000E+00  0.10180249013E+03  0.10180249013E+03  0.00000000000E+00 0.  1.
          1   -1    0    0  501    0  0.00000000000E+00 -0.00000000000E+00 -0.13523679248E+03  0.13523679248E+03  0.00000000000E+00 0. -1.
         25    2    1    2    0    0 -0.17080946224E+02  0.29983437854E+02  0.36332911721E+01  0.12981741782E+03  0.12509434798E+03 0.  0.
         23    2    1    2    0    0  0.17080946224E+02 -0.29983437854E+02 -0.37067593526E+02  0.10722186478E+03  0.94507970715E+02 0.  0.
          5    1    3    3  502    0 -0.64522203792E+02  0.58397766872E+01  0.28517905045E+02  0.70908117181E+02  0.41800000000E+01 0.  1.
         -5    1    3    3    0  502  0.47441257569E+02  0.24143661166E+02 -0.24884613873E+02  0.58909300640E+02  0.41800000000E+01 0.  1.
        -11    1    4    4    0    0  0.10246963961E+02 -0.96833386359E+01  0.31968479780E+02  0.34939247516E+02  0.00000000000E+00 0.  1.
         11    1    4    4    0    0  0.68339822629E+01 -0.20300099218E+02 -0.69036073306E+02  0.72282617269E+02  0.00000000000E+00 0. -1.
</event>
<event>
 8    1  0.6380400E-009  0.2022369E+03  0.7561462E-02  0.1147865E+00
         -2   -1    0    0    0  501 -0.00000000000E+00  0.00000000000E+00  0.39968503082E+02  0.39968503082E+02  0.00000000000E+00 0.  1.
          2   -1    0    0  501    0  0.00000000000E+00 -0.00000000000E+00 -0.13832044868E+04  0.13832044868E+04  0.00000000000E+00 0. -1.
         25    2    1    2    0    0 -0.74668278340E+02 -0.17788309165E+03 -0.93402548323E+03  0.96190982420E+03  0.12509660459E+03 0.  0.
         23    2    1    2    0    0  0.74668278340E+02  0.17788309165E+03 -0.40921050048E+03  0.46126316567E+03  0.89959592140E+02 0.  0.
          5    1    3    3  502    0 -0.69381809761E+02 -0.72639009203E+02 -0.67165506718E+03  0.67913788206E+03  0.41800000000E+01 0. -1.
         -5    1    3    3    0  502 -0.52864685790E+01 -0.10524408245E+03 -0.26237041605E+03  0.28277194214E+03  0.41800000000E+01 0. -1.
        -11    1    4    4    0    0 -0.43465884851E-01  0.52658055914E+02 -0.19604968420E+03  0.20299840249E+03  0.00000000000E+00 0. -1.
         11    1    4    4    0    0  0.74711744225E+02  0.12522503574E+03 -0.21316081628E+03  0.25826476318E+03  0.00000000000E+00 0.  1.
</event>
<event>
 8    1  0.6380400E-009  0.1199914E+03  0.7561462E-02  0.1243111E+00
         -1   -1    0    0    0  501 -0.00000000000E+00  0.00000000000E+00  0.42847214346E+02  0.42847214346E+02  0.00000000000E+00 0.  1.
          1   -1    0    0  501    0  0.00000000000E+00 -0.00000000000E+00 -0.49145854065E+03  0.49145854065E+03  0.00000000000E+00 0. -1.
         25    2    1    2    0    0  0.41018076117E+01 -0.66681492918E+02 -0.11836551269E+03  0.18471996662E+03  0.12509126728E+03 0.  0.
         23    2    1    2    0    0 -0.41018076117E+01  0.66681492918E+02 -0.33024581361E+03  0.34958578837E+03  0.93191628923E+02 0.  0.
          5    1    3    3  502    0  0.58888181361E+02 -0.50741675571E+01 -0.50522964741E+02  0.77869168780E+02  0.41800000000E+01 0.  1.
         -5    1    3    3    0  502 -0.54786373749E+02 -0.61607325361E+02 -0.67842547951E+02  0.10685079784E+03  0.41800000000E+01 0.  1.
        -11    1    4    4    0    0 -0.34205734925E+02  0.12923138839E+02 -0.46121763948E+02  0.58857938538E+02  0.00000000000E+00 0.  1.
         11    1    4    4    0    0  0.30103927313E+02  0.53758354079E+02 -0.28412404966E+03  0.29072784983E+03  0.00000000000E+00 0. -1.
</event>
<event>
 8    1  0.6380400E-009  0.9171012E+02  0.7561462E-02  0.1298762E+00
          2   -1    0    0  501    0  0.00000000000E+00  0.00000000000E+00  0.53675868243E+02  0.53675868243E+02  0.00000000000E+00 0. -1.
         -2   -1    0    0    0  501 -0.00000000000E+00 -0.00000000000E+00 -0.31941861088E+03  0.31941861088E+03  0.00000000000E+00 0.  1.
         25    2    1    2    0    0 -0.12411918915E+01  0.31090824443E+02 -0.53401156509E+02  0.13952450636E+03  0.12508886615E+03 0.  0.
         23    2    1    2    0    0  0.12411918915E+01 -0.31090824443E+02 -0.21234158613E+03  0.23356997277E+03  0.92183529203E+02 0.  0.
          5    1    3    3  502    0 -0.60921472201E+02  0.17927576810E+02 -0.44423202618E+02  0.77612609261E+02  0.41800000000E+01 0.  1.
         -5    1    3    3    0  502  0.59680280309E+02  0.13163247633E+02 -0.89779538902E+01  0.61911897096E+02  0.41800000000E+01 0.  1.
        -11    1    4    4    0    0  0.16993432531E+02  0.61606859828E+01 -0.69022759766E+00  0.18088869923E+02  0.00000000000E+00 0. -1.
         11    1    4    4    0    0 -0.15752240640E+02 -0.37251510426E+02 -0.21165135853E+03  0.21548110284E+03  0.00000000000E+00 0.  1.
</event>
<event>
 8    1  0.6380400E-009  0.8362469E+02  0.7561462E-02  0.1319069E+00
          2   -1    0    0  501    0  0.00000000000E+00  0.00000000000E+00  0.43212197376E+03  0.43212197376E+03  0.00000000000E+00 0. -1.
         -2   -1    0    0    0  501 -0.00000000000E+00 -0.00000000000E+00 -0.34678177661E+02  0.34678177661E+02  0.00000000000E+00 0.  1.
         25    2    1    2    0    0  0.17944671251E+02 -0.34862627179E+02  0.14110449846E+03  0.19260137490E+03  0.12508955243E+03 0.  0.
         23    2    1    2    0    0 -0.17944671251E+02  0.34862627179E+02  0.25633929763E+03  0.27419877652E+03  0.89093880439E+02 0.  0.
          5    1    3    3  502    0 -0.24780647246E+02 -0.58242531955E+01  0.13831303188E+03  0.14069815063E+03  0.41800000000E+01 0. -1.
         -5    1    3    3    0  502  0.42725318497E+02 -0.29038373984E+02  0.27914665856E+01  0.51903224274E+02  0.41800000000E+01 0. -1.
        -11    1    4    4    0    0  0.21315668097E+02 -0.15070600779E+02  0.33425160387E+02  0.42411343543E+02  0.00000000000E+00 0.  1.
         11    1    4    4    0    0 -0.39260339348E+02  0.49933227958E+02  0.22291413725E+03  0.23178743297E+03  0.00000000000E+00 0. -1.
</event>
<event>
 7    1  0.6380400E-009  0.1388979E+03  0.7561462E-02  0.1214820E+00
         -3   -1    0    0    0  501 -0.00000000000E+00  0.00000000000E+00  0.15131915790E+03  0.15131915790E+03  0.00000000000E+00 0.  1.
          3   -1    0    0  501    0  0.00000000000E+00 -0.00000000000E+00 -0.18880871887E+03  0.18880871887E+03  0.00000000000E+00 0. -1.
         23    2    1    2    0    0  0.43432004532E+01  0.11303849426E+03 -0.78270368879E+02  0.16653868680E+03  0.93873952620E+02 0.  0.
          5    1    1    2  502    0  0.24222903326E+02 -0.10366020474E+02 -0.34083723879E+02  0.43282514477E+02  0.41800000000E+01 0. -1.
         -5    1    1    2    0  502 -0.28566103780E+02 -0.10267247379E+03  0.74864531783E+02  0.13030667550E+03  0.41800000000E+01 0. -1.
        -11    1    3    3    0    0  0.35918033558E+02  0.10868158853E+02 -0.34548201391E+02  0.51007844797E+02  0.00000000000E+00 0. -1.
         11    1    3    3    0    0 -0.31574833104E+02  0.10217033541E+03 -0.43722167489E+02  0.11553084200E+03  0.00000000000E+00 0.  1.
</event>
<event>
 8    1  0.6380400E-009  0.8276392E+02  0.7561462E-02  0.1321386E+00
          1   -1    0    0  501    0  0.00000000000E+00  0.00000000000E+00  0.26871105931E+03  0.26871105931E+03  0.00000000000E+00 0. -1.
         -1   -1    0    0    0  501 -0.00000000000E+00 -0.00000000000E+00 -0.58742961168E+02  0.58742961168E+02  0.00000000000E+00 0.  1.
         25    2    1    2    0    0  0.25555659319E+02 -0.49753207937E+02  0.15698147065E+03  0.20837405932E+03  0.12509233808E+03 0.  0.
         23    2    1    2    0    0 -0.25555659319E+02  0.49753207937E+02  0.52986627493E+02  0.11907996116E+03  0.90796371263E+02 0.  0.
          5    1    3    3  502    0 -0.19232787249E+02 -0.56651794049E+02  0.15099959507E+03  0.16247361627E+03  0.41800000000E+01 0.  1.
         -5    1    3    3    0  502  0.44788446567E+02  0.68985861117E+01  0.59818755856E+01  0.45900443046E+02  0.41800000000E+01 0.  1.
        -11    1    4    4    0    0 -0.12222161323E+02  0.47568135127E+01  0.68428801638E+02  0.69674309439E+02  0.00000000000E+00 0. -1.
         11    1    4    4    0    0 -0.13333497996E+02  0.44996394425E+02 -0.15442174145E+02  0.49405651725E+02  0.00000000000E+00 0.  1.
</event>
<event>
 8    1  0.6380400E-009  0.2683662E+03  0.7561462E-02  0.1102218E+00
          2   -1    0    0  501    0  0.00000000000E+00  0.00000000000E+00  0.40193086845E+03  0.40193086845E+03  0.00000000000E+00 0. -1.
         -2   -1    0    0    0  501 -0.00000000000E+00 -0.00000000000E+00 -0.20709727891E+03  0.20709727891E+03  0.00000000000E+00 0.  1.
         25    2    1    2    0    0  0.20633234924E+03 -0.15655669217E+03  0.16749862456E+03  0.33284729581E+03  0.12509395226E+03 0.  0.
         23    2    1    2    0    0 -0.20633234924E+03  0.15655669217E+03  0.27334964978E+02  0.27618085154E+03  0.91900088370E+02 0.  0.
          5    1    3    3  502    0  0.20039212755E+03 -0.10976361816E+03  0.17092022518E+03  0.28537037763E+03  0.41800000000E+01 0. -1.
         -5    1    3    3    0  502  0.59402216908E+01 -0.46793074008E+02 -0.34216006167E+01  0.47476918177E+02  0.41800000000E+01 0. -1.
        -11    1    4    4    0    0 -0.14234502474E+03  0.12532648127E+03  0.58478936086E+02  0.19846566188E+03  0.00000000000E+00 0. -1.
         11    1    4    4    0    0 -0.63987324493E+02  0.31230210898E+02 -0.31143971108E+02  0.77715189667E+02  0.00000000000E+00 0.  1.
</event>
<event>
 8    1  0.6380400E-009  0.9208033E+02  0.7561462E-02  0.1297891E+00
         -3   -1    0    0    0  501 -0.00000000000E+00  0.00000000000E+00  0.12080113028E+03  0.12080113028E+03  0.00000000000E+00 0.  1.
          3   -1    0    0  501    0  0.00000000000E+00 -0.00000000000E+00 -0.12331735223E+03  0.12331735223E+03  0.00000000000E+00 0. -1.
         25    2    1    2    0    0  0.25766765881E+02  0.32704841359E+02 -0.54989800298E+01  0.13195143278E+03  0.12508960372E+03 0.  0.
         23    2    1    2    0    0 -0.25766765881E+02 -0.32704841359E+02  0.29827580789E+01  0.11216704973E+03  0.10411060142E+03 0.  0.
          5    1    3    3  502    0 -0.15413128183E+02 -0.58104664636E+01 -0.54527961348E+02  0.57114770503E+02  0.41800000000E+01 0. -1.
         -5    1    3    3    0  502  0.41179894064E+02  0.38515307823E+02  0.49028981318E+02  0.74836662278E+02  0.41800000000E+01 0. -1.
        -11    1    4    4    0    0 -0.22238641168E+02 -0.69855293889E+02  0.10622825048E+02  0.74075391713E+02  0.00000000000E+00 0. -1.
         11    1    4    4    0    0 -0.35281247133E+01  0.37150452530E+02 -0.76400669693E+01  0.38091658017E+02  0.00000000000E+00 0.  1.
</event>
<event>
 8    1  0.6380400E-009  0.1216897E+03  0.7561462E-02  0.1240335E+00
          1   -1    0    0  501    0  0.00000000000E+00  0.00000000000E+00  0.21114792672E+03  0.21114792672E+03  0.00000000000E+00 0. -1.
         -1   -1    0    0    0  501 -0.00000000000E+00 -0.00000000000E+00 -0.10170338622E+03  0.10170338622E+03  0.00000000000E+00 0.  1.
         25    2    1    2    0    0  0.94320298828E+01  0.87083929718E+02  0.94443342962E+02  0.17955817580E+03  0.12509604096E+03 0.  0.
         23    2    1    2    0    0 -0.94320298828E+01 -0.87083929718E+02  0.15001197534E+02  0.13329313714E+03  0.99345107969E+02 0.  0.
          5    1    3    3  502    0 -0.35824434260E+02  0.30743467800E+02  0.96101929049E+02  0.10715224715E+03  0.41800000000E+01 0.  1.
         -5    1    3    3    0  502  0.45256464143E+02  0.56340461918E+02 -0.16585860869E+01  0.72405928650E+02  0.41800000000E+01 0.  1.
        -11    1    4    4    0    0  0.36548511356E+02 -0.59944567182E+02 -0.15364994264E+02  0.71869519726E+02  0.00000000000E+00 0.  1.
         11    1    4    4    0    0 -0.45980541238E+02 -0.27139362536E+02  0.30366191798E+02  0.61423617410E+02  0.00000000000E+00 0. -1.
</event>
<event>
 8    1  0.6380400E-009  0.1575023E+03  0.7561462E-02  0.1191546E+00
         -1   -1    0    0    0  501 -0.00000000000E+00  0.00000000000E+00  0.17164234506E+03  0.17164234506E+03  0.00000000000E+00 0.  1.
          1   -1    0    0  501    0  0.00000000000E+00 -0.00000000000E+00 -0.17774457077E+03  0.17774457077E+03  0.00000000000E+00 0. -1.
         25    2    1    2    0    0 -0.13128946434E+02 -0.12645288796E+03 -0.52832379617E+02  0.18602624199E+03  0.12510715514E+03 0.  0.
         23    2    1    2    0    0  0.13128946434E+02  0.12645288796E+03  0.46730153906E+02  0.16336067383E+03  0.91325244948E+02 0.  0.
          5    1    3    3  502    0  0.54813867773E+02 -0.51975920168E+02 -0.96182618403E+01  0.76262964396E+02  0.41800000000E+01 0.  1.
         -5    1    3    3    0  502 -0.67942814207E+02 -0.74476967787E+02 -0.43214117777E+02  0.10976327759E+03  0.41800000000E+01 0.  1.
        -11    1    4    4    0    0 -0.14619142412E+02  0.96579649481E+02 -0.46240097971E+01  0.97789209452E+02  0.00000000000E+00 0. -1.
         11    1    4    4    0    0  0.27748088845E+02  0.29873238474E+02  0.51354163703E+02  0.65571464382E+02  0.00000000000E+00 0.  1.
</event>
<event>
 8    1  0.6380400E-009  0.1828683E+03  0.7561462E-02  0.1165056E+00
         -2   -1    0    0    0  501 -0.00000000000E+00  0.00000000000E+00  0.97149555077E+02  0.97149555077E+02  0.00000000000E+00 0.  1.
          2   -1    0    0  501    0  0.00000000000E+00 -0.00000000000E+00 -0.52278817107E+03  0.52278817107E+03  0.00000000000E+00 0. -1.
         25    2    1    2    0    0 -0.17515878960E+03  0.17686582439E+02 -0.98061032318E+02  0.23717968870E+03  0.12507926247E+03 0.  0.
         23    2    1    2    0    0  0.17515878960E+03 -0.17686582439E+02 -0.32757758367E+03  0.38275803745E+03  0.90571657465E+02 0.  0.
          5    1    3    3  502    0 -0.12699151222E+03  0.14737878832E+02 -0.12741285071E+03  0.18054239439E+03  0.41800000000E+01 0. -1.
         -5    1    3    3    0  502 -0.48167277381E+02  0.29487036077E+01  0.29351818389E+02  0.56637294304E+02  0.41800000000E+01 0. -1.
        -11    1    4    4    0    0  0.34943871602E+02  0.24829775036E+02 -0.34238704304E+02  0.54862380218E+02  0.00000000000E+00 0.  1.
         11    1    4    4    0    0  0.14021491800E+03 -0.42516357475E+02 -0.29333887937E+03  0.32789565723E+03  0.00000000000E+00 0. -1.
</event>
<event>
 8    1  0.6380400E-009  0.1646246E+03  0.7561462E-02  0.1183572E+00
         -2   -1    0    0    0  501 -0.00000000000E+00  0.00000000000E+00  0.64108082156E+02  0.64108082156E+02  0.00000000000E+00 0.  1.
          2   -1    0    0  501    0  0.00000000000E+00 -0.00000000000E+00 -0.64022933581E+03  0.64022933581E+03  0.00000000000E+00 0. -1.
         25    2    1    2    0    0  0.10523480825E+03  0.10636771291E+03 -0.15681765611E+03  0.25025514544E+03  0.12508958924E+03 0.  0.
         23    2    1    2    0    0 -0.10523480825E+03 -0.10636771291E+03 -0.41930359755E+03  0.45408227253E+03  0.89368607978E+02 0.  0.
          5    1    3    3  502    0  0.54717468498E+02  0.12221315016E+01 -0.15819426897E+00  0.54890731364E+02  0.41800000000E+01 0. -1.
         -5    1    3    3    0  502  0.50517339748E+02  0.10514558140E+03 -0.15665946184E+03  0.19536441408E+03  0.41800000000E+01 0. -1.
        -11    1    4    4    0    0 -0.44089496575E+02 -0.12894873478E+02 -0.48414575654E+02  0.66739288324E+02  0.00000000000E+00 0.  1.
         11    1    4    4    0    0 -0.61145311670E+02 -0.93472839427E+02 -0.37088902190E+03  0.38734298420E+03  0.00000000000E+00 0. -1.
</event>
<event>
 8    1  0.6380400E-009  0.1815631E+03  0.7561462E-02  0.1166299E+00
         -1   -1    0    0    0  501 -0.00000000000E+00  0.00000000000E+00  0.25477514859E+02  0.25477514859E+02  0.00000000000E+00 0.  1.
          1   -1    0    0  501    0  0.00000000000E+00 -0.00000000000E+00 -0.15987046920E+04  0.15987046920E+04  0.00000000000E+00 0. -1.
         25    2    1    2    0    0 -0.15014044908E+03 -0.61202391413E+02 -0.61506647864E+03  0.64826074208E+03  0.12508928574E+03 0.  0.
         23    2    1    2    0    0  0.15014044908E+03  0.61202391413E+02 -0.95816069848E+03  0.97592146476E+03  0.89793619498E+02 0.  0.
          5    1    3    3  502    0 -0.14068198360E+03 -0.76081367901E+02 -0.60818737672E+03  0.62887928305E+03  0.41800000000E+01 0.  1.
         -5    1    3    3    0  502 -0.94584654867E+01  0.14878976488E+02 -0.68791019178E+01  0.19381459023E+02  0.41800000000E+01 0.  1.
        -11    1    4    4    0    0  0.10976487346E+01  0.33379748344E+02 -0.15180720018E+03  0.15543757094E+03  0.00000000000E+00 0.  1.
         11    1    4    4    0    0  0.14904280035E+03  0.27822643069E+02 -0.80635349829E+03  0.82048389382E+03  0.00000000000E+00 0. -1.
</event>
<event>
 8    1  0.6380400E-009  0.2000723E+03  0.7561462E-02  0.1149678E+00
         -1   -1    0    0    0  501 -0.00000000000E+00  0.00000000000E+00  0.34175193815E+02  0.34175193815E+02  0.00000000000E+00 0.  1.
          1   -1    0    0  501    0  0.00000000000E+00 -0.00000000000E+00 -0.14397662566E+04  0.14397662566E+04  0.00000000000E+00 0. -1.
         25    2    1    2    0    0 -0.15101634173E+03  0.11445751390E+03 -0.61469637333E+03  0.65528945889E+03  0.12508471363E+03 0.  0.
         23    2    1    2    0    0  0.15101634173E+03 -0.11445751390E+03 -0.79089468943E+03  0.81865199151E+03  0.93649428522E+02 0.  0.
          5    1    3    3  502    0  0.16256213746E+00 -0.86530124347E+01 -0.16315079701E+03  0.16343364407E+03  0.41800000000E+01 0. -1.
         -5    1    3    3    0  502 -0.15117890387E+03  0.12311052634E+03 -0.45154557632E+03  0.49185581482E+03  0.41800000000E+01 0. -1.
        -11    1    4    4    0    0  0.71456216561E+02 -0.24755540798E+02 -0.16677518490E+03  0.18311960568E+03  0.00000000000E+00 0.  1.
         11    1    4    4    0    0  0.79560125173E+02 -0.89701973106E+02 -0.62411950453E+03  0.63553238582E+03  0.00000000000E+00 0. -1.
</event>
<event>
 8    1  0.6380400E-009  0.9667359E+02  0.7561462E-02  0.1287451E+00
          1   -1    0    0  501    0  0.00000000000E+00  0.00000000000E+00  0.49515037291E+03  0.49515037291E+03  0.00000000000E+00 0. -1.
         -1   -1    0    0    0  501 -0.00000000000E+00 -0.00000000000E+00 -0.36134203030E+02  0.36134203030E+02  0.00000000000E+00 0.  1.
         25    2    1    2    0    0 -0.75752039756E+02 -0.49404162239E+01  0.29612844279E+03  0.33030595736E+03  0.12508873489E+03 0.  0.
         23    2    1    2    0    0  0.75752039756E+02  0.49404162239E+01  0.16288772708E+03  0.20097861858E+03  0.89984522289E+02 0.  0.
          5    1    3    3  502    0 -0.63018229882E+02 -0.42297051690E+02  0.79191224346E+02  0.10976821167E+03  0.41800000000E+01 0.  1.
         -5    1    3    3    0  502 -0.12733809873E+02  0.37356635466E+02  0.21693721845E+03  0.22053774569E+03  0.41800000000E+01 0.  1.
        -11    1    4    4    0    0  0.35621606741E+02 -0.58325733831E+01  0.35016032433E+01  0.36265396790E+02  0.00000000000E+00 0.  1.
         11    1    4    4    0    0  0.40130433015E+02  0.10772989607E+02  0.15938612384E+03  0.16471322179E+03  0.00000000000E+00 0. -1.
</event>
<event>
 8    1  0.6380400E-009  0.9301354E+02  0.7561462E-02  0.1295714E+00
          3   -1    0    0  501    0  0.00000000000E+00  0.00000000000E+00  0.13847982696E+03  0.13847982696E+03  0.00000000000E+00 0. -1.
         -3   -1    0    0    0  501 -0.00000000000E+00 -0.00000000000E+00 -0.14184306565E+03  0.14184306565E+03  0.00000000000E+00 0.  1.
         25    2    1    2    0    0  0.12926076909E+02  0.20791153281E+02  0.84091700497E+02  0.15270723092E+03  0.12509487905E+03 0.  0.
         23    2    1    2    0    0 -0.12926076909E+02 -0.20791153281E+02 -0.87454939181E+02  0.12761566169E+03  0.89655090219E+02 0.  0.
          5    1    3    3  502    0  0.57671793418E+02  0.35156407100E+02  0.80824146955E+02  0.10541358474E+03  0.41800000000E+01 0. -1.
         -5    1    3    3    0  502 -0.44745716509E+02 -0.14365253819E+02  0.32675535414E+01  0.47293646184E+02  0.41800000000E+01 0. -1.
        -11    1    4    4    0    0 -0.58248035876E+01  0.24575069972E+02 -0.76286213195E+02  0.80358252374E+02  0.00000000000E+00 0.  1.
         11    1    4    4    0    0 -0.71012733212E+01 -0.45366223253E+02 -0.11168725987E+02  0.47257409315E+02  0.00000000000E+00 0. -1.
</event>
<event>
 8    1  0.6380400E-009  0.1219855E+03  0.7561462E-02  0.1239857E+00
          1   -1    0    0  501    0  0.00000000000E+00  0.00000000000E+00  0.72052391132E+03  0.72052391132E+03  0.00000000000E+00 0. -1.
         -1   -1    0    0    0  501 -0.00000000000E+00 -0.00000000000E+00 -0.34830338446E+02  0.34830338446E+02  0.00000000000E+00 0.  1.
         25    2    1    2    0    0  0.76222925721E+02  0.79737946465E+02  0.28948876042E+03  0.33409301932E+03  0.12508528546E+03 0.  0.
         23    2    1    2    0    0 -0.76222925721E+02 -0.79737946465E+02  0.39620481246E+03  0.42126123045E+03  0.91184956833E+02 0.  0.
          5    1    3    3  502    0  0.76733319601E+02  0.50352870567E+02  0.77965552453E+02  0.12049694469E+03  0.41800000000E+01 0. -1.
         -5    1    3    3    0  502 -0.51039388065E+00  0.29385075898E+02  0.21152320796E+03  0.21359607462E+03  0.41800000000E+01 0. -1.
        -11    1    4    4    0    0 -0.23271343650E+02 -0.62552276191E+02  0.10240735386E+03  0.12223587369E+03  0.00000000000E+00 0.  1.
         11    1    4    4    0    0 -0.52951582070E+02 -0.17185670273E+02  0.29379745860E+03  0.29902535676E+03  0.00000000000E+00 0. -1.
</event>
<event>
 8    1  0.6380400E-009  0.1032468E+03  0.7561462E-02  0.1273613E+00
          2   -1    0    0  501    0  0.00000000000E+00  0.00000000000E+00  0.10077985564E+03  0.10077985564E+03  0.00000000000E+00 0. -1.
         -2   -1    0    0    0  501 -0.00000000000E+00 -0.00000000000E+00 -0.12068401408E+03  0.12068401408E+03  0.00000000000E+00 0.  1.
         25    2    1    2    0    0  0.48937620749E+02 -0.15628362753E+02 -0.94502743865E+01  0.13555641549E+03  0.12508835936E+03 0.  0.
         23    2    1    2    0    0 -0.48937620749E+02  0.15628362753E+02 -0.10453884059E+02  0.85907454232E+02  0.68056377759E+02 0.  0.
          5    1    3    3  502    0  0.90514052647E+02 -0.20100464070E+02 -0.11254211538E+02  0.93493058886E+02  0.41800000000E+01 0.  1.
         -5    1    3    3    0  502 -0.41576431898E+02  0.44721013171E+01  0.18039371517E+01  0.42063356604E+02  0.41800000000E+01 0.  1.
        -11    1    4    4    0    0 -0.18489271117E+02  0.32095097555E+02 -0.28625356707E+02  0.46811958730E+02  0.00000000000E+00 0.  1.
         11    1    4    4    0    0 -0.30448349633E+02 -0.16466734802E+02  0.18171472647E+02  0.39095495502E+02  0.00000000000E+00 0. -1.
</event>
<event>
 8    1  0.6380400E-009  0.1480616E+03  0.7561462E-02  0.1202875E+00
         -1   -1    0    0    0  501 -0.00000000000E+00  0.00000000000E+00  0.32529540032E+02  0.32529540032E+02  0.00000000000E+00 0.  1.
          1   -1    0    0  501    0  0.00000000000E+00 -0.00000000000E+00 -0.11209906528E+04  0.11209906528E+04  0.00000000000E+00 0. -1.
         25    2    1    2    0    0 -0.13541527053E+03 -0.19136565830E+02 -0.34105226949E+03  0.38815910465E+03  0.12508931350E+03 0.  0.
         23    2    1    2    0    0  0.13541527053E+03  0.19136565830E+02 -0.74740884329E+03  0.76536108820E+03  0.91946248714E+02 0.  0.
          5    1    3    3  502    0 -0.26601863708E+02  0.92620189497E+01  0.56615651817E+00  0.28482223947E+02  0.41800000000E+01 0. -1.
         -5    1    3    3    0  502 -0.10881340682E+03 -0.28398584779E+02 -0.34161842601E+03  0.35967688070E+03  0.41800000000E+01 0. -1.
        -11    1    4    4    0    0  0.11807797430E+03  0.42956889816E+02 -0.68396199512E+03  0.69540758780E+03  0.00000000000E+00 0. -1.
         11    1    4    4    0    0  0.17337296231E+02 -0.23820323987E+02 -0.63446848173E+02  0.69953500402E+02  0.00000000000E+00 0.  1.
</event>
<event>
 8    1  0.6380400E-009  0.1144495E+03  0.7561462E-02  0.1252545E+00
          1   -1    0    0  501    0  0.00000000000E+00  0.00000000000E+00  0.13052117299E+04  0.13052117299E+04  0.00000000000E+00 0. -1.
         -1   -1    0    0    0  501 -0.00000000000E+00 -0.00000000000E+00 -0.13343059115E+02  0.13343059115E+02  0.00000000000E+00 0.  1.
         25    2    1    2    0    0 -0.73261409698E+02 -0.80826098600E+01  0.81405769609E+03  0.82690336501E+03  0.12508668898E+03 0.  0.
         23    2    1    2    0    0  0.73261409698E+02  0.80826098600E+01  0.47781097466E+03  0.49165142397E+03  0.89360127896E+02 0.  0.
          5    1    3    3  502    0 -0.10150329960E+02  0.36727950502E+02  0.55934965578E+03  0.56066164607E+03  0.41800000000E+01 0. -1.
         -5    1    3    3    0  502 -0.63111079738E+02 -0.44810560362E+02  0.25470804031E+03  0.26624171894E+03  0.41800000000E+01 0. -1.
        -11    1    4    4    0    0  0.68120014715E+02  0.41151609219E+02  0.38087816895E+03  0.38910406183E+03  0.00000000000E+00 0.  1.
         11    1    4    4    0    0  0.51413949831E+01 -0.33068999359E+02  0.96932805709E+02  0.10254736215E+03  0.00000000000E+00 0. -1.
</event>
<event>
 8    1  0.6380400E-009  0.9948322E+02  0.7561462E-02  0.1281386E+00
          1   -1    0    0  501    0  0.00000000000E+00  0.00000000000E+00  0.52334187575E+02  0.52334187575E+02  0.00000000000E+00 0. -1.
         -1   -1    0    0    0  501 -0.00000000000E+00 -0.00000000000E+00 -0.31852919280E+03  0.31852919280E+03  0.00000000000E+00 0.  1.
         25    2    1    2    0    0 -0.52462225697E+01  0.46928600130E+02 -0.75893703361E+02  0.15374379056E+03  0.12508989793E+03 0.  0.
         23    2    1    2    0    0  0.52462225697E+01 -0.46928600130E+02 -0.19030130186E+03  0.21711958981E+03  0.93255104034E+02 0.  0.
          5    1    3    3  502    0  0.20272239415E+02 -0.34207452563E+02 -0.51428639947E+02  0.65142082470E+02  0.41800000000E+01 0.  1.
         -5    1    3    3    0  502 -0.25518461985E+02  0.81136052693E+02 -0.24465063414E+02  0.88601708090E+02  0.41800000000E+01 0.  1.
        -11    1    4    4    0    0  0.30121098687E+02 -0.35192211801E+02 -0.18284606596E+03  0.18862252303E+03  0.00000000000E+00 0.  1.
         11    1    4    4    0    0 -0.24874876118E+02 -0.11736388329E+02 -0.74552359048E+01  0.28497066784E+02  0.00000000000E+00 0. -1.
</event>
<event>
 8    1  0.6380400E-009  0.1361210E+03  0.7561462E-02  0.1218646E+00
         -2   -1    0    0    0  501 -0.00000000000E+00  0.00000000000E+00  0.59076397471E+03  0.59076397471E+03  0.00000000000E+00 0.  1.
          2   -1    0    0  501    0  0.00000000000E+00 -0.00000000000E+00 -0.34678194580E+02  0.34678194580E+02  0.00000000000E+00 0. -1.
         25    2    1    2    0    0 -0.85647833950E+02  0.30029802259E+02  0.34397574442E+03  0.37710397956E+03  0.12510299024E+03 0.  0.
         23    2    1    2    0    0  0.85647833950E+02 -0.30029802259E+02  0.21211003570E+03  0.24833818972E+03  0.91890417049E+02 0.  0.
          5    1    3    3  502    0 -0.86815046586E+02 -0.23343677414E+02  0.14172819671E+03  0.16788726494E+03  0.41800000000E+01 0. -1.
         -5    1    3    3    0  502  0.11672126358E+01  0.53373479673E+02  0.20224754772E+03  0.20921671462E+03  0.41800000000E+01 0. -1.
        -11    1    4    4    0    0  0.86281580802E+01 -0.48690073526E+02  0.91850453345E+02  0.10431526327E+03  0.00000000000E+00 0.  1.
         11    1    4    4    0    0  0.77019675870E+02  0.18660271267E+02  0.12025958236E+03  0.14402292645E+03  0.00000000000E+00 0. -1.
</event>
<event>
 8    1  0.6380400E-009  0.1545958E+03  0.7561462E-02  0.1194937E+00
         -1   -1    0    0    0  501 -0.00000000000E+00  0.00000000000E+00  0.58889501279E+02  0.58889501279E+02  0.00000000000E+00 0.  1.
          1   -1    0    0  501    0  0.00000000000E+00 -0.00000000000E+00 -0.55703005404E+03  0.55703005404E+03  0.00000000000E+00 0. -1.
         25    2    1    2    0    0  0.42388087577E+02 -0.12193839254E+03 -0.15081662780E+03  0.23464774678E+03  0.12509271881E+03 0.  0.
         23    2    1    2    0    0 -0.42388087577E+02  0.12193839254E+03 -0.34732392495E+03  0.38127180854E+03  0.89825172403E+02 0.  0.
          5    1    3    3  502    0 -0.36275256051E+02 -0.28656613791E+01 -0.24968403124E+02  0.44328317938E+02  0.41800000000E+01 0. -1.
         -5    1    3    3    0  502  0.78663343628E+02 -0.11907273117E+03 -0.12584822468E+03  0.19031942884E+03  0.41800000000E+01 0. -1.
        -11    1    4    4    0    0 -0.94679704463E+01  0.46966218577E+02 -0.24782136211E+03  0.25241017346E+03  0.00000000000E+00 0. -1.
         11    1    4    4    0    0 -0.32920117131E+02  0.74972173968E+02 -0.99502562848E+02  0.12886163508E+03  0.00000000000E+00 0.  1.
</event>
<event>
 8    1  0.6380400E-009  0.1012940E+03  0.7561462E-02  0.1277598E+00
          2   -1    0    0  501    0  0.00000000000E+00  0.00000000000E+00  0.55393412982E+03  0.55393412982E+03  0.00000000000E+00 0. -1.
         -2   -1    0    0    0  501 -0.00000000000E+00 -0.00000000000E+00 -0.20703625438E+02  0.20703625438E+02  0.00000000000E+00 0.  1.
         25    2    1    2    0    0  0.59426693817E+01  0.16841365898E+01  0.31866762508E+03  0.34239579023E+03  0.12509064816E+03 0.  0.
         23    2    1    2    0    0 -0.59426693817E+01 -0.16841365898E+01  0.21456287931E+03  0.23224196503E+03  0.88661995868E+02 0.  0.
          5    1    3    3  502    0 -0.51226729470E+02 -0.17164166942E+02  0.82974660472E+02  0.99101226629E+02  0.41800000000E+01 0.  1.
         -5    1    3    3    0  502  0.57169398851E+02  0.18848303531E+02  0.23569296461E+03  0.24329456360E+03  0.41800000000E+01 0.  1.
        -11    1    4    4    0    0  0.40746548903E+02  0.43666088986E+01  0.11566145618E+03  0.12270664598E+03  0.00000000000E+00 0. -1.
         11    1    4    4    0    0 -0.46689218285E+02 -0.60507454884E+01  0.98901423125E+02  0.10953531906E+03  0.00000000000E+00 0.  1.
</event>
<event>
 8    1  0.6380400E-009  0.1049216E+03  0.7561462E-02  0.1270274E+00
         -3   -1    0    0    0  501 -0.00000000000E+00  0.00000000000E+00  0.73038360361E+02  0.73038360361E+02  0.00000000000E+00 0.  1.
          3   -1    0    0  501    0  0.00000000000E+00 -0.00000000000E+00 -0.21133115382E+03  0.21133115382E+03  0.00000000000E+00 0. -1.
         25    2    1    2    0    0  0.21153387117E+01 -0.13058617846E+02 -0.14882286656E+03  0.19485827292E+03  0.12508596546E+03 0.  0.
         23    2    1    2    0    0 -0.21153387117E+01  0.13058617846E+02  0.10530073109E+02  0.89511241256E+02  0.87899816345E+02 0.  0.
          5    1    3    3  502    0 -0.37745875393E+02 -0.54457114558E+02 -0.63274929747E+02  0.91714325869E+02  0.41800000000E+01 0.  1.
         -5    1    3    3    0  502  0.39861214104E+02  0.41398496712E+02 -0.85547936817E+02  0.10314394705E+03  0.41800000000E+01 0.  1.
        -11    1    4    4    0    0  0.23001048730E+02 -0.28895869432E+02  0.16115072597E+02  0.40295348090E+02  0.00000000000E+00 0.  1.
         11    1    4    4    0    0 -0.25116387442E+02  0.41954487277E+02 -0.55849994877E+01  0.49215893166E+02  0.00000000000E+00 0. -1.
</event>
<event>
 8    1  0.6380400E-009  0.1221181E+03  0.7561462E-02  0.1239643E+00
         -2   -1    0    0    0  501 -0.00000000000E+00  0.00000000000E+00  0.41547056064E+02  0.41547056064E+02  0.00000000000E+00 0. -1.
          2   -1    0    0  501    0  0.00000000000E+00 -0.00000000000E+00 -0.41168275741E+03  0.41168275741E+03  0.00000000000E+00 0.  1.
         25    2    1    2    0    0  0.57018151961E+02  0.28689380421E+01 -0.27856055357E+03  0.31064908169E+03  0.12509024538E+03 0.  0.
         23    2    1    2    0    0 -0.57018151961E+02 -0.28689380421E+01 -0.91575147778E+02  0.14258073179E+03  0.93187750954E+02 0.  0.
          5    1    3    3  502    0  0.62450814008E+02  0.54433321906E+02 -0.14110628311E+03  0.16368123361E+03  0.41800000000E+01 0. -1.
         -5    1    3    3    0  502 -0.54326620472E+01 -0.51564383864E+02 -0.13745427046E+03  0.14696784807E+03  0.41800000000E+01 0. -1.
        -11    1    4    4    0    0  0.47831595720E+01  0.35963552245E+02 -0.31565241378E+02  0.48089709593E+02  0.00000000000E+00 0.  1.
         11    1    4    4    0    0 -0.61801311533E+02 -0.38832490287E+02 -0.60009906401E+02  0.94491022194E+02  0.00000000000E+00 0. -1.
</event>
<event>
 8    1  0.6380400E-009  0.7016718E+02  0.7561462E-02  0.1359525E+00
          2   -1    0    0  501    0  0.00000000000E+00  0.00000000000E+00  0.30307164502E+03  0.30307164502E+03  0.00000000000E+00 0.  1.
         -2   -1    0    0    0  501 -0.00000000000E+00 -0.00000000000E+00 -0.55339771696E+02  0.55339771696E+02  0.00000000000E+00 0. -1.
         25    2    1    2    0    0 -0.37551409788E+01  0.36651986677E+02  0.22232150191E+03  0.25774341117E+03  0.12508935438E+03 0.  0.
         23    2    1    2    0    0  0.37551409788E+01 -0.36651986677E+02  0.25410371408E+02  0.10066800554E+03  0.90171454203E+02 0.  0.
          5    1    3    3  502    0 -0.25677938058E+02 -0.14866223098E+02  0.19123308482E+03  0.19356633546E+03  0.41800000000E+01 0. -1.
         -5    1    3    3    0  502  0.21922797079E+02  0.51518209775E+02  0.31088417092E+02  0.64177075716E+02  0.41800000000E+01 0. -1.
        -11    1    4    4    0    0  0.21523669640E+02 -0.15091993783E+02  0.54392865353E+02  0.60412088463E+02  0.00000000000E+00 0.  1.
         11    1    4    4    0    0 -0.17768528661E+02 -0.21559992895E+02 -0.28982493945E+02  0.40255917077E+02  0.00000000000E+00 0. -1.
</event>
<event>
 8    1  0.6380400E-009  0.1048386E+03  0.7561462E-02  0.1270438E+00
         -1   -1    0    0    0  501 -0.00000000000E+00  0.00000000000E+00  0.30449240310E+03  0.30449240310E+03  0.00000000000E+00 0.  1.
          1   -1    0    0  501    0  0.00000000000E+00 -0.00000000000E+00 -0.49251750084E+02  0.49251750084E+02  0.00000000000E+00 0. -1.
         25    2    1    2    0    0 -0.25160444285E+02 -0.37361928323E+02  0.91401254608E+02  0.16130901042E+03  0.12504977351E+03 0.  0.
         23    2    1    2    0    0  0.25160444285E+02  0.37361928323E+02  0.16383939840E+03  0.19243514276E+03  0.90327039444E+02 0.  0.
          5    1    3    3  502    0 -0.70036518223E+02 -0.48743597448E+02  0.49556956798E+02  0.98764449799E+02  0.41800000000E+01 0. -1.
         -5    1    3    3    0  502  0.44876073938E+02  0.11381669125E+02  0.41844297810E+02  0.62544560622E+02  0.41800000000E+01 0. -1.
        -11    1    4    4    0    0  0.36066723013E+02 -0.27701687927E+01  0.17277916419E+02  0.40087513515E+02  0.00000000000E+00 0. -1.
         11    1    4    4    0    0 -0.10906278728E+02  0.40132097116E+02  0.14656148198E+03  0.15234762924E+03  0.00000000000E+00 0.  1.
</event>
<event>
 8    1  0.6380400E-009  0.1634165E+03  0.7561462E-02  0.1184893E+00
         -2   -1    0    0    0  501 -0.00000000000E+00  0.00000000000E+00  0.34128516019E+02  0.34128516019E+02  0.00000000000E+00 0.  1.
          2   -1    0    0  501    0  0.00000000000E+00 -0.00000000000E+00 -0.10163818887E+04  0.10163818887E+04  0.00000000000E+00 0. -1.
         25    2    1    2    0    0  0.87564258598E+02 -0.11945606893E+03 -0.49929875246E+03  0.53561526164E+03  0.12508881844E+03 0.  0.
         23    2    1    2    0    0 -0.87564258598E+02  0.11945606893E+03 -0.48295462025E+03  0.51489514311E+03  0.99672420433E+02 0.  0.
          5    1    3    3  502    0  0.92737965411E+02 -0.10034065168E+03 -0.49675090980E+03  0.51521598908E+03  0.41800000000E+01 0. -1.
         -5    1    3    3    0  502 -0.51737068126E+01 -0.19115417248E+02 -0.25478426590E+01  0.20399272560E+02  0.41800000000E+01 0. -1.
        -11    1    4    4    0    0 -0.13860034440E+02 -0.12556847275E+02 -0.17929455953E+02  0.25908306755E+02  0.00000000000E+00 0.  1.
         11    1    4    4    0    0 -0.73704224158E+02  0.13201291621E+03 -0.46502516429E+03  0.48898683636E+03  0.00000000000E+00 0. -1.
</event>
<event>
 8    1  0.6380400E-009  0.8608274E+02  0.7561462E-02  0.1312625E+00
         -1   -1    0    0    0  501 -0.00000000000E+00  0.00000000000E+00  0.23113569491E+02  0.23113569491E+02  0.00000000000E+00 0.  1.
          1   -1    0    0  501    0  0.00000000000E+00 -0.00000000000E+00 -0.53686025757E+03  0.53686025757E+03  0.00000000000E+00 0. -1.
         25    2    1    2    0    0  0.23545336949E+02  0.11315414638E+02 -0.42700388518E+03  0.44571395672E+03  0.12508473831E+03 0.  0.
         23    2    1    2    0    0 -0.23545336949E+02 -0.11315414638E+02 -0.86742802898E+02  0.11425987034E+03  0.69631764406E+02 0.  0.
          5    1    3    3  502    0  0.18318709865E+02  0.67341113557E+02 -0.20253881693E+03  0.21426582898E+03  0.41800000000E+01 0. -1.
         -5    1    3    3    0  502  0.52266270842E+01 -0.56025698919E+02 -0.22446506825E+03  0.23144812774E+03  0.41800000000E+01 0. -1.
        -11    1    4    4    0    0 -0.14354824659E+02 -0.25303073659E+02 -0.92180381992E+02  0.96661933313E+02  0.00000000000E+00 0. -1.
         11    1    4    4    0    0 -0.91905122898E+01  0.13987659022E+02  0.54375790947E+01  0.17597937023E+02  0.00000000000E+00 0.  1.
</event>
<event>
 8    1  0.6380400E-009  0.1669753E+03  0.7561462E-02  0.1181039E+00
         -2   -1    0    0    0  501 -0.00000000000E+00  0.00000000000E+00  0.22281982917E+03  0.22281982917E+03  0.00000000000E+00 0.  1.
          2   -1    0    0  501    0  0.00000000000E+00 -0.00000000000E+00 -0.18252414717E+03  0.18252414717E+03  0.00000000000E+00 0. -1.
         25    2    1    2    0    0  0.10952959635E+03  0.10891450853E+03  0.91086679965E+02  0.21864038100E+03  0.12509088813E+03 0.  0.
         23    2    1    2    0    0 -0.10952959635E+03 -0.10891450853E+03 -0.50790997958E+02  0.18670359533E+03  0.91757312472E+02 0.  0.
          5    1    3    3  502    0  0.88980399526E+02  0.12457590917E+03  0.35511711522E+02  0.15721075886E+03  0.41800000000E+01 0.  1.
         -5    1    3    3    0  502  0.20549196823E+02 -0.15661400636E+02  0.55574968443E+02  0.61429622149E+02  0.41800000000E+01 0.  1.
        -11    1    4    4    0    0 -0.80300178328E+02 -0.84211624310E+02 -0.77702076781E+02  0.13991900887E+03  0.00000000000E+00 0. -1.
         11    1    4    4    0    0 -0.29229418021E+02 -0.24702884222E+02  0.26911078823E+02  0.46784586460E+02  0.00000000000E+00 0.  1.
</event>
<event>
 8    1  0.6380400E-009  0.1337114E+03  0.7561462E-02  0.1222050E+00
         -2   -1    0    0    0  501 -0.00000000000E+00  0.00000000000E+00  0.11457940241E+03  0.11457940241E+03  0.00000000000E+00 0.  1.
          2   -1    0    0  501    0  0.00000000000E+00 -0.00000000000E+00 -0.20079622126E+03  0.20079622126E+03  0.00000000000E+00 0. -1.
         25    2    1    2    0    0 -0.63553285873E+02  0.86815290966E+02 -0.55742927751E+02  0.17414764803E+03  0.12507683411E+03 0.  0.
         23    2    1    2    0    0  0.63553285873E+02 -0.86815290966E+02 -0.30473891104E+02  0.14122797564E+03  0.86259887398E+02 0.  0.
          5    1    3    3  502    0 -0.88066866030E+02  0.42450384038E+02 -0.71173071802E+02  0.12099953119E+03  0.41800000000E+01 0.  1.
         -5    1    3    3    0  502  0.24513580158E+02  0.44364906929E+02  0.15430144051E+02  0.53148116847E+02  0.41800000000E+01 0.  1.
        -11    1    4    4    0    0  0.41950938006E+02 -0.16377239312E+02 -0.47662896151E+02  0.65573217372E+02  0.00000000000E+00 0. -1.
         11    1    4    4    0    0  0.21602347867E+02 -0.70438051654E+02  0.17189005047E+02  0.75654758269E+02  0.00000000000E+00 0.  1.
</event>
<event>
 8    1  0.6380400E-009  0.1311426E+03  0.7561462E-02  0.1225770E+00
          2   -1    0    0  501    0  0.00000000000E+00  0.00000000000E+00  0.11326243057E+03  0.11326243057E+03  0.00000000000E+00 0. -1.
         -2   -1    0    0    0  501 -0.00000000000E+00 -0.00000000000E+00 -0.16476137849E+03  0.16476137849E+03  0.00000000000E+00 0.  1.
         25    2    1    2    0    0 -0.64721756066E+02 -0.48607502746E+02 -0.10204032226E+02  0.14933572705E+03  0.12508174155E+03 0.  0.
         23    2    1    2    0    0  0.64721756066E+02  0.48607502746E+02 -0.41294915688E+02  0.12868808200E+03  0.91124954631E+02 0.  0.
          5    1    3    3  502    0 -0.73634191116E+02  0.16182308836E+02  0.18580030663E+02  0.77759572787E+02  0.41800000000E+01 0. -1.
         -5    1    3    3    0  502  0.89124350498E+01 -0.64789811582E+02 -0.28784062889E+02  0.71576154268E+02  0.41800000000E+01 0. -1.
        -11    1    4    4    0    0  0.59040023136E+02  0.74317190127E+02 -0.26770042781E+02  0.98617464330E+02  0.00000000000E+00 0. -1.
         11    1    4    4    0    0  0.56817329300E+01 -0.25709687381E+02 -0.14524872907E+02  0.30070617674E+02  0.00000000000E+00 0.  1.
</event>
<event>
 8    1  0.6380400E-009  0.1415239E+03  0.7561462E-02  0.1211293E+00
          2   -1    0    0  501    0  0.00000000000E+00  0.00000000000E+00  0.31997631595E+03  0.31997631595E+03  0.00000000000E+00 0. -1.
         -2   -1    0    0    0  501 -0.00000000000E+00 -0.00000000000E+00 -0.74334357718E+02  0.74334357718E+02  0.00000000000E+00 0.  1.
         25    2    1    2    0    0  0.10049935908E+03 -0.44073872930E+02  0.13615151567E+03  0.21500537508E+03  0.12508976235E+03 0.  0.
         23    2    1    2    0    0 -0.10049935908E+03  0.44073872930E+02  0.10949044256E+03  0.17930529858E+03  0.90108854379E+02 0.  0.
          5    1    3    3  502    0  0.10282971344E+03 -0.48717010911E+00  0.42022971445E+02  0.11116469687E+03  0.41800000000E+01 0. -1.
         -5    1    3    3    0  502 -0.23303543633E+01 -0.43586702821E+02  0.94128544224E+02  0.10384067821E+03  0.41800000000E+01 0. -1.
        -11    1    4    4    0    0  0.13969011954E+02  0.87731239765E+01 -0.74736839532E+00  0.16512406208E+02  0.00000000000E+00 0.  1.
         11    1    4    4    0    0 -0.11446837103E+03  0.35300748954E+02  0.11023781095E+03  0.16279289237E+03  0.00000000000E+00 0. -1.
</event>
<event>
 8    1  0.6380400E-009  0.8918159E+02  0.7561462E-02  0.1304846E+00
         -2   -1    0    0    0  501 -0.00000000000E+00  0.00000000000E+00  0.71989818080E+02  0.71989818080E+02  0.00000000000E+00 0.  1.
          2   -1    0    0  501    0  0.00000000000E+00 -0.00000000000E+00 -0.18788688150E+03  0.18788688150E+03  0.00000000000E+00 0. -1.
         25    2    1    2    0    0 -0.15498101962E+01  0.40326554609E+02 -0.81502141190E+02  0.15465590685E+03  0.12508883878E+03 0.  0.
         23    2    1    2    0    0  0.15498101962E+01 -0.40326554609E+02 -0.34394922230E+02  0.10522079273E+03  0.90883285755E+02 0.  0.
          5    1    3    3  502    0  0.16105025077E+02 -0.36009945968E+02 -0.62333910396E+02  0.73885565753E+02  0.41800000000E+01 0.  1.
         -5    1    3    3    0  502 -0.17654835273E+02  0.76336500578E+02 -0.19168230794E+02  0.80770341096E+02  0.41800000000E+01 0.  1.
        -11    1    4    4    0    0  0.22892279669E+02 -0.16342631614E+02 -0.58608567856E+02  0.65008478698E+02  0.00000000000E+00 0. -1.
         11    1    4    4    0    0 -0.21342469473E+02 -0.23983922995E+02  0.24213645626E+02  0.40212314034E+02  0.00000000000E+00 0.  1.
</event>
<event>
 8    1  0.6380400E-009  0.9813731E+02  0.7561462E-02  0.1284262E+00
          2   -1    0    0  501    0  0.00000000000E+00  0.00000000000E+00  0.52090112874E+03  0.52090112874E+03  0.00000000000E+00 0. -1.
         -2   -1    0    0    0  501 -0.00000000000E+00 -0.00000000000E+00 -0.23316867117E+02  0.23316867117E+02  0.00000000000E+00 0.  1.
         25    2    1    2    0    0 -0.34219762011E+01  0.87781209430E+01  0.34297636872E+03  0.36519752495E+03  0.12509067671E+03 0.  0.
         23    2    1    2    0    0  0.34219762011E+01 -0.87781209430E+01  0.15460789291E+03  0.17902047091E+03  0.89755017285E+02 0.  0.
          5    1    3    3  502    0  0.27174761154E+02 -0.47293891214E+02  0.10061819617E+03  0.11452804718E+03  0.41800000000E+01 0. -1.
         -5    1    3    3    0  502 -0.30596737355E+02  0.56072012157E+02  0.24235817255E+03  0.25066947777E+03  0.41800000000E+01 0. -1.
        -11    1    4    4    0    0 -0.30435598655E+02  0.17128323042E+02  0.11723512722E+03  0.12232653094E+03  0.00000000000E+00 0. -1.
         11    1    4    4    0    0  0.33857574856E+02 -0.25906443985E+02  0.37372765683E+02  0.56693939975E+02  0.00000000000E+00 0.  1.
</event>
<event>
 8    1  0.6380400E-009  0.1198335E+03  0.7561462E-02  0.1243372E+00
         -2   -1    0    0    0  501 -0.00000000000E+00  0.00000000000E+00  0.10960140867E+03  0.10960140867E+03  0.00000000000E+00 0. -1.
          2   -1    0    0  501    0  0.00000000000E+00 -0.00000000000E+00 -0.14889438036E+03  0.14889438036E+03  0.00000000000E+00 0.  1.
         25    2    1    2    0    0  0.40871077051E+02 -0.23302056271E+02 -0.40587012444E+02  0.13966529610E+03  0.12508260706E+03 0.  0.
         23    2    1    2    0    0 -0.40871077051E+02  0.23302056271E+02  0.12940407564E+01  0.11883049292E+03  0.10911269743E+03 0.  0.
          5    1    3    3  502    0  0.85500208353E+02 -0.22473091162E+02 -0.22470575031E+02  0.91311141692E+02  0.41800000000E+01 0. -1.
         -5    1    3    3    0  502 -0.44629131303E+02 -0.82896510949E+00 -0.18116437413E+02  0.48354154408E+02  0.41800000000E+01 0. -1.
        -11    1    4    4    0    0 -0.16032169768E+02  0.59951553987E+02  0.26953276296E+02  0.67658690470E+02  0.00000000000E+00 0.  1.
         11    1    4    4    0    0 -0.24838907283E+02 -0.36649497716E+02 -0.25659235540E+02  0.51171802453E+02  0.00000000000E+00 0. -1.
</event>
<event>
 8    1  0.6380400E-009  0.8340947E+02  0.7561462E-02  0.1319645E+00
          3   -1    0    0  501    0  0.00000000000E+00  0.00000000000E+00  0.28725279052E+03  0.28725279052E+03  0.00000000000E+00 0. -1.
         -3   -1    0    0    0  501 -0.00000000000E+00 -0.00000000000E+00 -0.39235243233E+02  0.39235243233E+02  0.00000000000E+00 0.  1.
         25    2    1    2    0    0  0.50054011094E+01 -0.10246968454E+02  0.14932780729E+03  0.19513155661E+03  0.12508987151E+03 0.  0.
         23    2    1    2    0    0 -0.50054011094E+01  0.10246968454E+02  0.98689740002E+02  0.13135647714E+03  0.85934887576E+02 0.  0.
          5    1    3    3  502    0  0.33075677879E+02 -0.35234240592E+02  0.84122327642E+01  0.49230988588E+02  0.41800000000E+01 0. -1.
         -5    1    3    3    0  502 -0.28070276770E+02  0.24987272138E+02  0.14091557452E+03  0.14590056802E+03  0.41800000000E+01 0. -1.
        -11    1    4    4    0    0  0.16194454492E+02  0.40465798247E+02  0.77169956742E+02  0.88628118606E+02  0.00000000000E+00 0. -1.
         11    1    4    4    0    0 -0.21199855602E+02 -0.30218829793E+02  0.21519783260E+02  0.42728358536E+02  0.00000000000E+00 0.  1.
</event>
<event>
 7    1  0.6380400E-009  0.3820979E+03  0.7561462E-02  0.1050161E+00
          1   -1    0    0  501    0  0.00000000000E+00  0.00000000000E+00  0.66039414675E+03  0.66039414675E+03  0.00000000000E+00 0. -1.
         -1   -1    0    0    0  501 -0.00000000000E+00 -0.00000000000E+00 -0.23376129750E+03  0.23376129750E+03  0.00000000000E+00 0.  1.
         25    2    1    2    0    0  0.35617998248E+03  0.60511494129E+02  0.11529830347E+03  0.39932994920E+03  0.12507952953E+03 0.  0.
          5    1    3    3  502    0  0.36465912781E+03  0.54923983665E+02  0.10314035563E+03  0.38294690081E+03  0.41800000000E+01 0.  1.
         -5    1    3    3    0  502 -0.84791453371E+01  0.55875104637E+01  0.12157947849E+02  0.16383048395E+02  0.41800000000E+01 0.  1.
        -11    1    1    2    0    0 -0.21485280640E+03 -0.10099686259E+03  0.18469848456E+03  0.30079166356E+03  0.00000000000E+00 0. -1.
         11    1    1    2    0    0 -0.14132717608E+03  0.40485368461E+02  0.12663606121E+03  0.19403383148E+03  0.00000000000E+00 0.  1.
</event>
<event>
 8    1  0.6380400E-009  0.8829474E+02  0.7561462E-02  0.1307035E+00
         -3   -1    0    0    0  501 -0.00000000000E+00  0.00000000000E+00  0.45568846102E+02  0.45568846102E+02  0.00000000000E+00 0.  1.
          3   -1    0    0  501    0  0.00000000000E+00 -0.00000000000E+00 -0.28535615807E+03  0.28535615807E+03  0.00000000000E+00 0. -1.
         25    2    1    2    0    0 -0.30461032426E+02 -0.17713072344E+02 -0.15226727965E+03  0.20018879526E+03  0.12509437184E+03 0.  0.
         23    2    1    2    0    0  0.30461032426E+02  0.17713072344E+02 -0.87520032319E+02  0.13073620891E+03  0.90501783605E+02 0.  0.
          5    1    3    3  502    0  0.47745555196E+02 -0.18515683885E+02 -0.54194624896E+02  0.74679303414E+02  0.41800000000E+01 0. -1.
         -5    1    3    3    0  502 -0.78206587622E+02  0.80261154025E+00 -0.98072654753E+02  0.12550949184E+03  0.41800000000E+01 0. -1.
        -11    1    4    4    0    0  0.22730937156E+02 -0.46706947448E+01 -0.10090176603E+03  0.10353587437E+03  0.00000000000E+00 0. -1.
         11    1    4    4    0    0  0.77300952701E+01  0.22383767089E+02  0.13381733714E+02  0.27200334542E+02  0.00000000000E+00 0.  1.
</event>
<event>
 8    1  0.6380400E-009  0.1043469E+03  0.7561462E-02  0.1271412E+00
         -2   -1    0    0    0  501 -0.00000000000E+00  0.00000000000E+00  0.17966120097E+03  0.17966120097E+03  0.00000000000E+00 0.  1.
          2   -1    0    0  501    0  0.00000000000E+00 -0.00000000000E+00 -0.16921614716E+03  0.16921614716E+03  0.00000000000E+00 0. -1.
         25    2    1    2    0    0 -0.27877877879E+02 -0.61680019849E+02  0.12069438179E+03  0.18653738259E+03  0.12508980927E+03 0.  0.
         23    2    1    2    0    0  0.27877877879E+02  0.61680019849E+02 -0.11024932797E+03  0.16233996554E+03  0.98070123736E+02 0.  0.
          5    1    3    3  502    0 -0.19168139928E+02  0.77506225721E+01 -0.20175824146E+02  0.29189484725E+02  0.41800000000E+01 0.  1.
         -5    1    3    3    0  502 -0.87097379502E+01 -0.69430642421E+02  0.14087020593E+03  0.15734789786E+03  0.41800000000E+01 0.  1.
        -11    1    4    4    0    0  0.59914252327E+02  0.60933182738E+02 -0.91560493254E+02  0.12524334040E+03  0.00000000000E+00 0.  1.
         11    1    4    4    0    0 -0.32036374448E+02  0.74683711064E+00 -0.18688834720E+02  0.37096625138E+02  0.00000000000E+00 0. -1.
</event>
<event>
 8    1  0.6380400E-009  0.1152272E+03  0.7561462E-02  0.1251185E+00
          2   -1    0    0  501    0  0.00000000000E+00  0.00000000000E+00  0.78187186813E+02  0.78187186813E+02  0.00000000000E+00 0. -1.
         -2   -1    0    0    0  501 -0.00000000000E+00 -0.00000000000E+00 -0.23213542363E+03  0.23213542363E+03  0.00000000000E+00 0.  1.
         25    2    1    2    0    0 -0.79461683003E+02 -0.66570591595E+01 -0.75886612735E+02  0.16663829815E+03  0.12510423220E+03 0.  0.
         23    2    1    2    0    0  0.79461683003E+02  0.66570591595E+01 -0.78061624082E+02  0.14368431230E+03  0.90515683412E+02 0.  0.
          5    1    3    3  502    0 -0.71496438490E+02 -0.60214968875E+02 -0.54407566098E+02  0.10823695691E+03  0.41800000000E+01 0.  1.
         -5    1    3    3    0  502 -0.79652445133E+01  0.53557909715E+02 -0.21479046637E+02  0.58401341232E+02  0.41800000000E+01 0.  1.
        -11    1    4    4    0    0  0.48823096521E+02 -0.64615965713E+01  0.93551032050E+01  0.50129481746E+02  0.00000000000E+00 0. -1.
         11    1    4    4    0    0  0.30638586483E+02  0.13118655731E+02 -0.87416727287E+02  0.93554830551E+02  0.00000000000E+00 0.  1.
</event>
<event>
 8    1  0.6380400E-009  0.1114152E+03  0.7561462E-02  0.1257971E+00
          1   -1    0    0  501    0  0.00000000000E+00  0.00000000000E+00  0.14094541819E+03  0.14094541819E+03  0.00000000000E+00 0. -1.
         -1   -1    0    0    0  501 -0.00000000000E+00 -0.00000000000E+00 -0.11574411805E+03  0.11574411805E+03  0.00000000000E+00 0.  1.
         25    2    1    2    0    0 -0.28790162522E+02  0.49330532096E+02  0.51343239007E+02  0.14678448227E+03  0.12508869329E+03 0.  0.
         23    2    1    2    0    0  0.28790162522E+02 -0.49330532096E+02 -0.26141938870E+02  0.10990505397E+03  0.90185060105E+02 0.  0.
          5    1    3    3  502    0 -0.11532784076E+02  0.87854620638E+02  0.54727258216E+02  0.10423044022E+03  0.41800000000E+01 0. -1.
         -5    1    3    3    0  502 -0.17257378446E+02 -0.38524088542E+02 -0.33840192094E+01  0.42554042050E+02  0.41800000000E+01 0. -1.
        -11    1    4    4    0    0  0.41495671510E+02 -0.61448078996E+02  0.48286233231E+01  0.74303921630E+02  0.00000000000E+00 0. -1.
         11    1    4    4    0    0 -0.12705508989E+02  0.12117546900E+02 -0.30970562193E+02  0.35601132343E+02  0.00000000000E+00 0.  1.
</event>
<event>
 8    1  0.6380400E-009  0.2569062E+03  0.7561462E-02  0.1109016E+00
         -2   -1    0    0    0  501 -0.00000000000E+00  0.00000000000E+00  0.78171501205E+02  0.78171501205E+02  0.00000000000E+00 0.  1.
          2   -1    0    0  501    0  0.00000000000E+00 -0.00000000000E+00 -0.91294197519E+03  0.91294197519E+03  0.00000000000E+00 0. -1.
         25    2    1    2    0    0  0.15879412369E+03 -0.17918749394E+03 -0.34211091623E+03  0.43590781217E+03  0.12510799336E+03 0.  0.
         23    2    1    2    0    0 -0.15879412369E+03  0.17918749394E+03 -0.49265955776E+03  0.55520566423E+03  0.90643025307E+02 0.  0.
          5    1    3    3  502    0  0.16491144531E+03 -0.10521126889E+03 -0.24169344109E+03  0.31096364379E+03  0.41800000000E+01 0. -1.
         -5    1    3    3    0  502 -0.61173216253E+01 -0.73976225058E+02 -0.10041747514E+03  0.12494416838E+03  0.41800000000E+01 0. -1.
        -11    1    4    4    0    0 -0.11595050402E+03  0.15808045566E+03 -0.45123701271E+03  0.49198454395E+03  0.00000000000E+00 0. -1.
         11    1    4    4    0    0 -0.42843619662E+02  0.21107038283E+02 -0.41422545043E+02  0.63221120273E+02  0.00000000000E+00 0.  1.
</event>
<event>
 8    1  0.6380400E-009  0.1165264E+03  0.7561462E-02  0.1248940E+00
          1   -1    0    0  501    0  0.00000000000E+00  0.00000000000E+00  0.31199994117E+03  0.31199994117E+03  0.00000000000E+00 0. -1.
         -1   -1    0    0    0  501 -0.00000000000E+00 -0.00000000000E+00 -0.57546064070E+02  0.57546064070E+02  0.00000000000E+00 0.  1.
         25    2    1    2    0    0  0.40228148330E+01 -0.73529346695E+02  0.16848483080E+03  0.22239014570E+03  0.12508993098E+03 0.  0.
         23    2    1    2    0    0 -0.40228148330E+01  0.73529346695E+02  0.85969046303E+02  0.14715585954E+03  0.94028837118E+02 0.  0.
          5    1    3    3  502    0 -0.59307116971E+02 -0.49232282906E+02  0.90448614307E+02  0.11890994926E+03  0.41800000000E+01 0. -1.
         -5    1    3    3    0  502  0.63329931803E+02 -0.24297063789E+02  0.78036216493E+02  0.10348019644E+03  0.41800000000E+01 0. -1.
        -11    1    4    4    0    0 -0.14123500403E+02  0.45372165036E+00  0.70343495290E+02  0.71748773206E+02  0.00000000000E+00 0. -1.
         11    1    4    4    0    0  0.10100685570E+02  0.73075625045E+02  0.15625551012E+02  0.75407086332E+02  0.00000000000E+00 0.  1.
</event>
<event>
 8    1  0.6380400E-009  0.1139853E+03  0.7561462E-02  0.1253363E+00
         -1   -1    0    0    0  501 -0.00000000000E+00  0.00000000000E+00  0.37999805764E+02  0.37999805764E+02  0.00000000000E+00 0.  1.
          1   -1    0    0  501    0  0.00000000000E+00 -0.00000000000E+00 -0.42361160796E+03  0.42361160796E+03  0.00000000000E+00 0. -1.
         25    2    1    2    0    0  0.15774273817E+02 -0.50745829790E+02 -0.14400058539E+03  0.19800920551E+03  0.12509000726E+03 0.  0.
         23    2    1    2    0    0 -0.15774273817E+02  0.50745829790E+02 -0.24161121681E+03  0.26360220822E+03  0.91028441359E+02 0.  0.
          5    1    3    3  502    0 -0.43534694175E+02  0.15807748651E+02 -0.53976245137E+02  0.71246487306E+02  0.41800000000E+01 0.  1.
         -5    1    3    3    0  502  0.59308967992E+02 -0.66553578440E+02 -0.90024340256E+02  0.12676271820E+03  0.41800000000E+01 0.  1.
        -11    1    4    4    0    0  0.20623181156E+02  0.51858352460E+02 -0.20298560613E+03  0.21051783919E+03  0.00000000000E+00 0.  1.
         11    1    4    4    0    0 -0.36397454972E+02 -0.11125226705E+01 -0.38625610671E+02  0.53084369026E+02  0.00000000000E+00 0. -1.
</event>
<event>
 8    1  0.6380400E-009  0.1102038E+03  0.7561462E-02  0.1260193E+00
         -1   -1    0    0    0  501 -0.00000000000E+00  0.00000000000E+00  0.13005855286E+03  0.13005855286E+03  0.00000000000E+00 0.  1.
          1   -1    0    0  501    0  0.00000000000E+00 -0.00000000000E+00 -0.11068920313E+03  0.11068920313E+03  0.00000000000E+00 0. -1.
         25    2    1    2    0    0  0.45426641548E+02  0.82432988956E+01  0.27447834222E+02  0.13613478449E+03  0.12509102368E+03 0.  0.
         23    2    1    2    0    0 -0.45426641548E+02 -0.82432988956E+01 -0.80784844909E+01  0.10461297150E+03  0.93525826142E+02 0.  0.
          5    1    3    3  502    0 -0.36448472054E+02 -0.25469319492E+02  0.10664570531E+02  0.45917129865E+02  0.41800000000E+01 0.  1.
         -5    1    3    3    0  502  0.81875113601E+02  0.33712618387E+02  0.16783263690E+02  0.90217654624E+02  0.41800000000E+01 0.  1.
        -11    1    4    4    0    0 -0.22631430771E+02  0.32979427869E+02  0.24895959038E+02  0.47112982263E+02  0.00000000000E+00 0.  1.
         11    1    4    4    0    0 -0.22795210777E+02 -0.41222726764E+02 -0.32974443529E+02  0.57499989237E+02  0.00000000000E+00 0. -1.
</event>
<event>
 8    1  0.6380400E-009  0.7783209E+02  0.7561462E-02  0.1335319E+00
         -4   -1    0    0    0  501 -0.00000000000E+00  0.00000000000E+00  0.19026995568E+03  0.19026995568E+03  0.00000000000E+00 0.  1.
          4   -1    0    0  501    0  0.00000000000E+00 -0.00000000000E+00 -0.66336555288E+02  0.66336555288E+02  0.00000000000E+00 0. -1.
         25    2    1    2    0    0  0.27909182818E+02  0.43649938223E+01  0.91968843435E+02  0.15780986854E+03  0.12509081018E+03 0.  0.
         23    2    1    2    0    0 -0.27909182818E+02 -0.43649938223E+01  0.31964556961E+02  0.98796642427E+02  0.89112670235E+02 0.  0.
          5    1    3    3  502    0  0.79393855419E+01  0.46286172129E+02 -0.77030110456E+01  0.47772924888E+02  0.41800000000E+01 0. -1.
         -5    1    3    3    0  502  0.19969797276E+02 -0.41921178307E+02  0.99671854480E+02  0.11003694366E+03  0.41800000000E+01 0. -1.
        -11    1    4    4    0    0 -0.39277496052E+02 -0.18779366318E+02 -0.16820050752E+02  0.46672265884E+02  0.00000000000E+00 0. -1.
         11    1    4    4    0    0  0.11368313234E+02  0.14414372496E+02  0.48784607713E+02  0.52124376543E+02  0.00000000000E+00 0.  1.
</event>
<event>
 8    1  0.6380400E-009  0.2370914E+03  0.7561462E-02  0.1121746E+00
         -2   -1    0    0    0  501 -0.00000000000E+00  0.00000000000E+00  0.24634203627E+03  0.24634203627E+03  0.00000000000E+00 0.  1.
          2   -1    0    0  501    0  0.00000000000E+00 -0.00000000000E+00 -0.30286437238E+03  0.30286437238E+03  0.00000000000E+00 0. -1.
         25    2    1    2    0    0 -0.18543772156E+03  0.12272566949E+03 -0.14439723245E+03  0.29316658239E+03  0.12508935110E+03 0.  0.
         23    2    1    2    0    0  0.18543772156E+03 -0.12272566949E+03  0.87874896340E+02  0.25603982626E+03  0.91573231317E+02 0.  0.
          5    1    3    3  502    0 -0.37245986976E+02  0.66104781768E+02  0.37293496351E+01  0.76082101490E+02  0.41800000000E+01 0.  1.
         -5    1    3    3    0  502 -0.14819173458E+03  0.56620887721E+02 -0.14812658209E+03  0.21708448090E+03  0.41800000000E+01 0.  1.
        -11    1    4    4    0    0  0.10337924657E+03 -0.15592850421E+02  0.49923109659E+02  0.11585647364E+03  0.00000000000E+00 0. -1.
         11    1    4    4    0    0  0.82058474988E+02 -0.10713281907E+03  0.37951786682E+02  0.14018335262E+03  0.00000000000E+00 0.  1.
</event>
<event>
 8    1  0.6380400E-009  0.1111778E+03  0.7561462E-02  0.1258404E+00
         -2   -1    0    0    0  501 -0.00000000000E+00  0.00000000000E+00  0.40692354869E+02  0.40692354869E+02  0.00000000000E+00 0.  1.
          2   -1    0    0  501    0  0.00000000000E+00 -0.00000000000E+00 -0.50520932712E+03  0.50520932712E+03  0.00000000000E+00 0. -1.
         25    2    1    2    0    0 -0.25451555981E+02  0.92135687833E+02 -0.20715036901E+03  0.26018415179E+03  0.12509097004E+03 0.  0.
         23    2    1    2    0    0  0.25451555981E+02 -0.92135687833E+02 -0.25736660323E+03  0.28571753019E+03  0.79121248255E+02 0.  0.
          5    1    3    3  502    0 -0.12245139945E+02 -0.14319382099E+02 -0.12102383519E+03  0.12255296504E+03  0.41800000000E+01 0.  1.
         -5    1    3    3    0  502 -0.13206416037E+02  0.10645506993E+03 -0.86126533829E+02  0.13763118676E+03  0.41800000000E+01 0.  1.
        -11    1    4    4    0    0  0.12600737132E+02 -0.36874445000E+02 -0.20446355387E+03  0.20814381598E+03  0.00000000000E+00 0. -1.
         11    1    4    4    0    0  0.12850818849E+02 -0.55261242833E+02 -0.52903049362E+02  0.77573714210E+02  0.00000000000E+00 0.  1.
</event>
<event>
 8    1  0.6380400E-009  0.1757582E+03  0.7561462E-02  0.1171973E+00
         -2   -1    0    0    0  501 -0.00000000000E+00  0.00000000000E+00  0.15770427326E+02  0.15770427326E+02  0.00000000000E+00 0.  1.
          2   -1    0    0  501    0  0.00000000000E+00 -0.00000000000E+00 -0.25801272689E+04  0.25801272689E+04  0.00000000000E+00 0. -1.
         25    2    1    2    0    0  0.11309095435E+03  0.10903463264E+03 -0.17562689575E+04  0.17677122114E+04  0.12509075116E+03 0.  0.
         23    2    1    2    0    0 -0.11309095435E+03 -0.10903463264E+03 -0.80808788409E+03  0.82818548489E+03  0.90592791604E+02 0.  0.
          5    1    3    3  502    0  0.18714454449E+02  0.66311663360E+02 -0.11919993627E+04  0.11939964073E+04  0.41800000000E+01 0. -1.
         -5    1    3    3    0  502  0.94376499905E+02  0.42722969282E+02 -0.56426959477E+03  0.57371580405E+03  0.41800000000E+01 0. -1.
        -11    1    4    4    0    0 -0.10979063337E+03 -0.51658874997E+02 -0.60893239960E+03  0.62090360752E+03  0.00000000000E+00 0.  1.
         11    1    4    4    0    0 -0.33003209794E+01 -0.57375757645E+02 -0.19915548449E+03  0.20728187737E+03  0.00000000000E+00 0. -1.
</event>
<event>
 8    1  0.6380400E-009  0.1454434E+03  0.7561462E-02  0.1206187E+00
         -2   -1    0    0    0  501 -0.00000000000E+00  0.00000000000E+00  0.10038499704E+03  0.10038499704E+03  0.00000000000E+00 0.  1.
          2   -1    0    0  501    0  0.00000000000E+00 -0.00000000000E+00 -0.37315087764E+03  0.37315087764E+03  0.00000000000E+00 0. -1.
         25    2    1    2    0    0  0.44617198528E+02  0.13171074622E+03 -0.45412552952E+02  0.19247728222E+03  0.12508712617E+03 0.  0.
         23    2    1    2    0    0 -0.44617198528E+02 -0.13171074622E+03 -0.22735332764E+03  0.28105859245E+03  0.89252348581E+02 0.  0.
          5    1    3    3  502    0  0.41739721333E+02  0.36869846953E+02 -0.74534063914E+02  0.93136400160E+02  0.41800000000E+01 0.  1.
         -5    1    3    3    0  502  0.28774771948E+01  0.94840899267E+02  0.29121510961E+02  0.99340882065E+02  0.41800000000E+01 0.  1.
        -11    1    4    4    0    0 -0.43299319419E+02 -0.10860219909E+03 -0.22975137707E+03  0.25778860326E+03  0.00000000000E+00 0. -1.
         11    1    4    4    0    0 -0.13178791093E+01 -0.23108547129E+02  0.23980494242E+01  0.23269989188E+02  0.00000000000E+00 0.  1.
</event>
<event>
 8    1  0.6380400E-009  0.2077286E+03  0.7561462E-02  0.1143377E+00
         -2   -1    0    0    0  501 -0.00000000000E+00  0.00000000000E+00  0.33146511329E+02  0.33146511329E+02  0.00000000000E+00 0.  1.
          2   -1    0    0  501    0  0.00000000000E+00 -0.00000000000E+00 -0.16787160530E+04  0.16787160530E+04  0.00000000000E+00 0. -1.
         25    2    1    2    0    0 -0.48232341991E+02  0.17771695398E+03 -0.12212598991E+04  0.12413835897E+04  0.12509117037E+03 0.  0.
         23    2    1    2    0    0  0.48232341991E+02 -0.17771695398E+03 -0.42430964252E+03  0.47047897465E+03  0.86035564185E+02 0.  0.
          5    1    3    3  502    0 -0.84790099984E+02  0.12402476498E+03 -0.69182348130E+03  0.70796094883E+03  0.41800000000E+01 0. -1.
         -5    1    3    3    0  502  0.36557757993E+02  0.53692189007E+02 -0.52943641783E+03  0.53342264084E+03  0.41800000000E+01 0. -1.
        -11    1    4    4    0    0  0.62879950492E+02 -0.82488746717E+02 -0.17829167858E+03  0.20626731239E+03  0.00000000000E+00 0.  1.
         11    1    4    4    0    0 -0.14647608500E+02 -0.95228207266E+02 -0.24601796394E+03  0.26421166226E+03  0.00000000000E+00 0. -1.
</event>
<event>
 8    1  0.6380400E-009  0.1838682E+03  0.7561462E-02  0.1164111E+00
         -1   -1    0    0    0  501 -0.00000000000E+00  0.00000000000E+00  0.10664286115E+03  0.10664286115E+03  0.00000000000E+00 0.  1.
          1   -1    0    0  501    0  0.00000000000E+00 -0.00000000000E+00 -0.49710101127E+03  0.49710101127E+03  0.00000000000E+00 0. -1.
         25    2    1    2    0    0 -0.14870483896E+02  0.17693983576E+03 -0.78860057818E+02  0.23107106470E+03  0.12508433737E+03 0.  0.
         23    2    1    2    0    0  0.14870483896E+02 -0.17693983576E+03 -0.31159809230E+03  0.37267280772E+03  0.10130554636E+03 0.  0.
          5    1    3    3  502    0  0.15121053055E+02  0.13737323646E+03 -0.56536110895E+00  0.13826729322E+03  0.41800000000E+01 0. -1.
         -5    1    3    3    0  502 -0.29991536951E+02  0.39566599295E+02 -0.78294696709E+02  0.92803771482E+02  0.41800000000E+01 0. -1.
        -11    1    4    4    0    0 -0.67586319510E+01 -0.81783790448E+02 -0.56731057971E+02  0.99763121565E+02  0.00000000000E+00 0.  1.
         11    1    4    4    0    0  0.21629115848E+02 -0.95156045307E+02 -0.25486703433E+03  0.27290968616E+03  0.00000000000E+00 0. -1.
</event>
<event>
 8    1  0.6380400E-009  0.1453118E+03  0.7561462E-02  0.1206355E+00
         -1   -1    0    0    0  501 -0.00000000000E+00  0.00000000000E+00  0.16286028904E+03  0.16286028904E+03  0.00000000000E+00 0.  1.
          1   -1    0    0  501    0  0.00000000000E+00 -0.00000000000E+00 -0.15446379285E+03  0.15446379285E+03  0.00000000000E+00 0. -1.
         25    2    1    2    0    0 -0.10577369535E+03 -0.52352334432E+02  0.30484254994E+02  0.17465636283E+03  0.12508682474E+03 0.  0.
         23    2    1    2    0    0  0.10577369535E+03  0.52352334432E+02 -0.22087758808E+02  0.14266771906E+03  0.77054314761E+02 0.  0.
          5    1    3    3  502    0  0.23280825317E+02 -0.33518491483E+02  0.18649627307E+01  0.41066246294E+02  0.41800000000E+01 0. -1.
         -5    1    3    3    0  502 -0.12905452067E+03 -0.18833842949E+02  0.28619292263E+02  0.13359011653E+03  0.41800000000E+01 0. -1.
        -11    1    4    4    0    0  0.52846797817E+02  0.35108667968E+02 -0.49639516151E+02  0.80557334673E+02  0.00000000000E+00 0. -1.
         11    1    4    4    0    0  0.52926897536E+02  0.17243666464E+02  0.27551757343E+02  0.62110384386E+02  0.00000000000E+00 0.  1.
</event>
<event>
 8    1  0.6380400E-009  0.1007929E+03  0.7561462E-02  0.1278637E+00
         -4   -1    0    0    0  501 -0.00000000000E+00  0.00000000000E+00  0.66222923238E+03  0.66222923238E+03  0.00000000000E+00 0.  1.
          4   -1    0    0  501    0  0.00000000000E+00 -0.00000000000E+00 -0.19962688534E+02  0.19962688534E+02  0.00000000000E+00 0. -1.
         25    2    1    2    0    0  0.53853448250E+01  0.98589079021E+01  0.47702410185E+03  0.49328094936E+03  0.12509157144E+03 0.  0.
         23    2    1    2    0    0 -0.53853448250E+01 -0.98589079021E+01  0.16524244200E+03  0.18891097156E+03  0.90863031730E+02 0.  0.
          5    1    3    3  502    0 -0.13095459974E+02 -0.50685621652E+02  0.12496510301E+03  0.13555173435E+03  0.41800000000E+01 0. -1.
         -5    1    3    3    0  502  0.18480804799E+02  0.60544529554E+02  0.35205899884E+03  0.35772921501E+03  0.41800000000E+01 0. -1.
        -11    1    4    4    0    0 -0.39695142699E+02 -0.26265676114E+02  0.12394283007E+03  0.13276827641E+03  0.00000000000E+00 0.  1.
         11    1    4    4    0    0  0.34309797874E+02  0.16406768212E+02  0.41299611926E+02  0.56142695149E+02  0.00000000000E+00 0. -1.
</event>
<event>
 8    1  0.6380400E-009  0.8796806E+02  0.7561462E-02  0.1307848E+00
          1   -1    0    0  501    0  0.00000000000E+00  0.00000000000E+00  0.59969558613E+03  0.59969558613E+03  0.00000000000E+00 0. -1.
         -1   -1    0    0    0  501 -0.00000000000E+00 -0.00000000000E+00 -0.20693556981E+02  0.20693556981E+02  0.00000000000E+00 0.  1.
         25    2    1    2    0    0  0.24154545296E+02  0.48966319286E+01  0.36725034969E+03  0.38875463153E+03  0.12509966077E+03 0.  0.
         23    2    1    2    0    0 -0.24154545296E+02 -0.48966319286E+01  0.21175167946E+03  0.23163451158E+03  0.90599967654E+02 0.  0.
          5    1    3    3  502    0 -0.96910886792E+01  0.36089848212E+02  0.29328124347E+02  0.47686535012E+02  0.41800000000E+01 0.  1.
         -5    1    3    3    0  502  0.33845633976E+02 -0.31193216283E+02  0.33792222534E+03  0.34106809652E+03  0.41800000000E+01 0.  1.
        -11    1    4    4    0    0  0.49007151010E+00 -0.45023985849E+02  0.81185785070E+02  0.92836044558E+02  0.00000000000E+00 0.  1.
         11    1    4    4    0    0 -0.24644616807E+02  0.40127353920E+02  0.13056589439E+03  0.13879846702E+03  0.00000000000E+00 0. -1.
</event>
<event>
 8    1  0.6380400E-009  0.1074701E+03  0.7561462E-02  0.1265328E+00
         -1   -1    0    0    0  501 -0.00000000000E+00  0.00000000000E+00  0.50347550037E+02  0.50347550037E+02  0.00000000000E+00 0.  1.
          1   -1    0    0  501    0  0.00000000000E+00 -0.00000000000E+00 -0.31047632423E+03  0.31047632423E+03  0.00000000000E+00 0. -1.
         25    2    1    2    0    0 -0.15137754235E+02 -0.91853836438E+01 -0.58791662618E+02  0.13934510044E+03  0.12508826702E+03 0.  0.
         23    2    1    2    0    0  0.15137754235E+02  0.91853836438E+01 -0.20133711157E+03  0.22147877383E+03  0.90568713601E+02 0.  0.
          5    1    3    3  502    0 -0.65500597731E+02  0.13984049908E+02 -0.48519261693E+02  0.82809861189E+02  0.41800000000E+01 0. -1.
         -5    1    3    3    0  502  0.50362843496E+02 -0.23169433552E+02 -0.10272400924E+02  0.56535239248E+02  0.41800000000E+01 0. -1.
        -11    1    4    4    0    0  0.11452529231E+01  0.49526666070E+02 -0.11155194828E+03  0.12205752505E+03  0.00000000000E+00 0.  1.
         11    1    4    4    0    0  0.13992501312E+02 -0.40341282426E+02 -0.89785163289E+02  0.99421248773E+02  0.00000000000E+00 0. -1.
</event>
<event>
 8    1  0.6380400E-009  0.1259474E+03  0.7561462E-02  0.1233596E+00
         -1   -1    0    0    0  501 -0.00000000000E+00  0.00000000000E+00  0.30559538110E+02  0.30559538110E+02  0.00000000000E+00 0.  1.
          1   -1    0    0  501    0  0.00000000000E+00 -0.00000000000E+00 -0.92258408087E+03  0.92258408087E+03  0.00000000000E+00 0. -1.
         25    2    1    2    0    0  0.73909342994E+02  0.94202425371E+02 -0.34736314676E+03  0.38813377584E+03  0.12509989728E+03 0.  0.
         23    2    1    2    0    0 -0.73909342994E+02 -0.94202425371E+02 -0.54466139600E+03  0.56500984313E+03  0.90793163929E+02 0.  0.
          5    1    3    3  502    0  0.61693790423E+02  0.78710665874E+02 -0.10548653420E+03  0.14541792873E+03  0.41800000000E+01 0.  1.
         -5    1    3    3    0  502  0.12215552570E+02  0.15491759497E+02 -0.24187661256E+03  0.24271584711E+03  0.41800000000E+01 0.  1.
        -11    1    4    4    0    0 -0.74155728186E+02 -0.54742001897E+02 -0.48361157198E+03  0.49231688103E+03  0.00000000000E+00 0. -1.
         11    1    4    4    0    0  0.24638519262E+00 -0.39460423474E+02 -0.61049824025E+02  0.72692962107E+02  0.00000000000E+00 0.  1.
</event>
<event>
 8    1  0.6380400E-009  0.1313456E+03  0.7561462E-02  0.1225473E+00
         -1   -1    0    0    0  501 -0.00000000000E+00  0.00000000000E+00  0.15029408989E+03  0.15029408989E+03  0.00000000000E+00 0.  1.
          1   -1    0    0  501    0  0.00000000000E+00 -0.00000000000E+00 -0.12319940285E+03  0.12319940285E+03  0.00000000000E+00 0. -1.
         25    2    1    2    0    0  0.67475403931E+02  0.44162790220E+02 -0.77387967154E+01  0.14903336940E+03  0.12509106300E+03 0.  0.
         23    2    1    2    0    0 -0.67475403931E+02 -0.44162790220E+02  0.34833483755E+02  0.12446012334E+03  0.88168410083E+02 0.  0.
          5    1    3    3  502    0 -0.32836627269E+02 -0.99714168601E+01  0.14422015268E+01  0.34600947817E+02  0.41800000000E+01 0. -1.
         -5    1    3    3    0  502  0.10031203120E+03  0.54134207080E+02 -0.91809982422E+01  0.11443242158E+03  0.41800000000E+01 0. -1.
        -11    1    4    4    0    0 -0.41817528672E+02 -0.67479904600E+02  0.40836645376E+02  0.89274155469E+02  0.00000000000E+00 0. -1.
         11    1    4    4    0    0 -0.25657875258E+02  0.23317114381E+02 -0.60031616204E+01  0.35185967874E+02  0.00000000000E+00 0.  1.
</event>
<event>
 8    1  0.6380400E-009  0.2302243E+03  0.7561462E-02  0.1126482E+00
         -1   -1    0    0    0  501 -0.00000000000E+00  0.00000000000E+00  0.20393404393E+03  0.20393404393E+03  0.00000000000E+00 0.  1.
          1   -1    0    0  501    0  0.00000000000E+00 -0.00000000000E+00 -0.29226706623E+03  0.29226706623E+03  0.00000000000E+00 0. -1.
         25    2    1    2    0    0  0.19371634923E+03 -0.88318461160E+02  0.37000262289E+01  0.24695263890E+03  0.12508293699E+03 0.  0.
         23    2    1    2    0    0 -0.19371634923E+03  0.88318461160E+02 -0.92033048531E+02  0.24924847126E+03  0.91260856142E+02 0.  0.
          5    1    3    3  502    0  0.19043237351E+03 -0.46562114820E+02  0.28422894812E+02  0.19813594517E+03  0.41800000000E+01 0. -1.
         -5    1    3    3    0  502  0.32839757188E+01 -0.41756346340E+02 -0.24722868584E+02  0.48816693734E+02  0.41800000000E+01 0. -1.
        -11    1    4    4    0    0 -0.92431494896E+02  0.77096633010E+02 -0.84504262306E+02  0.14706611581E+03  0.00000000000E+00 0.  1.
         11    1    4    4    0    0 -0.10128485433E+03  0.11221828150E+02 -0.75287862245E+01  0.10218235546E+03  0.00000000000E+00 0. -1.
</event>
<event>
 8    1  0.6380400E-009  0.1065719E+03  0.7561462E-02  0.1267053E+00
         -4   -1    0    0    0  501 -0.00000000000E+00  0.00000000000E+00  0.34236608352E+03  0.34236608352E+03  0.00000000000E+00 0.  1.
          4   -1    0    0  501    0  0.00000000000E+00 -0.00000000000E+00 -0.36691585493E+02  0.36691585493E+02  0.00000000000E+00 0. -1.
         25    2    1    2    0    0 -0.18910917889E+02  0.88270963792E+01  0.12280291209E+03  0.17653774032E+03  0.12509787405E+03 0.  0.
         23    2    1    2    0    0  0.18910917889E+02 -0.88270963792E+01  0.18287158594E+03  0.20251992870E+03  0.84479371044E+02 0.  0.
          5    1    3    3  502    0  0.53427736827E+02  0.49329737606E+01  0.45048572363E+02  0.70183356749E+02  0.41800000000E+01 0.  1.
         -5    1    3    3    0  502 -0.72338654716E+02  0.38941226186E+01  0.77754339731E+02  0.10635438357E+03  0.41800000000E+01 0.  1.
        -11    1    4    4    0    0  0.25384725054E+02 -0.44108725595E+02  0.99517996005E+02  0.11177564792E+03  0.00000000000E+00 0.  1.
         11    1    4    4    0    0 -0.64738071652E+01  0.35281629216E+02  0.83353589930E+02  0.90744280776E+02  0.00000000000E+00 0. -1.
</event>
<event>
 8    1  0.6380400E-009  0.1428786E+03  0.7561462E-02  0.1209507E+00
         -3   -1    0    0    0  501 -0.00000000000E+00  0.00000000000E+00  0.78492747994E+03  0.78492747994E+03  0.00000000000E+00 0.  1.
          3   -1    0    0  501    0  0.00000000000E+00 -0.00000000000E+00 -0.42142556012E+02  0.42142556012E+02  0.00000000000E+00 0. -1.
         25    2    1    2    0    0 -0.63317792644E+02  0.11327367808E+03  0.54333014531E+03  0.57244677734E+03  0.12509035564E+03 0.  0.
         23    2    1    2    0    0  0.63317792644E+02 -0.11327367808E+03  0.19945477862E+03  0.25462325861E+03  0.90613057017E+02 0.  0.
          5    1    3    3  502    0 -0.26160493856E+02  0.75250273126E+02  0.49200873056E+03  0.49843458787E+03  0.41800000000E+01 0. -1.
         -5    1    3    3    0  502 -0.37157298788E+02  0.38023404953E+02  0.51321414752E+02  0.74012189466E+02  0.41800000000E+01 0. -1.
        -11    1    4    4    0    0 -0.19300508609E+02 -0.16361044958E+02  0.12003322498E+02  0.28004877712E+02  0.00000000000E+00 0. -1.
         11    1    4    4    0    0  0.82618301253E+02 -0.96912633121E+02  0.18745145612E+03  0.22661838090E+03  0.00000000000E+00 0.  1.
</event>
<event>
 8    1  0.6380400E-009  0.1468059E+03  0.7561462E-02  0.1204454E+00
          2   -1    0    0  501    0  0.00000000000E+00  0.00000000000E+00  0.49216010662E+03  0.49216010662E+03  0.00000000000E+00 0. -1.
         -2   -1    0    0    0  501 -0.00000000000E+00 -0.00000000000E+00 -0.48677042270E+02  0.48677042270E+02  0.00000000000E+00 0.  1.
         25    2    1    2    0    0 -0.98996333289E+02 -0.46132701798E+02  0.22101072157E+03  0.27643995635E+03  0.12507921585E+03 0.  0.
         23    2    1    2    0    0  0.98996333289E+02  0.46132701798E+02  0.22247234278E+03  0.26439719254E+03  0.92105547826E+02 0.  0.
          5    1    3    3  502    0 -0.11180037914E+03  0.46569205980E+01  0.16717918255E+03  0.20121471905E+03  0.41800000000E+01 0. -1.
         -5    1    3    3    0  502  0.12804045852E+02 -0.50789622396E+02  0.53831539024E+02  0.75225237301E+02  0.41800000000E+01 0. -1.
        -11    1    4    4    0    0  0.60048179941E+02  0.62654597852E+02  0.19635358071E+03  0.21467675981E+03  0.00000000000E+00 0. -1.
         11    1    4    4    0    0  0.38948153348E+02 -0.16521896053E+02  0.26118762072E+02  0.49720432727E+02  0.00000000000E+00 0.  1.
</event>
<event>
 8    1  0.6380400E-009  0.1030860E+03  0.7561462E-02  0.1273937E+00
         -3   -1    0    0    0  501 -0.00000000000E+00  0.00000000000E+00  0.53092051847E+03  0.53092051847E+03  0.00000000000E+00 0.  1.
          3   -1    0    0  501    0  0.00000000000E+00 -0.00000000000E+00 -0.24320943075E+02  0.24320943075E+02  0.00000000000E+00 0. -1.
         25    2    1    2    0    0  0.52799050052E+01 -0.23292649459E+02  0.34657830409E+03  0.36923510535E+03  0.12509043624E+03 0.  0.
         23    2    1    2    0    0 -0.52799050052E+01  0.23292649459E+02  0.16002127130E+03  0.18600635619E+03  0.91766727957E+02 0.  0.
          5    1    3    3  502    0  0.63978794350E+02 -0.52074285310E+01  0.20487271173E+03  0.21473403049E+03  0.41800000000E+01 0. -1.
         -5    1    3    3    0  502 -0.58698889345E+02 -0.18085220928E+02  0.14170559236E+03  0.15450107486E+03  0.41800000000E+01 0. -1.
        -11    1    4    4    0    0 -0.10020596335E+02 -0.27499774858E+02  0.11265077563E+03  0.11639092412E+03  0.00000000000E+00 0.  1.
         11    1    4    4    0    0  0.47406913298E+01  0.50792424317E+02  0.47370495672E+02  0.69615432072E+02  0.00000000000E+00 0. -1.
</event>
<event>
 8    1  0.6380400E-009  0.1249193E+03  0.7561462E-02  0.1235195E+00
         -2   -1    0    0    0  501 -0.00000000000E+00  0.00000000000E+00  0.11071247423E+03  0.11071247423E+03  0.00000000000E+00 0.  1.
          2   -1    0    0  501    0  0.00000000000E+00 -0.00000000000E+00 -0.17591885925E+03  0.17591885925E+03  0.00000000000E+00 0. -1.
         25    2    1    2    0    0 -0.50221846304E+02 -0.40585788415E+02  0.25322421432E+02  0.14303402181E+03  0.12509223117E+03 0.  0.
         23    2    1    2    0    0  0.50221846304E+02  0.40585788415E+02 -0.90528806455E+02  0.14359731167E+03  0.90858588221E+02 0.  0.
          5    1    3    3  502    0 -0.91314254860E+02 -0.27002160713E+02  0.61466943855E+01  0.95512638304E+02  0.41800000000E+01 0. -1.
         -5    1    3    3    0  502  0.41092408556E+02 -0.13583627702E+02  0.19175727046E+02  0.47521383506E+02  0.41800000000E+01 0. -1.
        -11    1    4    4    0    0  0.49097563239E+02 -0.18114189062E+02 -0.48922728851E+02  0.71638871848E+02  0.00000000000E+00 0. -1.
         11    1    4    4    0    0  0.11242830650E+01  0.58699977478E+02 -0.41606077604E+02  0.71958439824E+02  0.00000000000E+00 0.  1.
</event>
<event>
 8    1  0.6380400E-009  0.1304157E+03  0.7561462E-02  0.1226840E+00
         -2   -1    0    0    0  501 -0.00000000000E+00  0.00000000000E+00  0.22429578447E+03  0.22429578447E+03  0.00000000000E+00 0.  1.
          2   -1    0    0  501    0  0.00000000000E+00 -0.00000000000E+00 -0.23316609207E+03  0.23316609207E+03  0.00000000000E+00 0. -1.
         25    2    1    2    0    0  0.39676292046E+02  0.87060903227E+02  0.16811861561E+03  0.23035953560E+03  0.12509131748E+03 0.  0.
         23    2    1    2    0    0 -0.39676292046E+02 -0.87060903227E+02 -0.17698892320E+03  0.22710234094E+03  0.10534033084E+03 0.  0.
          5    1    3    3  502    0  0.83159062878E+02  0.62112487203E+02  0.13411431361E+03  0.16963935958E+03  0.41800000000E+01 0. -1.
         -5    1    3    3    0  502 -0.43482770832E+02  0.24948416024E+02  0.34004301998E+02  0.60720176018E+02  0.41800000000E+01 0. -1.
        -11    1    4    4    0    0 -0.43809874809E+02 -0.39749683111E+02 -0.19002838060E+02  0.62132522020E+02  0.00000000000E+00 0.  1.
         11    1    4    4    0    0  0.41335827633E+01 -0.47311220116E+02 -0.15798608514E+03  0.16496981892E+03  0.00000000000E+00 0. -1.
</event>
<event>
 8    1  0.6380400E-009  0.1162692E+03  0.7561462E-02  0.1249382E+00
         -2   -1    0    0    0  501 -0.00000000000E+00  0.00000000000E+00  0.38576035773E+02  0.38576035773E+02  0.00000000000E+00 0.  1.
          2   -1    0    0  501    0  0.00000000000E+00 -0.00000000000E+00 -0.50728477290E+03  0.50728477290E+03  0.00000000000E+00 0. -1.
         25    2    1    2    0    0 -0.79332607971E+02  0.23193326636E+02 -0.31914668107E+03  0.35261096296E+03  0.12509314159E+03 0.  0.
         23    2    1    2    0    0  0.79332607971E+02 -0.23193326636E+02 -0.14956205605E+03  0.19324984571E+03  0.90250214228E+02 0.  0.
          5    1    3    3  502    0 -0.73360391441E+02 -0.41753228411E+02 -0.18510186201E+03  0.20348280231E+03  0.41800000000E+01 0.  1.
         -5    1    3    3    0  502 -0.59722165299E+01  0.64946555047E+02 -0.13404481906E+03  0.14912816066E+03  0.41800000000E+01 0.  1.
        -11    1    4    4    0    0  0.10993480269E+02 -0.26149321684E+01  0.12086849025E+02  0.16546492016E+02  0.00000000000E+00 0.  1.
         11    1    4    4    0    0  0.68339127702E+02 -0.20578394467E+02 -0.16164890508E+03  0.17670335370E+03  0.00000000000E+00 0. -1.
</event>
<event>
 8    1  0.6380400E-009  0.1376109E+03  0.7561462E-02  0.1216580E+00
          2   -1    0    0  501    0  0.00000000000E+00  0.00000000000E+00  0.16028888308E+04  0.16028888308E+04  0.00000000000E+00 0. -1.
         -2   -1    0    0    0  501 -0.00000000000E+00 -0.00000000000E+00 -0.12280296197E+02  0.12280296197E+02  0.00000000000E+00 0.  1.
         25    2    1    2    0    0  0.65107537505E+02  0.52244856206E+02  0.10144236229E+04  0.10255098889E+04  0.12508688590E+03 0.  0.
         23    2    1    2    0    0 -0.65107537505E+02 -0.52244856206E+02  0.57618491164E+03  0.58965923807E+03  0.93490364205E+02 0.  0.
          5    1    3    3  502    0  0.23528965652E+02  0.90274545156E+02  0.67158945107E+03  0.67805086012E+03  0.41800000000E+01 0.  1.
         -5    1    3    3    0  502  0.41578571853E+02 -0.38029688950E+02  0.34283417187E+03  0.34745902878E+03  0.41800000000E+01 0.  1.
        -11    1    4    4    0    0  0.10254463181E+02 -0.48831012243E+02  0.22952267055E+03  0.23488354150E+03  0.00000000000E+00 0.  1.
         11    1    4    4    0    0 -0.75362000685E+02 -0.34138439634E+01  0.34666224109E+03  0.35477569657E+03  0.00000000000E+00 0. -1.
</event>
<event>
 8    1  0.6380400E-009  0.9078443E+02  0.7561462E-02  0.1300963E+00
          1   -1    0    0  501    0  0.00000000000E+00  0.00000000000E+00  0.52958217834E+03  0.52958217834E+03  0.00000000000E+00 0. -1.
         -1   -1    0    0    0  501 -0.00000000000E+00 -0.00000000000E+00 -0.10403225921E+03  0.10403225921E+03  0.00000000000E+00 0.  1.
         25    2    1    2    0    0  0.63691575867E+02  0.13305296693E+02 -0.47183525415E+02  0.14868483633E+03  0.12508895926E+03 0.  0.
         23    2    1    2    0    0 -0.63691575867E+02 -0.13305296693E+02  0.47273344454E+03  0.48492960122E+03  0.86291139743E+02 0.  0.
          5    1    3    3  502    0  0.92718782829E+01  0.24642967339E+02 -0.79774871461E+02  0.84111509812E+02  0.41800000000E+01 0. -1.
         -5    1    3    3    0  502  0.54419697584E+02 -0.11337670646E+02  0.32591346046E+02  0.64573326520E+02  0.41800000000E+01 0. -1.
        -11    1    4    4    0    0  0.93052138997E+00  0.24352719918E+02  0.49912868746E+02  0.55544714455E+02  0.00000000000E+00 0.  1.
         11    1    4    4    0    0 -0.64622097257E+02 -0.37658016611E+02  0.42282057579E+03  0.42938488676E+03  0.00000000000E+00 0. -1.
</event>
<event>
 8    1  0.6380400E-009  0.8033076E+02  0.7561462E-02  0.1328115E+00
          2   -1    0    0  501    0  0.00000000000E+00  0.00000000000E+00  0.19622220796E+03  0.19622220796E+03  0.00000000000E+00 0.  1.
         -2   -1    0    0    0  501 -0.00000000000E+00 -0.00000000000E+00 -0.66768364163E+02  0.66768364163E+02  0.00000000000E+00 0. -1.
         25    2    1    2    0    0  0.29503430180E+02 -0.47469566095E+00  0.99071646232E+02  0.16227525144E+03  0.12508952161E+03 0.  0.
         23    2    1    2    0    0 -0.29503430180E+02  0.47469566095E+00  0.30382197564E+02  0.10071532068E+03  0.91377350378E+02 0.  0.
          5    1    3    3  502    0 -0.24659053217E+02 -0.32230544061E+02  0.89850772189E+02  0.98678825180E+02  0.41800000000E+01 0. -1.
         -5    1    3    3    0  502  0.54162483397E+02  0.31755848400E+02  0.92208740429E+01  0.63596426263E+02  0.41800000000E+01 0. -1.
        -11    1    4    4    0    0 -0.23512754710E+02  0.23443722173E+02  0.56430185427E+02  0.65473838826E+02  0.00000000000E+00 0.  1.
         11    1    4    4    0    0 -0.59906754698E+01 -0.22969026512E+02 -0.26047987862E+02  0.35241481852E+02  0.00000000000E+00 0. -1.
</event>
<event>
 8    1  0.6380400E-009  0.8532012E+02  0.7561462E-02  0.1314597E+00
         -1   -1    0    0    0  501 -0.00000000000E+00  0.00000000000E+00  0.51667046890E+02  0.51667046890E+02  0.00000000000E+00 0.  1.
          1   -1    0    0  501    0  0.00000000000E+00 -0.00000000000E+00 -0.35899963419E+03  0.35899963419E+03  0.00000000000E+00 0. -1.
         25    2    1    2    0    0  0.46177469592E+02 -0.61456824262E+02 -0.21159540692E+03  0.25755164273E+03  0.12510368700E+03 0.  0.
         23    2    1    2    0    0 -0.46177469592E+02  0.61456824262E+02 -0.95737180382E+02  0.15311503834E+03  0.91483918332E+02 0.  0.
          5    1    3    3  502    0  0.18935652430E+02 -0.62363473674E+02 -0.21938290909E+03  0.22889756439E+03  0.41800000000E+01 0.  1.
         -5    1    3    3    0  502  0.27241817163E+02  0.90664941160E+00  0.77875021784E+01  0.28654078342E+02  0.41800000000E+01 0.  1.
        -11    1    4    4    0    0 -0.25722765454E+02  0.43506376110E+02 -0.11096281267E+03  0.12193117411E+03  0.00000000000E+00 0. -1.
         11    1    4    4    0    0 -0.20454704138E+02  0.17950448152E+02  0.15225632283E+02  0.31183864235E+02  0.00000000000E+00 0.  1.
</event>
<event>
 7    1  0.6380400E-009  0.9355053E+02  0.7561462E-02  0.1294474E+00
         -2   -1    0    0    0  501 -0.00000000000E+00  0.00000000000E+00  0.45077120999E+02  0.45077120999E+02  0.00000000000E+00 0.  1.
          2   -1    0    0  501    0  0.00000000000E+00 -0.00000000000E+00 -0.31654921842E+03  0.31654921842E+03  0.00000000000E+00 0. -1.
         23    2    1    2    0    0 -0.21675787125E+02  0.20873594940E+02 -0.56056474395E+02  0.11074736111E+03  0.90648237473E+02 0.  0.
          5    1    1    2  502    0 -0.99598961307E+01  0.49779105481E+02 -0.79912506811E+02  0.94766238810E+02  0.41800000000E+01 0. -1.
         -5    1    1    2    0  502  0.31635683256E+02 -0.70652700421E+02 -0.13550311622E+03  0.15611273951E+03  0.41800000000E+01 0. -1.
        -11    1    3    3    0    0 -0.22747963667E+02  0.36482251768E+02 -0.74834676482E+02  0.86305581217E+02  0.00000000000E+00 0. -1.
         11    1    3    3    0    0  0.10721765413E+01 -0.15608656827E+02  0.18778202087E+02  0.24441779888E+02  0.00000000000E+00 0.  1.
</event>
<event>
 8    1  0.6380400E-009  0.9675134E+02  0.7561462E-02  0.1287280E+00
          1   -1    0    0  501    0  0.00000000000E+00  0.00000000000E+00  0.63327997131E+03  0.63327997131E+03  0.00000000000E+00 0. -1.
         -1   -1    0    0    0  501 -0.00000000000E+00 -0.00000000000E+00 -0.18873032243E+02  0.18873032243E+02  0.00000000000E+00 0.  1.
         25    2    1    2    0    0 -0.20010107633E+01  0.19342470244E+02  0.37245360028E+03  0.39337932985E+03  0.12508987806E+03 0.  0.
         23    2    1    2    0    0  0.20010107633E+01 -0.19342470244E+02  0.24195333878E+03  0.25877367369E+03  0.89689803496E+02 0.  0.
          5    1    3    3  502    0 -0.59903398261E+02 -0.34588927746E+01  0.23254937395E+03  0.24020213318E+03  0.41800000000E+01 0. -1.
         -5    1    3    3    0  502  0.57902387497E+02  0.22801363019E+02  0.13990422634E+03  0.15317719667E+03  0.41800000000E+01 0. -1.
        -11    1    4    4    0    0 -0.31910746671E+02  0.65924688755E-01  0.31914063977E+02  0.45131004627E+02  0.00000000000E+00 0.  1.
         11    1    4    4    0    0  0.33911757434E+02 -0.19408394933E+02  0.21003927480E+03  0.21364266907E+03  0.00000000000E+00 0. -1.
</event>
<event>
 8    1  0.6380400E-009  0.7555263E+02  0.7561462E-02  0.1342168E+00
         -3   -1    0    0    0  501 -0.00000000000E+00  0.00000000000E+00  0.31845258678E+03  0.31845258678E+03  0.00000000000E+00 0.  1.
          3   -1    0    0  501    0  0.00000000000E+00 -0.00000000000E+00 -0.40835244998E+02  0.40835244998E+02  0.00000000000E+00 0. -1.
         25    2    1    2    0    0 -0.11138142226E+02  0.33128235119E+02  0.16372522455E+03  0.20898568240E+03  0.12509008001E+03 0.  0.
         23    2    1    2    0    0  0.11138142226E+02 -0.33128235119E+02  0.11389211723E+03  0.15030214938E+03  0.91639421470E+02 0.  0.
          5    1    3    3  502    0  0.18125984776E+02 -0.25071936421E+01  0.16154711243E+03  0.16263388109E+03  0.41800000000E+01 0. -1.
         -5    1    3    3    0  502 -0.29264127002E+02  0.35635428761E+02  0.21781121252E+01  0.46351801310E+02  0.41800000000E+01 0. -1.
        -11    1    4    4    0    0 -0.10725450473E+02 -0.54449643728E+02  0.10455067889E+03  0.11836656388E+03  0.00000000000E+00 0.  1.
         11    1    4    4    0    0  0.21863592700E+02  0.21321408609E+02  0.93414383448E+01  0.31935585499E+02  0.00000000000E+00 0. -1.
</event>
<event>
 8    1  0.6380400E-009  0.1405740E+03  0.7561462E-02  0.1212559E+00
          2   -1    0    0  501    0  0.00000000000E+00  0.00000000000E+00  0.18352550999E+03  0.18352550999E+03  0.00000000000E+00 0. -1.
         -2   -1    0    0    0  501 -0.00000000000E+00 -0.00000000000E+00 -0.13770540896E+03  0.13770540896E+03  0.00000000000E+00 0.  1.
         25    2    1    2    0    0  0.12154069695E+02  0.10822478038E+03 -0.21299189662E+01  0.16586892306E+03  0.12509052156E+03 0.  0.
         23    2    1    2    0    0 -0.12154069695E+02 -0.10822478038E+03  0.47950019996E+02  0.15536199588E+03  0.99889042684E+02 0.  0.
          5    1    3    3  502    0  0.60651875754E+02  0.19201660885E+02 -0.78943391140E+01  0.64242873560E+02  0.41800000000E+01 0. -1.
         -5    1    3    3    0  502 -0.48497806059E+02  0.89023119498E+02  0.57644201477E+01  0.10162604950E+03  0.41800000000E+01 0. -1.
        -11    1    4    4    0    0  0.51402363968E+01 -0.92228650206E+02  0.75364904627E+02  0.11921583283E+03  0.00000000000E+00 0. -1.
         11    1    4    4    0    0 -0.17294306092E+02 -0.15996130177E+02 -0.27414884631E+02  0.36146163049E+02  0.00000000000E+00 0.  1.
</event>
<event>
 8    1  0.6380400E-009  0.1138484E+03  0.7561462E-02  0.1253605E+00
         -1   -1    0    0    0  501 -0.00000000000E+00  0.00000000000E+00  0.10628744100E+03  0.10628744100E+03  0.00000000000E+00 0.  1.
          1   -1    0    0  501    0  0.00000000000E+00 -0.00000000000E+00 -0.16225272768E+03  0.16225272768E+03  0.00000000000E+00 0. -1.
         25    2    1    2    0    0  0.42455222336E+02  0.28506152737E+02 -0.83360859858E+02  0.15880512182E+03  0.12511989095E+03 0.  0.
         23    2    1    2    0    0 -0.42455222336E+02 -0.28506152737E+02  0.27395573173E+02  0.10973504686E+03  0.93146209976E+02 0.  0.
          5    1    3    3  502    0  0.44793503839E+02 -0.41056773026E+02 -0.59398180555E+02  0.85074866152E+02  0.41800000000E+01 0.  1.
         -5    1    3    3    0  502 -0.23382815031E+01  0.69562925763E+02 -0.23962679303E+02  0.73730255665E+02  0.41800000000E+01 0.  1.
        -11    1    4    4    0    0  0.25127191765E+02 -0.60264502224E+01  0.28544150356E+02  0.38502758184E+02  0.00000000000E+00 0.  1.
         11    1    4    4    0    0 -0.67582414100E+02 -0.22479702514E+02 -0.11485771824E+01  0.71232288678E+02  0.00000000000E+00 0. -1.
</event>
<event>
 8    1  0.6380400E-009  0.1370446E+03  0.7561462E-02  0.1217362E+00
          2   -1    0    0  501    0  0.00000000000E+00  0.00000000000E+00  0.19477636836E+03  0.19477636836E+03  0.00000000000E+00 0. -1.
         -2   -1    0    0    0  501 -0.00000000000E+00 -0.00000000000E+00 -0.13472188425E+03  0.13472188425E+03  0.00000000000E+00 0.  1.
         25    2    1    2    0    0  0.35174813842E+01  0.10973463827E+03  0.80744175194E+02  0.18499195674E+03  0.12509332004E+03 0.  0.
         23    2    1    2    0    0 -0.35174813842E+01 -0.10973463827E+03 -0.20689691084E+02  0.14450629587E+03  0.91651201384E+02 0.  0.
          5    1    3    3  502    0  0.61776723782E+02  0.61958916547E+02  0.24740761077E+02  0.91021143695E+02  0.41800000000E+01 0.  1.
         -5    1    3    3    0  502 -0.58259242398E+02  0.47775721727E+02  0.56003414117E+02  0.93970813044E+02  0.41800000000E+01 0.  1.
        -11    1    4    4    0    0 -0.73353574130E+01 -0.21473922885E+02 -0.47115494787E+02  0.52295379160E+02  0.00000000000E+00 0.  1.
         11    1    4    4    0    0  0.38178760288E+01 -0.88260715389E+02  0.26425803703E+02  0.92210916706E+02  0.00000000000E+00 0. -1.
</event>
<event>
 8    1  0.6380400E-009  0.1287946E+03  0.7561462E-02  0.1229255E+00
          1   -1    0    0  501    0  0.00000000000E+00  0.00000000000E+00  0.69326974711E+03  0.69326974711E+03  0.00000000000E+00 0. -1.
         -1   -1    0    0    0  501 -0.00000000000E+00 -0.00000000000E+00 -0.28262527292E+02  0.28262527292E+02  0.00000000000E+00 0.  1.
         25    2    1    2    0    0  0.75539119218E+02  0.21943534161E+02  0.46972911605E+03  0.49242420445E+03  0.12509387448E+03 0.  0.
         23    2    1    2    0    0 -0.75539119218E+02 -0.21943534161E+02  0.19527810377E+03  0.22910806996E+03  0.90384139568E+02 0.  0.
          5    1    3    3  502    0  0.32529088321E+01 -0.44293033742E+02  0.93326525848E+02  0.10343967846E+03  0.41800000000E+01 0.  1.
         -5    1    3    3    0  502  0.72286210386E+02  0.66236567903E+02  0.37640259021E+03  0.38898452598E+03  0.41800000000E+01 0.  1.
        -11    1    4    4    0    0 -0.75699164242E+02  0.15611692017E+02  0.97864728285E+02  0.12470602807E+03  0.00000000000E+00 0. -1.
         11    1    4    4    0    0  0.16004502463E+00 -0.37555226177E+02  0.97413375483E+02  0.10440204189E+03  0.00000000000E+00 0.  1.
</event>
<event>
 8    1  0.6380400E-009  0.9808115E+02  0.7561462E-02  0.1284384E+00
          1   -1    0    0  501    0  0.00000000000E+00  0.00000000000E+00  0.94983109793E+03  0.94983109793E+03  0.00000000000E+00 0. -1.
         -1   -1    0    0    0  501 -0.00000000000E+00 -0.00000000000E+00 -0.13700291681E+02  0.13700291681E+02  0.00000000000E+00 0.  1.
         25    2    1    2    0    0 -0.12529540974E+02 -0.48152885128E+02  0.51369261037E+03  0.53103725181E+03  0.12507907548E+03 0.  0.
         23    2    1    2    0    0  0.12529540974E+02  0.48152885128E+02  0.42243819588E+03  0.43249413780E+03  0.78239760661E+02 0.  0.
          5    1    3    3  502    0  0.32749039726E+02 -0.50454912765E+02  0.44210581616E+03  0.44619863616E+03  0.41800000000E+01 0.  1.
         -5    1    3    3    0  502 -0.45278580699E+02  0.23020276363E+01  0.71586794202E+02  0.84838615650E+02  0.41800000000E+01 0.  1.
        -11    1    4    4    0    0  0.44255569834E+02  0.23165732154E+02  0.18398861884E+03  0.19064894039E+03  0.00000000000E+00 0.  1.
         11    1    4    4    0    0 -0.31726028860E+02  0.24987152974E+02  0.23844957704E+03  0.24184519741E+03  0.00000000000E+00 0. -1.
</event>
<event>
 8    1  0.6380400E-009  0.1049289E+03  0.7561462E-02  0.1270260E+00
          2   -1    0    0  501    0  0.00000000000E+00  0.00000000000E+00  0.18420703104E+02  0.18420703104E+02  0.00000000000E+00 0. -1.
         -2   -1    0    0    0  501 -0.00000000000E+00 -0.00000000000E+00 -0.85798361467E+03  0.85798361467E+03  0.00000000000E+00 0.  1.
         25    2    1    2    0    0  0.18389364515E+02 -0.45311871270E+02 -0.60405223645E+03  0.61880828583E+03  0.12511297236E+03 0.  0.
         23    2    1    2    0    0 -0.18389364515E+02  0.45311871270E+02 -0.23551067512E+03  0.25759603194E+03  0.92190580711E+02 0.  0.
          5    1    3    3  502    0 -0.17699131498E+02 -0.70376986882E+02 -0.20862598538E+03  0.22092635360E+03  0.41800000000E+01 0.  1.
         -5    1    3    3    0  502  0.36088496013E+02  0.25065115612E+02 -0.39542625107E+03  0.39788193223E+03  0.41800000000E+01 0.  1.
        -11    1    4    4    0    0  0.30060874547E+02  0.29368022657E+02 -0.50582711425E+02  0.65762813417E+02  0.00000000000E+00 0. -1.
         11    1    4    4    0    0 -0.48450239062E+02  0.15943848613E+02 -0.18492796370E+03  0.19183321853E+03  0.00000000000E+00 0.  1.
</event>
<event>
 8    1  0.6380400E-009  0.1028736E+03  0.7561462E-02  0.1274367E+00
          1   -1    0    0  501    0  0.00000000000E+00  0.00000000000E+00  0.84412611799E+02  0.84412611799E+02  0.00000000000E+00 0. -1.
         -1   -1    0    0    0  501 -0.00000000000E+00 -0.00000000000E+00 -0.17931461285E+03  0.17931461285E+03  0.00000000000E+00 0.  1.
         25    2    1    2    0    0  0.44194597468E+02 -0.31018373656E+02 -0.32974255721E+02  0.14018036883E+03  0.12509169563E+03 0.  0.
         23    2    1    2    0    0 -0.44194597468E+02  0.31018373656E+02 -0.61927745329E+02  0.12354685582E+03  0.92268510296E+02 0.  0.
          5    1    3    3  502    0 -0.35375782408E+02  0.74934717529E+01 -0.36582700652E+02  0.51607794827E+02  0.41800000000E+01 0.  1.
         -5    1    3    3    0  502  0.79570379876E+02 -0.38511845409E+02  0.36084449306E+01  0.88572574001E+02  0.41800000000E+01 0.  1.
        -11    1    4    4    0    0 -0.59370334648E+02  0.26470857105E+02 -0.77622659957E+02  0.10124633451E+03  0.00000000000E+00 0.  1.
         11    1    4    4    0    0  0.15175737180E+02  0.45475165508E+01  0.15694914628E+02  0.22300521315E+02  0.00000000000E+00 0. -1.
</event>
<event>
 8    1  0.6380400E-009  0.1097054E+03  0.7561462E-02  0.1261116E+00
         -2   -1    0    0    0  501 -0.00000000000E+00  0.00000000000E+00  0.95735977629E+02  0.95735977629E+02  0.00000000000E+00 0.  1.
          2   -1    0    0  501    0  0.00000000000E+00 -0.00000000000E+00 -0.16273660838E+03  0.16273660838E+03  0.00000000000E+00 0. -1.
         25    2    1    2    0    0  0.19852530894E+02 -0.19341436352E+02 -0.93970301442E+02  0.15889202317E+03  0.12509213936E+03 0.  0.
         23    2    1    2    0    0 -0.19852530894E+02  0.19341436352E+02  0.26969670694E+02  0.99580562838E+02  0.91764433278E+02 0.  0.
          5    1    3    3  502    0 -0.39421331043E+02 -0.44032118123E+02 -0.66106063534E+02  0.88771351255E+02  0.41800000000E+01 0. -1.
         -5    1    3    3    0  502  0.59273861937E+02  0.24690681771E+02 -0.27864237907E+02  0.70120671912E+02  0.41800000000E+01 0. -1.
        -11    1    4    4    0    0 -0.24414069846E+02 -0.34233480803E+02  0.10360245867E+02  0.43304880889E+02  0.00000000000E+00 0.  1.
         11    1    4    4    0    0  0.45615389516E+01  0.53574917156E+02  0.16609424827E+02  0.56275681950E+02  0.00000000000E+00 0. -1.
</event>
<event>
 8    1  0.6380400E-009  0.6652740E+02  0.7561462E-02  0.1372316E+00
         -3   -1    0    0    0  501 -0.00000000000E+00  0.00000000000E+00  0.18089984868E+03  0.18089984868E+03  0.00000000000E+00 0.  1.
          3   -1    0    0  501    0  0.00000000000E+00 -0.00000000000E+00 -0.87043730000E+02  0.87043730000E+02  0.00000000000E+00 0. -1.
         25    2    1    2    0    0 -0.13411287896E+02 -0.27294828620E+02  0.10630160518E+03  0.16698169313E+03  0.12513186750E+03 0.  0.
         23    2    1    2    0    0  0.13411287896E+02  0.27294828620E+02 -0.12445486506E+02  0.10096188555E+03  0.95464872525E+02 0.  0.
          5    1    3    3  502    0 -0.30764852946E+02 -0.45228288607E+02 -0.28523414153E+01  0.54933437164E+02  0.41800000000E+01 0. -1.
         -5    1    3    3    0  502  0.17353565050E+02  0.17933459987E+02  0.10915394660E+03  0.11204825597E+03  0.41800000000E+01 0. -1.
        -11    1    4    4    0    0  0.18349199635E+02  0.37392690748E+02  0.33630719808E+02  0.53534397946E+02  0.00000000000E+00 0.  1.
         11    1    4    4    0    0 -0.49379117391E+01 -0.10097862127E+02 -0.46076206314E+02  0.47427487601E+02  0.00000000000E+00 0. -1.
</event>
<event>
 8    1  0.6380400E-009  0.1794921E+03  0.7561462E-02  0.1168296E+00
         -1   -1    0    0    0  501 -0.00000000000E+00  0.00000000000E+00  0.11608405072E+03  0.11608405072E+03  0.00000000000E+00 0.  1.
          1   -1    0    0  501    0  0.00000000000E+00 -0.00000000000E+00 -0.32380154940E+03  0.32380154940E+03  0.00000000000E+00 0. -1.
         25    2    1    2    0    0  0.80884602771E+02  0.12783192156E+03 -0.52672023808E+02  0.20324326113E+03  0.12510060738E+03 0.  0.
         23    2    1    2    0    0 -0.80884602771E+02 -0.12783192156E+03 -0.15504547487E+03  0.23664233899E+03  0.95274226269E+02 0.  0.
          5    1    3    3  502    0  0.33541175227E+02  0.13532363403E+03 -0.11564675960E+02  0.13995967452E+03  0.41800000000E+01 0.  1.
         -5    1    3    3    0  502  0.47343427544E+02 -0.74917124623E+01 -0.41107347848E+02  0.63283586611E+02  0.41800000000E+01 0.  1.
        -11    1    4    4    0    0 -0.15994316049E+02  0.10127007529E+02  0.36800656921E+00  0.18934356504E+02  0.00000000000E+00 0.  1.
         11    1    4    4    0    0 -0.64890286723E+02 -0.13795892909E+03 -0.15541348144E+03  0.21770798249E+03  0.00000000000E+00 0. -1.
</event>
<event>
 8    1  0.6380400E-009  0.7022589E+02  0.7561462E-02  0.1359327E+00
         -2   -1    0    0    0  501 -0.00000000000E+00  0.00000000000E+00  0.16247320708E+03  0.16247320708E+03  0.00000000000E+00 0.  1.
          2   -1    0    0  501    0  0.00000000000E+00 -0.00000000000E+00 -0.95666301034E+02  0.95666301034E+02  0.00000000000E+00 0. -1.
         25    2    1    2    0    0 -0.57995283275E+02  0.11460217637E+02  0.25162571682E+02  0.14062195692E+03  0.12508633132E+03 0.  0.
         23    2    1    2    0    0  0.57995283275E+02 -0.11460217637E+02  0.41644334364E+02  0.11751755119E+03  0.92635494188E+02 0.  0.
          5    1    3    3  502    0 -0.63648492693E+01 -0.14443127041E+02 -0.46034383398E+02  0.48844161164E+02  0.41800000000E+01 0.  1.
         -5    1    3    3    0  502 -0.51630434006E+02  0.25903344678E+02  0.71196955080E+02  0.91777795756E+02  0.41800000000E+01 0.  1.
        -11    1    4    4    0    0  0.16365579056E+02 -0.17709032949E+02  0.65033679835E+02  0.69360086063E+02  0.00000000000E+00 0.  1.
         11    1    4    4    0    0  0.41629704219E+02  0.62488153121E+01 -0.23389345471E+02  0.48157465130E+02  0.00000000000E+00 0. -1.
</event>
<event>
 8    1  0.6380400E-009  0.5283786E+02  0.7561462E-02  0.1430609E+00
         -1   -1    0    0    0  501 -0.00000000000E+00  0.00000000000E+00  0.24200799276E+03  0.24200799276E+03  0.00000000000E+00 0.  1.
          1   -1    0    0  501    0  0.00000000000E+00 -0.00000000000E+00 -0.86515735709E+02  0.86515735709E+02  0.00000000000E+00 0. -1.
         25    2    1    2    0    0  0.24334111714E+01  0.30129609924E+02 -0.18082859522E+02  0.12995497623E+03  0.12509033197E+03 0.  0.
         23    2    1    2    0    0 -0.24334111714E+01 -0.30129609924E+02  0.17357511657E+03  0.19856875224E+03  0.91583368520E+02 0.  0.
          5    1    3    3  502    0  0.13606433491E+02  0.27006006652E+02 -0.70119772180E+02  0.76476887216E+02  0.41800000000E+01 0. -1.
         -5    1    3    3    0  502 -0.11173022320E+02  0.31236032714E+01  0.52036912659E+02  0.53478089010E+02  0.41800000000E+01 0. -1.
        -11    1    4    4    0    0  0.24991683981E+02 -0.24137000319E+02  0.16585385253E+03  0.16945406295E+03  0.00000000000E+00 0.  1.
         11    1    4    4    0    0 -0.27425095152E+02 -0.59926096052E+01  0.77212640448E+01  0.29114689290E+02  0.00000000000E+00 0. -1.
</event>
<event>
 8    1  0.6380400E-009  0.1551059E+03  0.7561462E-02  0.1194336E+00
         -2   -1    0    0    0  501 -0.00000000000E+00  0.00000000000E+00  0.80392351464E+02  0.80392351464E+02  0.00000000000E+00 0.  1.
          2   -1    0    0  501    0  0.00000000000E+00 -0.00000000000E+00 -0.30187883896E+03  0.30187883896E+03  0.00000000000E+00 0. -1.
         25    2    1    2    0    0  0.50792321923E+02  0.99202608833E+02 -0.11914451365E+03  0.20558201709E+03  0.12509009975E+03 0.  0.
         23    2    1    2    0    0 -0.50792321923E+02 -0.99202608833E+02 -0.10234197385E+03  0.17668917333E+03  0.91236871905E+02 0.  0.
          5    1    3    3  502    0  0.92515469505E+02  0.63349446930E+02 -0.75575432630E+02  0.13528260399E+03  0.41800000000E+01 0.  1.
         -5    1    3    3    0  502 -0.41723147582E+02  0.35853161903E+02 -0.43569081017E+02  0.70299413108E+02  0.41800000000E+01 0.  1.
        -11    1    4    4    0    0  0.16366157884E+02 -0.65849966749E+02 -0.37319655377E+02  0.77439175630E+02  0.00000000000E+00 0. -1.
         11    1    4    4    0    0 -0.67158479808E+02 -0.33352642084E+02 -0.65022318469E+02  0.99249997698E+02  0.00000000000E+00 0.  1.
</event>
<event>
 8    1  0.6380400E-009  0.8587988E+02  0.7561462E-02  0.1313147E+00
         -2   -1    0    0    0  501 -0.00000000000E+00  0.00000000000E+00  0.16984703343E+02  0.16984703343E+02  0.00000000000E+00 0.  1.
          2   -1    0    0  501    0  0.00000000000E+00 -0.00000000000E+00 -0.83629291520E+03  0.83629291520E+03  0.00000000000E+00 0. -1.
         25    2    1    2    0    0  0.30561190441E+02 -0.39564674504E+02 -0.46728484487E+03  0.48631466267E+03  0.12508986791E+03 0.  0.
         23    2    1    2    0    0 -0.30561190441E+02  0.39564674504E+02 -0.35202336700E+03  0.36696295588E+03  0.90785517829E+02 0.  0.
          5    1    3    3  502    0  0.43921235748E+01 -0.59579603074E+02 -0.93353766963E+02  0.11091175798E+03  0.41800000000E+01 0.  1.
         -5    1    3    3    0  502  0.26169066866E+02  0.20014928570E+02 -0.37393107790E+03  0.37540290469E+03  0.41800000000E+01 0.  1.
        -11    1    4    4    0    0  0.18591387982E+02  0.13899766769E+02 -0.20920617889E+02  0.31249247610E+02  0.00000000000E+00 0.  1.
         11    1    4    4    0    0 -0.49152578423E+02  0.25664907735E+02 -0.33110274911E+03  0.33571370827E+03  0.00000000000E+00 0. -1.
</event>
<event>
 8    1  0.6380400E-009  0.1086670E+03  0.7561462E-02  0.1263058E+00
         -1   -1    0    0    0  501 -0.00000000000E+00  0.00000000000E+00  0.47832729706E+02  0.47832729706E+02  0.00000000000E+00 0.  1.
          1   -1    0    0  501    0  0.00000000000E+00 -0.00000000000E+00 -0.30921381558E+03  0.30921381558E+03  0.00000000000E+00 0. -1.
         25    2    1    2    0    0  0.44357914336E+02 -0.12430974430E+02 -0.10520722555E+03  0.16981955682E+03  0.12509183779E+03 0.  0.
         23    2    1    2    0    0 -0.44357914336E+02  0.12430974430E+02 -0.15617386033E+03  0.18722698847E+03  0.92420327161E+02 0.  0.
          5    1    3    3  502    0  0.18729313301E+02 -0.59853301350E+02 -0.96340152105E+02  0.11503087484E+03  0.41800000000E+01 0. -1.
         -5    1    3    3    0  502  0.25628601035E+02  0.47422326920E+02 -0.88670734473E+01  0.54788681980E+02  0.41800000000E+01 0. -1.
        -11    1    4    4    0    0 -0.15635852530E+02  0.50419796258E+02 -0.60063013178E+02  0.79963749856E+02  0.00000000000E+00 0.  1.
         11    1    4    4    0    0 -0.28722061807E+02 -0.37988821828E+02 -0.96110847148E+02  0.10726323861E+03  0.00000000000E+00 0. -1.
</event>
<event>
 8    1  0.6380400E-009  0.3946567E+03  0.7561462E-02  0.1045646E+00
          2   -1    0    0  501    0  0.00000000000E+00  0.00000000000E+00  0.39040690337E+04  0.39040690337E+04  0.00000000000E+00 0. -1.
         -2   -1    0    0    0  501 -0.00000000000E+00 -0.00000000000E+00 -0.47269546085E+02  0.47269546085E+02  0.00000000000E+00 0.  1.
         25    2    1    2    0    0  0.37878574118E+02 -0.38659467842E+03  0.26256940199E+04  0.26572178993E+04  0.12509055204E+03 0.  0.
         23    2    1    2    0    0 -0.37878574118E+02  0.38659467842E+03  0.12311054677E+04  0.12941206805E+04  0.90760296246E+02 0.  0.
          5    1    3    3  502    0 -0.12757639744E+02 -0.12162419618E+03  0.11998150051E+04  0.12060384410E+04  0.41800000000E+01 0. -1.
         -5    1    3    3    0  502  0.50636213863E+02 -0.26497048225E+03  0.14258790148E+04  0.14511794582E+04  0.41800000000E+01 0. -1.
        -11    1    4    4    0    0  0.19170075122E+02  0.22440603278E+03  0.75752081964E+03  0.79029320604E+03  0.00000000000E+00 0. -1.
         11    1    4    4    0    0 -0.57048649241E+02  0.16218864565E+03  0.47358464804E+03  0.50382747445E+03  0.00000000000E+00 0.  1.
</event>
<event>
 8    1  0.6380400E-009  0.1703452E+03  0.7561462E-02  0.1177488E+00
          1   -1    0    0  501    0  0.00000000000E+00  0.00000000000E+00  0.17146880675E+04  0.17146880675E+04  0.00000000000E+00 0. -1.
         -1   -1    0    0    0  501 -0.00000000000E+00 -0.00000000000E+00 -0.28632021869E+02  0.28632021869E+02  0.00000000000E+00 0.  1.
         25    2    1    2    0    0 -0.24165188185E+02  0.15036778398E+03  0.13364922450E+04  0.13509433964E+04  0.12506843113E+03 0.  0.
         23    2    1    2    0    0  0.24165188185E+02 -0.15036778398E+03  0.34956380058E+03  0.39237669295E+03  0.92575329959E+02 0.  0.
          5    1    3    3  502    0 -0.43351122651E+02  0.33286234072E+02  0.78027256930E+03  0.78219565840E+03  0.41800000000E+01 0.  1.
         -5    1    3    3    0  502  0.19185934467E+02  0.11708154991E+03  0.55621967571E+03  0.56874773798E+03  0.41800000000E+01 0.  1.
        -11    1    4    4    0    0 -0.10656176463E+02 -0.12138838243E+03  0.18373027863E+03  0.22046657064E+03  0.00000000000E+00 0.  1.
         11    1    4    4    0    0  0.34821364647E+02 -0.28979401552E+02  0.16583352195E+03  0.17191012231E+03  0.00000000000E+00 0. -1.
</event>
<event>
 8    1  0.6380400E-009  0.1288184E+03  0.7561462E-02  0.1229220E+00
         -2   -1    0    0    0  501 -0.00000000000E+00  0.00000000000E+00  0.70329514370E+02  0.70329514370E+02  0.00000000000E+00 0.  1.
          2   -1    0    0  501    0  0.00000000000E+00 -0.00000000000E+00 -0.31078937909E+03  0.31078937909E+03  0.00000000000E+00 0. -1.
         25    2    1    2    0    0  0.87317239783E+02  0.48907034737E+02 -0.12511505678E+03  0.20326631424E+03  0.12508884307E+03 0.  0.
         23    2    1    2    0    0 -0.87317239783E+02 -0.48907034737E+02 -0.11534480795E+03  0.17785257922E+03  0.91164229862E+02 0.  0.
          5    1    3    3  502    0  0.87950594923E+02  0.14381971913E+01 -0.12817547638E+03  0.15551141664E+03  0.41800000000E+01 0.  1.
         -5    1    3    3    0  502 -0.63335514030E+00  0.47468837546E+02  0.30604196062E+01  0.47754897601E+02  0.41800000000E+01 0.  1.
        -11    1    4    4    0    0 -0.35792399076E+02  0.15866186414E+02 -0.43446771784E+01  0.39391724038E+02  0.00000000000E+00 0.  1.
         11    1    4    4    0    0 -0.51524840707E+02 -0.64773221152E+02 -0.11100013077E+03  0.13846085519E+03  0.00000000000E+00 0. -1.
</event>
<event>
 8    1  0.6380400E-009  0.1237951E+03  0.7561462E-02  0.1236964E+00
          1   -1    0    0  501    0  0.00000000000E+00  0.00000000000E+00  0.21927485551E+03  0.21927485551E+03  0.00000000000E+00 0. -1.
         -1   -1    0    0    0  501 -0.00000000000E+00 -0.00000000000E+00 -0.10107552275E+03  0.10107552275E+03  0.00000000000E+00 0.  1.
         25    2    1    2    0    0  0.21920198722E+02  0.90504687572E+02  0.11105663535E+03  0.19144517637E+03  0.12508431443E+03 0.  0.
         23    2    1    2    0    0 -0.21920198722E+02 -0.90504687572E+02  0.71426974137E+01  0.12890520188E+03  0.88847843876E+02 0.  0.
          5    1    3    3  502    0 -0.29075868868E+02  0.11823648900E+02 -0.14384447870E+02  0.34779154163E+02  0.41800000000E+01 0. -1.
         -5    1    3    3    0  502  0.50996067590E+02  0.78681038672E+02  0.12544108322E+03  0.15666602221E+03  0.41800000000E+01 0. -1.
        -11    1    4    4    0    0 -0.51714368670E+02 -0.51452845372E+02 -0.15878291204E+02  0.74658498212E+02  0.00000000000E+00 0.  1.
         11    1    4    4    0    0  0.29794169948E+02 -0.39051842200E+02  0.23020988618E+02  0.54246703670E+02  0.00000000000E+00 0. -1.
</event>
<event>
 8    1  0.6380400E-009  0.1088749E+03  0.7561462E-02  0.1262668E+00
         -1   -1    0    0    0  501 -0.00000000000E+00  0.00000000000E+00  0.14665900665E+04  0.14665900665E+04  0.00000000000E+00 0.  1.
          1   -1    0    0  501    0  0.00000000000E+00 -0.00000000000E+00 -0.16212880226E+02  0.16212880226E+02  0.00000000000E+00 0. -1.
         25    2    1    2    0    0  0.43950478696E+01 -0.36718619332E+02  0.12657223326E+04  0.12724261150E+04  0.12509045377E+03 0.  0.
         23    2    1    2    0    0 -0.43950478696E+01  0.36718619332E+02  0.18465485368E+03  0.21037683166E+03  0.93773252371E+02 0.  0.
          5    1    3    3  502    0 -0.49771059668E+02 -0.42465630600E+02  0.92809299529E+03  0.93040559353E+03  0.41800000000E+01 0. -1.
         -5    1    3    3    0  502  0.54166107537E+02  0.57470112674E+01  0.33762933726E+03  0.34202052150E+03  0.41800000000E+01 0. -1.
        -11    1    4    4    0    0 -0.23955067019E+02 -0.23915582359E+02  0.91127049569E+02  0.97210799187E+02  0.00000000000E+00 0.  1.
         11    1    4    4    0    0  0.19560019149E+02  0.60634201691E+02  0.93527804114E+02  0.11316603248E+03  0.00000000000E+00 0. -1.
</event>
<event>
 8    1  0.6380400E-009  0.1038779E+03  0.7561462E-02  0.1272346E+00
          1   -1    0    0  501    0  0.00000000000E+00  0.00000000000E+00  0.22237952204E+03  0.22237952204E+03  0.00000000000E+00 0. -1.
         -1   -1    0    0    0  501 -0.00000000000E+00 -0.00000000000E+00 -0.82104664584E+02  0.82104664584E+02  0.00000000000E+00 0.  1.
         25    2    1    2    0    0  0.68191966743E+02 -0.16093569984E+02  0.13234968093E+03  0.19512730582E+03  0.12509628336E+03 0.  0.
         23    2    1    2    0    0 -0.68191966743E+02  0.16093569984E+02  0.79251765175E+01  0.10935688080E+03  0.83588107004E+02 0.  0.
          5    1    3    3  502    0  0.82198858437E+02  0.16089697473E+01  0.26001701392E+02  0.86329612459E+02  0.41800000000E+01 0. -1.
         -5    1    3    3    0  502 -0.14006891694E+02 -0.17702539731E+02  0.10634797954E+03  0.10879769336E+03  0.41800000000E+01 0. -1.
        -11    1    4    4    0    0 -0.76154779731E+02 -0.84993782500E+01  0.22263931661E+02  0.79796444529E+02  0.00000000000E+00 0. -1.
         11    1    4    4    0    0  0.79628129877E+01  0.24592948234E+02 -0.14338755144E+02  0.29560436272E+02  0.00000000000E+00 0.  1.
</event>
<event>
 8    1  0.6380400E-009  0.5438112E+02  0.7561462E-02  0.1423048E+00
          2   -1    0    0  501    0  0.00000000000E+00  0.00000000000E+00  0.39900655017E+03  0.39900655017E+03  0.00000000000E+00 0. -1.
         -2   -1    0    0    0  501 -0.00000000000E+00 -0.00000000000E+00 -0.29754131314E+02  0.29754131314E+02  0.00000000000E+00 0.  1.
         25    2    1    2    0    0  0.16388095387E+01 -0.32512373838E+01  0.21883613185E+03  0.25209072239E+03  0.12508886230E+03 0.  0.
         23    2    1    2    0    0 -0.16388095387E+01  0.32512373838E+01  0.15041628700E+03  0.17666995909E+03  0.92595673811E+02 0.  0.
          5    1    3    3  502    0 -0.84522585270E+01 -0.69445164795E+01 -0.14405113433E+02  0.18564662032E+02  0.41800000000E+01 0. -1.
         -5    1    3    3    0  502  0.10091068066E+02  0.36932790957E+01  0.23324124528E+03  0.23352606036E+03  0.41800000000E+01 0. -1.
        -11    1    4    4    0    0  0.12729634302E+02  0.42162447852E+02  0.11112964248E+03  0.11953875119E+03  0.00000000000E+00 0. -1.
         11    1    4    4    0    0 -0.14368443841E+02 -0.38911210468E+02  0.39286644525E+02  0.57131207903E+02  0.00000000000E+00 0.  1.
</event>
<event>
 8    1  0.6380400E-009  0.1406391E+03  0.7561462E-02  0.1212472E+00
         -1   -1    0    0    0  501 -0.00000000000E+00  0.00000000000E+00  0.26098824986E+02  0.26098824986E+02  0.00000000000E+00 0.  1.
          1   -1    0    0  501    0  0.00000000000E+00 -0.00000000000E+00 -0.93243570892E+03  0.93243570892E+03  0.00000000000E+00 0. -1.
         25    2    1    2    0    0 -0.22002651273E+02 -0.95281952990E+02 -0.63716539435E+03  0.65665400219E+03  0.12510783993E+03 0.  0.
         23    2    1    2    0    0  0.22002651273E+02  0.95281952990E+02 -0.26917148958E+03  0.30188053171E+03  0.95476685075E+02 0.  0.
          5    1    3    3  502    0  0.24655486833E+01  0.23171671267E+02 -0.24741775888E+03  0.24854783260E+03  0.41800000000E+01 0.  1.
         -5    1    3    3    0  502 -0.24468199957E+02 -0.11845362426E+03 -0.38974763547E+03  0.40810616960E+03  0.41800000000E+01 0.  1.
        -11    1    4    4    0    0 -0.33998656087E+02  0.11673935567E+02 -0.75816602863E+02  0.83906773607E+02  0.00000000000E+00 0.  1.
         11    1    4    4    0    0  0.56001307361E+02  0.83608017423E+02 -0.19335488672E+03  0.21797375810E+03  0.00000000000E+00 0. -1.
</event>
<event>
 8    1  0.6380400E-009  0.1169778E+03  0.7561462E-02  0.1248168E+00
          2   -1    0    0  501    0  0.00000000000E+00  0.00000000000E+00  0.76067933164E+03  0.76067933164E+03  0.00000000000E+00 0. -1.
         -2   -1    0    0    0  501 -0.00000000000E+00 -0.00000000000E+00 -0.21988436599E+02  0.21988436599E+02  0.00000000000E+00 0.  1.
         25    2    1    2    0    0  0.63006589247E+02 -0.29855899624E+02  0.43117424826E+03  0.45433423496E+03  0.12508860723E+03 0.  0.
         23    2    1    2    0    0 -0.63006589247E+02  0.29855899624E+02  0.30751664678E+03  0.32833353328E+03  0.91516206213E+02 0.  0.
          5    1    3    3  502    0 -0.24863403878E+02 -0.16212538553E+02  0.26580718030E+02  0.40062978293E+02  0.41800000000E+01 0.  1.
         -5    1    3    3    0  502  0.87869993125E+02 -0.13643361072E+02  0.40459353023E+03  0.41427125667E+03  0.41800000000E+01 0.  1.
        -11    1    4    4    0    0  0.79363766069E+01 -0.24393201043E+02  0.63339926207E+02  0.68337109850E+02  0.00000000000E+00 0. -1.
         11    1    4    4    0    0 -0.70942965854E+02  0.54249100668E+02  0.24417672057E+03  0.25999642343E+03  0.00000000000E+00 0.  1.
</event>
<event>
 8    1  0.6380400E-009  0.1679273E+03  0.7561462E-02  0.1180027E+00
          1   -1    0    0  501    0  0.00000000000E+00  0.00000000000E+00  0.24013827114E+03  0.24013827114E+03  0.00000000000E+00 0. -1.
         -1   -1    0    0    0  501 -0.00000000000E+00 -0.00000000000E+00 -0.18272358908E+03  0.18272358908E+03  0.00000000000E+00 0.  1.
         25    2    1    2    0    0 -0.27784978671E+02 -0.15262768325E+03  0.11984675642E+03  0.23254676981E+03  0.12509012907E+03 0.  0.
         23    2    1    2    0    0  0.27784978671E+02  0.15262768325E+03 -0.62432074363E+02  0.19031509041E+03  0.90856232564E+02 0.  0.
          5    1    3    3  502    0 -0.40240346671E+02 -0.99847698167E+02  0.78221182408E+01  0.10801623148E+03  0.41800000000E+01 0.  1.
         -5    1    3    3    0  502  0.12455368000E+02 -0.52779985082E+02  0.11202463818E+03  0.12453053833E+03  0.41800000000E+01 0.  1.
        -11    1    4    4    0    0 -0.35732246528E+00  0.14441477625E+03 -0.69335113313E+02  0.16019710739E+03  0.00000000000E+00 0. -1.
         11    1    4    4    0    0  0.28142301136E+02  0.82129070013E+01  0.69030389491E+01  0.30117983023E+02  0.00000000000E+00 0.  1.
</event>
<event>
 8    1  0.6380400E-009  0.1439596E+03  0.7561462E-02  0.1208098E+00
          3   -1    0    0  501    0  0.00000000000E+00  0.00000000000E+00  0.47604928186E+03  0.47604928186E+03  0.00000000000E+00 0. -1.
         -3   -1    0    0    0  501 -0.00000000000E+00 -0.00000000000E+00 -0.54735386012E+02  0.54735386012E+02  0.00000000000E+00 0.  1.
         25    2    1    2    0    0 -0.91635534666E+02  0.14670629811E+02  0.34201394276E+03  0.37580993463E+03  0.12508905362E+03 0.  0.
         23    2    1    2    0    0  0.91635534666E+02 -0.14670629811E+02  0.79299953092E+02  0.15497473324E+03  0.95479771625E+02 0.  0.
          5    1    3    3  502    0 -0.10098525550E+03 -0.32979623759E+02  0.21740322386E+03  0.24200684196E+03  0.41800000000E+01 0. -1.
         -5    1    3    3    0  502  0.93497208301E+01  0.47650253570E+02  0.12461071890E+03  0.13380309267E+03  0.41800000000E+01 0. -1.
        -11    1    4    4    0    0  0.55564435391E+01 -0.42142951545E+02  0.30157899138E+02  0.52119106958E+02  0.00000000000E+00 0. -1.
         11    1    4    4    0    0  0.86079091127E+02  0.27472321734E+02  0.49142053955E+02  0.10285562628E+03  0.00000000000E+00 0.  1.
</event>
<event>
 8    1  0.6380400E-009  0.1821353E+03  0.7561462E-02  0.1165752E+00
          2   -1    0    0  501    0  0.00000000000E+00  0.00000000000E+00  0.74382658963E+03  0.74382658963E+03  0.00000000000E+00 0. -1.
         -2   -1    0    0    0  501 -0.00000000000E+00 -0.00000000000E+00 -0.47785052802E+02  0.47785052802E+02  0.00000000000E+00 0.  1.
         25    2    1    2    0    0  0.10050681310E+02 -0.15111399295E+03  0.31440856420E+03  0.37072389281E+03  0.12508798661E+03 0.  0.
         23    2    1    2    0    0 -0.10050681310E+02  0.15111399295E+03  0.38163297263E+03  0.42088774962E+03  0.92554399822E+02 0.  0.
          5    1    3    3  502    0 -0.26577046259E+02 -0.14774860559E+03  0.19761406651E+03  0.24820310539E+03  0.41800000000E+01 0. -1.
         -5    1    3    3    0  502  0.36627727569E+02 -0.33653873616E+01  0.11679449769E+03  0.12252078742E+03  0.41800000000E+01 0. -1.
        -11    1    4    4    0    0 -0.50069970386E+02  0.64432046891E+02  0.16157038130E+03  0.18100684715E+03  0.00000000000E+00 0.  1.
         11    1    4    4    0    0  0.40019289075E+02  0.86681946063E+02  0.22006259132E+03  0.23988090247E+03  0.00000000000E+00 0. -1.
</event>
<event>
 8    1  0.6380400E-009  0.1183817E+03  0.7561462E-02  0.1245791E+00
          2   -1    0    0  501    0  0.00000000000E+00  0.00000000000E+00  0.15887093372E+03  0.15887093372E+03  0.00000000000E+00 0. -1.
         -2   -1    0    0    0  501 -0.00000000000E+00 -0.00000000000E+00 -0.24832905370E+03  0.24832905370E+03  0.00000000000E+00 0.  1.
         25    2    1    2    0    0  0.58830087847E+02 -0.39287425021E+02  0.10719144352E+03  0.17928057568E+03  0.12508812194E+03 0.  0.
         23    2    1    2    0    0 -0.58830087847E+02  0.39287425021E+02 -0.19664956350E+03  0.22791941174E+03  0.90949032004E+02 0.  0.
          5    1    3    3  502    0  0.51024651948E+02  0.24822763053E+02  0.34416409659E+01  0.57000017233E+02  0.41800000000E+01 0. -1.
         -5    1    3    3    0  502  0.78054358990E+01 -0.64110188075E+02  0.10374980255E+03  0.12228055845E+03  0.41800000000E+01 0. -1.
        -11    1    4    4    0    0  0.23756102558E+02  0.18161895231E+02 -0.47552114611E+02  0.56173040252E+02  0.00000000000E+00 0.  1.
         11    1    4    4    0    0 -0.82586190404E+02  0.21125529790E+02 -0.14909744889E+03  0.17174637149E+03  0.00000000000E+00 0. -1.
</event>
<event>
 8    1  0.6380400E-009  0.7599741E+02  0.7561462E-02  0.1340810E+00
          2   -1    0    0  501    0  0.00000000000E+00  0.00000000000E+00  0.17265566549E+03  0.17265566549E+03  0.00000000000E+00 0.  1.
         -2   -1    0    0    0  501 -0.00000000000E+00 -0.00000000000E+00 -0.74261842574E+02  0.74261842574E+02  0.00000000000E+00 0. -1.
         25    2    1    2    0    0 -0.10110788560E+01 -0.30269130908E+02  0.35769943198E+02  0.13358045300E+03  0.12508799312E+03 0.  0.
         23    2    1    2    0    0  0.10110788560E+01  0.30269130908E+02  0.62623879719E+02  0.11333705506E+03  0.89477903264E+02 0.  0.
          5    1    3    3  502    0 -0.19396690812E+02  0.60151274400E+01  0.74456386644E+02  0.77289321932E+02  0.41800000000E+01 0. -1.
         -5    1    3    3    0  502  0.18385611956E+02 -0.36284258348E+02 -0.38686443446E+02  0.56291131072E+02  0.41800000000E+01 0. -1.
        -11    1    4    4    0    0 -0.27345439284E+02  0.49190728824E+02  0.54389093527E+02  0.78266687336E+02  0.00000000000E+00 0. -1.
         11    1    4    4    0    0  0.28356518140E+02 -0.18921597916E+02  0.82347861913E+01  0.35070367725E+02  0.00000000000E+00 0.  1.
</event>
<event>
 8    1  0.6380400E-009  0.1434968E+03  0.7561462E-02  0.1208700E+00
          2   -1    0    0  501    0  0.00000000000E+00  0.00000000000E+00  0.49192742649E+03  0.49192742649E+03  0.00000000000E+00 0. -1.
         -2   -1    0    0    0  501 -0.00000000000E+00 -0.00000000000E+00 -0.46906990642E+02  0.46906990642E+02  0.00000000000E+00 0.  1.
         25    2    1    2    0    0  0.85384975552E+02  0.59920931022E+02  0.27607362025E+03  0.32053876097E+03  0.12508933393E+03 0.  0.
         23    2    1    2    0    0 -0.85384975552E+02 -0.59920931022E+02  0.16894681560E+03  0.21829565616E+03  0.90713036401E+02 0.  0.
          5    1    3    3  502    0 -0.74759956900E+01 -0.26280570704E+02  0.17932649317E+02  0.32948614836E+02  0.41800000000E+01 0.  1.
         -5    1    3    3    0  502  0.92860971242E+02  0.86201501726E+02  0.25814097093E+03  0.28759014613E+03  0.41800000000E+01 0.  1.
        -11    1    4    4    0    0 -0.10545936961E+02 -0.56698836103E+02  0.10504043667E+03  0.11983099823E+03  0.00000000000E+00 0.  1.
         11    1    4    4    0    0 -0.74839038592E+02 -0.32220949190E+01  0.63906378929E+02  0.98464657927E+02  0.00000000000E+00 0. -1.
</event>
<event>
 8    1  0.6380400E-009  0.1483813E+03  0.7561462E-02  0.1202476E+00
         -2   -1    0    0    0  501 -0.00000000000E+00  0.00000000000E+00  0.62789425984E+02  0.62789425984E+02  0.00000000000E+00 0.  1.
          2   -1    0    0  501    0  0.00000000000E+00 -0.00000000000E+00 -0.36458414468E+03  0.36458414468E+03  0.00000000000E+00 0. -1.
         25    2    1    2    0    0 -0.97211605965E+02 -0.37842515317E+02 -0.20282661850E+03  0.26013054917E+03  0.12508842128E+03 0.  0.
         23    2    1    2    0    0  0.97211605965E+02  0.37842515317E+02 -0.98968100191E+02  0.16724302149E+03  0.85401352934E+02 0.  0.
          5    1    3    3  502    0 -0.12342938314E+03 -0.92860478071E+01 -0.15183566129E+03  0.19594025555E+03  0.41800000000E+01 0.  1.
         -5    1    3    3    0  502  0.26217777180E+02 -0.28556467510E+02 -0.50990957215E+02  0.64190293617E+02  0.41800000000E+01 0.  1.
        -11    1    4    4    0    0  0.65920598351E+02 -0.19373976177E+02 -0.41146540896E+02  0.80086915707E+02  0.00000000000E+00 0.  1.
         11    1    4    4    0    0  0.31291007614E+02  0.57216491494E+02 -0.57821559295E+02  0.87156105785E+02  0.00000000000E+00 0. -1.
</event>
<event>
 8    1  0.6380400E-009  0.1136769E+03  0.7561462E-02  0.1253908E+00
          2   -1    0    0  501    0  0.00000000000E+00  0.00000000000E+00  0.26883118452E+03  0.26883118452E+03  0.00000000000E+00 0. -1.
         -2   -1    0    0    0  501 -0.00000000000E+00 -0.00000000000E+00 -0.55855296503E+02  0.55855296503E+02  0.00000000000E+00 0.  1.
         25    2    1    2    0    0  0.52757112332E+02  0.10967595958E+02  0.98488203842E+02  0.16807683080E+03  0.12508514578E+03 0.  0.
         23    2    1    2    0    0 -0.52757112332E+02 -0.10967595958E+02  0.11448768417E+03  0.15660965022E+03  0.92279746698E+02 0.  0.
          5    1    3    3  502    0  0.28511012611E+02 -0.52735387505E+02  0.74456496782E+02  0.95682502311E+02  0.41800000000E+01 0. -1.
         -5    1    3    3    0  502  0.24246099721E+02  0.63702983464E+02  0.24031707060E+02  0.72394328494E+02  0.41800000000E+01 0. -1.
        -11    1    4    4    0    0 -0.41072560422E+02 -0.46219524768E+02  0.98227038222E+02  0.11606787121E+03  0.00000000000E+00 0. -1.
         11    1    4    4    0    0 -0.11684551909E+02  0.35251928810E+02  0.16260645950E+02  0.40541779005E+02  0.00000000000E+00 0.  1.
</event>
<event>
 8    1  0.6380400E-009  0.1451620E+03  0.7561462E-02  0.1206547E+00
         -1   -1    0    0    0  501 -0.00000000000E+00  0.00000000000E+00  0.35861120973E+03  0.35861120973E+03  0.00000000000E+00 0.  1.
          1   -1    0    0  501    0  0.00000000000E+00 -0.00000000000E+00 -0.93950531987E+02  0.93950531987E+02  0.00000000000E+00 0. -1.
         25    2    1    2    0    0  0.23901179741E+02  0.14275550496E+03  0.10346243028E+03  0.21748377655E+03  0.12507724810E+03 0.  0.
         23    2    1    2    0    0 -0.23901179741E+02 -0.14275550496E+03  0.16119824746E+03  0.23507796517E+03  0.91248967847E+02 0.  0.
          5    1    3    3  502    0  0.20920468472E+02  0.95409311924E+02 -0.61643053955E+01  0.97959552183E+02  0.41800000000E+01 0. -1.
         -5    1    3    3    0  502  0.29807112688E+01  0.47346193037E+02  0.10962673568E+03  0.11952422437E+03  0.41800000000E+01 0. -1.
        -11    1    4    4    0    0 -0.17374644469E+02 -0.12036435548E+03  0.17095399756E+03  0.20979686752E+03  0.00000000000E+00 0.  1.
         11    1    4    4    0    0 -0.65265352713E+01 -0.22391149484E+02 -0.97557501052E+01  0.25281097642E+02  0.00000000000E+00 0. -1.
</event>
<event>
 8    1  0.6380400E-009  0.9020985E+02  0.7561462E-02  0.1302344E+00
          1   -1    0    0  501    0  0.00000000000E+00  0.00000000000E+00  0.11462238333E+03  0.11462238333E+03  0.00000000000E+00 0. -1.
         -1   -1    0    0    0  501 -0.00000000000E+00 -0.00000000000E+00 -0.21378025395E+03  0.21378025395E+03  0.00000000000E+00 0.  1.
         25    2    1    2    0    0  0.18277447120E+02  0.11847065752E+02 -0.17037270958E+03  0.21248320857E+03  0.12509130951E+03 0.  0.
         23    2    1    2    0    0 -0.18277447120E+02 -0.11847065752E+02  0.71214838965E+02  0.11591942871E+03  0.88833229272E+02 0.  0.
          5    1    3    3  502    0 -0.15427356951E+02  0.63120563027E+02 -0.95581531829E+02  0.11565254189E+03  0.41800000000E+01 0. -1.
         -5    1    3    3    0  502  0.33704804071E+02 -0.51273497275E+02 -0.74791177753E+02  0.96830666682E+02  0.41800000000E+01 0. -1.
        -11    1    4    4    0    0  0.35025494278E+00 -0.28689874395E+02  0.83261395001E+02  0.88066403746E+02  0.00000000000E+00 0. -1.
         11    1    4    4    0    0 -0.18627702063E+02  0.16842808643E+02 -0.12046556036E+02  0.27853024961E+02  0.00000000000E+00 0.  1.
</event>
<event>
 8    1  0.6380400E-009  0.9516489E+02  0.7561462E-02  0.1290805E+00
          3   -1    0    0  501    0  0.00000000000E+00  0.00000000000E+00  0.39605636319E+03  0.39605636319E+03  0.00000000000E+00 0. -1.
         -3   -1    0    0    0  501 -0.00000000000E+00 -0.00000000000E+00 -0.35143657072E+02  0.35143657072E+02  0.00000000000E+00 0.  1.
         25    2    1    2    0    0  0.42702885732E+02 -0.14265245854E+02  0.25235569229E+03  0.28523518276E+03  0.12509468559E+03 0.  0.
         23    2    1    2    0    0 -0.42702885732E+02  0.14265245854E+02  0.10855701383E+03  0.14596483750E+03  0.86568324737E+02 0.  0.
          5    1    3    3  502    0  0.81047866768E+02 -0.59927779906E+01  0.10587427064E+03  0.13353465348E+03  0.41800000000E+01 0. -1.
         -5    1    3    3    0  502 -0.38344981036E+02 -0.82724678630E+01  0.14648142165E+03  0.15170052928E+03  0.41800000000E+01 0. -1.
        -11    1    4    4    0    0 -0.53828617519E+01  0.28914857173E+02  0.10096286377E+03  0.10515961214E+03  0.00000000000E+00 0. -1.
         11    1    4    4    0    0 -0.37320023980E+02 -0.14649611319E+02  0.75941500590E+01  0.40805225362E+02  0.00000000000E+00 0.  1.
</event>
<event>
 8    1  0.6380400E-009  0.4533786E+02  0.7561462E-02  0.1472243E+00
          2   -1    0    0  501    0  0.00000000000E+00  0.00000000000E+00  0.14856701308E+03  0.14856701308E+03  0.00000000000E+00 0. -1.
         -2   -1    0    0    0  501 -0.00000000000E+00 -0.00000000000E+00 -0.82609765728E+02  0.82609765728E+02  0.00000000000E+00 0.  1.
         25    2    1    2    0    0 -0.91907857325E+00  0.11110162324E+02  0.60129566804E+02  0.13924843966E+03  0.12510109005E+03 0.  0.
         23    2    1    2    0    0  0.91907857325E+00 -0.11110162324E+02  0.58276805434E+01  0.91928339141E+02  0.91063589126E+02 0.  0.
          5    1    3    3  502    0  0.49772186313E+00  0.25808529569E+02  0.96389994853E+02  0.99874077884E+02  0.41800000000E+01 0. -1.
         -5    1    3    3    0  502 -0.14168004364E+01 -0.14698367245E+02 -0.36260428048E+02  0.39374361778E+02  0.41800000000E+01 0. -1.
        -11    1    4    4    0    0  0.92300719875E+01 -0.28472081222E+02 -0.35442573660E+02  0.46389973762E+02  0.00000000000E+00 0.  1.
         11    1    4    4    0    0 -0.83109934143E+01  0.17361918898E+02  0.41270254204E+02  0.45538365379E+02  0.00000000000E+00 0. -1.
</event>
<event>
 8    1  0.6380400E-009  0.1208707E+03  0.7561462E-02  0.1241668E+00
         -1   -1    0    0    0  501 -0.00000000000E+00  0.00000000000E+00  0.46626276969E+03  0.46626276969E+03  0.00000000000E+00 0.  1.
          1   -1    0    0  501    0  0.00000000000E+00 -0.00000000000E+00 -0.36821121966E+02  0.36821121966E+02  0.00000000000E+00 0. -1.
         25    2    1    2    0    0 -0.71626157623E+02  0.23709121565E+02  0.23541205862E+03  0.27705472108E+03  0.12509217492E+03 0.  0.
         23    2    1    2    0    0  0.71626157623E+02 -0.23709121565E+02  0.19402958910E+03  0.22602917057E+03  0.88029969912E+02 0.  0.
          5    1    3    3  502    0 -0.39460965971E+02  0.64161529857E+02  0.20134457355E+03  0.21501390524E+03  0.41800000000E+01 0. -1.
         -5    1    3    3    0  502 -0.32165191653E+02 -0.40452408292E+02  0.34067485069E+02  0.62040815836E+02  0.41800000000E+01 0. -1.
        -11    1    4    4    0    0  0.91165879178E+02 -0.25936980767E+02  0.17281404073E+03  0.19710057628E+03  0.00000000000E+00 0.  1.
         11    1    4    4    0    0 -0.19539721554E+02  0.22278592023E+01  0.21215548373E+02  0.28928594294E+02  0.00000000000E+00 0. -1.
</event>
<event>
 8    1  0.6380400E-009  0.1045426E+03  0.7561462E-02  0.1271024E+00
          1   -1    0    0  501    0  0.00000000000E+00  0.00000000000E+00  0.23138619795E+04  0.23138619795E+04  0.00000000000E+00 0. -1.
         -1   -1    0    0    0  501 -0.00000000000E+00 -0.00000000000E+00 -0.91858979373E+01  0.91858979373E+01  0.00000000000E+00 0.  1.
         25    2    1    2    0    0 -0.63463417022E+02  0.23389133095E+02  0.18036915007E+04  0.18092885364E+04  0.12508925403E+03 0.  0.
         23    2    1    2    0    0  0.63463417022E+02 -0.23389133095E+02  0.50098458091E+03  0.51375934106E+03  0.91588500232E+02 0.  0.
          5    1    3    3  502    0  0.92968951797E+01  0.21860167977E+02  0.69515098032E+02  0.73580707107E+02  0.41800000000E+01 0. -1.
         -5    1    3    3    0  502 -0.72760312202E+02  0.15289651175E+01  0.17341764027E+04  0.17357078293E+04  0.41800000000E+01 0. -1.
        -11    1    4    4    0    0  0.19294414722E+02 -0.54650361981E+02  0.21351119542E+03  0.22123735461E+03  0.00000000000E+00 0.  1.
         11    1    4    4    0    0  0.44169002301E+02  0.31261228887E+02  0.28747338549E+03  0.29252198645E+03  0.00000000000E+00 0. -1.
</event>
<event>
 8    1  0.6380400E-009  0.9877972E+02  0.7561462E-02  0.1282883E+00
         -1   -1    0    0    0  501 -0.00000000000E+00  0.00000000000E+00  0.39884829226E+02  0.39884829226E+02  0.00000000000E+00 0.  1.
          1   -1    0    0  501    0  0.00000000000E+00 -0.00000000000E+00 -0.40412245112E+03  0.40412245112E+03  0.00000000000E+00 0. -1.
         25    2    1    2    0    0  0.24931237196E+02 -0.37681412750E+02 -0.27035059643E+03  0.30129270703E+03  0.12508555018E+03 0.  0.
         23    2    1    2    0    0 -0.24931237196E+02  0.37681412750E+02 -0.93887025465E+02  0.14271457332E+03  0.97525486060E+02 0.  0.
          5    1    3    3  502    0  0.67557075438E+02 -0.20510703509E+02 -0.22779303422E+03  0.23851999128E+03  0.41800000000E+01 0. -1.
         -5    1    3    3    0  502 -0.42625838243E+02 -0.17170709240E+02 -0.42557562210E+02  0.62772715753E+02  0.41800000000E+01 0. -1.
        -11    1    4    4    0    0 -0.46885242992E+02  0.35133750113E+02 -0.10324771653E+03  0.11871266730E+03  0.00000000000E+00 0. -1.
         11    1    4    4    0    0  0.21954005796E+02  0.25476626365E+01  0.93606910658E+01  0.24001906021E+02  0.00000000000E+00 0.  1.
</event>
<event>
 8    1  0.6380400E-009  0.1258943E+03  0.7561462E-02  0.1233678E+00
          1   -1    0    0  501    0  0.00000000000E+00  0.00000000000E+00  0.15864288966E+04  0.15864288966E+04  0.00000000000E+00 0. -1.
         -1   -1    0    0    0  501 -0.00000000000E+00 -0.00000000000E+00 -0.11986774374E+02  0.11986774374E+02  0.00000000000E+00 0.  1.
         25    2    1    2    0    0  0.60685558398E+02 -0.55065019853E+02  0.97858023124E+03  0.98994018480E+03  0.12508959628E+03 0.  0.
         23    2    1    2    0    0 -0.60685558398E+02  0.55065019853E+02  0.59586189096E+03  0.60847548615E+03  0.92065904312E+02 0.  0.
          5    1    3    3  502    0  0.22224661663E+01  0.28305417593E+02  0.69886983948E+02  0.75549976481E+02  0.41800000000E+01 0.  1.
         -5    1    3    3    0  502  0.58463092232E+02 -0.83370437446E+02  0.90869324729E+03  0.91439020832E+03  0.41800000000E+01 0.  1.
        -11    1    4    4    0    0  0.22960167111E+02  0.20112083341E+02  0.10651125682E+03  0.11079852435E+03  0.00000000000E+00 0.  1.
         11    1    4    4    0    0 -0.83645725509E+02  0.34952936512E+02  0.48935063414E+03  0.49767696180E+03  0.00000000000E+00 0. -1.
</event>
<event>
 8    1  0.6380400E-009  0.2519316E+03  0.7561462E-02  0.1112090E+00
          2   -1    0    0  501    0  0.00000000000E+00  0.00000000000E+00  0.66173596492E+02  0.66173596492E+02  0.00000000000E+00 0.  1.
         -2   -1    0    0    0  501 -0.00000000000E+00 -0.00000000000E+00 -0.12500445910E+04  0.12500445910E+04  0.00000000000E+00 0. -1.
         25    2    1    2    0    0 -0.14229556622E+03  0.18599041858E+03 -0.30346087610E+03  0.40320093529E+03  0.12506808917E+03 0.  0.
         23    2    1    2    0    0  0.14229556622E+03 -0.18599041858E+03 -0.88041011839E+03  0.91301725218E+03  0.60316351345E+02 0.  0.
          5    1    3    3  502    0 -0.11511588377E+03  0.48019467634E+02 -0.14314369961E+03  0.18990820705E+03  0.41800000000E+01 0. -1.
         -5    1    3    3    0  502 -0.27179682452E+02  0.13797095095E+03 -0.16031717649E+03  0.21329272824E+03  0.41800000000E+01 0. -1.
        -11    1    4    4    0    0  0.36512483729E+02 -0.20235169750E+02 -0.10330514758E+03  0.11142072105E+03  0.00000000000E+00 0.  1.
         11    1    4    4    0    0  0.10578308249E+03 -0.16575524883E+03 -0.77710497082E+03  0.80159653113E+03  0.00000000000E+00 0. -1.
</event>
<event>
 8    1  0.6380400E-009  0.1016355E+03  0.7561462E-02  0.1276894E+00
          1   -1    0    0  501    0  0.00000000000E+00  0.00000000000E+00  0.32389460960E+02  0.32389460960E+02  0.00000000000E+00 0. -1.
         -1   -1    0    0    0  501 -0.00000000000E+00 -0.00000000000E+00 -0.52973753673E+03  0.52973753673E+03  0.00000000000E+00 0.  1.
         25    2    1    2    0    0 -0.99225993025E+01  0.63485105611E+02 -0.37315061094E+03  0.39877008275E+03  0.12508950333E+03 0.  0.
         23    2    1    2    0    0  0.99225993025E+01 -0.63485105611E+02 -0.12419746483E+03  0.16335691494E+03  0.84449125372E+02 0.  0.
          5    1    3    3  502    0 -0.33449936842E+02 -0.83280726205E+01 -0.26204573899E+03  0.26433633271E+03  0.41800000000E+01 0. -1.
         -5    1    3    3    0  502  0.23527337539E+02  0.71813178231E+02 -0.11110487195E+03  0.13443375004E+03  0.41800000000E+01 0. -1.
        -11    1    4    4    0    0 -0.28848959204E+02 -0.24025971150E+02 -0.14028195041E+02  0.40078672545E+02  0.00000000000E+00 0. -1.
         11    1    4    4    0    0  0.38771558507E+02 -0.39459134461E+02 -0.11016926979E+03  0.12327824239E+03  0.00000000000E+00 0.  1.
</event>
<event>
 8    1  0.6380400E-009  0.9264140E+02  0.7561462E-02  0.1296578E+00
          2   -1    0    0  501    0  0.00000000000E+00  0.00000000000E+00  0.45905685035E+03  0.45905685035E+03  0.00000000000E+00 0. -1.
         -2   -1    0    0    0  501 -0.00000000000E+00 -0.00000000000E+00 -0.64891847776E+02  0.64891847776E+02  0.00000000000E+00 0.  1.
         25    2    1    2    0    0  0.10760426263E+02  0.57048549547E+02  0.39258153926E+03  0.41609509433E+03  0.12507813070E+03 0.  0.
         23    2    1    2    0    0 -0.10760426263E+02 -0.57048549547E+02  0.15834633088E+01  0.10785360379E+03  0.90882169405E+02 0.  0.
          5    1    3    3  502    0  0.46565470890E+02  0.49895772643E+02  0.36165738306E+03  0.36806448664E+03  0.41800000000E+01 0. -1.
         -5    1    3    3    0  502 -0.35805044627E+02  0.71527769034E+01  0.30924156203E+02  0.48030607690E+02  0.41800000000E+01 0. -1.
        -11    1    4    4    0    0  0.22269531532E+02 -0.30572198029E+02  0.36812618279E+02  0.52780301170E+02  0.00000000000E+00 0. -1.
         11    1    4    4    0    0 -0.33029957795E+02 -0.26476351518E+02 -0.35229154970E+02  0.55073302620E+02  0.00000000000E+00 0.  1.
</event>
<event>
 8    1  0.6380400E-009  0.1068770E+03  0.7561462E-02  0.1266465E+00
          1   -1    0    0  501    0  0.00000000000E+00  0.00000000000E+00  0.62852883138E+02  0.62852883138E+02  0.00000000000E+00 0. -1.
         -1   -1    0    0    0  501 -0.00000000000E+00 -0.00000000000E+00 -0.26272817002E+03  0.26272817002E+03  0.00000000000E+00 0.  1.
         25    2    1    2    0    0 -0.59589642726E+02 -0.17783624044E+02 -0.75385464169E+02  0.15873409859E+03  0.12508542298E+03 0.  0.
         23    2    1    2    0    0  0.59589642726E+02  0.17783624044E+02 -0.12448982271E+03  0.16684695457E+03  0.92048940713E+02 0.  0.
          5    1    3    3  502    0  0.31647384731E+02 -0.21674253998E+02  0.24615498865E+01  0.38663443645E+02  0.41800000000E+01 0. -1.
         -5    1    3    3    0  502 -0.91237027457E+02  0.38906299541E+01 -0.77847014055E+02  0.12007065494E+03  0.41800000000E+01 0. -1.
        -11    1    4    4    0    0  0.15685710333E+02  0.33605158630E+02 -0.11279633414E+03  0.11873652003E+03  0.00000000000E+00 0.  1.
         11    1    4    4    0    0  0.43903932394E+02 -0.15821534587E+02 -0.11693488577E+02  0.48110434538E+02  0.00000000000E+00 0. -1.
</event>
<event>
 8    1  0.6380400E-009  0.1086526E+03  0.7561462E-02  0.1263086E+00
         -2   -1    0    0    0  501 -0.00000000000E+00  0.00000000000E+00  0.14346529526E+02  0.14346529526E+02  0.00000000000E+00 0.  1.
          2   -1    0    0  501    0  0.00000000000E+00 -0.00000000000E+00 -0.15543988498E+04  0.15543988498E+04  0.00000000000E+00 0. -1.
         25    2    1    2    0    0 -0.81664130702E+02 -0.13611623493E+02 -0.11428287637E+04  0.11526278474E+04  0.12505624655E+03 0.  0.
         23    2    1    2    0    0  0.81664130702E+02  0.13611623493E+02 -0.39722355657E+03  0.41611753198E+03  0.92265594809E+02 0.  0.
          5    1    3    3  502    0 -0.65565510077E+02 -0.27939275721E+02 -0.11145216209E+04  0.11168058717E+04  0.41800000000E+01 0. -1.
         -5    1    3    3    0  502 -0.16098620625E+02  0.14327652228E+02 -0.28307142778E+02  0.35821975611E+02  0.41800000000E+01 0. -1.
        -11    1    4    4    0    0  0.53576169356E+02  0.53145270612E+02 -0.24360986413E+03  0.25503056996E+03  0.00000000000E+00 0.  1.
         11    1    4    4    0    0  0.28087961346E+02 -0.39533647119E+02 -0.15361369244E+03  0.16108696202E+03  0.00000000000E+00 0. -1.
</event>
<event>
 8    1  0.6380400E-009  0.1181884E+03  0.7561462E-02  0.1246116E+00
          1   -1    0    0  501    0  0.00000000000E+00  0.00000000000E+00  0.51030983861E+03  0.51030983861E+03  0.00000000000E+00 0. -1.
         -1   -1    0    0    0  501 -0.00000000000E+00 -0.00000000000E+00 -0.57260597737E+02  0.57260597737E+02  0.00000000000E+00 0.  1.
         25    2    1    2    0    0  0.87108726503E+02  0.60868259132E+02  0.11187786211E+03  0.19863790228E+03  0.12508990763E+03 0.  0.
         23    2    1    2    0    0 -0.87108726503E+02 -0.60868259132E+02  0.34117137876E+03  0.36893253406E+03  0.91762899922E+02 0.  0.
          5    1    3    3  502    0  0.85506099232E+02  0.47790543108E+02  0.13788289275E+03  0.16918745086E+03  0.41800000000E+01 0. -1.
         -5    1    3    3    0  502  0.16026272716E+01  0.13077716023E+02 -0.26005030636E+02  0.29450451422E+02  0.41800000000E+01 0. -1.
        -11    1    4    4    0    0 -0.60865139446E+02 -0.73462404311E+02  0.16685755919E+03  0.19220492998E+03  0.00000000000E+00 0.  1.
         11    1    4    4    0    0 -0.26243587057E+02  0.12594145180E+02  0.17431381956E+03  0.17672760408E+03  0.00000000000E+00 0. -1.
</event>
<event>
 8    1  0.6380400E-009  0.1042657E+03  0.7561462E-02  0.1271573E+00
         -1   -1    0    0    0  501 -0.00000000000E+00  0.00000000000E+00  0.85148254103E+02  0.85148254103E+02  0.00000000000E+00 0.  1.
          1   -1    0    0  501    0  0.00000000000E+00 -0.00000000000E+00 -0.14626964767E+03  0.14626964767E+03  0.00000000000E+00 0. -1.
         25    2    1    2    0    0  0.12561605942E+02 -0.30875877177E+02 -0.20568759293E+02  0.13107858873E+03  0.12508960321E+03 0.  0.
         23    2    1    2    0    0 -0.12561605942E+02  0.30875877177E+02 -0.40552634276E+02  0.10033931304E+03  0.85512267306E+02 0.  0.
          5    1    3    3  502    0  0.65132381432E+02 -0.39725385054E+01 -0.28535191425E+02  0.71342397793E+02  0.41800000000E+01 0. -1.
         -5    1    3    3    0  502 -0.52570775489E+02 -0.26903338671E+02  0.79664321316E+01  0.59736190941E+02  0.41800000000E+01 0. -1.
        -11    1    4    4    0    0  0.28969686939E+02 -0.45859982626E+01  0.43333720016E+01  0.29648815395E+02  0.00000000000E+00 0. -1.
         11    1    4    4    0    0 -0.41531292882E+02  0.35461875439E+02 -0.44886006278E+02  0.70690497648E+02  0.00000000000E+00 0.  1.
</event>
<event>
 8    1  0.6380400E-009  0.1136181E+03  0.7561462E-02  0.1254013E+00
         -2   -1    0    0    0  501 -0.00000000000E+00  0.00000000000E+00  0.11820484190E+02  0.11820484190E+02  0.00000000000E+00 0.  1.
          2   -1    0    0  501    0  0.00000000000E+00 -0.00000000000E+00 -0.10949674270E+04  0.10949674270E+04  0.00000000000E+00 0. -1.
         25    2    1    2    0    0 -0.76412888816E+01 -0.32880608837E+02 -0.61834762825E+03  0.63177581067E+03  0.12508941540E+03 0.  0.
         23    2    1    2    0    0  0.76412888816E+01  0.32880608837E+02 -0.46479931460E+03  0.47501210057E+03  0.91970479482E+02 0.  0.
          5    1    3    3  502    0  0.22113305037E+02  0.42664858582E+02 -0.22413993106E+03  0.22927160643E+03  0.41800000000E+01 0. -1.
         -5    1    3    3    0  502 -0.29754593919E+02 -0.75545467419E+02 -0.39420769719E+03  0.40250420424E+03  0.41800000000E+01 0. -1.
        -11    1    4    4    0    0  0.47730747674E+02  0.32387635186E+01 -0.24529394181E+03  0.24991564927E+03  0.00000000000E+00 0. -1.
         11    1    4    4    0    0 -0.40089458793E+02  0.29641845319E+02 -0.21950537279E+03  0.22509645130E+03  0.00000000000E+00 0.  1.
</event>
<event>
 8    1  0.6380400E-009  0.1254367E+03  0.7561462E-02  0.1234388E+00
         -2   -1    0    0    0  501 -0.00000000000E+00  0.00000000000E+00  0.16350211849E+02  0.16350211849E+02  0.00000000000E+00 0.  1.
          2   -1    0    0  501    0  0.00000000000E+00 -0.00000000000E+00 -0.10396327179E+04  0.10396327179E+04  0.00000000000E+00 0. -1.
         25    2    1    2    0    0 -0.23798887260E+02 -0.66998307502E+02 -0.62148894004E+03  0.63792615469E+03  0.12508443546E+03 0.  0.
         23    2    1    2    0    0  0.23798887260E+02  0.66998307502E+02 -0.40179356604E+03  0.41805677509E+03  0.90984818776E+02 0.  0.
          5    1    3    3  502    0  0.46030916910E+02 -0.67107139635E+01 -0.13778679445E+03  0.14548729195E+03  0.41800000000E+01 0.  1.
         -5    1    3    3    0  502 -0.69829804170E+02 -0.60287593538E+02 -0.48370214560E+03  0.49243886274E+03  0.41800000000E+01 0.  1.
        -11    1    4    4    0    0  0.56620112897E+02  0.44740841196E+02 -0.30569930748E+03  0.31410133182E+03  0.00000000000E+00 0. -1.
         11    1    4    4    0    0 -0.32821225637E+02  0.22257466306E+02 -0.96094258561E+02  0.10395544328E+03  0.00000000000E+00 0.  1.
</event>
<event>
 8    1  0.6380400E-009  0.1112917E+03  0.7561462E-02  0.1258196E+00
         -1   -1    0    0    0  501 -0.00000000000E+00  0.00000000000E+00  0.77127775124E+02  0.77127775124E+02  0.00000000000E+00 0.  1.
          1   -1    0    0  501    0  0.00000000000E+00 -0.00000000000E+00 -0.17608369827E+03  0.17608369827E+03  0.00000000000E+00 0. -1.
         25    2    1    2    0    0 -0.17161966552E+02 -0.46750698532E+02 -0.56495041044E+02  0.14600785497E+03  0.12508574316E+03 0.  0.
         23    2    1    2    0    0  0.17161966552E+02  0.46750698532E+02 -0.42460882102E+02  0.10720361842E+03  0.84908941722E+02 0.  0.
          5    1    3    3  502    0 -0.63027938651E+02 -0.47008867213E+02 -0.80271655314E+01  0.79147093653E+02  0.41800000000E+01 0.  1.
         -5    1    3    3    0  502  0.45865972100E+02  0.25816868096E+00 -0.48467875512E+02  0.66860761321E+02  0.41800000000E+01 0.  1.
        -11    1    4    4    0    0 -0.22440662680E+02  0.53129663737E+02 -0.31037944983E+02  0.65495790239E+02  0.00000000000E+00 0. -1.
         11    1    4    4    0    0  0.39602629231E+02 -0.63789652047E+01 -0.11422937119E+02  0.41707828181E+02  0.00000000000E+00 0.  1.
</event>
<event>
 8    1  0.6380400E-009  0.9598554E+02  0.7561462E-02  0.1288972E+00
         -3   -1    0    0    0  501 -0.00000000000E+00  0.00000000000E+00  0.13562262972E+03  0.13562262972E+03  0.00000000000E+00 0.  1.
          3   -1    0    0  501    0  0.00000000000E+00 -0.00000000000E+00 -0.12660208518E+03  0.12660208518E+03  0.00000000000E+00 0. -1.
         25    2    1    2    0    0  0.37919091355E+02 -0.28642115170E+02 -0.50615880898E+02  0.14305678922E+03  0.12508017147E+03 0.  0.
         23    2    1    2    0    0 -0.37919091355E+02  0.28642115170E+02  0.59636425433E+02  0.11916792567E+03  0.91576541866E+02 0.  0.
          5    1    3    3  502    0 -0.38178620955E+02 -0.20981703529E+02  0.10569823375E+02  0.45022578193E+02  0.41800000000E+01 0. -1.
         -5    1    3    3    0  502  0.76097712309E+02 -0.76604116408E+01 -0.61185704273E+02  0.98034211032E+02  0.41800000000E+01 0. -1.
        -11    1    4    4    0    0  0.13034665110E+02 -0.24652876370E+00 -0.17806442968E+02  0.22068816963E+02  0.00000000000E+00 0. -1.
         11    1    4    4    0    0 -0.50953756464E+02  0.28888643933E+02  0.77442868401E+02  0.97099108711E+02  0.00000000000E+00 0.  1.
</event>
<event>
 8    1  0.6380400E-009  0.8376813E+02  0.7561462E-02  0.1318686E+00
         -3   -1    0    0    0  501 -0.00000000000E+00  0.00000000000E+00  0.31489644369E+03  0.31489644369E+03  0.00000000000E+00 0.  1.
          3   -1    0    0  501    0  0.00000000000E+00 -0.00000000000E+00 -0.39730127094E+02  0.39730127094E+02  0.00000000000E+00 0. -1.
         25    2    1    2    0    0  0.17301620931E+02  0.17738907652E+02  0.17837761859E+03  0.21927223784E+03  0.12509086516E+03 0.  0.
         23    2    1    2    0    0 -0.17301620931E+02 -0.17738907652E+02  0.96788698015E+02  0.13535433294E+03  0.91316638418E+02 0.  0.
          5    1    3    3  502    0  0.54061789328E+02  0.29254493899E+00  0.16875330525E+03  0.17725098894E+03  0.41800000000E+01 0. -1.
         -5    1    3    3    0  502 -0.36760168397E+02  0.17446362713E+02  0.96243133394E+01  0.42021248907E+02  0.41800000000E+01 0. -1.
        -11    1    4    4    0    0 -0.42196491013E+02 -0.21286670048E+02  0.14691805985E+02  0.49492578622E+02  0.00000000000E+00 0.  1.
         11    1    4    4    0    0  0.24894870082E+02  0.35477623958E+01  0.82096892030E+02  0.85861754323E+02  0.00000000000E+00 0. -1.
</event>
<event>
 8    1  0.6380400E-009  0.9007821E+02  0.7561462E-02  0.1302662E+00
          2   -1    0    0  501    0  0.00000000000E+00  0.00000000000E+00  0.13807937968E+03  0.13807937968E+03  0.00000000000E+00 0. -1.
         -2   -1    0    0    0  501 -0.00000000000E+00 -0.00000000000E+00 -0.10252346880E+03  0.10252346880E+03  0.00000000000E+00 0.  1.
         25    2    1    2    0    0  0.80786392497E+01  0.30710024077E+02 -0.23737579606E+01  0.12908050400E+03  0.12509105402E+03 0.  0.
         23    2    1    2    0    0 -0.80786392497E+01 -0.30710024077E+02  0.37929668840E+02  0.11152234447E+03  0.99951005737E+02 0.  0.
          5    1    3    3  502    0 -0.44684470925E+02  0.51621297481E+02  0.14086871723E+02  0.69838189054E+02  0.41800000000E+01 0.  1.
         -5    1    3    3    0  502  0.52763110175E+02 -0.20911273403E+02 -0.16460629684E+02  0.59242314947E+02  0.41800000000E+01 0.  1.
        -11    1    4    4    0    0  0.18565075129E+02 -0.15356324506E+02  0.65768051146E+02  0.70042239173E+02  0.00000000000E+00 0. -1.
         11    1    4    4    0    0 -0.26643714379E+02 -0.15353699571E+02 -0.27838382306E+02  0.41480105302E+02  0.00000000000E+00 0.  1.
</event>
<event>
 8    1  0.6380400E-009  0.1385290E+03  0.7561462E-02  0.1215322E+00
         -1   -1    0    0    0  501 -0.00000000000E+00  0.00000000000E+00  0.18427973157E+03  0.18427973157E+03  0.00000000000E+00 0.  1.
          1   -1    0    0  501    0  0.00000000000E+00 -0.00000000000E+00 -0.16338231270E+03  0.16338231270E+03  0.00000000000E+00 0. -1.
         25    2    1    2    0    0  0.12316723462E+03 -0.57743725301E+02 -0.18880871789E+02  0.18576400897E+03  0.12508906513E+03 0.  0.
         23    2    1    2    0    0 -0.12316723462E+03  0.57743725301E+02  0.39778290662E+02  0.16189803530E+03  0.78256986464E+02 0.  0.
          5    1    3    3  502    0  0.65881914564E+02 -0.41238335507E+02 -0.71833267140E+02  0.10591750398E+03  0.41800000000E+01 0.  1.
         -5    1    3    3    0  502  0.57285320054E+02 -0.16505389794E+02  0.52952395351E+02  0.79846504991E+02  0.41800000000E+01 0.  1.
        -11    1    4    4    0    0 -0.41433317292E+02  0.35986418909E+02  0.52996284709E+02  0.76291207361E+02  0.00000000000E+00 0.  1.
         11    1    4    4    0    0 -0.81733917326E+02  0.21757306392E+02 -0.13217994046E+02  0.85606827938E+02  0.00000000000E+00 0. -1.
</event>
<event>
 8    1  0.6380400E-009  0.1001407E+03  0.7561462E-02  0.1280000E+00
         -3   -1    0    0    0  501 -0.00000000000E+00  0.00000000000E+00  0.21969843167E+03  0.21969843167E+03  0.00000000000E+00 0. -1.
          3   -1    0    0  501    0  0.00000000000E+00 -0.00000000000E+00 -0.60239089536E+02  0.60239089536E+02  0.00000000000E+00 0.  1.
         25    2    1    2    0    0 -0.43295332836E+02 -0.23140966484E+02  0.14250715711E+03  0.19587184443E+03  0.12508996537E+03 0.  0.
         23    2    1    2    0    0  0.43295332836E+02  0.23140966484E+02  0.16952185024E+02  0.84065676777E+02  0.66103489012E+02 0.  0.
          5    1    3    3  502    0 -0.82767838444E+02 -0.18891317218E+02  0.12747635436E+03  0.15321582903E+03  0.41800000000E+01 0. -1.
         -5    1    3    3    0  502  0.39472505608E+02 -0.42496492665E+01  0.15030802754E+02  0.42656015394E+02  0.41800000000E+01 0. -1.
        -11    1    4    4    0    0  0.32347420712E+02 -0.15018028428E+02 -0.88163206460E+01  0.36737233352E+02  0.00000000000E+00 0.  1.
         11    1    4    4    0    0  0.10947912124E+02  0.38158994912E+02  0.25768505670E+02  0.47328443425E+02  0.00000000000E+00 0. -1.
</event>
<event>
 8    1  0.6380400E-009  0.1140567E+03  0.7561462E-02  0.1253237E+00
          1   -1    0    0  501    0  0.00000000000E+00  0.00000000000E+00  0.69720784091E+02  0.69720784091E+02  0.00000000000E+00 0. -1.
         -1   -1    0    0    0  501 -0.00000000000E+00 -0.00000000000E+00 -0.24170008025E+03  0.24170008025E+03  0.00000000000E+00 0.  1.
         25    2    1    2    0    0  0.70459963661E+02  0.10752280663E+02 -0.89028963551E+02  0.16927616035E+03  0.12509214241E+03 0.  0.
         23    2    1    2    0    0 -0.70459963661E+02 -0.10752280663E+02 -0.82950332608E+02  0.14214470399E+03  0.90797253118E+02 0.  0.
          5    1    3    3  502    0  0.69254501841E+02 -0.46464521654E+02 -0.69566299111E+02  0.10868339418E+03  0.41800000000E+01 0. -1.
         -5    1    3    3    0  502  0.12054618202E+01  0.57216802317E+02 -0.19462664440E+02  0.60592766175E+02  0.41800000000E+01 0. -1.
        -11    1    4    4    0    0 -0.55266786944E+02  0.15056117424E+02 -0.94120797094E+02  0.11018089152E+03  0.00000000000E+00 0.  1.
         11    1    4    4    0    0 -0.15193176718E+02 -0.25808398087E+02  0.11170464486E+02  0.31963812467E+02  0.00000000000E+00 0. -1.
</event>
<event>
 8    1  0.6380400E-009  0.1120333E+03  0.7561462E-02  0.1256850E+00
         -3   -1    0    0    0  501 -0.00000000000E+00  0.00000000000E+00  0.29929983306E+03  0.29929983306E+03  0.00000000000E+00 0.  1.
          3   -1    0    0  501    0  0.00000000000E+00 -0.00000000000E+00 -0.45776665281E+02  0.45776665281E+02  0.00000000000E+00 0. -1.
         25    2    1    2    0    0  0.19642619330E+02 -0.37353339493E+02  0.13338404660E+03  0.18768141362E+03  0.12510757238E+03 0.  0.
         23    2    1    2    0    0 -0.19642619330E+02  0.37353339493E+02  0.12013912118E+03  0.15739508472E+03  0.92513241165E+02 0.  0.
          5    1    3    3  502    0 -0.11928769974E+02  0.38824055624E+02  0.78662132742E+02  0.88627345530E+02  0.41800000000E+01 0. -1.
         -5    1    3    3    0  502  0.31571389304E+02 -0.76177395116E+02  0.54721913857E+02  0.99054068091E+02  0.41800000000E+01 0. -1.
        -11    1    4    4    0    0  0.30455216400E+02 -0.96774746368E+01  0.48910025610E+02  0.58424004711E+02  0.00000000000E+00 0.  1.
         11    1    4    4    0    0 -0.50097835730E+02  0.47030814129E+02  0.71229095574E+02  0.98971080012E+02  0.00000000000E+00 0. -1.
</event>
<event>
 8    1  0.6380400E-009  0.1056570E+03  0.7561462E-02  0.1268831E+00
         -1   -1    0    0    0  501 -0.00000000000E+00  0.00000000000E+00  0.16016701373E+03  0.16016701373E+03  0.00000000000E+00 0.  1.
          1   -1    0    0  501    0  0.00000000000E+00 -0.00000000000E+00 -0.12131121061E+03  0.12131121061E+03  0.00000000000E+00 0. -1.
         25    2    1    2    0    0  0.72105946464E+02 -0.37683364952E+02  0.48903145395E+02  0.15702934506E+03  0.12508954422E+03 0.  0.
         23    2    1    2    0    0 -0.72105946464E+02  0.37683364952E+02 -0.10047342274E+02  0.12444887928E+03  0.93633706315E+02 0.  0.
          5    1    3    3  502    0  0.38307941382E+02 -0.36752889283E+02 -0.36848758483E+02  0.64757830764E+02  0.41800000000E+01 0.  1.
         -5    1    3    3    0  502  0.33798005082E+02 -0.93047566842E+00  0.85751903877E+02  0.92271514299E+02  0.41800000000E+01 0.  1.
        -11    1    4    4    0    0 -0.84752538520E+02  0.56111350065E+02 -0.68935677786E+01  0.10187736583E+03  0.00000000000E+00 0.  1.
         11    1    4    4    0    0  0.12646592056E+02 -0.18427985114E+02 -0.31537744952E+01  0.22571513453E+02  0.00000000000E+00 0. -1.
</event>
<event>
 8    1  0.6380400E-009  0.2060864E+03  0.7561462E-02  0.1144703E+00
         -2   -1    0    0    0  501 -0.00000000000E+00  0.00000000000E+00  0.25359868867E+02  0.25359868867E+02  0.00000000000E+00 0. -1.
          2   -1    0    0  501    0  0.00000000000E+00 -0.00000000000E+00 -0.18242448596E+04  0.18242448596E+04  0.00000000000E+00 0.  1.
         25    2    1    2    0    0  0.43027659381E+02 -0.18053430840E+03 -0.94659522235E+03  0.97269423175E+03  0.12509011766E+03 0.  0.
         23    2    1    2    0    0 -0.43027659381E+02  0.18053430840E+03 -0.85228976842E+03  0.87691049674E+03  0.90167366446E+02 0.  0.
          5    1    3    3  502    0 -0.14282763769E+02 -0.14625479803E+03 -0.50168729514E+03  0.52278301215E+03  0.41800000000E+01 0. -1.
         -5    1    3    3    0  502  0.57310423150E+02 -0.34279510364E+02 -0.44490792720E+03  0.44991121960E+03  0.41800000000E+01 0. -1.
        -11    1    4    4    0    0 -0.57358144356E+02  0.90931176627E+02 -0.33830219853E+03  0.35497438378E+03  0.00000000000E+00 0. -1.
         11    1    4    4    0    0  0.14330484975E+02  0.89603131770E+02 -0.51398756988E+03  0.52193611296E+03  0.00000000000E+00 0.  1.
</event>
<event>
 8    1  0.6380400E-009  0.8898469E+02  0.7561462E-02  0.1305329E+00
          1   -1    0    0  501    0  0.00000000000E+00  0.00000000000E+00  0.34125232918E+03  0.34125232918E+03  0.00000000000E+00 0. -1.
         -1   -1    0    0    0  501 -0.00000000000E+00 -0.00000000000E+00 -0.45804536477E+02  0.45804536477E+02  0.00000000000E+00 0.  1.
         25    2    1    2    0    0 -0.14677939333E+02 -0.51127554583E+02  0.11562258426E+03  0.17846635558E+03  0.12510871010E+03 0.  0.
         23    2    1    2    0    0  0.14677939333E+02  0.51127554583E+02  0.17982520845E+03  0.20859051008E+03  0.91342359075E+02 0.  0.
          5    1    3    3  502    0 -0.68768468328E+01 -0.78698667811E+02  0.24443028396E+02  0.82799187041E+02  0.41800000000E+01 0.  1.
         -5    1    3    3    0  502 -0.78010925006E+01  0.27571113228E+02  0.91179555860E+02  0.95667168536E+02  0.41800000000E+01 0.  1.
        -11    1    4    4    0    0  0.27054274663E+02  0.13386406344E+02  0.66367416768E+01  0.30905921640E+02  0.00000000000E+00 0.  1.
         11    1    4    4    0    0 -0.12376335330E+02  0.37741148239E+02  0.17318846677E+03  0.17768458844E+03  0.00000000000E+00 0. -1.
</event>
<event>
 8    1  0.6380400E-009  0.1015931E+03  0.7561462E-02  0.1276981E+00
         -1   -1    0    0    0  501 -0.00000000000E+00  0.00000000000E+00  0.29916204634E+02  0.29916204634E+02  0.00000000000E+00 0.  1.
          1   -1    0    0  501    0  0.00000000000E+00 -0.00000000000E+00 -0.54124799454E+03  0.54124799454E+03  0.00000000000E+00 0. -1.
         25    2    1    2    0    0 -0.79894409935E+02  0.20760039578E+02 -0.32266533694E+03  0.35577355905E+03  0.12509120542E+03 0.  0.
         23    2    1    2    0    0  0.79894409935E+02 -0.20760039578E+02 -0.18866645297E+03  0.21539064013E+03  0.63118946420E+02 0.  0.
          5    1    3    3  502    0 -0.35666551020E+02 -0.29912955199E+02 -0.30201287732E+02  0.55646005527E+02  0.41800000000E+01 0.  1.
         -5    1    3    3    0  502 -0.44227858915E+02  0.50672994777E+02 -0.29246404921E+03  0.30012755352E+03  0.41800000000E+01 0.  1.
        -11    1    4    4    0    0  0.36831572308E+02  0.74525569027E+01 -0.28526820859E+02  0.47179283922E+02  0.00000000000E+00 0.  1.
         11    1    4    4    0    0  0.43062837627E+02 -0.28212596481E+02 -0.16013963211E+03  0.16821135621E+03  0.00000000000E+00 0. -1.
</event>
<event>
 8    1  0.6380400E-009  0.6636367E+02  0.7561462E-02  0.1372914E+00
         -1   -1    0    0    0  501 -0.00000000000E+00  0.00000000000E+00  0.12575790127E+02  0.12575790127E+02  0.00000000000E+00 0.  1.
          1   -1    0    0  501    0  0.00000000000E+00 -0.00000000000E+00 -0.10178821649E+04  0.10178821649E+04  0.00000000000E+00 0. -1.
         25    2    1    2    0    0 -0.13955642617E+02  0.31007383911E+02 -0.57275448542E+03  0.58723905291E+03  0.12508311987E+03 0.  0.
         23    2    1    2    0    0  0.13955642617E+02 -0.31007383911E+02 -0.43255188931E+03  0.44321890208E+03  0.90474528967E+02 0.  0.
          5    1    3    3  502    0 -0.10743456070E+01  0.26530592702E+02 -0.57233886008E+03  0.57296969355E+03  0.41800000000E+01 0.  1.
         -5    1    3    3    0  502 -0.12881297010E+02  0.44767912083E+01 -0.41562533970E+00  0.14269359362E+02  0.41800000000E+01 0.  1.
        -11    1    4    4    0    0  0.20701689690E+02  0.26531137696E+02 -0.96242806464E+02  0.10195655457E+03  0.00000000000E+00 0.  1.
         11    1    4    4    0    0 -0.67460470729E+01 -0.57538521607E+02 -0.33630908285E+03  0.34126234751E+03  0.00000000000E+00 0. -1.
</event>
<event>
 8    1  0.6380400E-009  0.7812212E+02  0.7561462E-02  0.1334467E+00
         -2   -1    0    0    0  501 -0.00000000000E+00  0.00000000000E+00  0.40524857243E+02  0.40524857243E+02  0.00000000000E+00 0.  1.
          2   -1    0    0  501    0  0.00000000000E+00 -0.00000000000E+00 -0.43429141801E+03  0.43429141801E+03  0.00000000000E+00 0. -1.
         25    2    1    2    0    0  0.28044597725E+02  0.17778146268E+01 -0.34232212276E+03  0.36554330490E+03  0.12509121448E+03 0.  0.
         23    2    1    2    0    0 -0.28044597725E+02 -0.17778146268E+01 -0.51444438013E+02  0.10927297036E+03  0.92219259168E+02 0.  0.
          5    1    3    3  502    0  0.34199151237E+02 -0.22809434425E+02 -0.27408669554E+02  0.49583866437E+02  0.41800000000E+01 0. -1.
         -5    1    3    3    0  502 -0.61545535112E+01  0.24587249052E+02 -0.31491345320E+03  0.31595943846E+03  0.41800000000E+01 0. -1.
        -11    1    4    4    0    0 -0.55608000096E+01  0.40751658495E+02 -0.33774832242E+01  0.41267754480E+02  0.00000000000E+00 0.  1.
         11    1    4    4    0    0 -0.22483797716E+02 -0.42529473122E+02 -0.48066954788E+02  0.68005215876E+02  0.00000000000E+00 0. -1.
</event>
<event>
 8    1  0.6380400E-009  0.1404583E+03  0.7561462E-02  0.1212714E+00
          2   -1    0    0  501    0  0.00000000000E+00  0.00000000000E+00  0.74963956091E+03  0.74963956091E+03  0.00000000000E+00 0. -1.
         -2   -1    0    0    0  501 -0.00000000000E+00 -0.00000000000E+00 -0.36041747256E+02  0.36041747256E+02  0.00000000000E+00 0.  1.
         25    2    1    2    0    0 -0.68466291730E+02 -0.10253629307E+03  0.39884692239E+03  0.43580765010E+03  0.12509242938E+03 0.  0.
         23    2    1    2    0    0  0.68466291730E+02  0.10253629307E+03  0.31475089127E+03  0.34987365806E+03  0.90233743984E+02 0.  0.
          5    1    3    3  502    0 -0.54682776034E+02 -0.40614426394E+02  0.34735603364E+03  0.35399636175E+03  0.41800000000E+01 0.  1.
         -5    1    3    3    0  502 -0.13783515696E+02 -0.61921866676E+02  0.51490888744E+02  0.81811288349E+02  0.41800000000E+01 0.  1.
        -11    1    4    4    0    0 -0.16232182891E+01  0.73034585313E+02  0.19256284499E+03  0.20595420549E+03  0.00000000000E+00 0.  1.
         11    1    4    4    0    0  0.70089510019E+02  0.29501707758E+02  0.12218804628E+03  0.14391945257E+03  0.00000000000E+00 0. -1.
</event>
<event>
 8    1  0.6380400E-009  0.7297120E+02  0.7561462E-02  0.1350271E+00
          1   -1    0    0  501    0  0.00000000000E+00  0.00000000000E+00  0.81526599980E+03  0.81526599980E+03  0.00000000000E+00 0. -1.
         -1   -1    0    0    0  501 -0.00000000000E+00 -0.00000000000E+00 -0.16642453627E+02  0.16642453627E+02  0.00000000000E+00 0.  1.
         25    2    1    2    0    0  0.13441397143E+02 -0.35009115999E+02  0.50654510971E+03  0.52310792099E+03  0.12509052508E+03 0.  0.
         23    2    1    2    0    0 -0.13441397143E+02  0.35009115999E+02  0.29207843646E+03  0.30880053244E+03  0.92960456275E+02 0.  0.
          5    1    3    3  502    0  0.17133223911E+02 -0.10253055707E+02  0.51084217032E+01  0.21029524132E+02  0.41800000000E+01 0. -1.
         -5    1    3    3    0  502 -0.36918267680E+01 -0.24756060291E+02  0.50143668801E+03  0.50207839685E+03  0.41800000000E+01 0. -1.
        -11    1    4    4    0    0 -0.53315571944E+02  0.25859206724E+02  0.17854615147E+03  0.18812223948E+03  0.00000000000E+00 0.  1.
         11    1    4    4    0    0  0.39874174801E+02  0.91499092748E+01  0.11353228499E+03  0.12067829296E+03  0.00000000000E+00 0. -1.
</event>
<event>
 8    1  0.6380400E-009  0.9236111E+02  0.7561462E-02  0.1297233E+00
          1   -1    0    0  501    0  0.00000000000E+00  0.00000000000E+00  0.93751747211E+02  0.93751747211E+02  0.00000000000E+00 0. -1.
         -1   -1    0    0    0  501 -0.00000000000E+00 -0.00000000000E+00 -0.26724769637E+03  0.26724769637E+03  0.00000000000E+00 0.  1.
         25    2    1    2    0    0  0.20191698303E+01 -0.51875189954E+02  0.22257002875E+02  0.13725736780E+03  0.12509635670E+03 0.  0.
         23    2    1    2    0    0 -0.20191698303E+01  0.51875189954E+02 -0.19575295204E+03  0.22374207578E+03  0.95111439187E+02 0.  0.
          5    1    3    3  502    0  0.34162340398E+02 -0.34838019734E+02  0.64736721832E+02  0.81173078506E+02  0.41800000000E+01 0.  1.
         -5    1    3    3    0  502 -0.32143170568E+02 -0.17037170220E+02 -0.42479718957E+02  0.56084289297E+02  0.41800000000E+01 0.  1.
        -11    1    4    4    0    0  0.37973917732E+02  0.62924030315E+01 -0.35357444594E+02  0.52266257299E+02  0.00000000000E+00 0. -1.
         11    1    4    4    0    0 -0.39993087562E+02  0.45582786922E+02 -0.16039550744E+03  0.17147581848E+03  0.00000000000E+00 0.  1.
</event>
<event>
 8    1  0.6380400E-009  0.1171165E+03  0.7561462E-02  0.1247931E+00
          2   -1    0    0  501    0  0.00000000000E+00  0.00000000000E+00  0.64174057975E+03  0.64174057975E+03  0.00000000000E+00 0. -1.
         -2   -1    0    0    0  501 -0.00000000000E+00 -0.00000000000E+00 -0.22549586617E+02  0.22549586617E+02  0.00000000000E+00 0.  1.
         25    2    1    2    0    0 -0.47321261798E+02 -0.25422378102E+02  0.33583801512E+03  0.36238147800E+03  0.12509022371E+03 0.  0.
         23    2    1    2    0    0  0.47321261798E+02  0.25422378102E+02  0.28335297801E+03  0.30190868837E+03  0.89299198419E+02 0.  0.
          5    1    3    3  502    0 -0.79519665553E+02 -0.49881907184E+02  0.20807522678E+03  0.22830758698E+03  0.41800000000E+01 0. -1.
         -5    1    3    3    0  502  0.32198403754E+02  0.24459529082E+02  0.12776278834E+03  0.13407389101E+03  0.41800000000E+01 0. -1.
        -11    1    4    4    0    0 -0.10753231465E+02  0.38598778457E+02  0.15989248463E+03  0.16483659887E+03  0.00000000000E+00 0. -1.
         11    1    4    4    0    0  0.58074493264E+02 -0.13176400355E+02  0.12346049338E+03  0.13707208950E+03  0.00000000000E+00 0.  1.
</event>
<event>
 7    1  0.6380400E-009  0.1328663E+03  0.7561462E-02  0.1223264E+00
         -1   -1    0    0    0  501 -0.00000000000E+00  0.00000000000E+00  0.10919755147E+03  0.10919755147E+03  0.00000000000E+00 0.  1.
          1   -1    0    0  501    0  0.00000000000E+00 -0.00000000000E+00 -0.38732547997E+03  0.38732547997E+03  0.00000000000E+00 0. -1.
         23    2    1    2    0    0 -0.38834971712E+02  0.81133822241E+02 -0.31376692648E+03  0.33861118536E+03  0.90094386944E+02 0.  0.
          5    1    1    2  502    0  0.78104965202E+02 -0.43979722143E+02  0.48759083910E+02  0.10212503225E+03  0.41800000000E+01 0.  1.
         -5    1    1    2    0  502 -0.39269993490E+02 -0.37154100098E+02 -0.13120085930E+02  0.55786813833E+02  0.41800000000E+01 0.  1.
        -11    1    3    3    0    0  0.21830772317E+02  0.47817484131E+02 -0.18620666743E+03  0.19348389443E+03  0.00000000000E+00 0. -1.
         11    1    3    3    0    0 -0.60665744030E+02  0.33316338110E+02 -0.12756025905E+03  0.14512729093E+03  0.00000000000E+00 0.  1.
</event>
<event>
 8    1  0.6380400E-009  0.1080082E+03  0.7561462E-02  0.1264304E+00
          1   -1    0    0  501    0  0.00000000000E+00  0.00000000000E+00  0.20473471765E+02  0.20473471765E+02  0.00000000000E+00 0. -1.
         -1   -1    0    0    0  501 -0.00000000000E+00 -0.00000000000E+00 -0.64135169040E+03  0.64135169040E+03  0.00000000000E+00 0.  1.
         25    2    1    2    0    0 -0.24921281534E+02  0.93414248517E+01 -0.43783468328E+03  0.45612987655E+03  0.12508765690E+03 0.  0.
         23    2    1    2    0    0  0.24921281534E+02 -0.93414248517E+01 -0.18304353536E+03  0.20569528562E+03  0.89984899829E+02 0.  0.
          5    1    3    3  502    0  0.19378807198E+02 -0.49958443442E+02 -0.18512912844E+03  0.19277357401E+03  0.41800000000E+01 0. -1.
         -5    1    3    3    0  502 -0.44300088732E+02  0.59299868294E+02 -0.25270555483E+03  0.26335630254E+03  0.41800000000E+01 0. -1.
        -11    1    4    4    0    0 -0.25755309330E+02 -0.24178662873E+02 -0.11021706749E+03  0.11573999163E+03  0.00000000000E+00 0.  1.
         11    1    4    4    0    0  0.50676590864E+02  0.14837238021E+02 -0.72826467867E+02  0.89955293984E+02  0.00000000000E+00 0. -1.
</event>
<event>
 8    1  0.6380400E-009  0.1519334E+03  0.7561462E-02  0.1198117E+00
          2   -1    0    0  501    0  0.00000000000E+00  0.00000000000E+00  0.86020291176E+03  0.86020291176E+03  0.00000000000E+00 0. -1.
         -2   -1    0    0    0  501 -0.00000000000E+00 -0.00000000000E+00 -0.39263937451E+02  0.39263937451E+02  0.00000000000E+00 0.  1.
         25    2    1    2    0    0  0.37321658767E+02 -0.13121235070E+03  0.57357559957E+03  0.60269864961E+03  0.12508839524E+03 0.  0.
         23    2    1    2    0    0 -0.37321658767E+02  0.13121235070E+03  0.24736337474E+03  0.29676819960E+03  0.90956791631E+02 0.  0.
          5    1    3    3  502    0  0.28402156242E+02 -0.14205640320E+03  0.35239423551E+03  0.38103264137E+03  0.41800000000E+01 0. -1.
         -5    1    3    3    0  502  0.89195025248E+01  0.10844052493E+02  0.22118136407E+03  0.22166600824E+03  0.41800000000E+01 0. -1.
        -11    1    4    4    0    0 -0.31524337096E+02  0.32044293824E+02  0.15405945934E+03  0.16048344964E+03  0.00000000000E+00 0. -1.
         11    1    4    4    0    0 -0.57973216709E+01  0.99168056881E+02  0.93303915395E+02  0.13628474996E+03  0.00000000000E+00 0.  1.
</event>
<event>
 8    1  0.6380400E-009  0.1495584E+03  0.7561462E-02  0.1201017E+00
          1   -1    0    0  501    0  0.00000000000E+00  0.00000000000E+00  0.12043381027E+04  0.12043381027E+04  0.00000000000E+00 0. -1.
         -1   -1    0    0    0  501 -0.00000000000E+00 -0.00000000000E+00 -0.20940797230E+02  0.20940797230E+02  0.00000000000E+00 0.  1.
         25    2    1    2    0    0 -0.35070706393E+02 -0.93550280405E+02  0.81345820739E+03  0.82906232349E+03  0.12509385140E+03 0.  0.
         23    2    1    2    0    0  0.35070706393E+02  0.93550280405E+02  0.36993909809E+03  0.39621657645E+03  0.10075231880E+03 0.  0.
          5    1    3    3  502    0 -0.17812084399E+02  0.29993000285E+02  0.19386817883E+03  0.19702587034E+03  0.41800000000E+01 0.  1.
         -5    1    3    3    0  502 -0.17258621994E+02 -0.12354328069E+03  0.61959002856E+03  0.63203645316E+03  0.41800000000E+01 0.  1.
        -11    1    4    4    0    0  0.12041275618E+02  0.11013491517E+03  0.25892650319E+03  0.28163385079E+03  0.00000000000E+00 0.  1.
         11    1    4    4    0    0  0.23029430776E+02 -0.16584634760E+02  0.11101259490E+03  0.11458272566E+03  0.00000000000E+00 0. -1.
</event>
<event>
 8    1  0.6380400E-009  0.1126113E+03  0.7561462E-02  0.1255809E+00
         -2   -1    0    0    0  501 -0.00000000000E+00  0.00000000000E+00  0.16648106867E+02  0.16648106867E+02  0.00000000000E+00 0.  1.
          2   -1    0    0  501    0  0.00000000000E+00 -0.00000000000E+00 -0.10332676674E+04  0.10332676674E+04  0.00000000000E+00 0. -1.
         25    2    1    2    0    0 -0.14906440709E+02 -0.54000478344E+02 -0.70079127340E+03  0.71406971232E+03  0.12509552971E+03 0.  0.
         23    2    1    2    0    0  0.14906440709E+02  0.54000478344E+02 -0.31582828717E+03  0.33584606198E+03  0.99532993188E+02 0.  0.
          5    1    3    3  502    0 -0.83979346582E+00  0.34766356664E+02 -0.35650344558E+03  0.35822002166E+03  0.41800000000E+01 0.  1.
         -5    1    3    3    0  502 -0.14066647243E+02 -0.88766835008E+02 -0.34428782781E+03  0.35584969066E+03  0.41800000000E+01 0.  1.
        -11    1    4    4    0    0 -0.30101240595E+02  0.45290957961E+02 -0.87968773210E+02  0.10342079394E+03  0.00000000000E+00 0.  1.
         11    1    4    4    0    0  0.45007681304E+02  0.87095203823E+01 -0.22785951396E+03  0.23242526804E+03  0.00000000000E+00 0. -1.
</event>
<event>
 8    1  0.6380400E-009  0.1077764E+03  0.7561462E-02  0.1264744E+00
          1   -1    0    0  501    0  0.00000000000E+00  0.00000000000E+00  0.94006211121E+03  0.94006211121E+03  0.00000000000E+00 0. -1.
         -1   -1    0    0    0  501 -0.00000000000E+00 -0.00000000000E+00 -0.16525711949E+02  0.16525711949E+02  0.00000000000E+00 0.  1.
         25    2    1    2    0    0  0.44481199005E+02 -0.26944429813E+02  0.64752740850E+03  0.66154664302E+03  0.12509051434E+03 0.  0.
         23    2    1    2    0    0 -0.44481199005E+02  0.26944429813E+02  0.27600899076E+03  0.29504118013E+03  0.90353503694E+02 0.  0.
          5    1    3    3  502    0 -0.45945452178E+01 -0.60021419156E+02  0.17088463338E+03  0.18122558023E+03  0.41800000000E+01 0. -1.
         -5    1    3    3    0  502  0.49075744223E+02  0.33076989343E+02  0.47664277511E+03  0.48032106279E+03  0.41800000000E+01 0. -1.
        -11    1    4    4    0    0  0.13166311044E+02  0.35259306639E+02  0.16968820247E+03  0.17381212993E+03  0.00000000000E+00 0. -1.
         11    1    4    4    0    0 -0.57647510048E+02 -0.83148768258E+01  0.10632078829E+03  0.12122905021E+03  0.00000000000E+00 0.  1.
</event>
<event>
 8    1  0.6380400E-009  0.9783359E+02  0.7561462E-02  0.1284919E+00
          4   -1    0    0  501    0  0.00000000000E+00  0.00000000000E+00  0.11991741254E+03  0.11991741254E+03  0.00000000000E+00 0. -1.
         -4   -1    0    0    0  501 -0.00000000000E+00 -0.00000000000E+00 -0.10904720143E+03  0.10904720143E+03  0.00000000000E+00 0.  1.
         25    2    1    2    0    0  0.14421151110E+02  0.24775108362E+02  0.29368104309E+02  0.13167824164E+03  0.12511953555E+03 0.  0.
         23    2    1    2    0    0 -0.14421151110E+02 -0.24775108362E+02 -0.18497893196E+02  0.97286372333E+02  0.91108125847E+02 0.  0.
          5    1    3    3  502    0  0.18135441030E+02  0.71646147725E+02  0.38747770611E+02  0.83551940926E+02  0.41800000000E+01 0. -1.
         -5    1    3    3    0  502 -0.37142899202E+01 -0.46871039363E+02 -0.93796663021E+01  0.48126300715E+02  0.41800000000E+01 0. -1.
        -11    1    4    4    0    0  0.27403304010E+02 -0.38483762651E+01 -0.37669901020E+02  0.46741550182E+02  0.00000000000E+00 0.  1.
         11    1    4    4    0    0 -0.41824455120E+02 -0.20926732097E+02  0.19172007824E+02  0.50544822152E+02  0.00000000000E+00 0. -1.
</event>
<event>
 8    1  0.6380400E-009  0.1025770E+03  0.7561462E-02  0.1274968E+00
         -1   -1    0    0    0  501 -0.00000000000E+00  0.00000000000E+00  0.47815384075E+03  0.47815384075E+03  0.00000000000E+00 0.  1.
          1   -1    0    0  501    0  0.00000000000E+00 -0.00000000000E+00 -0.53058822409E+02  0.53058822409E+02  0.00000000000E+00 0. -1.
         25    2    1    2    0    0 -0.45860932005E+02 -0.47277463445E+02  0.68520897001E+02  0.15710517495E+03  0.12509412072E+03 0.  0.
         23    2    1    2    0    0  0.45860932005E+02  0.47277463445E+02  0.35657412134E+03  0.37410748820E+03  0.92048493123E+02 0.  0.
          5    1    3    3  502    0 -0.30696393934E+02  0.19037272560E+02  0.80106378954E+02  0.87972670167E+02  0.41800000000E+01 0.  1.
         -5    1    3    3    0  502 -0.15164538071E+02 -0.66314736004E+02 -0.11585481954E+02  0.69132504788E+02  0.41800000000E+01 0.  1.
        -11    1    4    4    0    0  0.20084144688E+02 -0.20150679919E+02  0.38075181808E+02  0.47530434869E+02  0.00000000000E+00 0. -1.
         11    1    4    4    0    0  0.25776787317E+02  0.67428143364E+02  0.31849893953E+03  0.32657705333E+03  0.00000000000E+00 0.  1.
</event>
<event>
 8    1  0.6380400E-009  0.1591222E+03  0.7561462E-02  0.1189691E+00
          2   -1    0    0  501    0  0.00000000000E+00  0.00000000000E+00  0.84513927077E+03  0.84513927077E+03  0.00000000000E+00 0. -1.
         -2   -1    0    0    0  501 -0.00000000000E+00 -0.00000000000E+00 -0.40619326760E+02  0.40619326760E+02  0.00000000000E+00 0.  1.
         25    2    1    2    0    0  0.10410593317E+03  0.54695662948E+02  0.64887644534E+03  0.67120633139E+03  0.12509051569E+03 0.  0.
         23    2    1    2    0    0 -0.10410593317E+03 -0.54695662948E+02  0.15564349867E+03  0.21455226614E+03  0.89320296461E+02 0.  0.
          5    1    3    3  502    0  0.11631265086E+03  0.13212294107E+01  0.41945887579E+03  0.43530862532E+03  0.41800000000E+01 0. -1.
         -5    1    3    3    0  502 -0.12206717687E+02  0.53374433537E+02  0.22941756955E+03  0.23589770607E+03  0.41800000000E+01 0. -1.
        -11    1    4    4    0    0 -0.10003433301E+03 -0.75758947758E+02  0.12477244135E+03  0.17695888807E+03  0.00000000000E+00 0.  1.
         11    1    4    4    0    0 -0.40716001688E+01  0.21063284810E+02  0.30871057316E+02  0.37593378070E+02  0.00000000000E+00 0. -1.
</event>
<event>
 8    1  0.6380400E-009  0.1085184E+03  0.7561462E-02  0.1263338E+00
          1   -1    0    0  501    0  0.00000000000E+00  0.00000000000E+00  0.66014008888E+03  0.66014008888E+03  0.00000000000E+00 0.  1.
         -1   -1    0    0    0  501 -0.00000000000E+00 -0.00000000000E+00 -0.25378073328E+02  0.25378073328E+02  0.00000000000E+00 0. -1.
         25    2    1    2    0    0  0.22370416738E+02  0.70483464403E+02  0.37856546203E+03  0.40549692619E+03  0.12509034259E+03 0.  0.
         23    2    1    2    0    0 -0.22370416738E+02 -0.70483464403E+02  0.25619655353E+03  0.28002123602E+03  0.85480198200E+02 0.  0.
          5    1    3    3  502    0  0.17300966361E+01  0.84058659352E+02  0.36931639071E+03  0.37878875418E+03  0.41800000000E+01 0.  1.
         -5    1    3    3    0  502  0.20640320102E+02 -0.13575194950E+02  0.92490713180E+01  0.26708172009E+02  0.41800000000E+01 0.  1.
        -11    1    4    4    0    0 -0.78597872236E+01 -0.86114767630E+02  0.23290523616E+03  0.24843988908E+03  0.00000000000E+00 0.  1.
         11    1    4    4    0    0 -0.14510629515E+02  0.15631303227E+02  0.23291317373E+02  0.31581346939E+02  0.00000000000E+00 0. -1.
</event>
<event>
 8    1  0.6380400E-009  0.2421903E+03  0.7561462E-02  0.1118342E+00
          2   -1    0    0  501    0  0.00000000000E+00  0.00000000000E+00  0.37803001195E+03  0.37803001195E+03  0.00000000000E+00 0. -1.
         -2   -1    0    0    0  501 -0.00000000000E+00 -0.00000000000E+00 -0.16854886070E+03  0.16854886070E+03  0.00000000000E+00 0.  1.
         25    2    1    2    0    0 -0.60511746301E+01  0.22767289689E+03  0.91616112625E+02  0.27552194494E+03  0.12508902972E+03 0.  0.
         23    2    1    2    0    0  0.60511746301E+01 -0.22767289689E+03  0.11786503863E+03  0.27105692771E+03  0.87795934061E+02 0.  0.
          5    1    3    3  502    0 -0.36962434429E+02  0.34939694365E+02  0.58261230489E+02  0.77452225141E+02  0.41800000000E+01 0. -1.
         -5    1    3    3    0  502  0.30911259799E+02  0.19273320252E+03  0.33354882136E+02  0.19806971980E+03  0.41800000000E+01 0. -1.
        -11    1    4    4    0    0 -0.26016547110E+02 -0.40026280070E+02  0.49544786143E+02  0.68801523629E+02  0.00000000000E+00 0.  1.
         11    1    4    4    0    0  0.32067721740E+02 -0.18764661682E+03  0.68320252492E+02  0.20225540409E+03  0.00000000000E+00 0. -1.
</event>
<event>
 8    1  0.6380400E-009  0.8713664E+02  0.7561462E-02  0.1309938E+00
         -1   -1    0    0    0  501 -0.00000000000E+00  0.00000000000E+00  0.39719926203E+02  0.39719926203E+02  0.00000000000E+00 0.  1.
          1   -1    0    0  501    0  0.00000000000E+00 -0.00000000000E+00 -0.37078553235E+03  0.37078553235E+03  0.00000000000E+00 0. -1.
         25    2    1    2    0    0  0.12201813674E+01 -0.36525542237E+02 -0.25531914779E+03  0.28666477849E+03  0.12511284474E+03 0.  0.
         23    2    1    2    0    0 -0.12201813674E+01  0.36525542237E+02 -0.75746458361E+02  0.12384068007E+03  0.90903157302E+02 0.  0.
          5    1    3    3  502    0  0.27707959118E+02 -0.40907151348E+02 -0.26468135108E+02  0.56206410720E+02  0.41800000000E+01 0. -1.
         -5    1    3    3    0  502 -0.26487777751E+02  0.43816091109E+01 -0.22885101268E+03  0.23045836777E+03  0.41800000000E+01 0. -1.
        -11    1    4    4    0    0  0.38236523725E+02  0.42991100210E+02 -0.38752210267E+02  0.69368582545E+02  0.00000000000E+00 0.  1.
         11    1    4    4    0    0 -0.39456705092E+02 -0.64655579725E+01 -0.36994248094E+02  0.54472097524E+02  0.00000000000E+00 0. -1.
</event>
<event>
 8    1  0.6380400E-009  0.1138906E+03  0.7561462E-02  0.1253530E+00
          2   -1    0    0  501    0  0.00000000000E+00  0.00000000000E+00  0.24817168995E+03  0.24817168995E+03  0.00000000000E+00 0. -1.
         -2   -1    0    0    0  501 -0.00000000000E+00 -0.00000000000E+00 -0.11067130939E+03  0.11067130939E+03  0.00000000000E+00 0.  1.
         25    2    1    2    0    0 -0.18321720017E+02  0.30211363158E+02  0.20027705452E+03  0.23876158470E+03  0.12509110229E+03 0.  0.
         23    2    1    2    0    0  0.18321720017E+02 -0.30211363158E+02 -0.62776673954E+02  0.12008141464E+03  0.96074051962E+02 0.  0.
          5    1    3    3  502    0 -0.21307311859E+01  0.76466881841E+02  0.91198208031E+02  0.11910629531E+03  0.41800000000E+01 0.  1.
         -5    1    3    3    0  502 -0.16190988831E+02 -0.46255518683E+02  0.10907884649E+03  0.11965528939E+03  0.41800000000E+01 0.  1.
        -11    1    4    4    0    0  0.65022033548E+01 -0.64958376787E+02 -0.45082279615E+02  0.79336506720E+02  0.00000000000E+00 0.  1.
         11    1    4    4    0    0  0.11819516662E+02  0.34747013628E+02 -0.17694394339E+02  0.40744907918E+02  0.00000000000E+00 0. -1.
</event>
<event>
 7    1  0.6380400E-009  0.1257543E+03  0.7561462E-02  0.1233895E+00
         -2   -1    0    0    0  501 -0.00000000000E+00  0.00000000000E+00  0.59081890348E+03  0.59081890348E+03  0.00000000000E+00 0.  1.
          2   -1    0    0  501    0  0.00000000000E+00 -0.00000000000E+00 -0.32127696592E+02  0.32127696592E+02  0.00000000000E+00 0. -1.
         23    2    1    2    0    0  0.51084133889E+02  0.68706752917E+02  0.25727163642E+03  0.28545611020E+03  0.89254071713E+02 0.  0.
          5    1    1    2  502    0 -0.92585005259E+02 -0.54432874354E+02  0.22219539827E+03  0.24682623123E+03  0.41800000000E+01 0.  1.
         -5    1    1    2    0  502  0.41500871370E+02 -0.14273878562E+02  0.79224172206E+02  0.90664258644E+02  0.41800000000E+01 0.  1.
        -11    1    3    3    0    0  0.17998379677E+02  0.64047868843E+02  0.75459073991E+02  0.10059892157E+03  0.00000000000E+00 0. -1.
         11    1    3    3    0    0  0.33085754213E+02  0.46588840733E+01  0.18181256242E+03  0.18485718863E+03  0.00000000000E+00 0.  1.
</event>
<event>
 8    1  0.6380400E-009  0.1348666E+03  0.7561462E-02  0.1220408E+00
         -2   -1    0    0    0  501 -0.00000000000E+00  0.00000000000E+00  0.43147680919E+02  0.43147680919E+02  0.00000000000E+00 0.  1.
          2   -1    0    0  501    0  0.00000000000E+00 -0.00000000000E+00 -0.49415539890E+03  0.49415539890E+03  0.00000000000E+00 0. -1.
         25    2    1    2    0    0  0.76806121888E+01  0.96231097285E+02 -0.21879821423E+03  0.26988744072E+03  0.12508859348E+03 0.  0.
         23    2    1    2    0    0 -0.76806121888E+01 -0.96231097285E+02 -0.23220950374E+03  0.26741563910E+03  0.90942039319E+02 0.  0.
          5    1    3    3  502    0 -0.54347765121E+02  0.60847840975E+02 -0.83337442080E+02  0.11669936151E+03  0.41800000000E+01 0. -1.
         -5    1    3    3    0  502  0.62028377310E+02  0.35383256310E+02 -0.13546077215E+03  0.15318807921E+03  0.41800000000E+01 0. -1.
        -11    1    4    4    0    0 -0.34566344469E+02 -0.32960878168E+02 -0.36886343367E+02  0.60347775324E+02  0.00000000000E+00 0.  1.
         11    1    4    4    0    0  0.26885732280E+02 -0.63270219117E+02 -0.19532316038E+03  0.20706786377E+03  0.00000000000E+00 0. -1.
</event>
<event>
 8    1  0.6380400E-009  0.1231726E+03  0.7561462E-02  0.1237953E+00
          2   -1    0    0  501    0  0.00000000000E+00  0.00000000000E+00  0.52626764614E+03  0.52626764614E+03  0.00000000000E+00 0. -1.
         -2   -1    0    0    0  501 -0.00000000000E+00 -0.00000000000E+00 -0.33933346787E+02  0.33933346787E+02  0.00000000000E+00 0.  1.
         25    2    1    2    0    0 -0.72277850825E+02  0.30983232540E+02  0.26176918619E+03  0.30059046570E+03  0.12508985896E+03 0.  0.
         23    2    1    2    0    0  0.72277850825E+02 -0.30983232540E+02  0.23056511316E+03  0.25961052722E+03  0.89740214052E+02 0.  0.
          5    1    3    3  502    0 -0.17640481926E+02  0.75103737670E+02  0.14359437056E+03  0.16306003088E+03  0.41800000000E+01 0. -1.
         -5    1    3    3    0  502 -0.54637368900E+02 -0.44120505130E+02  0.11817481563E+03  0.13753043482E+03  0.41800000000E+01 0. -1.
        -11    1    4    4    0    0  0.14571990527E+02  0.17916802076E+02  0.13871674324E+03  0.14062606288E+03  0.00000000000E+00 0. -1.
         11    1    4    4    0    0  0.57705860298E+02 -0.48900034617E+02  0.91848369918E+02  0.11898446434E+03  0.00000000000E+00 0.  1.
</event>
