<event>
 7    1  0.5137842E-006  0.9493775E+02  0.7561462E-02  0.1291316E+00
         -2   -1    0    0    0  501 -0.00000000000E+00  0.00000000000E+00  0.10794319851E+03  0.10794319851E+03  0.00000000000E+00 0.  1.
          2   -1    0    0  501    0  0.00000000000E+00 -0.00000000000E+00 -0.22655896270E+03  0.22655896270E+03  0.00000000000E+00 0. -1.
         23    2    1    2    0    0 -0.69962926019E+02  0.10635317004E+02 -0.14982616070E+03  0.18741647329E+03  0.87573597873E+02 0.  0.
          5    1    1    2  502    0  0.38452475807E+02  0.11939839337E+02 -0.45582812761E+02  0.60962430056E+02  0.41800000000E+01 0.  1.
         -5    1    1    2    0  502  0.31510450212E+02 -0.22575156341E+02  0.76793209266E+02  0.86123257868E+02  0.41800000000E+01 0.  1.
        -11    1    3    3    0    0 -0.51243326715E+02  0.46983904713E+02 -0.11136134974E+03  0.13128105747E+03  0.00000000000E+00 0. -1.
         11    1    3    3    0    0 -0.18719599304E+02 -0.36348587710E+02 -0.38464810961E+02  0.56135415816E+02  0.00000000000E+00 0.  1.
</event>
<event>
 7    1  0.5137842E-006  0.1158813E+03  0.7561462E-02  0.1250051E+00
         -3   -1    0    0    0  501 -0.00000000000E+00  0.00000000000E+00  0.99163949837E+03  0.99163949837E+03  0.00000000000E+00 0.  1.
          3   -1    0    0  501    0  0.00000000000E+00 -0.00000000000E+00 -0.14491394862E+02  0.14491394862E+02  0.00000000000E+00 0. -1.
         23    2    1    2    0    0  0.40591500427E+02 -0.21024739721E+02  0.32887724553E+03  0.34432120501E+03  0.91143513248E+02 0.  0.
          5    1    1    2  502    0 -0.40647631812E+00 -0.49372619715E+02  0.31013416470E+03  0.31406765723E+03  0.41800000000E+01 0.  1.
         -5    1    1    2    0  502 -0.40185024109E+02  0.70397359436E+02  0.33813669328E+03  0.34774203100E+03  0.41800000000E+01 0.  1.
        -11    1    3    3    0    0  0.24294705201E+02 -0.56775239471E+02  0.22285305831E+03  0.23125126187E+03  0.00000000000E+00 0.  1.
         11    1    3    3    0    0  0.16296795227E+02  0.35750499750E+02  0.10602418722E+03  0.11306994314E+03  0.00000000000E+00 0. -1.
</event>
<event>
 7    1  0.5137842E-006  0.4420238E+03  0.7561462E-02  0.1030128E+00
         -2   -1    0    0    0  501 -0.00000000000E+00  0.00000000000E+00  0.12045916909E+03  0.12045916909E+03  0.00000000000E+00 0.  1.
          2   -1    0    0  501    0  0.00000000000E+00 -0.00000000000E+00 -0.21018759793E+04  0.21018759793E+04  0.00000000000E+00 0. -1.
         23    2    1    2    0    0 -0.14005356607E+03  0.41549495348E+03 -0.14798138109E+04  0.15461645296E+04  0.92329734618E+02 0.  0.
          5    1    1    2  502    0  0.78038443304E+01 -0.19050651215E+02 -0.79238861213E+02  0.81976196694E+02  0.41800000000E+01 0. -1.
         -5    1    1    2    0  502  0.13224972174E+03 -0.39644430226E+03 -0.42236413805E+03  0.59419442206E+03  0.41800000000E+01 0.  1.
        -11    1    3    3    0    0 -0.49835162993E+02  0.26490273586E+03 -0.80703933609E+03  0.85086396852E+03  0.00000000000E+00 0.  1.
         11    1    3    3    0    0 -0.90218403075E+02  0.15059221762E+03 -0.67277447485E+03  0.69530056110E+03  0.00000000000E+00 0. -1.
</event>
<event>
 7    1  0.5137842E-006  0.1291896E+03  0.7561462E-02  0.1228663E+00
          2   -1    0    0  501    0  0.00000000000E+00  0.00000000000E+00  0.16601726792E+03  0.16601726792E+03  0.00000000000E+00 0. -1.
         -2   -1    0    0    0  501 -0.00000000000E+00 -0.00000000000E+00 -0.10911585436E+03  0.10911585436E+03  0.00000000000E+00 0.  1.
         23    2    1    2    0    0  0.23056334717E+02 -0.75063848829E+02  0.22428751418E+02  0.12347009211E+03  0.92604744931E+02 0.  0.
          5    1    1    2  502    0 -0.70601254391E+02  0.37463315840E+02  0.42090162861E+02  0.90427271136E+02  0.41800000000E+01 0. -1.
         -5    1    1    2    0  502  0.47544919674E+02  0.37600532989E+02 -0.76175007193E+01  0.61235759039E+02  0.41800000000E+01 0. -1.
        -11    1    3    3    0    0 -0.29928291696E+02 -0.59767299571E+01 -0.74589761580E+01  0.31417515340E+02  0.00000000000E+00 0.  1.
         11    1    3    3    0    0  0.52984626413E+02 -0.69087118872E+02  0.29887727576E+02  0.92052576769E+02  0.00000000000E+00 0. -1.
</event>
<event>
 7    1  0.5137842E-006  0.1025093E+03  0.7561462E-02  0.1275106E+00
         -2   -1    0    0    0  501 -0.00000000000E+00  0.00000000000E+00  0.13954733176E+03  0.13954733176E+03  0.00000000000E+00 0. -1.
          2   -1    0    0  501    0  0.00000000000E+00 -0.00000000000E+00 -0.10349542632E+03  0.10349542632E+03  0.00000000000E+00 0.  1.
         23    2    1    2    0    0 -0.96851004166E+01 -0.48339041307E+02  0.18420833870E+01  0.10430709309E+03  0.91902732891E+02 0.  0.
          5    1    1    2  502    0 -0.27637886686E+02 -0.24585992777E+02  0.42255330286E+02  0.56314377906E+02  0.41800000000E+01 0. -1.
         -5    1    1    2    0  502  0.37322987103E+02  0.72925034083E+02 -0.80455082307E+01  0.82421287087E+02  0.41800000000E+01 0. -1.
        -11    1    3    3    0    0  0.29794330829E+02 -0.29833401393E+02 -0.28760253075E+02  0.51038085242E+02  0.00000000000E+00 0.  1.
         11    1    3    3    0    0 -0.39479431245E+02 -0.18505639914E+02  0.30602336462E+02  0.53269007847E+02  0.00000000000E+00 0. -1.
</event>
<event>
 7    1  0.5137842E-006  0.1383713E+03  0.7561462E-02  0.1215537E+00
         -1   -1    0    0    0  501 -0.00000000000E+00  0.00000000000E+00  0.11061566240E+04  0.11061566240E+04  0.00000000000E+00 0.  1.
          1   -1    0    0  501    0  0.00000000000E+00 -0.00000000000E+00 -0.33461908435E+02  0.33461908435E+02  0.00000000000E+00 0. -1.
         23    2    1    2    0    0 -0.38359729457E+02 -0.11678759075E+03  0.21171778097E+03  0.26096065702E+03  0.90361692863E+02 0.  0.
          5    1    1    2  502    0  0.54449770437E+02  0.10742431241E+03  0.41166215322E+03  0.42893817875E+03  0.41800000000E+01 0. -1.
         -5    1    1    2    0  502 -0.16090040979E+02  0.93632783393E+01  0.44931478137E+03  0.44971969665E+03  0.41800000000E+01 0. -1.
        -11    1    3    3    0    0 -0.51727101497E+02 -0.61924133458E+02  0.17738636360E+03  0.19487486581E+03  0.00000000000E+00 0.  1.
         11    1    3    3    0    0  0.13367372039E+02 -0.54863457296E+02  0.34331417375E+02  0.66085791216E+02  0.00000000000E+00 0. -1.
</event>
<event>
 7    1  0.5137842E-006  0.1485256E+03  0.7561462E-02  0.1202297E+00
         -1   -1    0    0    0  501 -0.00000000000E+00  0.00000000000E+00  0.26790790078E+03  0.26790790078E+03  0.00000000000E+00 0.  1.
          1   -1    0    0  501    0  0.00000000000E+00 -0.00000000000E+00 -0.12342232173E+03  0.12342232173E+03  0.00000000000E+00 0. -1.
         23    2    1    2    0    0  0.63841529134E+02 -0.94049927231E+02 -0.61813370874E+01  0.14577289315E+03  0.91051621591E+02 0.  0.
          5    1    1    2  502    0  0.19651141762E+02 -0.78164091324E+01 -0.20359182020E+02  0.29651851827E+02  0.41800000000E+01 0. -1.
         -5    1    1    2    0  502 -0.83492670896E+02  0.10186633636E+03  0.17102609816E+03  0.21590547753E+03  0.41800000000E+01 0.  1.
        -11    1    3    3    0    0  0.11959331515E+02  0.17208069130E+02 -0.94066881367E+01  0.22970177082E+02  0.00000000000E+00 0.  1.
         11    1    3    3    0    0  0.51882197619E+02 -0.11125799636E+03  0.32253510494E+01  0.12280271607E+03  0.00000000000E+00 0. -1.
</event>
<event>
 7    1  0.5137842E-006  0.1764944E+03  0.7561462E-02  0.1171240E+00
         -2   -1    0    0    0  501 -0.00000000000E+00  0.00000000000E+00  0.30024230152E+03  0.30024230152E+03  0.00000000000E+00 0.  1.
          2   -1    0    0  501    0  0.00000000000E+00 -0.00000000000E+00 -0.13910804355E+03  0.13910804355E+03  0.00000000000E+00 0. -1.
         23    2    1    2    0    0 -0.39846385825E+02  0.14876138642E+03 -0.11933652528E+02  0.17853273965E+03  0.89520067657E+02 0.  0.
          5    1    1    2  502    0 -0.22803057544E+02 -0.84487187188E+02  0.13983974883E+03  0.16501724754E+03  0.41800000000E+01 0.  1.
         -5    1    1    2    0  502  0.62649443369E+02 -0.64274199230E+02  0.33228161663E+02  0.95800357873E+02  0.41800000000E+01 0.  1.
        -11    1    3    3    0    0 -0.56213697842E+02  0.49431896033E+02  0.99436800454E+01  0.75514031433E+02  0.00000000000E+00 0.  1.
         11    1    3    3    0    0  0.16367312017E+02  0.99329490386E+02 -0.21877332573E+02  0.10301870822E+03  0.00000000000E+00 0. -1.
</event>
<event>
 7    1  0.5137842E-006  0.8214767E+02  0.7561462E-02  0.1323065E+00
         -2   -1    0    0    0  501 -0.00000000000E+00  0.00000000000E+00  0.16832936868E+02  0.16832936868E+02  0.00000000000E+00 0. -1.
          2   -1    0    0  501    0  0.00000000000E+00 -0.00000000000E+00 -0.79059802446E+03  0.79059802446E+03  0.00000000000E+00 0.  1.
         23    2    1    2    0    0 -0.30132535347E+02 -0.13451856318E+01 -0.37422845240E+03  0.38768201724E+03  0.96646948711E+02 0.  0.
          5    1    1    2  502    0  0.46583522776E+02  0.53003857648E+00 -0.40002340630E+03  0.40274868531E+03  0.41800000000E+01 0. -1.
         -5    1    1    2    0  502 -0.16450987428E+02  0.81514705527E+00  0.48677111128E+00  0.17000258769E+02  0.41800000000E+01 0. -1.
        -11    1    3    3    0    0  0.33829941926E+02  0.10617230779E+02 -0.15477439575E+03  0.15878382833E+03  0.00000000000E+00 0.  1.
         11    1    3    3    0    0 -0.63962477273E+02 -0.11962416411E+02 -0.21945405665E+03  0.22889818891E+03  0.00000000000E+00 0. -1.
</event>
<event>
 7    1  0.5137842E-006  0.9094151E+02  0.7561462E-02  0.1300588E+00
         -3   -1    0    0    0  501 -0.00000000000E+00  0.00000000000E+00  0.10030497780E+04  0.10030497780E+04  0.00000000000E+00 0.  1.
          3   -1    0    0  501    0  0.00000000000E+00 -0.00000000000E+00 -0.16132286130E+02  0.16132286130E+02  0.00000000000E+00 0. -1.
         23    2    1    2    0    0  0.34104807042E+02 -0.45608362979E+02  0.29661856807E+03  0.31533321219E+03  0.90604630939E+02 0.  0.
          5    1    1    2  502    0 -0.41267415386E+02  0.28368173834E+01  0.65814257605E+02  0.77846233111E+02  0.41800000000E+01 0. -1.
         -5    1    1    2    0  502  0.71626083446E+01  0.42771545595E+02  0.62448466618E+03  0.62600261882E+03  0.41800000000E+01 0. -1.
        -11    1    3    3    0    0  0.55509227603E+02 -0.50206965450E+02  0.27323392000E+03  0.28329982134E+03  0.00000000000E+00 0. -1.
         11    1    3    3    0    0 -0.21404420562E+02  0.45986024713E+01  0.23384648071E+02  0.32033390855E+02  0.00000000000E+00 0.  1.
</event>
<event>
 7    1  0.5137842E-006  0.1196747E+03  0.7561462E-02  0.1243635E+00
         -1   -1    0    0    0  501 -0.00000000000E+00  0.00000000000E+00  0.44229084638E+02  0.44229084638E+02  0.00000000000E+00 0.  1.
          1   -1    0    0  501    0  0.00000000000E+00 -0.00000000000E+00 -0.45318959586E+03  0.45318959586E+03  0.00000000000E+00 0. -1.
         23    2    1    2    0    0  0.50112208374E+02 -0.42567979341E+02 -0.29258220006E+03  0.31433164106E+03  0.94216614703E+02 0.  0.
          5    1    1    2  502    0 -0.87825875116E+02  0.32281823860E+02 -0.10787560058E+03  0.14286398459E+03  0.41800000000E+01 0.  1.
         -5    1    1    2    0  502  0.37713666742E+02  0.10286155481E+02 -0.85027105717E+01  0.40223054841E+02  0.41800000000E+01 0.  1.
        -11    1    3    3    0    0 -0.16229463208E+02 -0.36264835262E+02 -0.56825170170E+02  0.69337102027E+02  0.00000000000E+00 0.  1.
         11    1    3    3    0    0  0.66341671583E+02 -0.63031440796E+01 -0.23575702989E+03  0.24499453904E+03  0.00000000000E+00 0. -1.
</event>
<event>
 7    1  0.5137842E-006  0.1436399E+03  0.7561462E-02  0.1208513E+00
         -1   -1    0    0    0  501 -0.00000000000E+00  0.00000000000E+00  0.44999542728E+02  0.44999542728E+02  0.00000000000E+00 0.  1.
          1   -1    0    0  501    0  0.00000000000E+00 -0.00000000000E+00 -0.49196043417E+03  0.49196043417E+03  0.00000000000E+00 0. -1.
         23    2    1    2    0    0 -0.77540974409E+02 -0.63465834005E+02 -0.23682190207E+03  0.27267366589E+03  0.90696196017E+02 0.  0.
          5    1    1    2  502    0  0.10479586515E+03  0.73350549985E+02 -0.14849975960E+03  0.19604113736E+03  0.41800000000E+01 0.  1.
         -5    1    1    2    0  502 -0.27254890743E+02 -0.98847159794E+01 -0.61639229772E+02  0.68245173648E+02  0.41800000000E+01 0.  1.
        -11    1    3    3    0    0 -0.77680772620E+02 -0.81139532667E+02 -0.22478729635E+03  0.25129117532E+03  0.00000000000E+00 0. -1.
         11    1    3    3    0    0  0.13979821093E+00  0.17673698662E+02 -0.12034605719E+02  0.21382490565E+02  0.00000000000E+00 0.  1.
</event>
<event>
 7    1  0.5137842E-006  0.1081470E+03  0.7561462E-02  0.1264040E+00
         -1   -1    0    0    0  501 -0.00000000000E+00  0.00000000000E+00  0.60471686373E+02  0.60471686373E+02  0.00000000000E+00 0.  1.
          1   -1    0    0  501    0  0.00000000000E+00 -0.00000000000E+00 -0.41912402565E+03  0.41912402565E+03  0.00000000000E+00 0. -1.
         23    2    1    2    0    0 -0.41675927881E+02  0.86730728586E+01 -0.28874879019E+03  0.30602941348E+03  0.92011047834E+02 0.  0.
          5    1    1    2  502    0  0.36778258063E+02 -0.72745219350E+02 -0.72426748579E+02  0.10912201205E+03  0.41800000000E+01 0. -1.
         -5    1    1    2    0  502  0.48976698172E+01  0.64072146492E+02  0.25231994889E+01  0.64444286491E+02  0.41800000000E+01 0.  1.
        -11    1    3    3    0    0 -0.53387448562E+02  0.16862817570E+02 -0.28606039937E+03  0.29148778083E+03  0.00000000000E+00 0.  1.
         11    1    3    3    0    0  0.11711520681E+02 -0.81897447109E+01 -0.26883908112E+01  0.14541632654E+02  0.00000000000E+00 0. -1.
</event>
<event>
 7    1  0.5137842E-006  0.1177736E+03  0.7561462E-02  0.1246816E+00
          1   -1    0    0  501    0  0.00000000000E+00  0.00000000000E+00  0.24564023598E+03  0.24564023598E+03  0.00000000000E+00 0. -1.
         -1   -1    0    0    0  501 -0.00000000000E+00 -0.00000000000E+00 -0.69969839418E+02  0.69969839418E+02  0.00000000000E+00 0.  1.
         23    2    1    2    0    0  0.79228688502E+02 -0.24601451681E+01  0.74166832644E+02  0.13607539069E+03  0.82052151044E+02 0.  0.
          5    1    1    2  502    0 -0.22212153343E+02  0.61686059256E+02  0.42246709944E+02  0.78107660084E+02  0.41800000000E+01 0.  1.
         -5    1    1    2    0  502 -0.57016535159E+02 -0.59225914088E+02  0.59256853975E+02  0.10142702462E+03  0.41800000000E+01 0.  1.
        -11    1    3    3    0    0  0.57177905893E+02  0.15334648991E+02  0.27722142892E+01  0.59263391348E+02  0.00000000000E+00 0.  1.
         11    1    3    3    0    0  0.22050782609E+02 -0.17794794159E+02  0.71394618354E+02  0.76811999341E+02  0.00000000000E+00 0. -1.
</event>
<event>
 7    1  0.5137842E-006  0.7535245E+02  0.7561462E-02  0.1342783E+00
          3   -1    0    0  501    0  0.00000000000E+00  0.00000000000E+00  0.10128059441E+03  0.10128059441E+03  0.00000000000E+00 0. -1.
         -3   -1    0    0    0  501 -0.00000000000E+00 -0.00000000000E+00 -0.13216592791E+03  0.13216592791E+03  0.00000000000E+00 0.  1.
         23    2    1    2    0    0  0.29683098658E+02 -0.20060216683E+01  0.13277344984E+02  0.97493194331E+02  0.91888653175E+02 0.  0.
          5    1    1    2  502    0  0.30798746186E+02  0.32667369742E+02 -0.50522332660E+02  0.67717784295E+02  0.41800000000E+01 0.  1.
         -5    1    1    2    0  502 -0.60481844844E+02 -0.30661348074E+02  0.63596541740E+01  0.68235543690E+02  0.41800000000E+01 0.  1.
        -11    1    3    3    0    0  0.25194150956E+02 -0.11102223815E+02 -0.37046757529E+02  0.46156980615E+02  0.00000000000E+00 0.  1.
         11    1    3    3    0    0  0.44889477023E+01  0.90962021467E+01  0.50324102514E+02  0.51336213717E+02  0.00000000000E+00 0. -1.
</event>
<event>
 7    1  0.5137842E-006  0.1158135E+03  0.7561462E-02  0.1250168E+00
          2   -1    0    0  501    0  0.00000000000E+00  0.00000000000E+00  0.59992936796E+03  0.59992936796E+03  0.00000000000E+00 0. -1.
         -2   -1    0    0    0  501 -0.00000000000E+00 -0.00000000000E+00 -0.27641391935E+02  0.27641391935E+02  0.00000000000E+00 0.  1.
         23    2    1    2    0    0 -0.32311407064E+02  0.55329743315E+02  0.31004681923E+03  0.33004206550E+03  0.93238014592E+02 0.  0.
          5    1    1    2  502    0  0.39231932429E+02  0.29671891939E+02  0.58042205952E+02  0.76196691300E+02  0.41800000000E+01 0.  1.
         -5    1    1    2    0  502 -0.69205253650E+01 -0.85001635254E+02  0.20419895085E+03  0.22133200310E+03  0.41800000000E+01 0.  1.
        -11    1    3    3    0    0 -0.55844733183E+02  0.36240824671E+02  0.27831279985E+03  0.28616436913E+03  0.00000000000E+00 0. -1.
         11    1    3    3    0    0  0.23533326119E+02  0.19088918644E+02  0.31734019375E+02  0.43877696372E+02  0.00000000000E+00 0.  1.
</event>
<event>
 7    1  0.5137842E-006  0.1224833E+03  0.7561462E-02  0.1239056E+00
         -2   -1    0    0    0  501 -0.00000000000E+00  0.00000000000E+00  0.63856888958E+02  0.63856888958E+02  0.00000000000E+00 0.  1.
          2   -1    0    0  501    0  0.00000000000E+00 -0.00000000000E+00 -0.41124817960E+03  0.41124817960E+03  0.00000000000E+00 0. -1.
         23    2    1    2    0    0  0.45270379053E+02 -0.78813964990E+02 -0.27465834809E+03  0.30422900792E+03  0.94111810033E+02 0.  0.
          5    1    1    2  502    0 -0.81539686290E+02  0.83998874781E+02 -0.48704789443E+02  0.12686276175E+03  0.41800000000E+01 0.  1.
         -5    1    1    2    0  502  0.36269307237E+02 -0.51849097907E+01 -0.24028153108E+02  0.44013298885E+02  0.41800000000E+01 0.  1.
        -11    1    3    3    0    0  0.13638226427E+02 -0.26856420716E+02 -0.86271990865E+01  0.31332046181E+02  0.00000000000E+00 0.  1.
         11    1    3    3    0    0  0.31632152626E+02 -0.51957544273E+02 -0.26603114901E+03  0.27289696174E+03  0.00000000000E+00 0. -1.
</event>
<event>
 7    1  0.5137842E-006  0.1351087E+03  0.7561462E-02  0.1220066E+00
         -2   -1    0    0    0  501 -0.00000000000E+00  0.00000000000E+00  0.33244073476E+02  0.33244073476E+02  0.00000000000E+00 0.  1.
          2   -1    0    0  501    0  0.00000000000E+00 -0.00000000000E+00 -0.59836527967E+03  0.59836527967E+03  0.00000000000E+00 0. -1.
         23    2    1    2    0    0  0.40581024546E+02  0.80156594299E+02 -0.27669557291E+03  0.30463904876E+03  0.90402493331E+02 0.  0.
          5    1    1    2  502    0 -0.69803717174E+00 -0.10550843186E+03 -0.18129099126E+03  0.20980088742E+03  0.41800000000E+01 0. -1.
         -5    1    1    2    0  502 -0.39882987374E+02  0.25351837566E+02 -0.10713464203E+03  0.11716941697E+03  0.41800000000E+01 0. -1.
        -11    1    3    3    0    0  0.56361078977E+02  0.28479047228E+02 -0.87685366369E+02  0.10805716464E+03  0.00000000000E+00 0.  1.
         11    1    3    3    0    0 -0.15780054431E+02  0.51677547070E+02 -0.18901020654E+03  0.19658188413E+03  0.00000000000E+00 0. -1.
</event>
<event>
 7    1  0.5137842E-006  0.1052997E+03  0.7561462E-02  0.1269530E+00
          1   -1    0    0  501    0  0.00000000000E+00  0.00000000000E+00  0.75077368387E+02  0.75077368387E+02  0.00000000000E+00 0. -1.
         -1   -1    0    0    0  501 -0.00000000000E+00 -0.00000000000E+00 -0.23624774171E+03  0.23624774171E+03  0.00000000000E+00 0.  1.
         23    2    1    2    0    0  0.63272432723E+02  0.32097140097E+01 -0.19679546302E+02  0.11212582875E+03  0.90394767124E+02 0.  0.
          5    1    1    2  502    0 -0.24842669082E+02 -0.60797530186E+02 -0.95493730197E+02  0.11597423331E+03  0.41800000000E+01 0. -1.
         -5    1    1    2    0  502 -0.38429763641E+02  0.57587816177E+02 -0.45997096825E+02  0.83225048043E+02  0.41800000000E+01 0. -1.
        -11    1    3    3    0    0  0.19493999943E+02 -0.18224684727E+02 -0.48602370531E+02  0.55446781587E+02  0.00000000000E+00 0.  1.
         11    1    3    3    0    0  0.43778432780E+02  0.21434398736E+02  0.28922824229E+02  0.56679047162E+02  0.00000000000E+00 0. -1.
</event>
<event>
 7    1  0.5137842E-006  0.1151985E+03  0.7561462E-02  0.1251235E+00
          2   -1    0    0  501    0  0.00000000000E+00  0.00000000000E+00  0.72626078521E+03  0.72626078521E+03  0.00000000000E+00 0. -1.
         -2   -1    0    0    0  501 -0.00000000000E+00 -0.00000000000E+00 -0.23884502909E+02  0.23884502909E+02  0.00000000000E+00 0.  1.
         23    2    1    2    0    0  0.57777694849E+02 -0.10938641558E+02  0.44096892019E+03  0.45444453984E+03  0.92781115098E+02 0.  0.
          5    1    1    2  502    0 -0.69736887774E+02 -0.31375942022E+02  0.87545675772E+02  0.11631595334E+03  0.41800000000E+01 0. -1.
         -5    1    1    2    0  502  0.11959192925E+02  0.42314583580E+02  0.17386168634E+03  0.17938479494E+03  0.41800000000E+01 0. -1.
        -11    1    3    3    0    0  0.28636022659E+02 -0.51957066361E+02  0.25233427404E+03  0.25921447566E+03  0.00000000000E+00 0.  1.
         11    1    3    3    0    0  0.29141672190E+02  0.41018424803E+02  0.18863464615E+03  0.19523006418E+03  0.00000000000E+00 0. -1.
</event>
<event>
 7    1  0.5137842E-006  0.1139055E+03  0.7561462E-02  0.1253504E+00
          1   -1    0    0  501    0  0.00000000000E+00  0.00000000000E+00  0.10705945177E+03  0.10705945177E+03  0.00000000000E+00 0. -1.
         -1   -1    0    0    0  501 -0.00000000000E+00 -0.00000000000E+00 -0.22187302473E+03  0.22187302473E+03  0.00000000000E+00 0.  1.
         23    2    1    2    0    0 -0.65400421375E+02 -0.34167332863E+02  0.27103817898E+02  0.12589311660E+03  0.98335335015E+02 0.  0.
          5    1    1    2  502    0 -0.18099925635E+02 -0.83128475228E+01 -0.96903010728E+02  0.99017052218E+02  0.41800000000E+01 0.  1.
         -5    1    1    2    0  502  0.83500347010E+02  0.42480180386E+02 -0.45014380124E+02  0.10402230768E+03  0.41800000000E+01 0.  1.
        -11    1    3    3    0    0 -0.26814346300E+02  0.29103355465E+02 -0.12969336647E+02  0.41643945057E+02  0.00000000000E+00 0.  1.
         11    1    3    3    0    0 -0.38586075074E+02 -0.63270688328E+02  0.40073154545E+02  0.84249171547E+02  0.00000000000E+00 0. -1.
</event>
<event>
 7    1  0.5137842E-006  0.1005942E+03  0.7561462E-02  0.1279051E+00
         -4   -1    0    0    0  501 -0.00000000000E+00  0.00000000000E+00  0.85164327044E+03  0.85164327044E+03  0.00000000000E+00 0.  1.
          4   -1    0    0  501    0  0.00000000000E+00 -0.00000000000E+00 -0.24144419880E+02  0.24144419880E+02  0.00000000000E+00 0. -1.
         23    2    1    2    0    0  0.32032415686E+02  0.23967404129E+02  0.12220407481E+03  0.15837003481E+03  0.92448471654E+02 0.  0.
          5    1    1    2  502    0 -0.67018782937E+02 -0.51296308087E+02  0.39516957997E+03  0.40410307821E+03  0.41800000000E+01 0. -1.
         -5    1    1    2    0  502  0.34986367252E+02  0.27328903958E+02  0.31012519579E+03  0.31331457730E+03  0.41800000000E+01 0. -1.
        -11    1    3    3    0    0  0.46424950675E+02  0.28124969636E+01  0.12428151824E+03  0.13269921613E+03  0.00000000000E+00 0.  1.
         11    1    3    3    0    0 -0.14392534989E+02  0.21154907166E+02 -0.20774434357E+01  0.25670818683E+02  0.00000000000E+00 0. -1.
</event>
<event>
 7    1  0.5137842E-006  0.1236608E+03  0.7561462E-02  0.1237177E+00
         -2   -1    0    0    0  501 -0.00000000000E+00  0.00000000000E+00  0.32116520575E+03  0.32116520575E+03  0.00000000000E+00 0.  1.
          2   -1    0    0  501    0  0.00000000000E+00 -0.00000000000E+00 -0.53340035134E+02  0.53340035134E+02  0.00000000000E+00 0. -1.
         23    2    1    2    0    0  0.32030851068E+02 -0.61102356209E+02  0.84482851698E+02  0.14207830443E+03  0.91046246517E+02 0.  0.
          5    1    1    2  502    0  0.65944802529E+01 -0.31635373885E+02  0.88097949595E+02  0.93930853150E+02  0.41800000000E+01 0.  1.
         -5    1    1    2    0  502 -0.38625331321E+02  0.92737730094E+02  0.95244369327E+02  0.13849608331E+03  0.41800000000E+01 0.  1.
        -11    1    3    3    0    0  0.62770380346E+02 -0.53616546148E+02  0.59343298641E+02  0.10166848953E+03  0.00000000000E+00 0.  1.
         11    1    3    3    0    0 -0.30739529278E+02 -0.74858100606E+01  0.25139553058E+02  0.40409814902E+02  0.00000000000E+00 0. -1.
</event>
<event>
 7    1  0.5137842E-006  0.9771482E+02  0.7561462E-02  0.1285176E+00
         -2   -1    0    0    0  501 -0.00000000000E+00  0.00000000000E+00  0.14713202074E+03  0.14713202074E+03  0.00000000000E+00 0. -1.
          2   -1    0    0  501    0  0.00000000000E+00 -0.00000000000E+00 -0.11624026616E+03  0.11624026616E+03  0.00000000000E+00 0.  1.
         23    2    1    2    0    0  0.71721383121E+02  0.30682223067E+01  0.82480326646E+01  0.11738847383E+03  0.92512988059E+02 0.  0.
          5    1    1    2  502    0 -0.51180342210E+02  0.23610192757E+02 -0.43716851678E+02  0.71452810662E+02  0.41800000000E+01 0. -1.
         -5    1    1    2    0  502 -0.20541040910E+02 -0.26678415063E+02  0.66360573602E+02  0.74531002413E+02  0.41800000000E+01 0. -1.
        -11    1    3    3    0    0  0.47904240996E+02  0.39069427037E+02  0.30381122441E+02  0.68878509240E+02  0.00000000000E+00 0.  1.
         11    1    3    3    0    0  0.23817142125E+02 -0.36001204731E+02 -0.22133089777E+02  0.48509964586E+02  0.00000000000E+00 0. -1.
</event>
<event>
 7    1  0.5137842E-006  0.2931441E+03  0.7561462E-02  0.1088719E+00
         -2   -1    0    0    0  501 -0.00000000000E+00  0.00000000000E+00  0.17174688039E+04  0.17174688039E+04  0.00000000000E+00 0.  1.
          2   -1    0    0  501    0  0.00000000000E+00 -0.00000000000E+00 -0.51826137854E+02  0.51826137854E+02  0.00000000000E+00 0. -1.
         23    2    1    2    0    0 -0.46274933254E+02 -0.27126722788E+03  0.70408133836E+03  0.76133828069E+03  0.90433225346E+02 0.  0.
          5    1    1    2  502    0  0.73217311990E+02  0.25925781768E+03  0.90167626583E+03  0.94107010980E+03  0.41800000000E+01 0. -1.
         -5    1    1    2    0  502 -0.26942378737E+02  0.12009410205E+02  0.59885061815E+02  0.66886551220E+02  0.41800000000E+01 0. -1.
        -11    1    3    3    0    0  0.23365890558E+02 -0.86800796168E+02  0.27008869312E+03  0.28465460687E+03  0.00000000000E+00 0.  1.
         11    1    3    3    0    0 -0.69640823812E+02 -0.18446643172E+03  0.43399264524E+03  0.47668367383E+03  0.00000000000E+00 0. -1.
</event>
<event>
 7    1  0.5137842E-006  0.1018873E+03  0.7561462E-02  0.1276377E+00
         -2   -1    0    0    0  501 -0.00000000000E+00  0.00000000000E+00  0.56172075629E+02  0.56172075629E+02  0.00000000000E+00 0.  1.
          2   -1    0    0  501    0  0.00000000000E+00 -0.00000000000E+00 -0.29494424968E+03  0.29494424968E+03  0.00000000000E+00 0. -1.
         23    2    1    2    0    0  0.46281785543E+02 -0.43491796580E+02 -0.13709642619E+03  0.17785790880E+03  0.93832113933E+02 0.  0.
          5    1    1    2  502    0 -0.52572148833E+02 -0.33763393155E+02 -0.43251585217E+02  0.76104990468E+02  0.41800000000E+01 0. -1.
         -5    1    1    2    0  502  0.62903632909E+01  0.77255189735E+02 -0.58424162646E+02  0.97153426045E+02  0.41800000000E+01 0. -1.
        -11    1    3    3    0    0  0.92044100935E+01 -0.95575180081E+01  0.13599861780E+02  0.19000619887E+02  0.00000000000E+00 0.  1.
         11    1    3    3    0    0  0.37077375449E+02 -0.33934278572E+02 -0.15069628797E+03  0.15885728891E+03  0.00000000000E+00 0. -1.
</event>
<event>
 7    1  0.5137842E-006  0.1017419E+03  0.7561462E-02  0.1276675E+00
         -1   -1    0    0    0  501 -0.00000000000E+00  0.00000000000E+00  0.44603204566E+02  0.44603204566E+02  0.00000000000E+00 0.  1.
          1   -1    0    0  501    0  0.00000000000E+00 -0.00000000000E+00 -0.28205294101E+03  0.28205294101E+03  0.00000000000E+00 0. -1.
         23    2    1    2    0    0 -0.58600434524E+01 -0.24660745513E+02 -0.11246819160E+03  0.14802372518E+03  0.92840921021E+02 0.  0.
          5    1    1    2  502    0 -0.50139176571E+02  0.20560984515E+02 -0.10616091789E+03  0.11926568659E+03  0.41800000000E+01 0.  1.
         -5    1    1    2    0  502  0.55999220023E+02  0.40997609982E+01 -0.18820626957E+02  0.59366733803E+02  0.41800000000E+01 0.  1.
        -11    1    3    3    0    0 -0.10650987056E+02 -0.58088948889E+02 -0.89332014987E+02  0.10708864744E+03  0.00000000000E+00 0. -1.
         11    1    3    3    0    0  0.47909436039E+01  0.33428203376E+02 -0.23136176612E+02  0.40935077743E+02  0.00000000000E+00 0.  1.
</event>
<event>
 7    1  0.5137842E-006  0.1371996E+03  0.7561462E-02  0.1217148E+00
         -1   -1    0    0    0  501 -0.00000000000E+00  0.00000000000E+00  0.56903714161E+02  0.56903714161E+02  0.00000000000E+00 0.  1.
          1   -1    0    0  501    0  0.00000000000E+00 -0.00000000000E+00 -0.63022437742E+03  0.63022437742E+03  0.00000000000E+00 0. -1.
         23    2    1    2    0    0  0.19034991909E+02  0.11443869438E+03 -0.45805323348E+03  0.48123203170E+03  0.91175424042E+02 0.  0.
          5    1    1    2  502    0 -0.61921062425E+02 -0.83615549439E+02 -0.11183211193E+03  0.15280599379E+03  0.41800000000E+01 0. -1.
         -5    1    1    2    0  502  0.42886070515E+02 -0.30823144939E+02 -0.34353178477E+01  0.53090066085E+02  0.41800000000E+01 0. -1.
        -11    1    3    3    0    0 -0.21880001701E+01  0.34884949643E+02 -0.32306482585E+02  0.47596805285E+02  0.00000000000E+00 0.  1.
         11    1    3    3    0    0  0.21222992079E+02  0.79553744735E+02 -0.42574675089E+03  0.43363522642E+03  0.00000000000E+00 0. -1.
</event>
<event>
 7    1  0.5137842E-006  0.1685072E+03  0.7561462E-02  0.1179414E+00
         -1   -1    0    0    0  501 -0.00000000000E+00  0.00000000000E+00  0.25172073842E+02  0.25172073842E+02  0.00000000000E+00 0.  1.
          1   -1    0    0  501    0  0.00000000000E+00 -0.00000000000E+00 -0.12750609367E+04  0.12750609367E+04  0.00000000000E+00 0. -1.
         23    2    1    2    0    0  0.12308856702E+03  0.70551430796E+02 -0.55205635651E+03  0.57722109648E+03  0.91047645450E+02 0.  0.
          5    1    1    2  502    0  0.79865030079E+01  0.14354958118E+02 -0.21203720858E+03  0.21271365559E+03  0.41800000000E+01 0. -1.
         -5    1    1    2    0  502 -0.13107507003E+03 -0.84906388914E+02 -0.48579529776E+03  0.51029825846E+03  0.41800000000E+01 0. -1.
        -11    1    3    3    0    0  0.11549222928E+03  0.25663049678E+02 -0.45315344781E+03  0.46834292394E+03  0.00000000000E+00 0. -1.
         11    1    3    3    0    0  0.75963377374E+01  0.44888381119E+02 -0.98902908696E+02  0.10887817254E+03  0.00000000000E+00 0.  1.
</event>
<event>
 7    1  0.5137842E-006  0.1622136E+03  0.7561462E-02  0.1186220E+00
          1   -1    0    0  501    0  0.00000000000E+00  0.00000000000E+00  0.14466534990E+03  0.14466534990E+03  0.00000000000E+00 0. -1.
         -1   -1    0    0    0  501 -0.00000000000E+00 -0.00000000000E+00 -0.27416617106E+03  0.27416617106E+03  0.00000000000E+00 0.  1.
         23    2    1    2    0    0 -0.52484572771E+02 -0.14303506471E+03  0.80022171116E+01  0.17847884026E+03  0.92612098703E+02 0.  0.
          5    1    1    2  502    0  0.60465001614E+02  0.10927996555E+03 -0.31685420759E+02  0.12891689408E+03  0.41800000000E+01 0.  1.
         -5    1    1    2    0  502 -0.79804288428E+01  0.33755099160E+02 -0.10581761751E+03  0.11143578662E+03  0.41800000000E+01 0.  1.
        -11    1    3    3    0    0 -0.93959198896E+01 -0.10956576209E+03 -0.27538735203E+02  0.11336366909E+03  0.00000000000E+00 0. -1.
         11    1    3    3    0    0 -0.43088652881E+02 -0.33469302621E+02  0.35540952315E+02  0.65115171170E+02  0.00000000000E+00 0.  1.
</event>
<event>
 7    1  0.5137842E-006  0.1073552E+03  0.7561462E-02  0.1265548E+00
         -1   -1    0    0    0  501 -0.00000000000E+00  0.00000000000E+00  0.68494769885E+02  0.68494769885E+02  0.00000000000E+00 0.  1.
          1   -1    0    0  501    0  0.00000000000E+00 -0.00000000000E+00 -0.28673870634E+03  0.28673870634E+03  0.00000000000E+00 0. -1.
         23    2    1    2    0    0  0.44246188976E+02 -0.60459903083E+02 -0.15757101251E+03  0.19730632758E+03  0.92130547595E+02 0.  0.
          5    1    1    2  502    0  0.17193417893E+02  0.67975791035E+02 -0.65048382460E+02  0.95734456944E+02  0.41800000000E+01 0.  1.
         -5    1    1    2    0  502 -0.61439606869E+02 -0.75158879519E+01  0.43754585130E+01  0.62192691702E+02  0.41800000000E+01 0.  1.
        -11    1    3    3    0    0  0.23644959301E+02 -0.62775207787E+01  0.47716768154E+01  0.24925093121E+02  0.00000000000E+00 0.  1.
         11    1    3    3    0    0  0.20601229675E+02 -0.54182382304E+02 -0.16234268932E+03  0.17238123446E+03  0.00000000000E+00 0. -1.
</event>
<event>
 7    1  0.5137842E-006  0.2234634E+03  0.7561462E-02  0.1131327E+00
         -2   -1    0    0    0  501 -0.00000000000E+00  0.00000000000E+00  0.81881246193E+02  0.81881246193E+02  0.00000000000E+00 0.  1.
          2   -1    0    0  501    0  0.00000000000E+00 -0.00000000000E+00 -0.62394648589E+03  0.62394648589E+03  0.00000000000E+00 0. -1.
         23    2    1    2    0    0  0.63035079909E+02 -0.18491511690E+03 -0.30812165265E+03  0.37636773204E+03  0.92448337604E+02 0.  0.
          5    1    1    2  502    0  0.24034797169E+02 -0.25840245645E+01 -0.17576362927E+02  0.30178628062E+02  0.41800000000E+01 0. -1.
         -5    1    1    2    0  502 -0.87069877079E+02  0.18749914147E+03 -0.21636722412E+03  0.29928137199E+03  0.41800000000E+01 0. -1.
        -11    1    3    3    0    0 -0.72778592025E+01 -0.11907228127E+03 -0.15753879981E+03  0.19760983996E+03  0.00000000000E+00 0. -1.
         11    1    3    3    0    0  0.70312939112E+02 -0.65842835631E+02 -0.15058285284E+03  0.17875789208E+03  0.00000000000E+00 0.  1.
</event>
<event>
 7    1  0.5137842E-006  0.6875796E+02  0.7561462E-02  0.1364368E+00
          2   -1    0    0  501    0  0.00000000000E+00  0.00000000000E+00  0.13573290820E+03  0.13573290820E+03  0.00000000000E+00 0. -1.
         -2   -1    0    0    0  501 -0.00000000000E+00 -0.00000000000E+00 -0.10916666172E+03  0.10916666172E+03  0.00000000000E+00 0.  1.
         23    2    1    2    0    0 -0.13620201075E+00 -0.30783214426E+02  0.56415628551E+02  0.11266471901E+03  0.92536430247E+02 0.  0.
          5    1    1    2  502    0  0.19451369182E+02  0.12269621678E+02 -0.75566768964E+02  0.79099357462E+02  0.41800000000E+01 0. -1.
         -5    1    1    2    0  502 -0.19315167171E+02  0.18513592747E+02  0.45717386892E+02  0.53135493444E+02  0.41800000000E+01 0. -1.
        -11    1    3    3    0    0 -0.40709110905E+02 -0.12724310674E+02  0.23755368031E+01  0.42717478483E+02  0.00000000000E+00 0.  1.
         11    1    3    3    0    0  0.40572908894E+02 -0.18058903752E+02  0.54040091748E+02  0.69947240524E+02  0.00000000000E+00 0. -1.
</event>
<event>
 7    1  0.5137842E-006  0.1456881E+03  0.7561462E-02  0.1205874E+00
         -1   -1    0    0    0  501 -0.00000000000E+00  0.00000000000E+00  0.18059261766E+03  0.18059261766E+03  0.00000000000E+00 0.  1.
          1   -1    0    0  501    0  0.00000000000E+00 -0.00000000000E+00 -0.15143169715E+03  0.15143169715E+03  0.00000000000E+00 0. -1.
         23    2    1    2    0    0  0.11238190491E+03 -0.13906357007E+02 -0.39404476011E+02  0.14989269970E+03  0.89955707864E+02 0.  0.
          5    1    1    2  502    0 -0.71121254012E+02  0.57249446455E+02  0.49043566598E+00  0.91397181679E+02  0.41800000000E+01 0. -1.
         -5    1    1    2    0  502 -0.41260650896E+02 -0.43343089448E+02  0.68074960859E+02  0.90734433438E+02  0.41800000000E+01 0. -1.
        -11    1    3    3    0    0  0.12167181769E+02 -0.35457249249E+02 -0.27928088603E+02  0.46746496869E+02  0.00000000000E+00 0.  1.
         11    1    3    3    0    0  0.10021472314E+03  0.21550892242E+02 -0.11476387408E+02  0.10314620283E+03  0.00000000000E+00 0. -1.
</event>
<event>
 7    1  0.5137842E-006  0.9780601E+02  0.7561462E-02  0.1284978E+00
         -1   -1    0    0    0  501 -0.00000000000E+00  0.00000000000E+00  0.34558933559E+02  0.34558933559E+02  0.00000000000E+00 0.  1.
          1   -1    0    0  501    0  0.00000000000E+00 -0.00000000000E+00 -0.41326386725E+03  0.41326386725E+03  0.00000000000E+00 0. -1.
         23    2    1    2    0    0  0.26297824708E+02 -0.28223309678E+02 -0.22307704172E+03  0.24446297850E+03  0.92253187032E+02 0.  0.
          5    1    1    2  502    0 -0.43404372059E+02 -0.17310343423E+02 -0.76480531305E+01  0.47534751708E+02  0.41800000000E+01 0.  1.
         -5    1    1    2    0  502  0.17106547351E+02  0.45533653102E+02 -0.14797983884E+03  0.15582507061E+03  0.41800000000E+01 0.  1.
        -11    1    3    3    0    0 -0.34461564623E+02 -0.49647533937E+01 -0.72195713826E+02  0.80152787271E+02  0.00000000000E+00 0.  1.
         11    1    3    3    0    0  0.60759389330E+02 -0.23258556285E+02 -0.15088132790E+03  0.16431019123E+03  0.00000000000E+00 0. -1.
</event>
<event>
 7    1  0.5137842E-006  0.1162532E+03  0.7561462E-02  0.1249409E+00
         -1   -1    0    0    0  501 -0.00000000000E+00  0.00000000000E+00  0.17201865227E+03  0.17201865227E+03  0.00000000000E+00 0.  1.
          1   -1    0    0  501    0  0.00000000000E+00 -0.00000000000E+00 -0.20700515040E+03  0.20700515040E+03  0.00000000000E+00 0. -1.
         23    2    1    2    0    0 -0.34979452138E+02  0.51675644343E+02 -0.15735310597E+03  0.19324342263E+03  0.93215267754E+02 0.  0.
          5    1    1    2  502    0 -0.38046457587E+02 -0.12449891935E+02  0.29562289840E+01  0.40357706004E+02  0.41800000000E+01 0.  1.
         -5    1    1    2    0  502  0.73025909725E+02 -0.39225752408E+02  0.11941037886E+03  0.14542267403E+03  0.41800000000E+01 0.  1.
        -11    1    3    3    0    0  0.20170081113E+02  0.50186349772E+02 -0.99825978411E+02  0.11353734118E+03  0.00000000000E+00 0. -1.
         11    1    3    3    0    0 -0.55149533251E+02  0.14892945705E+01 -0.57527127560E+02  0.79706081458E+02  0.00000000000E+00 0.  1.
</event>
<event>
 7    1  0.5137842E-006  0.1117221E+03  0.7561462E-02  0.1257414E+00
          2   -1    0    0  501    0  0.00000000000E+00  0.00000000000E+00  0.25113434096E+03  0.25113434096E+03  0.00000000000E+00 0. -1.
         -2   -1    0    0    0  501 -0.00000000000E+00 -0.00000000000E+00 -0.82943398678E+02  0.82943398678E+02  0.00000000000E+00 0.  1.
         23    2    1    2    0    0 -0.83754275920E+02 -0.21479180265E+02  0.12112130633E+03  0.17489529069E+03  0.91879583902E+02 0.  0.
          5    1    1    2  502    0  0.19016244869E+02 -0.14739408415E+02 -0.38666478649E+02  0.45732228247E+02  0.41800000000E+01 0.  1.
         -5    1    1    2    0  502  0.64738031052E+02  0.36218588681E+02  0.85736114602E+02  0.11345022070E+03  0.41800000000E+01 0.  1.
        -11    1    3    3    0    0 -0.38159749847E+02 -0.55839905845E+02  0.78695598373E+02  0.10376540270E+03  0.00000000000E+00 0. -1.
         11    1    3    3    0    0 -0.45594526073E+02  0.34360725580E+02  0.42425707957E+02  0.71129887993E+02  0.00000000000E+00 0.  1.
</event>
<event>
 7    1  0.5137842E-006  0.6833794E+02  0.7561462E-02  0.1365838E+00
         -1   -1    0    0    0  501 -0.00000000000E+00  0.00000000000E+00  0.28050322389E+02  0.28050322389E+02  0.00000000000E+00 0.  1.
          1   -1    0    0  501    0  0.00000000000E+00 -0.00000000000E+00 -0.45390511261E+03  0.45390511261E+03  0.00000000000E+00 0. -1.
         23    2    1    2    0    0 -0.99735012339E-01  0.73635299434E+01 -0.24822792680E+03  0.26457713625E+03  0.91267331835E+02 0.  0.
          5    1    1    2  502    0  0.30751993813E+02  0.63820689996E+01  0.46154080960E+01  0.32018593350E+02  0.41800000000E+01 0. -1.
         -5    1    1    2    0  502 -0.30652258801E+02 -0.13745598943E+02 -0.18224227152E+03  0.18535970540E+03  0.41800000000E+01 0. -1.
        -11    1    3    3    0    0  0.98344227328E+01 -0.30472940905E+02 -0.33603148577E+02  0.46416458204E+02  0.00000000000E+00 0.  1.
         11    1    3    3    0    0 -0.99341577451E+01  0.37836470849E+02 -0.21462477822E+03  0.21816067804E+03  0.00000000000E+00 0. -1.
</event>
<event>
 7    1  0.5137842E-006  0.1541995E+03  0.7561462E-02  0.1195406E+00
          1   -1    0    0  501    0  0.00000000000E+00  0.00000000000E+00  0.88539417022E+03  0.88539417022E+03  0.00000000000E+00 0. -1.
         -1   -1    0    0    0  501 -0.00000000000E+00 -0.00000000000E+00 -0.35228574145E+02  0.35228574145E+02  0.00000000000E+00 0.  1.
         23    2    1    2    0    0 -0.32404203100E+01 -0.13761191062E+03  0.40057184305E+03  0.43402970831E+03  0.94744118441E+02 0.  0.
          5    1    1    2  502    0 -0.22478577622E+02  0.51579815928E+01  0.79044850342E+01  0.24735490892E+02  0.41800000000E+01 0. -1.
         -5    1    1    2    0  502  0.25718997932E+02  0.13245392903E+03  0.44168926799E+03  0.46185754517E+03  0.41800000000E+01 0. -1.
        -11    1    3    3    0    0 -0.31342650002E+02 -0.66963447582E+02  0.10230888111E+03  0.12622825427E+03  0.00000000000E+00 0. -1.
         11    1    3    3    0    0  0.28102229692E+02 -0.70648463038E+02  0.29826296194E+03  0.30780145404E+03  0.00000000000E+00 0.  1.
</event>
<event>
 7    1  0.5137842E-006  0.2542086E+03  0.7561462E-02  0.1110674E+00
         -1   -1    0    0    0  501 -0.00000000000E+00  0.00000000000E+00  0.53325069913E+02  0.53325069913E+02  0.00000000000E+00 0.  1.
          1   -1    0    0  501    0  0.00000000000E+00 -0.00000000000E+00 -0.13565344807E+04  0.13565344807E+04  0.00000000000E+00 0. -1.
         23    2    1    2    0    0 -0.93341797361E+02 -0.22606699148E+03 -0.72183725224E+03  0.76685788416E+03  0.84870607460E+02 0.  0.
          5    1    1    2  502    0 -0.51935247142E+01  0.29502208124E+02 -0.20395720155E+03  0.20618769470E+03  0.41800000000E+01 0. -1.
         -5    1    1    2    0  502  0.98535322075E+02  0.19656478335E+03 -0.37741495701E+03  0.43681397176E+03  0.41800000000E+01 0. -1.
        -11    1    3    3    0    0  0.15035227895E+02 -0.16518503066E+02 -0.79048841968E+02  0.82144010359E+02  0.00000000000E+00 0.  1.
         11    1    3    3    0    0 -0.10837702526E+03 -0.20954848841E+03 -0.64278841027E+03  0.68471387380E+03  0.00000000000E+00 0. -1.
</event>
<event>
 7    1  0.5137842E-006  0.1373097E+03  0.7561462E-02  0.1216996E+00
         -2   -1    0    0    0  501 -0.00000000000E+00  0.00000000000E+00  0.68994021885E+02  0.68994021885E+02  0.00000000000E+00 0.  1.
          2   -1    0    0  501    0  0.00000000000E+00 -0.00000000000E+00 -0.31560963917E+03  0.31560963917E+03  0.00000000000E+00 0. -1.
         23    2    1    2    0    0  0.73006750656E+01 -0.85845189486E+02 -0.14168832861E+03  0.18732763562E+03  0.87139911576E+02 0.  0.
          5    1    1    2  502    0 -0.23798256335E+01  0.12458514477E+03 -0.95054125313E+02  0.15677972129E+03  0.41800000000E+01 0. -1.
         -5    1    1    2    0  502 -0.49208494321E+01 -0.38739955284E+02 -0.98731633572E+01  0.40496304142E+02  0.41800000000E+01 0.  1.
        -11    1    3    3    0    0  0.21306480101E+02 -0.92669353004E+02 -0.81751149200E+02  0.12539866617E+03  0.00000000000E+00 0.  1.
         11    1    3    3    0    0 -0.14005805036E+02  0.68241635189E+01 -0.59937179410E+02  0.61928969458E+02  0.00000000000E+00 0. -1.
</event>
<event>
 7    1  0.5137842E-006  0.1177691E+03  0.7561462E-02  0.1246823E+00
          1   -1    0    0  501    0  0.00000000000E+00  0.00000000000E+00  0.31234305197E+03  0.31234305197E+03  0.00000000000E+00 0. -1.
         -1   -1    0    0    0  501 -0.00000000000E+00 -0.00000000000E+00 -0.66420405011E+02  0.66420405011E+02  0.00000000000E+00 0.  1.
         23    2    1    2    0    0  0.60405962341E+02  0.68906209394E+02  0.79935353310E+02  0.15162456814E+03  0.90572639217E+02 0.  0.
          5    1    1    2  502    0  0.15852728404E+01 -0.39262113500E+02  0.15178911739E+03  0.15684844661E+03  0.41800000000E+01 0. -1.
         -5    1    1    2    0  502 -0.61991235181E+02 -0.29644095894E+02  0.14198176265E+02  0.70290442237E+02  0.41800000000E+01 0. -1.
        -11    1    3    3    0    0  0.65941647769E+02  0.84606049762E+01  0.29614718316E+02  0.72779903050E+02  0.00000000000E+00 0.  1.
         11    1    3    3    0    0 -0.55356854278E+01  0.60445604418E+02  0.50320634994E+02  0.78844665088E+02  0.00000000000E+00 0. -1.
</event>
<event>
 7    1  0.5137842E-006  0.1203573E+03  0.7561462E-02  0.1242509E+00
          2   -1    0    0  501    0  0.00000000000E+00  0.00000000000E+00  0.13695845346E+03  0.13695845346E+03  0.00000000000E+00 0. -1.
         -2   -1    0    0    0  501 -0.00000000000E+00 -0.00000000000E+00 -0.14697967899E+03  0.14697967899E+03  0.00000000000E+00 0.  1.
         23    2    1    2    0    0  0.68938606197E+02  0.19435766414E+02  0.44654299728E+02  0.12977400539E+03  0.98574872811E+02 0.  0.
          5    1    1    2  502    0 -0.94987032114E+02 -0.11919086095E+02 -0.32483085461E+01  0.95878176826E+02  0.41800000000E+01 0.  1.
         -5    1    1    2    0  502  0.26048425917E+02 -0.75166803192E+01 -0.51427216718E+02  0.58285950238E+02  0.41800000000E+01 0.  1.
        -11    1    3    3    0    0  0.51019573529E+02  0.56600323211E+02  0.45033582456E+02  0.88513371982E+02  0.00000000000E+00 0. -1.
         11    1    3    3    0    0  0.17919032667E+02 -0.37164556798E+02 -0.37928272784E+00  0.41260633406E+02  0.00000000000E+00 0.  1.
</event>
<event>
 7    1  0.5137842E-006  0.1048991E+03  0.7561462E-02  0.1270319E+00
          4   -1    0    0  501    0  0.00000000000E+00  0.00000000000E+00  0.80290279103E+02  0.80290279103E+02  0.00000000000E+00 0.  1.
         -4   -1    0    0    0  501 -0.00000000000E+00 -0.00000000000E+00 -0.20811517823E+03  0.20811517823E+03  0.00000000000E+00 0. -1.
         23    2    1    2    0    0 -0.24295093805E+02 -0.49541406740E+02 -0.74005345773E+01  0.10621281448E+03  0.90453255784E+02 0.  0.
          5    1    1    2  502    0  0.67997898515E+02 -0.30584049802E+01 -0.58945500162E+02  0.90139405549E+02  0.41800000000E+01 0.  1.
         -5    1    1    2    0  502 -0.43702804710E+02  0.52599811720E+02 -0.61478864387E+02  0.92053237307E+02  0.41800000000E+01 0.  1.
        -11    1    3    3    0    0 -0.25457944070E+02 -0.20027407369E+01 -0.40778802508E+02  0.48114744317E+02  0.00000000000E+00 0. -1.
         11    1    3    3    0    0  0.11628502652E+01 -0.47538666003E+02  0.33378267930E+02  0.58098070158E+02  0.00000000000E+00 0.  1.
</event>
<event>
 7    1  0.5137842E-006  0.1132381E+03  0.7561462E-02  0.1254688E+00
          1   -1    0    0  501    0  0.00000000000E+00  0.00000000000E+00  0.66307211332E+02  0.66307211332E+02  0.00000000000E+00 0.  1.
         -1   -1    0    0    0  501 -0.00000000000E+00 -0.00000000000E+00 -0.27733601239E+03  0.27733601239E+03  0.00000000000E+00 0. -1.
         23    2    1    2    0    0  0.75068436316E+02 -0.15528938089E+02 -0.75897205134E+02  0.14418073569E+03  0.95662326683E+02 0.  0.
          5    1    1    2  502    0 -0.10176034286E+03  0.22401267496E+02 -0.62288988949E+02  0.12146758707E+03  0.41800000000E+01 0.  1.
         -5    1    1    2    0  502  0.26691906540E+02 -0.68723294072E+01 -0.72842606971E+02  0.77994900965E+02  0.41800000000E+01 0.  1.
        -11    1    3    3    0    0 -0.14807471271E+01 -0.17676709894E+02  0.16463965165E+02  0.24201670059E+02  0.00000000000E+00 0.  1.
         11    1    3    3    0    0  0.76549183443E+02  0.21477718047E+01 -0.92361170299E+02  0.11997906563E+03  0.00000000000E+00 0. -1.
</event>
<event>
 7    1  0.5137842E-006  0.1199892E+03  0.7561462E-02  0.1243115E+00
          1   -1    0    0  501    0  0.00000000000E+00  0.00000000000E+00  0.72161168628E+03  0.72161168628E+03  0.00000000000E+00 0. -1.
         -1   -1    0    0    0  501 -0.00000000000E+00 -0.00000000000E+00 -0.23063192881E+02  0.23063192881E+02  0.00000000000E+00 0.  1.
         23    2    1    2    0    0  0.22503941861E+02 -0.66770282408E+02  0.33806129367E+03  0.35665074749E+03  0.89160638163E+02 0.  0.
          5    1    1    2  502    0 -0.36520870694E+02 -0.28011547987E+02  0.14428027768E+03  0.15150145790E+03  0.41800000000E+01 0. -1.
         -5    1    1    2    0  502  0.14016928833E+02  0.94781830396E+02  0.21620692205E+03  0.23652267377E+03  0.41800000000E+01 0. -1.
        -11    1    3    3    0    0 -0.18347958308E+02 -0.50772930548E+02  0.27228559139E+03  0.27758598907E+03  0.00000000000E+00 0.  1.
         11    1    3    3    0    0  0.40851900168E+02 -0.15997351860E+02  0.65775702283E+02  0.79064758425E+02  0.00000000000E+00 0. -1.
</event>
<event>
 7    1  0.5137842E-006  0.1579339E+03  0.7561462E-02  0.1191049E+00
         -1   -1    0    0    0  501 -0.00000000000E+00  0.00000000000E+00  0.30528199108E+03  0.30528199108E+03  0.00000000000E+00 0.  1.
          1   -1    0    0  501    0  0.00000000000E+00 -0.00000000000E+00 -0.18486339068E+03  0.18486339068E+03  0.00000000000E+00 0. -1.
         23    2    1    2    0    0  0.94712937752E+02  0.93593599738E+02 -0.11053763812E+03  0.19566472092E+03  0.91300663091E+02 0.  0.
          5    1    1    2  502    0 -0.67027576919E+02  0.15384450846E+02  0.10500841362E+03  0.12559306002E+03  0.41800000000E+01 0. -1.
         -5    1    1    2    0  502 -0.27685360833E+02 -0.10897805058E+03  0.12594782490E+03  0.16888760082E+03  0.41800000000E+01 0. -1.
        -11    1    3    3    0    0  0.63810008345E+02  0.74651111994E+02 -0.22919931360E+02  0.10084556976E+03  0.00000000000E+00 0.  1.
         11    1    3    3    0    0  0.30902929407E+02  0.18942487744E+02 -0.87617706762E+02  0.94819151157E+02  0.00000000000E+00 0. -1.
</event>
<event>
 7    1  0.5137842E-006  0.9004826E+02  0.7561462E-02  0.1302735E+00
         -1   -1    0    0    0  501 -0.00000000000E+00  0.00000000000E+00  0.49635556514E+03  0.49635556514E+03  0.00000000000E+00 0.  1.
          1   -1    0    0  501    0  0.00000000000E+00 -0.00000000000E+00 -0.35654571121E+02  0.35654571121E+02  0.00000000000E+00 0. -1.
         23    2    1    2    0    0 -0.48877358003E+02  0.18109315240E+02  0.90995813793E+02  0.13825072656E+03  0.90089299271E+02 0.  0.
          5    1    1    2  502    0  0.46381484367E+02 -0.37007247657E+02  0.63782815981E+02  0.87215242278E+02  0.41800000000E+01 0.  1.
         -5    1    1    2    0  502  0.24958736359E+01  0.18897932418E+02  0.30592236424E+03  0.30654416742E+03  0.41800000000E+01 0.  1.
        -11    1    3    3    0    0  0.12963246739E+02  0.34723901298E+02  0.49917553464E+02  0.62173605583E+02  0.00000000000E+00 0.  1.
         11    1    3    3    0    0 -0.61840604742E+02 -0.16614586059E+02  0.41078260328E+02  0.76077120978E+02  0.00000000000E+00 0. -1.
</event>
<event>
 7    1  0.5137842E-006  0.8623523E+02  0.7561462E-02  0.1312234E+00
         -1   -1    0    0    0  501 -0.00000000000E+00  0.00000000000E+00  0.64923658665E+03  0.64923658665E+03  0.00000000000E+00 0.  1.
          1   -1    0    0  501    0  0.00000000000E+00 -0.00000000000E+00 -0.26287972511E+02  0.26287972511E+02  0.00000000000E+00 0. -1.
         23    2    1    2    0    0  0.24278808504E+02  0.46407158067E+02  0.15527743188E+03  0.18858824359E+03  0.93334666153E+02 0.  0.
          5    1    1    2  502    0 -0.53351560063E+02 -0.27096675478E+02  0.43444740607E+03  0.43856885414E+03  0.41800000000E+01 0.  1.
         -5    1    1    2    0  502  0.29072751558E+02 -0.19310482589E+02  0.33223776186E+02  0.48367461429E+02  0.41800000000E+01 0.  1.
        -11    1    3    3    0    0 -0.18388587246E+02  0.84871850604E+01 -0.28692496078E+01  0.20454951588E+02  0.00000000000E+00 0. -1.
         11    1    3    3    0    0  0.42667395750E+02  0.37919973006E+02  0.15814668149E+03  0.16813329200E+03  0.00000000000E+00 0.  1.
</event>
<event>
 7    1  0.5137842E-006  0.1280276E+03  0.7561462E-02  0.1230412E+00
         -1   -1    0    0    0  501 -0.00000000000E+00  0.00000000000E+00  0.55337775007E+02  0.55337775007E+02  0.00000000000E+00 0.  1.
          1   -1    0    0  501    0  0.00000000000E+00 -0.00000000000E+00 -0.40529293558E+03  0.40529293558E+03  0.00000000000E+00 0. -1.
         23    2    1    2    0    0  0.71852914698E+02 -0.61856305154E+02 -0.22270222319E+03  0.25856611645E+03  0.90945656992E+02 0.  0.
          5    1    1    2  502    0  0.19484467826E+02 -0.13551031790E+02 -0.62559412001E+02  0.67040490593E+02  0.41800000000E+01 0.  1.
         -5    1    1    2    0  502 -0.91337382524E+02  0.75407336944E+02 -0.64693525386E+02  0.13502410355E+03  0.41800000000E+01 0.  1.
        -11    1    3    3    0    0 -0.20926854715E+01  0.10068512630E+02  0.27414069003E+01  0.10642818746E+02  0.00000000000E+00 0.  1.
         11    1    3    3    0    0  0.73945600170E+02 -0.71924817784E+02 -0.22544363009E+03  0.24792329771E+03  0.00000000000E+00 0. -1.
</event>
<event>
 7    1  0.5137842E-006  0.9261154E+02  0.7561462E-02  0.1296648E+00
         -2   -1    0    0    0  501 -0.00000000000E+00  0.00000000000E+00  0.68588398817E+02  0.68588398817E+02  0.00000000000E+00 0.  1.
          2   -1    0    0  501    0  0.00000000000E+00 -0.00000000000E+00 -0.23382519096E+03  0.23382519096E+03  0.00000000000E+00 0. -1.
         23    2    1    2    0    0  0.18274338884E+02  0.25345720970E+02 -0.14373909262E+03  0.17169835458E+03  0.88560946165E+02 0.  0.
          5    1    1    2  502    0 -0.52980516086E+02 -0.16410900829E+02 -0.57320835789E+02  0.79871167303E+02  0.41800000000E+01 0.  1.
         -5    1    1    2    0  502  0.34706177202E+02 -0.89348201413E+01  0.35823136272E+02  0.50844067887E+02  0.41800000000E+01 0.  1.
        -11    1    3    3    0    0  0.48791008921E+02 -0.67239978184E+01 -0.83478221265E+02  0.96924651786E+02  0.00000000000E+00 0.  1.
         11    1    3    3    0    0 -0.30516670037E+02  0.32069718789E+02 -0.60260871358E+02  0.74773702798E+02  0.00000000000E+00 0. -1.
</event>
<event>
 7    1  0.5137842E-006  0.1295876E+03  0.7561462E-02  0.1228069E+00
          2   -1    0    0  501    0  0.00000000000E+00  0.00000000000E+00  0.12585893546E+03  0.12585893546E+03  0.00000000000E+00 0. -1.
         -2   -1    0    0    0  501 -0.00000000000E+00 -0.00000000000E+00 -0.14793643890E+03  0.14793643890E+03  0.00000000000E+00 0.  1.
         23    2    1    2    0    0 -0.37709508977E+02 -0.70955969099E+02 -0.21669828705E+02  0.12512339437E+03  0.93431930963E+02 0.  0.
          5    1    1    2  502    0 -0.31986367486E+02  0.68892348802E+02 -0.14428869379E+02  0.77427050183E+02  0.41800000000E+01 0.  1.
         -5    1    1    2    0  502  0.69695876463E+02  0.20636202967E+01  0.14021194647E+02  0.71244929813E+02  0.41800000000E+01 0.  1.
        -11    1    3    3    0    0 -0.45564689476E+02 -0.38922138424E+01  0.15200207028E+02  0.48190627194E+02  0.00000000000E+00 0. -1.
         11    1    3    3    0    0  0.78551804994E+01 -0.67063755256E+02 -0.36870035733E+02  0.76932767172E+02  0.00000000000E+00 0.  1.
</event>
<event>
 7    1  0.5137842E-006  0.9596245E+02  0.7561462E-02  0.1289023E+00
          1   -1    0    0  501    0  0.00000000000E+00  0.00000000000E+00  0.79342379772E+03  0.79342379772E+03  0.00000000000E+00 0. -1.
         -1   -1    0    0    0  501 -0.00000000000E+00 -0.00000000000E+00 -0.19224162510E+02  0.19224162510E+02  0.00000000000E+00 0.  1.
         23    2    1    2    0    0 -0.50023975097E+02  0.11145902564E+02  0.45549118651E+03  0.46645376832E+03  0.86488541246E+02 0.  0.
          5    1    1    2  502    0  0.34434196777E+01  0.30047262102E+02  0.11337286222E+02  0.32568413498E+02  0.41800000000E+01 0.  1.
         -5    1    1    2    0  502  0.46580555419E+02 -0.41193164666E+02  0.30737116247E+03  0.31362577840E+03  0.41800000000E+01 0.  1.
        -11    1    3    3    0    0 -0.32090221124E+02  0.48199901792E+02  0.30419400165E+03  0.30965626663E+03  0.00000000000E+00 0.  1.
         11    1    3    3    0    0 -0.17933753973E+02 -0.37053999228E+02  0.15129718486E+03  0.15679750170E+03  0.00000000000E+00 0. -1.
</event>
<event>
 7    1  0.5137842E-006  0.1273972E+03  0.7561462E-02  0.1231370E+00
         -1   -1    0    0    0  501 -0.00000000000E+00  0.00000000000E+00  0.23652345007E+02  0.23652345007E+02  0.00000000000E+00 0.  1.
          1   -1    0    0  501    0  0.00000000000E+00 -0.00000000000E+00 -0.93920545357E+03  0.93920545357E+03  0.00000000000E+00 0. -1.
         23    2    1    2    0    0  0.62204862818E+02  0.81319378741E+02 -0.41759987368E+03  0.43932630163E+03  0.90197885140E+02 0.  0.
          5    1    1    2  502    0  0.21842017105E+02 -0.57512477978E+02 -0.11258962825E+03  0.12836921603E+03  0.41800000000E+01 0.  1.
         -5    1    1    2    0  502 -0.84046879924E+02 -0.23806900763E+02 -0.38536360663E+03  0.39516228092E+03  0.41800000000E+01 0.  1.
        -11    1    3    3    0    0  0.25845338807E+02  0.14571075203E+02 -0.23185002367E+02  0.37654244188E+02  0.00000000000E+00 0.  1.
         11    1    3    3    0    0  0.36359524011E+02  0.66748303539E+02 -0.39441487132E+03  0.40167205744E+03  0.00000000000E+00 0. -1.
</event>
<event>
 7    1  0.5137842E-006  0.1059034E+03  0.7561462E-02  0.1268350E+00
          2   -1    0    0  501    0  0.00000000000E+00  0.00000000000E+00  0.37893233380E+03  0.37893233380E+03  0.00000000000E+00 0. -1.
         -2   -1    0    0    0  501 -0.00000000000E+00 -0.00000000000E+00 -0.51987766146E+02  0.51987766146E+02  0.00000000000E+00 0.  1.
         23    2    1    2    0    0 -0.12053539058E+02  0.38690618355E+02  0.26837206618E+03  0.28696929363E+03  0.93196340204E+02 0.  0.
          5    1    1    2  502    0 -0.40223557110E+02  0.26087921651E+02  0.22781600276E+02  0.53244604551E+02  0.41800000000E+01 0. -1.
         -5    1    1    2    0  502  0.52277096168E+02 -0.64778540007E+02  0.35790901189E+02  0.90706201756E+02  0.41800000000E+01 0. -1.
        -11    1    3    3    0    0 -0.21061583878E+02 -0.15023918456E+02  0.20012654844E+02  0.32708023406E+02  0.00000000000E+00 0.  1.
         11    1    3    3    0    0  0.90080448196E+01  0.53714536811E+02  0.24835941134E+03  0.25426127023E+03  0.00000000000E+00 0. -1.
</event>
<event>
 7    1  0.5137842E-006  0.3868904E+03  0.7561462E-02  0.1048416E+00
         -2   -1    0    0    0  501 -0.00000000000E+00  0.00000000000E+00  0.14439712520E+03  0.14439712520E+03  0.00000000000E+00 0.  1.
          2   -1    0    0  501    0  0.00000000000E+00 -0.00000000000E+00 -0.10825979351E+04  0.10825979351E+04  0.00000000000E+00 0. -1.
         23    2    1    2    0    0  0.44824507614E+02  0.37053041758E+03 -0.57561116459E+03  0.69181045662E+03  0.89283079378E+02 0.  0.
          5    1    1    2  502    0  0.17621390104E+02 -0.29480903112E+03 -0.26894988034E+03  0.39946763167E+03  0.41800000000E+01 0.  1.
         -5    1    1    2    0  502 -0.62445897718E+02 -0.75721386461E+02 -0.93639765003E+02  0.13571697204E+03  0.41800000000E+01 0.  1.
        -11    1    3    3    0    0 -0.19753375546E+02  0.66853313563E+02 -0.72205430075E+02  0.10036526048E+03  0.00000000000E+00 0.  1.
         11    1    3    3    0    0  0.64577883160E+02  0.30367710401E+03 -0.50340573451E+03  0.59144519614E+03  0.00000000000E+00 0. -1.
</event>
<event>
 7    1  0.5137842E-006  0.1626640E+03  0.7561462E-02  0.1185722E+00
         -1   -1    0    0    0  501 -0.00000000000E+00  0.00000000000E+00  0.68460579209E+02  0.68460579209E+02  0.00000000000E+00 0.  1.
          1   -1    0    0  501    0  0.00000000000E+00 -0.00000000000E+00 -0.63237570631E+03  0.63237570631E+03  0.00000000000E+00 0. -1.
         23    2    1    2    0    0  0.14432848597E+03  0.29676450669E+02 -0.43573248769E+03  0.46892025276E+03  0.91170165253E+02 0.  0.
          5    1    1    2  502    0 -0.34320613710E+01 -0.19058697727E+02  0.19279526152E+02  0.27643905892E+02  0.41800000000E+01 0.  1.
         -5    1    1    2    0  502 -0.14089642460E+03 -0.10617752942E+02 -0.14746216556E+03  0.20427212686E+03  0.41800000000E+01 0.  1.
        -11    1    3    3    0    0  0.13233114487E+03  0.49252016568E+02 -0.41356822438E+03  0.43700797390E+03  0.00000000000E+00 0.  1.
         11    1    3    3    0    0  0.11997341096E+02 -0.19575565899E+02 -0.22164263315E+02  0.31912278859E+02  0.00000000000E+00 0. -1.
</event>
<event>
 7    1  0.5137842E-006  0.1282649E+03  0.7561462E-02  0.1230053E+00
         -2   -1    0    0    0  501 -0.00000000000E+00  0.00000000000E+00  0.26214270024E+02  0.26214270024E+02  0.00000000000E+00 0.  1.
          2   -1    0    0  501    0  0.00000000000E+00 -0.00000000000E+00 -0.77903058173E+03  0.77903058173E+03  0.00000000000E+00 0. -1.
         23    2    1    2    0    0 -0.16198478871E+02 -0.76139194384E+02 -0.48508776206E+03  0.49965519372E+03  0.91025315535E+02 0.  0.
          5    1    1    2  502    0  0.47254124354E+01  0.10949431243E+03 -0.22266216867E+03  0.24820807346E+03  0.41800000000E+01 0. -1.
         -5    1    1    2    0  502  0.11473066436E+02 -0.33355118048E+02 -0.45066380977E+02  0.57381584570E+02  0.41800000000E+01 0. -1.
        -11    1    3    3    0    0  0.30869085027E+02 -0.46157108135E+02 -0.14991366446E+03  0.15986708802E+03  0.00000000000E+00 0.  1.
         11    1    3    3    0    0 -0.47067563898E+02 -0.29982086250E+02 -0.33517409761E+03  0.33978810570E+03  0.00000000000E+00 0. -1.
</event>
<event>
 7    1  0.5137842E-006  0.1131874E+03  0.7561462E-02  0.1254779E+00
         -2   -1    0    0    0  501 -0.00000000000E+00  0.00000000000E+00  0.34388735211E+03  0.34388735211E+03  0.00000000000E+00 0.  1.
          2   -1    0    0  501    0  0.00000000000E+00 -0.00000000000E+00 -0.59703423900E+02  0.59703423900E+02  0.00000000000E+00 0. -1.
         23    2    1    2    0    0 -0.22568170175E+02 -0.71030582811E+02  0.48524346083E+02  0.12630847169E+03  0.89691425775E+02 0.  0.
          5    1    1    2  502    0  0.43334116910E+02 -0.56170113881E+01  0.21586486138E+02  0.48916717889E+02  0.41800000000E+01 0. -1.
         -5    1    1    2    0  502 -0.20765946735E+02  0.76647594199E+02  0.21407309599E+03  0.22836558643E+03  0.41800000000E+01 0.  1.
        -11    1    3    3    0    0 -0.48540848019E+02 -0.47349902748E+02  0.17919077482E+01  0.67833901186E+02  0.00000000000E+00 0.  1.
         11    1    3    3    0    0  0.25972677844E+02 -0.23680680062E+02  0.46732438335E+02  0.58474570501E+02  0.00000000000E+00 0. -1.
</event>
<event>
 7    1  0.5137842E-006  0.1086435E+03  0.7561462E-02  0.1263103E+00
          1   -1    0    0  501    0  0.00000000000E+00  0.00000000000E+00  0.22927305875E+03  0.22927305875E+03  0.00000000000E+00 0. -1.
         -1   -1    0    0    0  501 -0.00000000000E+00 -0.00000000000E+00 -0.11231018353E+03  0.11231018353E+03  0.00000000000E+00 0.  1.
         23    2    1    2    0    0  0.78083597170E+02 -0.43902772076E+02  0.13561719356E+03  0.18659886676E+03  0.91665764298E+02 0.  0.
          5    1    1    2  502    0 -0.41980964593E+01 -0.17557827407E+02  0.38755966228E+02  0.42958103256E+02  0.41800000000E+01 0.  1.
         -5    1    1    2    0  502 -0.73885500710E+02  0.61460599483E+02 -0.57410284559E+02  0.11202627226E+03  0.41800000000E+01 0.  1.
        -11    1    3    3    0    0  0.81647315095E+02 -0.28081489380E+02  0.50657445997E+02  0.10010509948E+03  0.00000000000E+00 0.  1.
         11    1    3    3    0    0 -0.35637179250E+01 -0.15821282696E+02  0.84959747561E+02  0.86493767274E+02  0.00000000000E+00 0. -1.
</event>
<event>
 7    1  0.5137842E-006  0.1246258E+03  0.7561462E-02  0.1235655E+00
         -1   -1    0    0    0  501 -0.00000000000E+00  0.00000000000E+00  0.42384882206E+02  0.42384882206E+02  0.00000000000E+00 0.  1.
          1   -1    0    0  501    0  0.00000000000E+00 -0.00000000000E+00 -0.50024665438E+03  0.50024665438E+03  0.00000000000E+00 0. -1.
         23    2    1    2    0    0  0.12151868015E+02  0.72890841771E+02 -0.32463393706E+03  0.34550666226E+03  0.92341311804E+02 0.  0.
          5    1    1    2  502    0  0.28112401337E+02  0.18486387949E+02 -0.45722347315E+01  0.34211567909E+02  0.41800000000E+01 0. -1.
         -5    1    1    2    0  502 -0.40264269352E+02 -0.91377229719E+02 -0.12865560038E+03  0.16291330642E+03  0.41800000000E+01 0. -1.
        -11    1    3    3    0    0  0.49923957621E+02  0.29964898725E+02 -0.12592916298E+03  0.13873878618E+03  0.00000000000E+00 0.  1.
         11    1    3    3    0    0 -0.37772089606E+02  0.42925943046E+02 -0.19870477408E+03  0.20676787608E+03  0.00000000000E+00 0. -1.
</event>
<event>
 7    1  0.5137842E-006  0.1297901E+03  0.7561462E-02  0.1227767E+00
          1   -1    0    0  501    0  0.00000000000E+00  0.00000000000E+00  0.93521417483E+03  0.93521417483E+03  0.00000000000E+00 0. -1.
         -1   -1    0    0    0  501 -0.00000000000E+00 -0.00000000000E+00 -0.26499444813E+02  0.26499444813E+02  0.00000000000E+00 0.  1.
         23    2    1    2    0    0  0.11058031522E+02 -0.11260285663E+03  0.40092644127E+03  0.42661732996E+03  0.91970927600E+02 0.  0.
          5    1    1    2  502    0  0.20860589541E+02  0.10273807617E+02  0.96206591066E+01  0.25509700128E+02  0.41800000000E+01 0. -1.
         -5    1    1    2    0  502 -0.31918621063E+02  0.10232904901E+03  0.49816762964E+03  0.50958658956E+03  0.41800000000E+01 0. -1.
        -11    1    3    3    0    0  0.24338118895E+02 -0.11872981931E+02  0.23825160079E+02  0.36068684258E+02  0.00000000000E+00 0.  1.
         11    1    3    3    0    0 -0.13280087373E+02 -0.10072987470E+03  0.37710128120E+03  0.39054864570E+03  0.00000000000E+00 0. -1.
</event>
<event>
 7    1  0.5137842E-006  0.1141395E+03  0.7561462E-02  0.1253091E+00
          2   -1    0    0  501    0  0.00000000000E+00  0.00000000000E+00  0.82757794476E+03  0.82757794476E+03  0.00000000000E+00 0. -1.
         -2   -1    0    0    0  501 -0.00000000000E+00 -0.00000000000E+00 -0.20806528120E+02  0.20806528120E+02  0.00000000000E+00 0.  1.
         23    2    1    2    0    0 -0.69606750767E+02 -0.24906992851E+02  0.37120690568E+03  0.38922438414E+03  0.90750186409E+02 0.  0.
          5    1    1    2  502    0  0.40463537682E+02 -0.30371208281E+02  0.60841606929E+02  0.79239394924E+02  0.41800000000E+01 0.  1.
         -5    1    1    2    0  502  0.29143213085E+02  0.55278201133E+02  0.37472290403E+03  0.37992069382E+03  0.41800000000E+01 0.  1.
        -11    1    3    3    0    0 -0.89786522225E+02 -0.11185762411E+02  0.25766482154E+03  0.27308954779E+03  0.00000000000E+00 0.  1.
         11    1    3    3    0    0  0.20179771458E+02 -0.13721230440E+02  0.11354208414E+03  0.11613483634E+03  0.00000000000E+00 0. -1.
</event>
<event>
 7    1  0.5137842E-006  0.1777785E+03  0.7561462E-02  0.1169971E+00
          2   -1    0    0  501    0  0.00000000000E+00  0.00000000000E+00  0.37435487809E+03  0.37435487809E+03  0.00000000000E+00 0. -1.
         -2   -1    0    0    0  501 -0.00000000000E+00 -0.00000000000E+00 -0.10197101079E+03  0.10197101079E+03  0.00000000000E+00 0.  1.
         23    2    1    2    0    0  0.15437023720E+03 -0.47316570537E+02  0.13674882615E+03  0.23114598482E+03  0.93054805696E+02 0.  0.
          5    1    1    2  502    0 -0.15644664381E+03  0.32780911570E+02  0.64487760777E+02  0.17241312077E+03  0.41800000000E+01 0. -1.
         -5    1    1    2    0  502  0.20764066134E+01  0.14535658967E+02  0.71147280379E+02  0.72766783297E+02  0.41800000000E+01 0. -1.
        -11    1    3    3    0    0  0.16351406400E+03 -0.39158709487E+02  0.13963194602E+03  0.21855739293E+03  0.00000000000E+00 0. -1.
         11    1    3    3    0    0 -0.91438267984E+01 -0.81578610507E+01 -0.28831198762E+01  0.12588591886E+02  0.00000000000E+00 0.  1.
</event>
<event>
 7    1  0.5137842E-006  0.9910812E+02  0.7561462E-02  0.1282183E+00
         -1   -1    0    0    0  501 -0.00000000000E+00  0.00000000000E+00  0.16163615089E+02  0.16163615089E+02  0.00000000000E+00 0.  1.
          1   -1    0    0  501    0  0.00000000000E+00 -0.00000000000E+00 -0.87523823837E+03  0.87523823837E+03  0.00000000000E+00 0. -1.
         23    2    1    2    0    0  0.32119108721E+02 -0.31208720884E+02 -0.42789304087E+03  0.44021280480E+03  0.93216080574E+02 0.  0.
          5    1    1    2  502    0 -0.30654151599E+02  0.64632477615E+02 -0.39611180749E+03  0.40254076887E+03  0.41800000000E+01 0. -1.
         -5    1    1    2    0  502 -0.14649571220E+01 -0.33423756731E+02 -0.35069774923E+02  0.48648279790E+02  0.41800000000E+01 0. -1.
        -11    1    3    3    0    0  0.59562068876E+02 -0.16994292534E+02 -0.36406198447E+03  0.36929334487E+03  0.00000000000E+00 0. -1.
         11    1    3    3    0    0 -0.27442960155E+02 -0.14214428350E+02 -0.63831056397E+02  0.70919459926E+02  0.00000000000E+00 0.  1.
</event>
<event>
 7    1  0.5137842E-006  0.9794020E+02  0.7561462E-02  0.1284688E+00
         -1   -1    0    0    0  501 -0.00000000000E+00  0.00000000000E+00  0.47006372119E+03  0.47006372119E+03  0.00000000000E+00 0.  1.
          1   -1    0    0  501    0  0.00000000000E+00 -0.00000000000E+00 -0.36107886765E+02  0.36107886765E+02  0.00000000000E+00 0. -1.
         23    2    1    2    0    0 -0.54374996869E+02 -0.41757034628E+01  0.10651862239E+03  0.15143278600E+03  0.92798679821E+02 0.  0.
          5    1    1    2  502    0  0.44195831930E+02 -0.32858135331E+02  0.30521019912E+03  0.31016715923E+03  0.41800000000E+01 0.  1.
         -5    1    1    2    0  502  0.10179164939E+02  0.37033838794E+02  0.22227012909E+02  0.44571662719E+02  0.41800000000E+01 0.  1.
        -11    1    3    3    0    0  0.19876707627E+01 -0.36825694813E+02  0.16706521289E+02  0.40486917480E+02  0.00000000000E+00 0. -1.
         11    1    3    3    0    0 -0.56362667631E+02  0.32649991350E+02  0.89812101105E+02  0.11094586852E+03  0.00000000000E+00 0.  1.
</event>
<event>
 6    1  0.5137842E-006  0.1830347E+03  0.7561462E-02  0.1164898E+00
          1   -1    0    0  501    0  0.00000000000E+00  0.00000000000E+00  0.49160025095E+03  0.49160025095E+03  0.00000000000E+00 0. -1.
         -1   -1    0    0    0  501 -0.00000000000E+00 -0.00000000000E+00 -0.11209554241E+03  0.11209554241E+03  0.00000000000E+00 0.  1.
          5    1    1    2  502    0  0.70183922143E+02  0.11918831883E+02  0.13397085068E+03  0.15176792386E+03  0.41800000000E+01 0. -1.
         -5    1    1    2    0  502  0.11179292926E+03 -0.14143425343E+02  0.13012695548E+02  0.11350990335E+03  0.41800000000E+01 0. -1.
        -11    1    1    2    0    0 -0.12922026538E+03  0.90837307384E+00  0.34873739619E+02  0.13384647863E+03  0.00000000000E+00 0.  1.
         11    1    1    2    0    0 -0.52756586023E+02  0.13162203864E+01  0.19764742269E+03  0.20457148751E+03  0.00000000000E+00 0. -1.
</event>
<event>
 7    1  0.5137842E-006  0.1263475E+03  0.7561462E-02  0.1232978E+00
          1   -1    0    0  501    0  0.00000000000E+00  0.00000000000E+00  0.27682322912E+03  0.27682322912E+03  0.00000000000E+00 0. -1.
         -1   -1    0    0    0  501 -0.00000000000E+00 -0.00000000000E+00 -0.11359046774E+03  0.11359046774E+03  0.00000000000E+00 0.  1.
         23    2    1    2    0    0  0.59760550470E+02 -0.54659643730E+02  0.14889665907E+03  0.19293868639E+03  0.92174408471E+02 0.  0.
          5    1    1    2  502    0  0.44947985710E+02  0.34715002312E+01  0.57440413206E+02  0.73138541156E+02  0.41800000000E+01 0. -1.
         -5    1    1    2    0  502 -0.10470853618E+03  0.51188143499E+02 -0.43104310896E+02  0.12433646932E+03  0.41800000000E+01 0.  1.
        -11    1    3    3    0    0  0.26344390025E+02 -0.50710594220E+02  0.14868590852E+03  0.15928932998E+03  0.00000000000E+00 0. -1.
         11    1    3    3    0    0  0.33416160445E+02 -0.39490495106E+01  0.21075054909E+00  0.33649356409E+02  0.00000000000E+00 0.  1.
</event>
<event>
 7    1  0.5137842E-006  0.1415759E+03  0.7561462E-02  0.1211224E+00
         -1   -1    0    0    0  501 -0.00000000000E+00  0.00000000000E+00  0.84054745084E+02  0.84054745084E+02  0.00000000000E+00 0.  1.
          1   -1    0    0  501    0  0.00000000000E+00 -0.00000000000E+00 -0.33978095952E+03  0.33978095952E+03  0.00000000000E+00 0. -1.
         23    2    1    2    0    0  0.92080538312E+02 -0.58485973531E+02 -0.20842801347E+03  0.25123419702E+03  0.88187018972E+02 0.  0.
          5    1    1    2  502    0 -0.66217552254E+02 -0.13869996492E+02 -0.64700133034E+02  0.93705499539E+02  0.41800000000E+01 0. -1.
         -5    1    1    2    0  502 -0.25862986059E+02  0.72355970024E+02  0.17401932071E+02  0.78896008047E+02  0.41800000000E+01 0. -1.
        -11    1    3    3    0    0  0.27465498323E+02  0.22007953668E+02 -0.72162686570E+02  0.80287962708E+02  0.00000000000E+00 0. -1.
         11    1    3    3    0    0  0.64615039990E+02 -0.80493927199E+02 -0.13626532690E+03  0.17094623431E+03  0.00000000000E+00 0.  1.
</event>
<event>
 7    1  0.5137842E-006  0.9449663E+02  0.7561462E-02  0.1292314E+00
          1   -1    0    0  501    0  0.00000000000E+00  0.00000000000E+00  0.12401712495E+02  0.12401712495E+02  0.00000000000E+00 0.  1.
         -1   -1    0    0    0  501 -0.00000000000E+00 -0.00000000000E+00 -0.11718505909E+04  0.11718505909E+04  0.00000000000E+00 0. -1.
         23    2    1    2    0    0  0.24337723217E+02 -0.33270706234E+01 -0.27853556991E+03  0.29416313090E+03  0.91359124909E+02 0.  0.
          5    1    1    2  502    0 -0.43912002083E+02 -0.36625860382E+02 -0.20989868518E+03  0.21758825340E+03  0.41800000000E+01 0.  1.
         -5    1    1    2    0  502  0.19574278866E+02  0.39952931006E+02 -0.67101462334E+03  0.67250091912E+03  0.41800000000E+01 0.  1.
        -11    1    3    3    0    0  0.31637776307E+02 -0.39194497282E+02 -0.10064466310E+03  0.11254557173E+03  0.00000000000E+00 0.  1.
         11    1    3    3    0    0 -0.73000530895E+01  0.35867426658E+02 -0.17789090681E+03  0.18161755916E+03  0.00000000000E+00 0. -1.
</event>
<event>
 7    1  0.5137842E-006  0.1341410E+03  0.7561462E-02  0.1221437E+00
          2   -1    0    0  501    0  0.00000000000E+00  0.00000000000E+00  0.10164241775E+04  0.10164241775E+04  0.00000000000E+00 0. -1.
         -2   -1    0    0    0  501 -0.00000000000E+00 -0.00000000000E+00 -0.18063973777E+02  0.18063973777E+02  0.00000000000E+00 0.  1.
         23    2    1    2    0    0  0.22585067777E+02 -0.73739887441E+02  0.52141993210E+03  0.53542093348E+03  0.94070049037E+02 0.  0.
          5    1    1    2  502    0 -0.50087420267E+01  0.10800382557E+03  0.35481568861E+03  0.37094684137E+03  0.41800000000E+01 0.  1.
         -5    1    1    2    0  502 -0.17576325750E+02 -0.34263938130E+02  0.12212458305E+03  0.12812037647E+03  0.41800000000E+01 0.  1.
        -11    1    3    3    0    0 -0.20362349372E+02  0.13276620929E+02  0.12017292508E+03  0.12260679369E+03  0.00000000000E+00 0. -1.
         11    1    3    3    0    0  0.42947417149E+02 -0.87016508370E+02  0.40124700702E+03  0.41281413979E+03  0.00000000000E+00 0.  1.
</event>
<event>
 7    1  0.5137842E-006  0.6905114E+02  0.7561462E-02  0.1363350E+00
          2   -1    0    0  501    0  0.00000000000E+00  0.00000000000E+00  0.10831353460E+03  0.10831353460E+03  0.00000000000E+00 0. -1.
         -2   -1    0    0    0  501 -0.00000000000E+00 -0.00000000000E+00 -0.11476885437E+03  0.11476885437E+03  0.00000000000E+00 0.  1.
         23    2    1    2    0    0  0.23536212852E+02  0.10823733545E+01  0.82425288495E+01  0.94935182744E+02  0.91594895017E+02 0.  0.
          5    1    1    2  502    0 -0.91989254207E+00 -0.17450054543E+02  0.52377637102E+02  0.55373638803E+02  0.41800000000E+01 0. -1.
         -5    1    1    2    0  502 -0.22616320310E+02  0.16367681189E+02 -0.67075485717E+02  0.72773567427E+02  0.41800000000E+01 0. -1.
        -11    1    3    3    0    0 -0.27035614002E+02 -0.23366906891E+02  0.14191633609E+02  0.38449177191E+02  0.00000000000E+00 0. -1.
         11    1    3    3    0    0  0.50571826854E+02  0.24449280246E+02 -0.59491047596E+01  0.56486005553E+02  0.00000000000E+00 0.  1.
</event>
<event>
 7    1  0.5137842E-006  0.2075223E+03  0.7561462E-02  0.1143543E+00
         -1   -1    0    0    0  501 -0.00000000000E+00  0.00000000000E+00  0.11919529225E+03  0.11919529225E+03  0.00000000000E+00 0.  1.
          1   -1    0    0  501    0  0.00000000000E+00 -0.00000000000E+00 -0.42113337427E+03  0.42113337427E+03  0.00000000000E+00 0. -1.
         23    2    1    2    0    0 -0.14179835225E+03 -0.13225881617E+03 -0.17806131685E+03  0.27842791802E+03  0.90648253231E+02 0.  0.
          5    1    1    2  502    0  0.11303746235E+03  0.12996421087E+03 -0.14557328585E+03  0.22555978798E+03  0.41800000000E+01 0.  1.
         -5    1    1    2    0  502  0.28760889902E+02  0.22946053031E+01  0.21696520683E+02  0.36340960516E+02  0.41800000000E+01 0.  1.
        -11    1    3    3    0    0 -0.11797257967E+03 -0.50307155144E+02 -0.11569275706E+03  0.17272276471E+03  0.00000000000E+00 0. -1.
         11    1    3    3    0    0 -0.23825772580E+02 -0.81951661029E+02 -0.62368559798E+02  0.10570515331E+03  0.00000000000E+00 0.  1.
</event>
<event>
 6    1  0.5137842E-006  0.1404915E+03  0.7561462E-02  0.1212669E+00
         -1   -1    0    0    0  501 -0.00000000000E+00  0.00000000000E+00  0.55766648295E+03  0.55766648295E+03  0.00000000000E+00 0.  1.
          1   -1    0    0  501    0  0.00000000000E+00 -0.00000000000E+00 -0.67814466008E+02  0.67814466008E+02  0.00000000000E+00 0. -1.
          5    1    1    2  502    0 -0.67053465440E+02 -0.48418026230E+01  0.20828756004E+03  0.21890817789E+03  0.41800000000E+01 0. -1.
         -5    1    1    2    0  502  0.31524471647E+02  0.72526159030E+02  0.23182732787E+03  0.24498003675E+03  0.41800000000E+01 0. -1.
        -11    1    1    2    0    0  0.73267908872E+02 -0.62570641990E+02  0.69390965866E+02  0.11873659020E+03  0.00000000000E+00 0.  1.
         11    1    1    2    0    0 -0.37738915079E+02 -0.51137144167E+01 -0.19653836833E+02  0.42856144119E+02  0.00000000000E+00 0. -1.
</event>
<event>
 7    1  0.5137842E-006  0.1061323E+03  0.7561462E-02  0.1267905E+00
         -2   -1    0    0    0  501 -0.00000000000E+00  0.00000000000E+00  0.40429034597E+02  0.40429034597E+02  0.00000000000E+00 0.  1.
          2   -1    0    0  501    0  0.00000000000E+00 -0.00000000000E+00 -0.48176290651E+03  0.48176290651E+03  0.00000000000E+00 0. -1.
         23    2    1    2    0    0  0.73513817405E+02  0.29323137546E+02 -0.25151975621E+03  0.28148234747E+03  0.98519015577E+02 0.  0.
          5    1    1    2  502    0 -0.32550315660E+02 -0.49791201431E+02 -0.18511975210E+03  0.19448774205E+03  0.41800000000E+01 0.  1.
         -5    1    1    2    0  502 -0.40963501745E+02  0.20468063885E+02 -0.46943636035E+01  0.46221851586E+02  0.41800000000E+01 0.  1.
        -11    1    3    3    0    0  0.72356502413E+02  0.48711416511E+02 -0.24641863473E+03  0.26140085899E+03  0.00000000000E+00 0. -1.
         11    1    3    3    0    0  0.11573149920E+01 -0.19388278965E+02 -0.51011214781E+01  0.20081488479E+02  0.00000000000E+00 0.  1.
</event>
<event>
 7    1  0.5137842E-006  0.9966870E+02  0.7561462E-02  0.1280994E+00
         -2   -1    0    0    0  501 -0.00000000000E+00  0.00000000000E+00  0.91811322597E+02  0.91811322597E+02  0.00000000000E+00 0. -1.
          2   -1    0    0  501    0  0.00000000000E+00 -0.00000000000E+00 -0.16777656925E+03  0.16777656925E+03  0.00000000000E+00 0.  1.
         23    2    1    2    0    0  0.35541253021E+02 -0.43448406328E+02 -0.32325197770E+02  0.11570674007E+03  0.95875891689E+02 0.  0.
          5    1    1    2  502    0 -0.77589292019E+02  0.38452414928E+02 -0.57164306057E+01  0.86884040126E+02  0.41800000000E+01 0.  1.
         -5    1    1    2    0  502  0.42048038998E+02  0.49959914001E+01 -0.37923618275E+02  0.56997111653E+02  0.41800000000E+01 0.  1.
        -11    1    3    3    0    0  0.24511098110E+02  0.76544020230E+00 -0.58304933507E+02  0.63252233956E+02  0.00000000000E+00 0.  1.
         11    1    3    3    0    0  0.11030154911E+02 -0.44213846530E+02  0.25979735736E+02  0.52454506110E+02  0.00000000000E+00 0. -1.
</event>
<event>
 7    1  0.5137842E-006  0.1197701E+03  0.7561462E-02  0.1243477E+00
         -1   -1    0    0    0  501 -0.00000000000E+00  0.00000000000E+00  0.64488979307E+02  0.64488979307E+02  0.00000000000E+00 0.  1.
          1   -1    0    0  501    0  0.00000000000E+00 -0.00000000000E+00 -0.27424038665E+03  0.27424038665E+03  0.00000000000E+00 0. -1.
         23    2    1    2    0    0 -0.37767518486E+02 -0.29673177329E+01 -0.15857745672E+03  0.18703721170E+03  0.91656523797E+02 0.  0.
          5    1    1    2  502    0  0.83860591753E+02 -0.23683461462E+02 -0.18814494982E+02  0.89246640370E+02  0.41800000000E+01 0. -1.
         -5    1    1    2    0  502 -0.46093073267E+02  0.26650779195E+02 -0.32359455644E+02  0.62445513886E+02  0.41800000000E+01 0.  1.
        -11    1    3    3    0    0 -0.63971740514E+02 -0.20716710873E+02 -0.10105088634E+03  0.12137894103E+03  0.00000000000E+00 0.  1.
         11    1    3    3    0    0  0.26204222028E+02  0.17749393140E+02 -0.57526570373E+02  0.65658270673E+02  0.00000000000E+00 0. -1.
</event>
<event>
 7    1  0.5137842E-006  0.1429963E+03  0.7561462E-02  0.1209353E+00
          2   -1    0    0  501    0  0.00000000000E+00  0.00000000000E+00  0.21687737225E+03  0.21687737225E+03  0.00000000000E+00 0.  1.
         -2   -1    0    0    0  501 -0.00000000000E+00 -0.00000000000E+00 -0.11041359437E+03  0.11041359437E+03  0.00000000000E+00 0. -1.
         23    2    1    2    0    0 -0.10772990068E+03  0.24977109431E+02  0.67097805738E+02  0.15575526025E+03  0.86764036701E+02 0.  0.
          5    1    1    2  502    0  0.12289256573E+02  0.39620737444E+02 -0.14647143935E+02  0.44190948034E+02  0.41800000000E+01 0. -1.
         -5    1    1    2    0  502  0.95440644104E+02 -0.64597846875E+02  0.54013116081E+02  0.12734475834E+03  0.41800000000E+01 0. -1.
        -11    1    3    3    0    0 -0.19547351891E+02  0.35140092096E+02  0.51968642679E+02  0.65708940491E+02  0.00000000000E+00 0.  1.
         11    1    3    3    0    0 -0.88182548785E+02 -0.10162982665E+02  0.15129163059E+02  0.90046319757E+02  0.00000000000E+00 0. -1.
</event>
<event>
 7    1  0.5137842E-006  0.1244922E+03  0.7561462E-02  0.1235865E+00
         -2   -1    0    0    0  501 -0.00000000000E+00  0.00000000000E+00  0.64645257121E+02  0.64645257121E+02  0.00000000000E+00 0.  1.
          2   -1    0    0  501    0  0.00000000000E+00 -0.00000000000E+00 -0.36006387312E+03  0.36006387312E+03  0.00000000000E+00 0. -1.
         23    2    1    2    0    0 -0.10254668119E+02  0.68845176810E+02 -0.24616775912E+03  0.27334616359E+03  0.96305466773E+02 0.  0.
          5    1    1    2  502    0 -0.45577607794E+02 -0.62526876739E+01  0.11632129791E+02  0.47636050202E+02  0.41800000000E+01 0. -1.
         -5    1    1    2    0  502  0.55832275913E+02 -0.62592489136E+02 -0.60882986664E+02  0.10372691644E+03  0.41800000000E+01 0. -1.
        -11    1    3    3    0    0 -0.53520522855E+02  0.36256756574E+02 -0.13179406540E+03  0.14679466761E+03  0.00000000000E+00 0. -1.
         11    1    3    3    0    0  0.43265854736E+02  0.32588420235E+02 -0.11437369373E+03  0.12655149599E+03  0.00000000000E+00 0.  1.
</event>
<event>
 7    1  0.5137842E-006  0.1383976E+03  0.7561462E-02  0.1215501E+00
          1   -1    0    0  501    0  0.00000000000E+00  0.00000000000E+00  0.36822701037E+03  0.36822701037E+03  0.00000000000E+00 0.  1.
         -1   -1    0    0    0  501 -0.00000000000E+00 -0.00000000000E+00 -0.74833566050E+02  0.74833566050E+02  0.00000000000E+00 0. -1.
         23    2    1    2    0    0  0.12083745856E+03 -0.91367429130E+01  0.17845641894E+03  0.23439101042E+03  0.91691225534E+02 0.  0.
          5    1    1    2  502    0 -0.10812590210E+03 -0.27608693620E+02  0.30728765036E+02  0.11582391838E+03  0.41800000000E+01 0.  1.
         -5    1    1    2    0  502 -0.12711556463E+02  0.36745436533E+02  0.84208260340E+02  0.92845647626E+02  0.41800000000E+01 0.  1.
        -11    1    3    3    0    0  0.89081058966E+02  0.88497024805E+01  0.53666279385E+02  0.10437347289E+03  0.00000000000E+00 0. -1.
         11    1    3    3    0    0  0.31756399593E+02 -0.17986445393E+02  0.12479013956E+03  0.13001753752E+03  0.00000000000E+00 0.  1.
</event>
<event>
 7    1  0.5137842E-006  0.1096673E+03  0.7561462E-02  0.1261187E+00
          1   -1    0    0  501    0  0.00000000000E+00  0.00000000000E+00  0.16757331054E+03  0.16757331054E+03  0.00000000000E+00 0. -1.
         -1   -1    0    0    0  501 -0.00000000000E+00 -0.00000000000E+00 -0.91130962062E+02  0.91130962062E+02  0.00000000000E+00 0.  1.
         23    2    1    2    0    0  0.57431680026E+02 -0.51715286426E+00  0.36776227320E+02  0.11545394353E+03  0.93158235620E+02 0.  0.
          5    1    1    2  502    0  0.89222413063E+01  0.50456328707E+02  0.68281092127E+00  0.51413870962E+02  0.41800000000E+01 0.  1.
         -5    1    1    2    0  502 -0.66353921333E+02 -0.49939175843E+02  0.38983310233E+02  0.91836458103E+02  0.41800000000E+01 0.  1.
        -11    1    3    3    0    0  0.57756171840E+02  0.22330956553E+02 -0.10629341503E+02  0.62828575561E+02  0.00000000000E+00 0.  1.
         11    1    3    3    0    0 -0.32449181394E+00 -0.22848109417E+02  0.47405568823E+02  0.52625367973E+02  0.00000000000E+00 0. -1.
</event>
<event>
 7    1  0.5137842E-006  0.3025958E+03  0.7561462E-02  0.1083950E+00
         -1   -1    0    0    0  501 -0.00000000000E+00  0.00000000000E+00  0.93016310224E+02  0.93016310224E+02  0.00000000000E+00 0.  1.
          1   -1    0    0  501    0  0.00000000000E+00 -0.00000000000E+00 -0.10188522150E+04  0.10188522150E+04  0.00000000000E+00 0. -1.
         23    2    1    2    0    0  0.14988136930E+03 -0.24770530379E+03 -0.45051493148E+03  0.54142964254E+03  0.79749683035E+02 0.  0.
          5    1    1    2  502    0 -0.14109778451E+03  0.26201752524E+03 -0.45565433805E+03  0.54424270001E+03  0.41800000000E+01 0.  1.
         -5    1    1    2    0  502 -0.87835847880E+01 -0.14312221448E+02 -0.19666635218E+02  0.26196182647E+02  0.41800000000E+01 0.  1.
        -11    1    3    3    0    0  0.14814438565E+02 -0.38437515958E+02 -0.12463740084E+03  0.13126839647E+03  0.00000000000E+00 0. -1.
         11    1    3    3    0    0  0.13506693073E+03 -0.20926778784E+03 -0.32587753064E+03  0.41016124607E+03  0.00000000000E+00 0.  1.
</event>
<event>
 7    1  0.5137842E-006  0.8537047E+02  0.7561462E-02  0.1314467E+00
         -2   -1    0    0    0  501 -0.00000000000E+00  0.00000000000E+00  0.21826336405E+02  0.21826336405E+02  0.00000000000E+00 0.  1.
          2   -1    0    0  501    0  0.00000000000E+00 -0.00000000000E+00 -0.53652389554E+03  0.53652389554E+03  0.00000000000E+00 0. -1.
         23    2    1    2    0    0 -0.72703334104E+01  0.34731500228E+01 -0.23877282171E+03  0.25528415415E+03  0.89958982055E+02 0.  0.
          5    1    1    2  502    0 -0.36297295647E+02  0.14574886532E+02 -0.22623564870E+02  0.45378619152E+02  0.41800000000E+01 0.  1.
         -5    1    1    2    0  502  0.43567629058E+02 -0.18048036555E+02 -0.25330117256E+03  0.25768745865E+03  0.41800000000E+01 0.  1.
        -11    1    3    3    0    0 -0.45603486970E+02  0.33711700902E+01 -0.17501182275E+03  0.18088720495E+03  0.00000000000E+00 0. -1.
         11    1    3    3    0    0  0.38333153560E+02  0.10197993267E+00 -0.63760998960E+02  0.74396949199E+02  0.00000000000E+00 0.  1.
</event>
<event>
 7    1  0.5137842E-006  0.1009788E+03  0.7561462E-02  0.1278251E+00
         -2   -1    0    0    0  501 -0.00000000000E+00  0.00000000000E+00  0.55305801248E+02  0.55305801248E+02  0.00000000000E+00 0.  1.
          2   -1    0    0  501    0  0.00000000000E+00 -0.00000000000E+00 -0.32462869396E+03  0.32462869396E+03  0.00000000000E+00 0. -1.
         23    2    1    2    0    0  0.20655468560E+02  0.71158143819E+02 -0.16466501218E+03  0.20079373186E+03  0.87826116297E+02 0.  0.
          5    1    1    2  502    0 -0.81683625297E+01  0.99812939707E+01  0.23356822425E+02  0.27006701567E+02  0.41800000000E+01 0. -1.
         -5    1    1    2    0  502 -0.12487106030E+02 -0.81139437790E+02 -0.12801470296E+03  0.15213406178E+03  0.41800000000E+01 0. -1.
        -11    1    3    3    0    0  0.14727139240E+02  0.87543577944E+02 -0.99528309648E+02  0.13336660411E+03  0.00000000000E+00 0.  1.
         11    1    3    3    0    0  0.59283293195E+01 -0.16385434125E+02 -0.65136702535E+02  0.67427127753E+02  0.00000000000E+00 0. -1.
</event>
<event>
 7    1  0.5137842E-006  0.1337755E+03  0.7561462E-02  0.1221959E+00
         -3   -1    0    0    0  501 -0.00000000000E+00  0.00000000000E+00  0.60619505421E+02  0.60619505421E+02  0.00000000000E+00 0.  1.
          3   -1    0    0  501    0  0.00000000000E+00 -0.00000000000E+00 -0.40601999721E+03  0.40601999721E+03  0.00000000000E+00 0. -1.
         23    2    1    2    0    0 -0.59873900066E+02  0.53406439861E+02 -0.27810775996E+03  0.30350315842E+03  0.91285865813E+02 0.  0.
          5    1    1    2  502    0  0.91033385247E+02 -0.66981058903E+02 -0.60363889186E+02  0.12819832682E+03  0.41800000000E+01 0.  1.
         -5    1    1    2    0  502 -0.31159485181E+02  0.13574619042E+02 -0.69288426503E+01  0.34938017393E+02  0.41800000000E+01 0.  1.
        -11    1    3    3    0    0 -0.83762369792E+02  0.42966562319E+02 -0.23458935597E+03  0.25277346776E+03  0.00000000000E+00 0. -1.
         11    1    3    3    0    0  0.23888469726E+02  0.10439877542E+02 -0.43518403987E+02  0.50729690661E+02  0.00000000000E+00 0.  1.
</event>
<event>
 7    1  0.5137842E-006  0.1259063E+03  0.7561462E-02  0.1233660E+00
          1   -1    0    0  501    0  0.00000000000E+00  0.00000000000E+00  0.14652256618E+03  0.14652256618E+03  0.00000000000E+00 0. -1.
         -1   -1    0    0    0  501 -0.00000000000E+00 -0.00000000000E+00 -0.23014043055E+03  0.23014043055E+03  0.00000000000E+00 0.  1.
         23    2    1    2    0    0 -0.80479298823E+02 -0.21315859650E+02  0.79036524683E+02  0.15343255146E+03  0.10180123870E+03 0.  0.
          5    1    1    2  502    0 -0.21976579004E+02  0.38366362059E+02 -0.75433050249E+02  0.87536079602E+02  0.41800000000E+01 0. -1.
         -5    1    1    2    0  502  0.10245587783E+03 -0.17050502409E+02 -0.87221338804E+02  0.13569436568E+03  0.41800000000E+01 0.  1.
        -11    1    3    3    0    0 -0.28166612770E+02  0.21834795148E+02 -0.14012723562E+02  0.38294552820E+02  0.00000000000E+00 0.  1.
         11    1    3    3    0    0 -0.52312686053E+02 -0.43150654798E+02  0.93049248245E+02  0.11513799864E+03  0.00000000000E+00 0. -1.
</event>
<event>
 7    1  0.5137842E-006  0.1092542E+03  0.7561462E-02  0.1261957E+00
         -2   -1    0    0    0  501 -0.00000000000E+00  0.00000000000E+00  0.75445570318E+03  0.75445570318E+03  0.00000000000E+00 0.  1.
          2   -1    0    0  501    0  0.00000000000E+00 -0.00000000000E+00 -0.20071890783E+02  0.20071890783E+02  0.00000000000E+00 0. -1.
         23    2    1    2    0    0  0.44108046818E+02  0.25975681420E+02  0.25460808883E+03  0.27607784313E+03  0.93666646939E+02 0.  0.
          5    1    1    2  502    0  0.30720893712E+01 -0.59130047059E+02  0.36646909653E+03  0.37124502867E+03  0.41800000000E+01 0. -1.
         -5    1    1    2    0  502 -0.47180136189E+02  0.33154365639E+02  0.11330662704E+03  0.12720472217E+03  0.41800000000E+01 0. -1.
        -11    1    3    3    0    0 -0.26899479977E+02  0.84774528125E+01  0.11577757848E+03  0.11916332032E+03  0.00000000000E+00 0. -1.
         11    1    3    3    0    0  0.71007526795E+02  0.17498228607E+02  0.13883051035E+03  0.15691452281E+03  0.00000000000E+00 0.  1.
</event>
<event>
 7    1  0.5137842E-006  0.1188397E+03  0.7561462E-02  0.1245023E+00
         -1   -1    0    0    0  501 -0.00000000000E+00  0.00000000000E+00  0.37722748290E+03  0.37722748290E+03  0.00000000000E+00 0.  1.
          1   -1    0    0  501    0  0.00000000000E+00 -0.00000000000E+00 -0.45126675161E+02  0.45126675161E+02  0.00000000000E+00 0. -1.
         23    2    1    2    0    0 -0.24021523524E+02 -0.56455992439E+02  0.84157689575E+02  0.13794168206E+03  0.90449313210E+02 0.  0.
          5    1    1    2  502    0 -0.51474203507E+02  0.19865259860E+02  0.97387617194E+02  0.11200911819E+03  0.41800000000E+01 0.  1.
         -5    1    1    2    0  502  0.75495727031E+02  0.36590732579E+02  0.15055550097E+03  0.17240335781E+03  0.41800000000E+01 0.  1.
        -11    1    3    3    0    0 -0.29141937132E+02 -0.74285377313E+02  0.88216658684E+02  0.11895271603E+03  0.00000000000E+00 0.  1.
         11    1    3    3    0    0  0.51204136079E+01  0.17829384874E+02 -0.40589691093E+01  0.18988966026E+02  0.00000000000E+00 0. -1.
</event>
<event>
 7    1  0.5137842E-006  0.2291612E+03  0.7561462E-02  0.1127232E+00
          1   -1    0    0  501    0  0.00000000000E+00  0.00000000000E+00  0.29803556716E+03  0.29803556716E+03  0.00000000000E+00 0.  1.
         -1   -1    0    0    0  501 -0.00000000000E+00 -0.00000000000E+00 -0.20079032158E+03  0.20079032158E+03  0.00000000000E+00 0. -1.
         23    2    1    2    0    0 -0.20551047544E+03 -0.65248899146E+02  0.84465369083E+02  0.24922098033E+03  0.92112562142E+02 0.  0.
          5    1    1    2  502    0  0.64679344841E+02 -0.30550376608E+02 -0.23498473801E+02  0.75408181459E+02  0.41800000000E+01 0.  1.
         -5    1    1    2    0  502  0.14083113060E+03  0.95799275754E+02  0.36278350290E+02  0.17419672695E+03  0.41800000000E+01 0.  1.
        -11    1    3    3    0    0 -0.35289946634E+02 -0.18105986260E+02  0.58523465002E+02  0.70697970464E+02  0.00000000000E+00 0.  1.
         11    1    3    3    0    0 -0.17022052881E+03 -0.47142912886E+02  0.25941904081E+02  0.17852300986E+03  0.00000000000E+00 0. -1.
</event>
<event>
 7    1  0.5137842E-006  0.1510362E+03  0.7561462E-02  0.1199205E+00
          1   -1    0    0  501    0  0.00000000000E+00  0.00000000000E+00  0.41119564014E+03  0.41119564014E+03  0.00000000000E+00 0. -1.
         -1   -1    0    0    0  501 -0.00000000000E+00 -0.00000000000E+00 -0.67380176964E+02  0.67380176964E+02  0.00000000000E+00 0.  1.
         23    2    1    2    0    0  0.23759566474E+02  0.10735388633E+03  0.24645282572E+03  0.28566048702E+03  0.93667201451E+02 0.  0.
          5    1    1    2  502    0  0.39308451128E+02  0.11926263666E+01  0.34373481389E+02  0.52398333089E+02  0.41800000000E+01 0.  1.
         -5    1    1    2    0  502 -0.63068017602E+02 -0.10854651270E+03  0.62989156067E+02  0.14051699700E+03  0.41800000000E+01 0.  1.
        -11    1    3    3    0    0  0.18489916632E+02 -0.89158265039E+01  0.11671561753E+02  0.23613435436E+02  0.00000000000E+00 0. -1.
         11    1    3    3    0    0  0.52696498418E+01  0.11626971284E+03  0.23478126396E+03  0.26204705158E+03  0.00000000000E+00 0.  1.
</event>
<event>
 7    1  0.5137842E-006  0.1093691E+03  0.7561462E-02  0.1261743E+00
          1   -1    0    0  501    0  0.00000000000E+00  0.00000000000E+00  0.60607347520E+03  0.60607347520E+03  0.00000000000E+00 0. -1.
         -1   -1    0    0    0  501 -0.00000000000E+00 -0.00000000000E+00 -0.41837914573E+02  0.41837914573E+02  0.00000000000E+00 0.  1.
         23    2    1    2    0    0  0.65431359933E+02 -0.72012002289E+02  0.39201553188E+03  0.41387278629E+03  0.90263584357E+02 0.  0.
          5    1    1    2  502    0 -0.10193525227E+02  0.55108775737E+02  0.42453455466E+01  0.56359386783E+02  0.41800000000E+01 0. -1.
         -5    1    1    2    0  502 -0.55237834706E+02  0.16903226552E+02  0.16797468320E+03  0.17767921670E+03  0.41800000000E+01 0. -1.
        -11    1    3    3    0    0  0.59630685436E+02 -0.39339257447E+02  0.36246784494E+03  0.36944056956E+03  0.00000000000E+00 0. -1.
         11    1    3    3    0    0  0.58006744966E+01 -0.32672744841E+02  0.29547686941E+02  0.44432216731E+02  0.00000000000E+00 0.  1.
</event>
<event>
 7    1  0.5137842E-006  0.1589037E+03  0.7561462E-02  0.1189940E+00
         -3   -1    0    0    0  501 -0.00000000000E+00  0.00000000000E+00  0.17119111897E+03  0.17119111897E+03  0.00000000000E+00 0.  1.
          3   -1    0    0  501    0  0.00000000000E+00 -0.00000000000E+00 -0.20619714660E+03  0.20619714660E+03  0.00000000000E+00 0. -1.
         23    2    1    2    0    0  0.86494661910E+02  0.12113128772E+03 -0.41912312628E+02  0.18558438243E+03  0.10261971375E+03 0.  0.
          5    1    1    2  502    0  0.81766554945E+01 -0.13025847227E+02 -0.37989066124E+02  0.41196746667E+02  0.41800000000E+01 0. -1.
         -5    1    1    2    0  502 -0.94671317405E+02 -0.10810544049E+03  0.44895351121E+02  0.15060713647E+03  0.41800000000E+01 0.  1.
        -11    1    3    3    0    0  0.94055615788E+02  0.11202233274E+03 -0.64671257837E+02  0.15993071464E+03  0.00000000000E+00 0. -1.
         11    1    3    3    0    0 -0.75609538782E+01  0.91089549751E+01  0.22758945209E+02  0.25653667794E+02  0.00000000000E+00 0.  1.
</event>
<event>
 7    1  0.5137842E-006  0.1118318E+03  0.7561462E-02  0.1257215E+00
         -2   -1    0    0    0  501 -0.00000000000E+00  0.00000000000E+00  0.19367889440E+03  0.19367889440E+03  0.00000000000E+00 0. -1.
          2   -1    0    0  501    0  0.00000000000E+00 -0.00000000000E+00 -0.96910086623E+02  0.96910086623E+02  0.00000000000E+00 0.  1.
         23    2    1    2    0    0  0.23535150691E+02 -0.64206486360E+02 -0.59440029158E+01  0.11488275077E+03  0.92121327848E+02 0.  0.
          5    1    1    2  502    0 -0.36364954489E+02  0.94944319878E+02  0.98936823653E+02  0.14192533694E+03  0.41800000000E+01 0. -1.
         -5    1    1    2    0  502  0.12829803798E+02 -0.30737833518E+02  0.37759870413E+01  0.33780893313E+02  0.41800000000E+01 0. -1.
        -11    1    3    3    0    0  0.18581464977E+01 -0.66513010278E+02  0.29885850508E+02  0.72942424591E+02  0.00000000000E+00 0. -1.
         11    1    3    3    0    0  0.21677004193E+02  0.23065239178E+01 -0.35829853424E+02  0.41940326176E+02  0.00000000000E+00 0.  1.
</event>
<event>
 7    1  0.5137842E-006  0.9560248E+02  0.7561462E-02  0.1289825E+00
          2   -1    0    0  501    0  0.00000000000E+00  0.00000000000E+00  0.54004741797E+03  0.54004741797E+03  0.00000000000E+00 0. -1.
         -2   -1    0    0    0  501 -0.00000000000E+00 -0.00000000000E+00 -0.26025125837E+02  0.26025125837E+02  0.00000000000E+00 0.  1.
         23    2    1    2    0    0 -0.38641944760E+01  0.42218184035E+02  0.25267959680E+03  0.27325036670E+03  0.94981457125E+02 0.  0.
          5    1    1    2  502    0 -0.33309170092E+02  0.32513975034E+02  0.11767300013E+03  0.12661384894E+03  0.41800000000E+01 0. -1.
         -5    1    1    2    0  502  0.37173364568E+02 -0.74732159069E+02  0.14366969520E+03  0.16620832817E+03  0.41800000000E+01 0. -1.
        -11    1    3    3    0    0  0.12788598116E+02 -0.26319767770E+01 -0.27801677331E+01  0.13349339915E+02  0.00000000000E+00 0.  1.
         11    1    3    3    0    0 -0.16652792592E+02  0.44850160812E+02  0.25545976453E+03  0.25990102678E+03  0.00000000000E+00 0. -1.
</event>
<event>
 7    1  0.5137842E-006  0.1015557E+03  0.7561462E-02  0.1277058E+00
          1   -1    0    0  501    0  0.00000000000E+00  0.00000000000E+00  0.53632412996E+03  0.53632412996E+03  0.00000000000E+00 0. -1.
         -1   -1    0    0    0  501 -0.00000000000E+00 -0.00000000000E+00 -0.27369622116E+02  0.27369622116E+02  0.00000000000E+00 0.  1.
         23    2    1    2    0    0 -0.29706275716E+02  0.21522993875E+02  0.32498890634E+03  0.33822332589E+03  0.86206303994E+02 0.  0.
          5    1    1    2  502    0 -0.41162779728E+02 -0.41234037087E+01  0.12444762050E+03  0.13120998263E+03  0.41800000000E+01 0.  1.
         -5    1    1    2    0  502  0.70869055443E+02 -0.17399590167E+02  0.59517981002E+02  0.94260443559E+02  0.41800000000E+01 0.  1.
        -11    1    3    3    0    0 -0.15256683746E+02 -0.30684598221E+02  0.75375679963E+02  0.82799783193E+02  0.00000000000E+00 0.  1.
         11    1    3    3    0    0 -0.14449591970E+02  0.52207592096E+02  0.24961322638E+03  0.25542354270E+03  0.00000000000E+00 0. -1.
</event>
<event>
 7    1  0.5137842E-006  0.1019654E+03  0.7561462E-02  0.1276216E+00
          3   -1    0    0  501    0  0.00000000000E+00  0.00000000000E+00  0.22990643029E+03  0.22990643029E+03  0.00000000000E+00 0. -1.
         -3   -1    0    0    0  501 -0.00000000000E+00 -0.00000000000E+00 -0.93752462449E+02  0.93752462449E+02  0.00000000000E+00 0.  1.
         23    2    1    2    0    0 -0.33768303114E+02  0.81574309142E+02  0.11148350173E+03  0.16857730511E+03  0.90526628305E+02 0.  0.
          5    1    1    2  502    0 -0.16436911578E+01 -0.15266284432E+02  0.66894888440E+02  0.68761614731E+02  0.41800000000E+01 0.  1.
         -5    1    1    2    0  502  0.35411994272E+02 -0.66308024710E+02 -0.42224422333E+02  0.86319972896E+02  0.41800000000E+01 0.  1.
        -11    1    3    3    0    0 -0.14229641050E+01 -0.12845183977E+02 -0.61465871822E+01  0.14310978731E+02  0.00000000000E+00 0.  1.
         11    1    3    3    0    0 -0.32345339009E+02  0.94419493119E+02  0.11763008891E+03  0.15426632638E+03  0.00000000000E+00 0. -1.
</event>
<event>
 7    1  0.5137842E-006  0.1011656E+03  0.7561462E-02  0.1277864E+00
         -2   -1    0    0    0  501 -0.00000000000E+00  0.00000000000E+00  0.12139480594E+02  0.12139480594E+02  0.00000000000E+00 0.  1.
          2   -1    0    0  501    0  0.00000000000E+00 -0.00000000000E+00 -0.86871282088E+03  0.86871282088E+03  0.00000000000E+00 0. -1.
         23    2    1    2    0    0 -0.64771592853E+01  0.16936435190E+02 -0.35874619632E+03  0.36723244072E+03  0.76367766210E+02 0.  0.
          5    1    1    2  502    0  0.23918381599E+02 -0.67998456124E+02 -0.29250476668E+03  0.30128456639E+03  0.41800000000E+01 0. -1.
         -5    1    1    2    0  502 -0.17441222313E+02  0.51062020934E+02 -0.20532237728E+03  0.21233529436E+03  0.41800000000E+01 0. -1.
        -11    1    3    3    0    0 -0.36120954567E+02 -0.83160268795E+01 -0.22103318382E+03  0.22411949493E+03  0.00000000000E+00 0.  1.
         11    1    3    3    0    0  0.29643795282E+02  0.25252462070E+02 -0.13771301251E+03  0.14311294579E+03  0.00000000000E+00 0. -1.
</event>
<event>
 7    1  0.5137842E-006  0.1430057E+03  0.7561462E-02  0.1209341E+00
         -1   -1    0    0    0  501 -0.00000000000E+00  0.00000000000E+00  0.62951866722E+02  0.62951866722E+02  0.00000000000E+00 0.  1.
          1   -1    0    0  501    0  0.00000000000E+00 -0.00000000000E+00 -0.34867883781E+03  0.34867883781E+03  0.00000000000E+00 0. -1.
         23    2    1    2    0    0  0.84409162931E+02  0.42039652060E+02 -0.17654129392E+03  0.22068325456E+03  0.92962526071E+02 0.  0.
          5    1    1    2  502    0  0.12207784703E+02  0.32219906989E+02 -0.25238642549E+02  0.42914029075E+02  0.41800000000E+01 0. -1.
         -5    1    1    2    0  502 -0.96616947634E+02 -0.74259559050E+02 -0.83947034621E+02  0.14803342090E+03  0.41800000000E+01 0. -1.
        -11    1    3    3    0    0  0.90649307805E+02  0.39059450931E+01 -0.10057628543E+03  0.13545531589E+03  0.00000000000E+00 0.  1.
         11    1    3    3    0    0 -0.62401448736E+01  0.38133706967E+02 -0.75965008494E+02  0.85227938674E+02  0.00000000000E+00 0. -1.
</event>
<event>
 7    1  0.5137842E-006  0.7716591E+02  0.7561462E-02  0.1337292E+00
         -1   -1    0    0    0  501 -0.00000000000E+00  0.00000000000E+00  0.46472397867E+02  0.46472397867E+02  0.00000000000E+00 0.  1.
          1   -1    0    0  501    0  0.00000000000E+00 -0.00000000000E+00 -0.26315921306E+03  0.26315921306E+03  0.00000000000E+00 0. -1.
         23    2    1    2    0    0  0.64744631927E+01 -0.50353424341E+01 -0.10031074966E+03  0.13858149972E+03  0.95264433134E+02 0.  0.
          5    1    1    2  502    0 -0.29590341908E+01  0.39848765080E+02 -0.12783088958E+03  0.13399585327E+03  0.41800000000E+01 0. -1.
         -5    1    1    2    0  502 -0.35154290020E+01 -0.34813422646E+02  0.11454824048E+02  0.37054257938E+02  0.41800000000E+01 0. -1.
        -11    1    3    3    0    0 -0.16830000769E+02 -0.36247178308E+02 -0.11471056545E+02  0.41577542008E+02  0.00000000000E+00 0.  1.
         11    1    3    3    0    0  0.23304463962E+02  0.31211835874E+02 -0.88839693112E+02  0.97003957710E+02  0.00000000000E+00 0. -1.
</event>
<event>
 7    1  0.5137842E-006  0.1462034E+03  0.7561462E-02  0.1205217E+00
         -1   -1    0    0    0  501 -0.00000000000E+00  0.00000000000E+00  0.18344939192E+03  0.18344939192E+03  0.00000000000E+00 0.  1.
          1   -1    0    0  501    0  0.00000000000E+00 -0.00000000000E+00 -0.15975229428E+03  0.15975229428E+03  0.00000000000E+00 0. -1.
         23    2    1    2    0    0 -0.66529038117E+02  0.80262698181E+02 -0.70237117809E+02  0.15520851051E+03  0.91039636345E+02 0.  0.
          5    1    1    2  502    0  0.98722448501E+02 -0.33028892852E+02  0.71914289168E+02  0.12659449825E+03  0.41800000000E+01 0. -1.
         -5    1    1    2    0  502 -0.32193410384E+02 -0.47233805328E+02  0.22019926276E+02  0.61398677438E+02  0.41800000000E+01 0. -1.
        -11    1    3    3    0    0 -0.62710450047E+02  0.96025656451E+02 -0.76457303323E+02  0.13783775417E+03  0.00000000000E+00 0. -1.
         11    1    3    3    0    0 -0.38185880698E+01 -0.15762958270E+02  0.62201855139E+01  0.17370756348E+02  0.00000000000E+00 0.  1.
</event>
<event>
 7    1  0.5137842E-006  0.1174818E+03  0.7561462E-02  0.1247310E+00
         -1   -1    0    0    0  501 -0.00000000000E+00  0.00000000000E+00  0.51558898790E+02  0.51558898790E+02  0.00000000000E+00 0.  1.
          1   -1    0    0  501    0  0.00000000000E+00 -0.00000000000E+00 -0.38599663858E+03  0.38599663858E+03  0.00000000000E+00 0. -1.
         23    2    1    2    0    0  0.29336829031E+02 -0.74928073779E+02 -0.21555556251E+03  0.24714684260E+03  0.90235777266E+02 0.  0.
          5    1    1    2  502    0 -0.53903787131E+02  0.98698224098E+02 -0.77850489136E+02  0.13683979233E+03  0.41800000000E+01 0.  1.
         -5    1    1    2    0  502  0.24566958100E+02 -0.23770150319E+02 -0.41031688136E+02  0.53568902432E+02  0.41800000000E+01 0.  1.
        -11    1    3    3    0    0 -0.56219924773E+01 -0.32643323592E+02 -0.17704171536E+03  0.18011374837E+03  0.00000000000E+00 0. -1.
         11    1    3    3    0    0  0.34958821508E+02 -0.42284750186E+02 -0.38513847158E+02  0.67033094233E+02  0.00000000000E+00 0.  1.
</event>
<event>
 7    1  0.5137842E-006  0.1050464E+03  0.7561462E-02  0.1270028E+00
          2   -1    0    0  501    0  0.00000000000E+00  0.00000000000E+00  0.14138173266E+03  0.14138173266E+03  0.00000000000E+00 0.  1.
         -2   -1    0    0    0  501 -0.00000000000E+00 -0.00000000000E+00 -0.10348372187E+03  0.10348372187E+03  0.00000000000E+00 0. -1.
         23    2    1    2    0    0 -0.20959004495E+02  0.49417237576E+02  0.23599727106E+02  0.10799807607E+03  0.90693407011E+02 0.  0.
          5    1    1    2  502    0  0.40020838224E+02  0.22317000958E+02  0.37101275284E+02  0.59107470353E+02  0.41800000000E+01 0.  1.
         -5    1    1    2    0  502 -0.19061833729E+02 -0.71734238534E+02 -0.22802991600E+02  0.77759908109E+02  0.41800000000E+01 0.  1.
        -11    1    3    3    0    0 -0.15285359344E+02  0.68316738143E+02 -0.82920070075E+01  0.70495221831E+02  0.00000000000E+00 0. -1.
         11    1    3    3    0    0 -0.56736451511E+01 -0.18899500566E+02  0.31891734114E+02  0.37502854235E+02  0.00000000000E+00 0.  1.
</event>
<event>
 7    1  0.5137842E-006  0.1994835E+03  0.7561462E-02  0.1150176E+00
          1   -1    0    0  501    0  0.00000000000E+00  0.00000000000E+00  0.12082973404E+04  0.12082973404E+04  0.00000000000E+00 0. -1.
         -1   -1    0    0    0  501 -0.00000000000E+00 -0.00000000000E+00 -0.54761406135E+02  0.54761406135E+02  0.00000000000E+00 0.  1.
         23    2    1    2    0    0  0.19835820959E+03 -0.16092433682E+02  0.85905951396E+03  0.88627102881E+03  0.88815214059E+02 0.  0.
          5    1    1    2  502    0 -0.12122788653E+03  0.44452685331E+01  0.26816865713E+03  0.29436008892E+03  0.41800000000E+01 0. -1.
         -5    1    1    2    0  502 -0.77130323059E+02  0.11647165149E+02  0.26307763212E+02  0.82427628841E+02  0.41800000000E+01 0. -1.
        -11    1    3    3    0    0  0.11793832961E+03 -0.28988423452E+01  0.67131001501E+03  0.68159738052E+03  0.00000000000E+00 0.  1.
         11    1    3    3    0    0  0.80419879980E+02 -0.13193591337E+02  0.18774949895E+03  0.20467364829E+03  0.00000000000E+00 0. -1.
</event>
<event>
 7    1  0.5137842E-006  0.1258116E+03  0.7561462E-02  0.1233806E+00
          1   -1    0    0  501    0  0.00000000000E+00  0.00000000000E+00  0.15300429225E+02  0.15300429225E+02  0.00000000000E+00 0. -1.
         -1   -1    0    0    0  501 -0.00000000000E+00 -0.00000000000E+00 -0.12772920758E+04  0.12772920758E+04  0.00000000000E+00 0.  1.
         23    2    1    2    0    0  0.18117038696E+02 -0.75447186730E+02 -0.37019961599E+03  0.38873456680E+03  0.89701185437E+02 0.  0.
          5    1    1    2  502    0 -0.46015894041E+02  0.98790445135E+02 -0.60677070884E+03  0.61649426604E+03  0.41800000000E+01 0.  1.
         -5    1    1    2    0  502  0.27898855346E+02 -0.23343258405E+02 -0.28502132179E+03  0.28736367223E+03  0.41800000000E+01 0.  1.
        -11    1    3    3    0    0 -0.23041633398E+02 -0.38500206874E+01 -0.26838320987E+02  0.35581385615E+02  0.00000000000E+00 0. -1.
         11    1    3    3    0    0  0.41158672093E+02 -0.71597166042E+02 -0.34336129501E+03  0.35315318119E+03  0.00000000000E+00 0.  1.
</event>
<event>
 7    1  0.5137842E-006  0.1049279E+03  0.7561462E-02  0.1270262E+00
          1   -1    0    0  501    0  0.00000000000E+00  0.00000000000E+00  0.17246842020E+02  0.17246842020E+02  0.00000000000E+00 0. -1.
         -1   -1    0    0    0  501 -0.00000000000E+00 -0.00000000000E+00 -0.82594893513E+03  0.82594893513E+03  0.00000000000E+00 0.  1.
         23    2    1    2    0    0 -0.47512972769E+02  0.14470208712E+02 -0.39004885207E+03  0.40344042318E+03  0.90328282021E+02 0.  0.
          5    1    1    2  502    0  0.22051525866E+02 -0.59704571492E+02 -0.11353588569E+03  0.13022586298E+03  0.41800000000E+01 0. -1.
         -5    1    1    2    0  502  0.25461446903E+02  0.45234362780E+02 -0.30511735535E+03  0.30952949099E+03  0.41800000000E+01 0. -1.
        -11    1    3    3    0    0 -0.21693513230E+01 -0.30239443353E+02 -0.59116349532E+02  0.66436983687E+02  0.00000000000E+00 0. -1.
         11    1    3    3    0    0 -0.45343621446E+02  0.44709652066E+02 -0.33093250254E+03  0.33700343950E+03  0.00000000000E+00 0.  1.
</event>
<event>
 7    1  0.5137842E-006  0.1241078E+03  0.7561462E-02  0.1236470E+00
         -1   -1    0    0    0  501 -0.00000000000E+00  0.00000000000E+00  0.44108333040E+02  0.44108333040E+02  0.00000000000E+00 0.  1.
          1   -1    0    0  501    0  0.00000000000E+00 -0.00000000000E+00 -0.41679851610E+03  0.41679851610E+03  0.00000000000E+00 0. -1.
         23    2    1    2    0    0  0.10952752178E+02  0.68978978909E+02 -0.23759382401E+03  0.26399313803E+03  0.91452115383E+02 0.  0.
          5    1    1    2  502    0  0.22649536667E+02 -0.90275421552E+02 -0.57140717823E+02  0.10929404046E+03  0.41800000000E+01 0.  1.
         -5    1    1    2    0  502 -0.33602288845E+02  0.21296442643E+02 -0.77955641222E+02  0.87619670641E+02  0.41800000000E+01 0.  1.
        -11    1    3    3    0    0  0.17380378115E+02  0.90722931293E+02 -0.19292957175E+03  0.21390312634E+03  0.00000000000E+00 0.  1.
         11    1    3    3    0    0 -0.64276259368E+01 -0.21743952384E+02 -0.44664252267E+02  0.50090011689E+02  0.00000000000E+00 0. -1.
</event>
<event>
 7    1  0.5137842E-006  0.1266444E+03  0.7561462E-02  0.1232522E+00
         -1   -1    0    0    0  501 -0.00000000000E+00  0.00000000000E+00  0.32763312876E+03  0.32763312876E+03  0.00000000000E+00 0.  1.
          1   -1    0    0  501    0  0.00000000000E+00 -0.00000000000E+00 -0.67992027080E+02  0.67992027080E+02  0.00000000000E+00 0. -1.
         23    2    1    2    0    0  0.42480731089E+02 -0.29612909649E+02  0.51333510172E+02  0.14718445970E+03  0.12785381879E+03 0.  0.
          5    1    1    2  502    0  0.29204247293E+02 -0.29789772103E+02  0.57507105436E+02  0.71167816867E+02  0.41800000000E+01 0.  1.
         -5    1    1    2    0  502 -0.71684978381E+02  0.59402681753E+02  0.15080048608E+03  0.17727287927E+03  0.41800000000E+01 0.  1.
        -11    1    3    3    0    0 -0.17206605125E+02  0.29508422964E+02  0.53119003519E+02  0.63154119585E+02  0.00000000000E+00 0.  1.
         11    1    3    3    0    0  0.59687336213E+02 -0.59121332613E+02 -0.17854933469E+01  0.84030340120E+02  0.00000000000E+00 0. -1.
</event>
<event>
 7    1  0.5137842E-006  0.2323411E+03  0.7561462E-02  0.1125003E+00
          2   -1    0    0  501    0  0.00000000000E+00  0.00000000000E+00  0.15992114031E+03  0.15992114031E+03  0.00000000000E+00 0. -1.
         -2   -1    0    0    0  501 -0.00000000000E+00 -0.00000000000E+00 -0.37472106548E+03  0.37472106548E+03  0.00000000000E+00 0.  1.
         23    2    1    2    0    0  0.76016254212E+02 -0.31407550143E+02  0.47801723378E+01  0.12290198300E+03  0.91198367674E+02 0.  0.
          5    1    1    2  502    0 -0.18524959954E+03 -0.65400132263E+02 -0.88466262309E+02  0.21549557628E+03  0.41800000000E+01 0. -1.
         -5    1    1    2    0  502  0.10923334532E+03  0.96807682406E+02 -0.13111383520E+03  0.19624464651E+03  0.41800000000E+01 0.  1.
        -11    1    3    3    0    0  0.50771731065E+02 -0.63520128099E+02  0.91071141597E+01  0.81826125885E+02  0.00000000000E+00 0.  1.
         11    1    3    3    0    0  0.25244523147E+02  0.32112577956E+02 -0.43269418219E+01  0.41075857111E+02  0.00000000000E+00 0. -1.
</event>
<event>
 7    1  0.5137842E-006  0.9108167E+02  0.7561462E-02  0.1300253E+00
         -1   -1    0    0    0  501 -0.00000000000E+00  0.00000000000E+00  0.14164835751E+02  0.14164835751E+02  0.00000000000E+00 0.  1.
          1   -1    0    0  501    0  0.00000000000E+00 -0.00000000000E+00 -0.85957138831E+03  0.85957138831E+03  0.00000000000E+00 0. -1.
         23    2    1    2    0    0  0.66141966170E+01  0.18377754588E+01 -0.44053457771E+03  0.44992392510E+03  0.91179488928E+02 0.  0.
          5    1    1    2  502    0 -0.39941670277E+01 -0.47084856461E+02 -0.62686437407E+02  0.78612969114E+02  0.41800000000E+01 0.  1.
         -5    1    1    2    0  502 -0.26200295893E+01  0.45247081002E+02 -0.34218553744E+03  0.34519932985E+03  0.41800000000E+01 0.  1.
        -11    1    3    3    0    0 -0.40427066178E+02  0.95516131762E+01 -0.15661574585E+03  0.16203108604E+03  0.00000000000E+00 0.  1.
         11    1    3    3    0    0  0.47041262795E+02 -0.77138377174E+01 -0.28391883186E+03  0.28789283906E+03  0.00000000000E+00 0. -1.
</event>
<event>
 7    1  0.5137842E-006  0.1201404E+03  0.7561462E-02  0.1242866E+00
         -3   -1    0    0    0  501 -0.00000000000E+00  0.00000000000E+00  0.25520675096E+03  0.25520675096E+03  0.00000000000E+00 0.  1.
          3   -1    0    0  501    0  0.00000000000E+00 -0.00000000000E+00 -0.67379383127E+02  0.67379383127E+02  0.00000000000E+00 0. -1.
         23    2    1    2    0    0  0.28037161470E+02  0.56321331734E+02  0.32658874741E+02  0.11356754249E+03  0.88728855377E+02 0.  0.
          5    1    1    2  502    0  0.42450550901E+02  0.91422959819E+01  0.52574337277E+02  0.68316646490E+02  0.41800000000E+01 0. -1.
         -5    1    1    2    0  502 -0.70487712371E+02 -0.65463627716E+02  0.10259415582E+03  0.14070194511E+03  0.41800000000E+01 0. -1.
        -11    1    3    3    0    0 -0.47433489735E+01 -0.18278182517E+02  0.25554223596E+02  0.31774355371E+02  0.00000000000E+00 0.  1.
         11    1    3    3    0    0  0.32780510444E+02  0.74599514251E+02  0.71046511445E+01  0.81793187120E+02  0.00000000000E+00 0. -1.
</event>
<event>
 7    1  0.5137842E-006  0.1059337E+03  0.7561462E-02  0.1268291E+00
          2   -1    0    0  501    0  0.00000000000E+00  0.00000000000E+00  0.24739857454E+03  0.24739857454E+03  0.00000000000E+00 0.  1.
         -2   -1    0    0    0  501 -0.00000000000E+00 -0.00000000000E+00 -0.55291227865E+02  0.55291227865E+02  0.00000000000E+00 0. -1.
         23    2    1    2    0    0 -0.35514778379E+02 -0.21179588384E+02  0.11044217159E+03  0.14768099790E+03  0.88895047261E+02 0.  0.
          5    1    1    2  502    0  0.59227096197E+02 -0.35495565755E+02  0.33661598588E+02  0.76930876322E+02  0.41800000000E+01 0. -1.
         -5    1    1    2    0  502 -0.23712317818E+02  0.56675154139E+02  0.48003576493E+02  0.78077928181E+02  0.41800000000E+01 0. -1.
        -11    1    3    3    0    0  0.20841882488E+02 -0.11896139124E+02  0.75015626871E+00  0.24009684008E+02  0.00000000000E+00 0. -1.
         11    1    3    3    0    0 -0.56356660867E+02 -0.92834492593E+01  0.10969201533E+03  0.12367131390E+03  0.00000000000E+00 0.  1.
</event>
<event>
 7    1  0.5137842E-006  0.1481899E+03  0.7561462E-02  0.1202715E+00
         -2   -1    0    0    0  501 -0.00000000000E+00  0.00000000000E+00  0.13463217229E+03  0.13463217229E+03  0.00000000000E+00 0.  1.
          2   -1    0    0  501    0  0.00000000000E+00 -0.00000000000E+00 -0.22456413297E+03  0.22456413297E+03  0.00000000000E+00 0. -1.
         23    2    1    2    0    0  0.10207413837E+03 -0.94535574028E+02 -0.36506268181E+02  0.16462583161E+03  0.80080286811E+02 0.  0.
          5    1    1    2  502    0  0.76992810777E+01  0.30890821831E+01  0.28394030583E+02  0.29874985031E+02  0.41800000000E+01 0.  1.
         -5    1    1    2    0  502 -0.10977341944E+03  0.91446491844E+02 -0.81819723078E+02  0.16469548862E+03  0.41800000000E+01 0.  1.
        -11    1    3    3    0    0  0.25121804290E+02 -0.48137101255E+02 -0.49936642073E+02  0.73769599358E+02  0.00000000000E+00 0. -1.
         11    1    3    3    0    0  0.76952334077E+02 -0.46398472773E+02  0.13430373891E+02  0.90856232249E+02  0.00000000000E+00 0.  1.
</event>
<event>
 7    1  0.5137842E-006  0.1016706E+03  0.7561462E-02  0.1276822E+00
         -1   -1    0    0    0  501 -0.00000000000E+00  0.00000000000E+00  0.45512168017E+02  0.45512168017E+02  0.00000000000E+00 0.  1.
          1   -1    0    0  501    0  0.00000000000E+00 -0.00000000000E+00 -0.26733804426E+03  0.26733804426E+03  0.00000000000E+00 0. -1.
         23    2    1    2    0    0 -0.13065756448E+02 -0.14292942102E+02 -0.79078059127E+02  0.12206767896E+03  0.90951507006E+02 0.  0.
          5    1    1    2  502    0 -0.31002169318E+02 -0.39395611791E+02 -0.30843042626E+02  0.59007748722E+02  0.41800000000E+01 0.  1.
         -5    1    1    2    0  502  0.44067925766E+02  0.53688553893E+02 -0.11190477449E+03  0.13177478459E+03  0.41800000000E+01 0.  1.
        -11    1    3    3    0    0 -0.22864927567E+02 -0.45402865044E+02 -0.20086960232E+02  0.54659958271E+02  0.00000000000E+00 0.  1.
         11    1    3    3    0    0  0.97991711187E+01  0.31109922942E+02 -0.58991098895E+02  0.67407720692E+02  0.00000000000E+00 0. -1.
</event>
<event>
 7    1  0.5137842E-006  0.1467952E+03  0.7561462E-02  0.1204467E+00
          2   -1    0    0  501    0  0.00000000000E+00  0.00000000000E+00  0.58614271965E+03  0.58614271965E+03  0.00000000000E+00 0. -1.
         -2   -1    0    0    0  501 -0.00000000000E+00 -0.00000000000E+00 -0.88069925526E+02  0.88069925526E+02  0.00000000000E+00 0.  1.
         23    2    1    2    0    0 -0.24515120230E+02  0.69409502461E+02  0.28089130928E+03  0.30412537267E+03  0.90408210477E+02 0.  0.
          5    1    1    2  502    0  0.86687010809E+01 -0.12193298697E+03  0.26837544571E+03  0.29493330085E+03  0.41800000000E+01 0. -1.
         -5    1    1    2    0  502  0.15846419149E+02  0.52523484510E+02 -0.51193960871E+02  0.75153971649E+02  0.41800000000E+01 0.  1.
        -11    1    3    3    0    0  0.24997847931E+02  0.61147330673E+02  0.17080571986E+03  0.18313514787E+03  0.00000000000E+00 0.  1.
         11    1    3    3    0    0 -0.49512968161E+02  0.82621717876E+01  0.11008558942E+03  0.12099022480E+03  0.00000000000E+00 0. -1.
</event>
<event>
 7    1  0.5137842E-006  0.8039474E+02  0.7561462E-02  0.1327935E+00
          1   -1    0    0  501    0  0.00000000000E+00  0.00000000000E+00  0.15438220551E+03  0.15438220551E+03  0.00000000000E+00 0. -1.
         -1   -1    0    0    0  501 -0.00000000000E+00 -0.00000000000E+00 -0.81066400146E+02  0.81066400146E+02  0.00000000000E+00 0.  1.
         23    2    1    2    0    0  0.13717880790E+02  0.25650645866E+02  0.35138409754E+02  0.10146354192E+03  0.90631156962E+02 0.  0.
          5    1    1    2  502    0  0.36036342940E+02  0.53803358703E+01 -0.27500792790E+02  0.45840288292E+02  0.41800000000E+01 0. -1.
         -5    1    1    2    0  502 -0.49754223730E+02 -0.31030981736E+02  0.65678188399E+02  0.88144775443E+02  0.41800000000E+01 0. -1.
        -11    1    3    3    0    0  0.11219571079E+02 -0.18214009084E+02  0.50560392197E+02  0.54899746459E+02  0.00000000000E+00 0. -1.
         11    1    3    3    0    0  0.24983097112E+01  0.43864654950E+02 -0.15421982442E+02  0.46563795461E+02  0.00000000000E+00 0.  1.
</event>
<event>
 7    1  0.5137842E-006  0.9662413E+02  0.7561462E-02  0.1287559E+00
          3   -1    0    0  501    0  0.00000000000E+00  0.00000000000E+00  0.58185179308E+02  0.58185179308E+02  0.00000000000E+00 0. -1.
         -3   -1    0    0    0  501 -0.00000000000E+00 -0.00000000000E+00 -0.26858649333E+03  0.26858649333E+03  0.00000000000E+00 0.  1.
         23    2    1    2    0    0 -0.50329583563E+02  0.17937963618E+02 -0.48315122392E+02  0.11517215949E+03  0.89863439453E+02 0.  0.
          5    1    1    2  502    0  0.15715044270E+02 -0.45096822036E+02 -0.47499139905E+01  0.48173852421E+02  0.41800000000E+01 0.  1.
         -5    1    1    2    0  502  0.34614539294E+02  0.27158858418E+02 -0.15733627764E+03  0.16342566073E+03  0.41800000000E+01 0.  1.
        -11    1    3    3    0    0  0.10006319788E+02 -0.25086718641E+02 -0.26701782165E+02  0.37979666384E+02  0.00000000000E+00 0.  1.
         11    1    3    3    0    0 -0.60335903351E+02  0.43024682259E+02 -0.21613340227E+02  0.77192493110E+02  0.00000000000E+00 0. -1.
</event>
<event>
 7    1  0.5137842E-006  0.1910321E+03  0.7561462E-02  0.1157534E+00
          1   -1    0    0  501    0  0.00000000000E+00  0.00000000000E+00  0.50607358966E+02  0.50607358966E+02  0.00000000000E+00 0. -1.
         -1   -1    0    0    0  501 -0.00000000000E+00 -0.00000000000E+00 -0.78903203351E+03  0.78903203351E+03  0.00000000000E+00 0.  1.
         23    2    1    2    0    0  0.11641523239E+03  0.12038305610E+03 -0.35143410875E+03  0.39980557926E+03  0.91071301132E+02 0.  0.
          5    1    1    2  502    0 -0.13396216402E+03 -0.85877104697E+02 -0.35635227603E+03  0.39028855419E+03  0.41800000000E+01 0.  1.
         -5    1    1    2    0  502  0.17546931626E+02 -0.34505951406E+02 -0.30638289763E+02  0.49545259022E+02  0.41800000000E+01 0.  1.
        -11    1    3    3    0    0 -0.61146439743E+01  0.32725014779E+02 -0.29991248612E+02  0.44808374848E+02  0.00000000000E+00 0. -1.
         11    1    3    3    0    0  0.12252987636E+03  0.87658041324E+02 -0.32144286014E+03  0.35499720442E+03  0.00000000000E+00 0.  1.
</event>
<event>
 7    1  0.5137842E-006  0.1620486E+03  0.7561462E-02  0.1186403E+00
          2   -1    0    0  501    0  0.00000000000E+00  0.00000000000E+00  0.47518155551E+03  0.47518155551E+03  0.00000000000E+00 0. -1.
         -2   -1    0    0    0  501 -0.00000000000E+00 -0.00000000000E+00 -0.84157828015E+02  0.84157828015E+02  0.00000000000E+00 0.  1.
         23    2    1    2    0    0 -0.81525162426E+02  0.72666476430E+02  0.22622602311E+03  0.26851164178E+03  0.94834167556E+02 0.  0.
          5    1    1    2  502    0  0.43074559492E+02 -0.11633359382E+03  0.19026956017E+03  0.22717592446E+03  0.41800000000E+01 0. -1.
         -5    1    1    2    0  502  0.38450602935E+02  0.43667117391E+02 -0.25471855778E+02  0.63651817288E+02  0.41800000000E+01 0.  1.
        -11    1    3    3    0    0 -0.31030413470E+02  0.84295170347E+02  0.16845384947E+03  0.19090642133E+03  0.00000000000E+00 0.  1.
         11    1    3    3    0    0 -0.50494748957E+02 -0.11628693917E+02  0.57772173633E+02  0.77605220448E+02  0.00000000000E+00 0. -1.
</event>
<event>
 7    1  0.5137842E-006  0.1331075E+03  0.7561462E-02  0.1222916E+00
          1   -1    0    0  501    0  0.00000000000E+00  0.00000000000E+00  0.20357720485E+03  0.20357720485E+03  0.00000000000E+00 0. -1.
         -1   -1    0    0    0  501 -0.00000000000E+00 -0.00000000000E+00 -0.98693799501E+02  0.98693799501E+02  0.00000000000E+00 0.  1.
         23    2    1    2    0    0  0.68450786755E+02  0.55726458773E+02  0.72930267965E+02  0.14587273084E+03  0.90382969649E+02 0.  0.
          5    1    1    2  502    0 -0.29067155164E+02 -0.88009387841E+02 -0.56595302442E+01  0.92951893687E+02  0.41800000000E+01 0. -1.
         -5    1    1    2    0  502 -0.39383631591E+02  0.32282929068E+02  0.37612667624E+02  0.63446379821E+02  0.41800000000E+01 0. -1.
        -11    1    3    3    0    0 -0.19153412808E+02  0.20112997596E+02  0.33236579971E+02  0.43313463758E+02  0.00000000000E+00 0. -1.
         11    1    3    3    0    0  0.87604199562E+02  0.35613461177E+02  0.39693687993E+02  0.10255926708E+03  0.00000000000E+00 0.  1.
</event>
<event>
 7    1  0.5137842E-006  0.2832889E+03  0.7561462E-02  0.1093906E+00
         -2   -1    0    0    0  501 -0.00000000000E+00  0.00000000000E+00  0.33744106055E+02  0.33744106055E+02  0.00000000000E+00 0.  1.
          2   -1    0    0  501    0  0.00000000000E+00 -0.00000000000E+00 -0.27183581331E+04  0.27183581331E+04  0.00000000000E+00 0. -1.
         23    2    1    2    0    0 -0.15591960804E+03 -0.21102245450E+03 -0.84005824583E+03  0.88478469438E+03  0.91130118751E+02 0.  0.
          5    1    1    2  502    0  0.15426413943E+03  0.22641579207E+03 -0.17672889785E+04  0.17884041326E+04  0.41800000000E+01 0. -1.
         -5    1    1    2    0  502  0.16554686107E+01 -0.15393337574E+02 -0.77266802715E+02  0.78913412167E+02  0.41800000000E+01 0. -1.
        -11    1    3    3    0    0 -0.10993978687E+02 -0.81278389253E+02 -0.21284019221E+03  0.22809645229E+03  0.00000000000E+00 0. -1.
         11    1    3    3    0    0 -0.14492562936E+03 -0.12974406524E+03 -0.62721805362E+03  0.65668824209E+03  0.00000000000E+00 0.  1.
</event>
<event>
 7    1  0.5137842E-006  0.9694803E+02  0.7561462E-02  0.1286848E+00
         -2   -1    0    0    0  501 -0.00000000000E+00  0.00000000000E+00  0.32786164489E+02  0.32786164489E+02  0.00000000000E+00 0. -1.
          2   -1    0    0  501    0  0.00000000000E+00 -0.00000000000E+00 -0.41920975613E+03  0.41920975613E+03  0.00000000000E+00 0.  1.
         23    2    1    2    0    0 -0.24638209037E+01  0.44711011944E+02 -0.18651036424E+03  0.21195854615E+03  0.90195145756E+02 0.  0.
          5    1    1    2  502    0 -0.57056131663E+02  0.15182217940E+01 -0.80519657468E+02  0.98785600147E+02  0.41800000000E+01 0.  1.
         -5    1    1    2    0  502  0.59519952566E+02 -0.46229233738E+02 -0.11939356994E+03  0.14125177432E+03  0.41800000000E+01 0.  1.
        -11    1    3    3    0    0 -0.11949147852E+02 -0.31803667919E+01  0.57209004273E+01  0.13624447476E+02  0.00000000000E+00 0. -1.
         11    1    3    3    0    0  0.94853269486E+01  0.47891378736E+02 -0.19223126466E+03  0.19833409868E+03  0.00000000000E+00 0.  1.
</event>
<event>
 7    1  0.5137842E-006  0.3058108E+03  0.7561462E-02  0.1082371E+00
          1   -1    0    0  501    0  0.00000000000E+00  0.00000000000E+00  0.66893208671E+03  0.66893208671E+03  0.00000000000E+00 0. -1.
         -1   -1    0    0    0  501 -0.00000000000E+00 -0.00000000000E+00 -0.14882499979E+03  0.14882499979E+03  0.00000000000E+00 0.  1.
         23    2    1    2    0    0  0.20396694721E+03 -0.21365090911E+03  0.26690790574E+03  0.40909383828E+03  0.94173838455E+02 0.  0.
          5    1    1    2  502    0 -0.12303686699E+03  0.17308911511E+03  0.23400960514E+03  0.31603145430E+03  0.41800000000E+01 0. -1.
         -5    1    1    2    0  502 -0.80930080218E+02  0.40561794003E+02  0.19189576030E+02  0.92631793921E+02  0.41800000000E+01 0. -1.
        -11    1    3    3    0    0  0.92763193203E+02 -0.16041678451E+03  0.17927603740E+03  0.25783415668E+03  0.00000000000E+00 0.  1.
         11    1    3    3    0    0  0.11120375400E+03 -0.53234124605E+02  0.87631868343E+02  0.15125968160E+03  0.00000000000E+00 0. -1.
</event>
<event>
 7    1  0.5137842E-006  0.9632762E+02  0.7561462E-02  0.1288214E+00
         -2   -1    0    0    0  501 -0.00000000000E+00  0.00000000000E+00  0.70631024802E+02  0.70631024802E+02  0.00000000000E+00 0.  1.
          2   -1    0    0  501    0  0.00000000000E+00 -0.00000000000E+00 -0.23491712219E+03  0.23491712219E+03  0.00000000000E+00 0. -1.
         23    2    1    2    0    0  0.18864541528E+02 -0.64076005220E+02 -0.90925551595E+02  0.14588988093E+03  0.92492140486E+02 0.  0.
          5    1    1    2  502    0  0.19180527465E+02  0.35348493066E+02 -0.97868483419E+02  0.10589202540E+03  0.41800000000E+01 0.  1.
         -5    1    1    2    0  502 -0.38045068993E+02  0.28727512154E+02  0.24507937625E+02  0.53766240671E+02  0.41800000000E+01 0.  1.
        -11    1    3    3    0    0 -0.26696029946E+02 -0.12062408395E+01 -0.53271440448E+02  0.59598484874E+02  0.00000000000E+00 0. -1.
         11    1    3    3    0    0  0.45560571474E+02 -0.62869764381E+02 -0.37654111147E+02  0.86291396052E+02  0.00000000000E+00 0.  1.
</event>
<event>
 7    1  0.5137842E-006  0.1349084E+03  0.7561462E-02  0.1220349E+00
          2   -1    0    0  501    0  0.00000000000E+00  0.00000000000E+00  0.11823368264E+03  0.11823368264E+03  0.00000000000E+00 0. -1.
         -2   -1    0    0    0  501 -0.00000000000E+00 -0.00000000000E+00 -0.22262244983E+03  0.22262244983E+03  0.00000000000E+00 0.  1.
         23    2    1    2    0    0 -0.22717465639E+02  0.10740511055E+03  0.19005080494E+01  0.14338170282E+03  0.92210410239E+02 0.  0.
          5    1    1    2  502    0  0.19463453028E+02 -0.10168619099E+01 -0.86959377317E+02  0.89214716921E+02  0.41800000000E+01 0.  1.
         -5    1    1    2    0  502  0.32540126116E+01 -0.10638824864E+03 -0.19329897916E+02  0.10825971273E+03  0.41800000000E+01 0.  1.
        -11    1    3    3    0    0  0.27471120696E+02  0.83248497252E+02  0.17799149821E+01  0.87682055544E+02  0.00000000000E+00 0.  1.
         11    1    3    3    0    0 -0.50188586335E+02  0.24156613297E+02  0.12059306728E+00  0.55699647279E+02  0.00000000000E+00 0. -1.
</event>
<event>
 7    1  0.5137842E-006  0.1194519E+03  0.7561462E-02  0.1244004E+00
          3   -1    0    0  501    0  0.00000000000E+00  0.00000000000E+00  0.11635000032E+03  0.11635000032E+03  0.00000000000E+00 0. -1.
         -3   -1    0    0    0  501 -0.00000000000E+00 -0.00000000000E+00 -0.15590068234E+03  0.15590068234E+03  0.00000000000E+00 0.  1.
         23    2    1    2    0    0 -0.19799666172E+02  0.69098993825E+02  0.87215278869E+01  0.12011859488E+03  0.95842130924E+02 0.  0.
          5    1    1    2  502    0 -0.30211117807E+02  0.72154324530E+01 -0.52005134939E+02  0.60718864982E+02  0.41800000000E+01 0.  1.
         -5    1    1    2    0  502  0.50010783979E+02 -0.76314426278E+02  0.37329250402E+01  0.91413222795E+02  0.41800000000E+01 0.  1.
        -11    1    3    3    0    0 -0.42456813865E+02  0.80388972219E+02  0.18863550055E+02  0.92848270952E+02  0.00000000000E+00 0. -1.
         11    1    3    3    0    0  0.22657147693E+02 -0.11289978394E+02 -0.10142022168E+02  0.27270323933E+02  0.00000000000E+00 0.  1.
</event>
<event>
 7    1  0.5137842E-006  0.1174461E+03  0.7561462E-02  0.1247371E+00
         -1   -1    0    0    0  501 -0.00000000000E+00  0.00000000000E+00  0.38941142164E+03  0.38941142164E+03  0.00000000000E+00 0.  1.
          1   -1    0    0  501    0  0.00000000000E+00 -0.00000000000E+00 -0.46356364232E+02  0.46356364232E+02  0.00000000000E+00 0. -1.
         23    2    1    2    0    0  0.46590736200E+02  0.61847182121E+02  0.11742710204E+03  0.16641501276E+03  0.88932904721E+02 0.  0.
          5    1    1    2  502    0 -0.46169803891E+02  0.28226175070E+02  0.11055022574E+03  0.12315515646E+03  0.41800000000E+01 0.  1.
         -5    1    1    2    0  502 -0.42093230855E+00 -0.90073357191E+02  0.11507772962E+03  0.14619761665E+03  0.41800000000E+01 0.  1.
        -11    1    3    3    0    0  0.36323809999E+02  0.10117306671E+02  0.10592539378E+03  0.11243650703E+03  0.00000000000E+00 0.  1.
         11    1    3    3    0    0  0.10266926201E+02  0.51729875450E+02  0.11501708269E+02  0.53978505730E+02  0.00000000000E+00 0. -1.
</event>
<event>
 7    1  0.5137842E-006  0.7365085E+02  0.7561462E-02  0.1348101E+00
          2   -1    0    0  501    0  0.00000000000E+00  0.00000000000E+00  0.13566082099E+03  0.13566082099E+03  0.00000000000E+00 0. -1.
         -2   -1    0    0    0  501 -0.00000000000E+00 -0.00000000000E+00 -0.12250707931E+03  0.12250707931E+03  0.00000000000E+00 0.  1.
         23    2    1    2    0    0 -0.79417916255E+00  0.44281728986E+02  0.59281447351E+02  0.11768010038E+03  0.91503080727E+02 0.  0.
          5    1    1    2  502    0 -0.81639233248E+01 -0.96976001025E+00  0.41355117993E+02  0.42371078140E+02  0.41800000000E+01 0. -1.
         -5    1    1    2    0  502  0.89581024873E+01 -0.43311968976E+02 -0.87482823663E+02  0.98116721780E+02  0.41800000000E+01 0. -1.
        -11    1    3    3    0    0  0.36755253268E+02  0.15787802110E+01  0.18129851292E+01  0.36833790258E+02  0.00000000000E+00 0. -1.
         11    1    3    3    0    0 -0.37549432430E+02  0.42702948775E+02  0.57468462222E+02  0.80846310120E+02  0.00000000000E+00 0.  1.
</event>
<event>
 7    1  0.5137842E-006  0.1744608E+03  0.7561462E-02  0.1173274E+00
         -4   -1    0    0    0  501 -0.00000000000E+00  0.00000000000E+00  0.14129350135E+04  0.14129350135E+04  0.00000000000E+00 0.  1.
          4   -1    0    0  501    0  0.00000000000E+00 -0.00000000000E+00 -0.17327861863E+03  0.17327861863E+03  0.00000000000E+00 0. -1.
         23    2    1    2    0    0  0.14982380364E+03 -0.19248967784E+02 -0.11978172288E+03  0.21389064505E+03  0.92649079891E+02 0.  0.
          5    1    1    2  502    0 -0.91194048370E+02 -0.28878611169E+02  0.10201764013E+04  0.10246597928E+04  0.41800000000E+01 0. -1.
         -5    1    1    2    0  502 -0.58629755268E+02  0.48127578953E+02  0.33926171645E+03  0.34766319435E+03  0.41800000000E+01 0.  1.
        -11    1    3    3    0    0  0.16058953170E+03 -0.67819950359E+01 -0.10872941486E+03  0.19405431921E+03  0.00000000000E+00 0. -1.
         11    1    3    3    0    0 -0.10765728060E+02 -0.12466972748E+02 -0.11052308026E+02  0.19836325840E+02  0.00000000000E+00 0.  1.
</event>
<event>
 7    1  0.5137842E-006  0.2176723E+03  0.7561462E-02  0.1135630E+00
          1   -1    0    0  501    0  0.00000000000E+00  0.00000000000E+00  0.20800896429E+03  0.20800896429E+03  0.00000000000E+00 0. -1.
         -1   -1    0    0    0  501 -0.00000000000E+00 -0.00000000000E+00 -0.27370011240E+03  0.27370011240E+03  0.00000000000E+00 0.  1.
         23    2    1    2    0    0  0.20546973700E+03  0.46886554595E+02  0.12095394260E+02  0.22458456024E+03  0.76653534216E+02 0.  0.
          5    1    1    2  502    0 -0.97056328295E+02 -0.14845782501E+02 -0.10178050435E+03  0.14148170053E+03  0.41800000000E+01 0. -1.
         -5    1    1    2    0  502 -0.10841340871E+03 -0.32040772093E+02  0.23993961974E+02  0.11564281593E+03  0.41800000000E+01 0. -1.
        -11    1    3    3    0    0  0.46349807910E+01 -0.13462722908E+02 -0.21293583316E+01  0.14396601055E+02  0.00000000000E+00 0. -1.
         11    1    3    3    0    0  0.20083475621E+03  0.60349277503E+02  0.14224752591E+02  0.21018795918E+03  0.00000000000E+00 0.  1.
</event>
<event>
 7    1  0.5137842E-006  0.1132641E+03  0.7561462E-02  0.1254642E+00
         -2   -1    0    0    0  501 -0.00000000000E+00  0.00000000000E+00  0.37672590209E+02  0.37672590209E+02  0.00000000000E+00 0.  1.
          2   -1    0    0  501    0  0.00000000000E+00 -0.00000000000E+00 -0.37042162852E+03  0.37042162852E+03  0.00000000000E+00 0. -1.
         23    2    1    2    0    0  0.46447128848E+02 -0.10448761147E+02 -0.15300900259E+03  0.18399542922E+03  0.90421516868E+02 0.  0.
          5    1    1    2  502    0  0.42153775868E+02 -0.36653152599E+01 -0.42778327744E+02  0.60314451672E+02  0.41800000000E+01 0.  1.
         -5    1    1    2    0  502 -0.88600904716E+02  0.14114076407E+02 -0.13696170799E+03  0.16378433785E+03  0.41800000000E+01 0.  1.
        -11    1    3    3    0    0  0.50240802818E+02  0.26670687092E+02 -0.54996078588E+02  0.79120367022E+02  0.00000000000E+00 0.  1.
         11    1    3    3    0    0 -0.37936739700E+01 -0.37119448239E+02 -0.98012923997E+02  0.10487506219E+03  0.00000000000E+00 0. -1.
</event>
<event>
 7    1  0.5137842E-006  0.1154048E+03  0.7561462E-02  0.1250876E+00
          4   -1    0    0  501    0  0.00000000000E+00  0.00000000000E+00  0.63054099837E+02  0.63054099837E+02  0.00000000000E+00 0. -1.
         -4   -1    0    0    0  501 -0.00000000000E+00 -0.00000000000E+00 -0.46349627028E+03  0.46349627028E+03  0.00000000000E+00 0.  1.
         23    2    1    2    0    0 -0.45613801433E+02  0.59043868175E+02 -0.53658082647E+02  0.12849178312E+03  0.89800619401E+02 0.  0.
          5    1    1    2  502    0 -0.43175269517E+01 -0.65117118080E+02 -0.21434225523E+02  0.68816993031E+02  0.41800000000E+01 0. -1.
         -5    1    1    2    0  502  0.49931328384E+02  0.60732499055E+01 -0.32534986227E+03  0.32924159397E+03  0.41800000000E+01 0.  1.
        -11    1    3    3    0    0  0.23057966342E+02  0.35531981078E+02 -0.30870602256E+02  0.52413601048E+02  0.00000000000E+00 0.  1.
         11    1    3    3    0    0 -0.68671767775E+02  0.23511887096E+02 -0.22787480391E+02  0.76078182068E+02  0.00000000000E+00 0. -1.
</event>
<event>
 7    1  0.5137842E-006  0.1282193E+03  0.7561462E-02  0.1230122E+00
         -2   -1    0    0    0  501 -0.00000000000E+00  0.00000000000E+00  0.10002638545E+03  0.10002638545E+03  0.00000000000E+00 0.  1.
          2   -1    0    0  501    0  0.00000000000E+00 -0.00000000000E+00 -0.26144495373E+03  0.26144495373E+03  0.00000000000E+00 0. -1.
         23    2    1    2    0    0 -0.85333049665E+02  0.64362867517E+02 -0.13444669156E+03  0.19474151756E+03  0.91782556677E+02 0.  0.
          5    1    1    2  502    0 -0.14282312146E+02  0.95212128705E+01  0.26300764762E+02  0.31683443023E+02  0.41800000000E+01 0. -1.
         -5    1    1    2    0  502  0.99615361811E+02 -0.73884080388E+02 -0.53272641487E+02  0.13504637861E+03  0.41800000000E+01 0. -1.
        -11    1    3    3    0    0 -0.29519853887E+02  0.46148276755E-01  0.63501403470E+01  0.30195168249E+02  0.00000000000E+00 0.  1.
         11    1    3    3    0    0 -0.55813195778E+02  0.64316719240E+02 -0.14079683190E+03  0.16454634931E+03  0.00000000000E+00 0. -1.
</event>
<event>
 7    1  0.5137842E-006  0.1244581E+03  0.7561462E-02  0.1235919E+00
          3   -1    0    0  501    0  0.00000000000E+00  0.00000000000E+00  0.40579643959E+03  0.40579643959E+03  0.00000000000E+00 0. -1.
         -3   -1    0    0    0  501 -0.00000000000E+00 -0.00000000000E+00 -0.46985659669E+02  0.46985659669E+02  0.00000000000E+00 0.  1.
         23    2    1    2    0    0  0.78675852229E+02  0.40478832172E+02  0.14034339893E+03  0.18960997237E+03  0.91800034959E+02 0.  0.
          5    1    1    2  502    0 -0.61940810156E+02 -0.70675621182E+02  0.20558807542E+03  0.22608767447E+03  0.41800000000E+01 0. -1.
         -5    1    1    2    0  502 -0.16735042073E+02  0.30196789010E+02  0.12879305570E+02  0.37084452425E+02  0.41800000000E+01 0.  1.
        -11    1    3    3    0    0  0.49075426804E+02  0.65129731146E+02  0.12248935004E+03  0.14715271071E+03  0.00000000000E+00 0.  1.
         11    1    3    3    0    0  0.29600425425E+02 -0.24650898974E+02  0.17854048890E+02  0.42457261656E+02  0.00000000000E+00 0. -1.
</event>
<event>
 7    1  0.5137842E-006  0.1148069E+03  0.7561462E-02  0.1251919E+00
         -1   -1    0    0    0  501 -0.00000000000E+00  0.00000000000E+00  0.15317712141E+02  0.15317712141E+02  0.00000000000E+00 0.  1.
          1   -1    0    0  501    0  0.00000000000E+00 -0.00000000000E+00 -0.10508440025E+04  0.10508440025E+04  0.00000000000E+00 0. -1.
         23    2    1    2    0    0 -0.33753295592E+02 -0.50925995057E+02 -0.41077607518E+03  0.42608888313E+03  0.95299582643E+02 0.  0.
          5    1    1    2  502    0  0.22133861945E+02  0.82928742605E+02 -0.56224156560E+03  0.56877072242E+03  0.41800000000E+01 0.  1.
         -5    1    1    2    0  502  0.11619433647E+02 -0.32002747548E+02 -0.62508649606E+02  0.71302109116E+02  0.41800000000E+01 0.  1.
        -11    1    3    3    0    0  0.22842694822E+02 -0.47465700088E+02 -0.14345737907E+03  0.15282277645E+03  0.00000000000E+00 0. -1.
         11    1    3    3    0    0 -0.56595990414E+02 -0.34602949699E+01 -0.26731869610E+03  0.27326610668E+03  0.00000000000E+00 0.  1.
</event>
<event>
 7    1  0.5137842E-006  0.1535334E+03  0.7561462E-02  0.1196197E+00
          1   -1    0    0  501    0  0.00000000000E+00  0.00000000000E+00  0.97959852176E+03  0.97959852176E+03  0.00000000000E+00 0. -1.
         -1   -1    0    0    0  501 -0.00000000000E+00 -0.00000000000E+00 -0.37378894719E+02  0.37378894719E+02  0.00000000000E+00 0.  1.
         23    2    1    2    0    0  0.17898349574E+02  0.15014060890E+03  0.55797454313E+03  0.58552070613E+03  0.92931981399E+02 0.  0.
          5    1    1    2  502    0 -0.10722843796E+02 -0.13415732705E+03  0.38996612650E+03  0.41255814136E+03  0.41800000000E+01 0. -1.
         -5    1    1    2    0  502 -0.71755057783E+01 -0.15983281848E+02 -0.57210425879E+01  0.18898568996E+02  0.41800000000E+01 0. -1.
        -11    1    3    3    0    0  0.15211447236E+02  0.25197662313E+02  0.26679036121E+02  0.39725071194E+02  0.00000000000E+00 0.  1.
         11    1    3    3    0    0  0.26869023385E+01  0.12494294659E+03  0.53129550701E+03  0.54579563493E+03  0.00000000000E+00 0. -1.
</event>
<event>
 7    1  0.5137842E-006  0.1051580E+03  0.7561462E-02  0.1269809E+00
          4   -1    0    0  501    0  0.00000000000E+00  0.00000000000E+00  0.72000546015E+01  0.72000546015E+01  0.00000000000E+00 0.  1.
         -4   -1    0    0    0  501 -0.00000000000E+00 -0.00000000000E+00 -0.20497513581E+04  0.20497513581E+04  0.00000000000E+00 0. -1.
         23    2    1    2    0    0  0.21084580329E+01  0.30884798126E+01 -0.42507619443E+03  0.43464235962E+03  0.90610294141E+02 0.  0.
          5    1    1    2  502    0  0.17936661126E+01  0.58301346249E+02 -0.10161628045E+04  0.10178440852E+04  0.41800000000E+01 0.  1.
         -5    1    1    2    0  502 -0.39021241455E+01 -0.61389826062E+02 -0.60131230459E+03  0.60446496786E+03  0.41800000000E+01 0.  1.
        -11    1    3    3    0    0 -0.43697589014E+02  0.68092722661E+01 -0.18559036826E+03  0.19078687131E+03  0.00000000000E+00 0.  1.
         11    1    3    3    0    0  0.45806047047E+02 -0.37207924535E+01 -0.23948582617E+03  0.24385548831E+03  0.00000000000E+00 0. -1.
</event>
<event>
 7    1  0.5137842E-006  0.1151997E+03  0.7561462E-02  0.1251233E+00
         -2   -1    0    0    0  501 -0.00000000000E+00  0.00000000000E+00  0.11186641924E+04  0.11186641924E+04  0.00000000000E+00 0. -1.
          2   -1    0    0  501    0  0.00000000000E+00 -0.00000000000E+00 -0.17367156786E+02  0.17367156786E+02  0.00000000000E+00 0.  1.
         23    2    1    2    0    0 -0.23425163979E+02 -0.50286641727E+02  0.24396184989E+03  0.26784388865E+03  0.95632002163E+02 0.  0.
          5    1    1    2  502    0  0.27925673226E+02 -0.37257256960E+02  0.22621458971E+03  0.23099450084E+03  0.41800000000E+01 0.  1.
         -5    1    1    2    0  502 -0.45005092479E+01  0.87543898687E+02  0.63112059597E+03  0.63719295966E+03  0.41800000000E+01 0.  1.
        -11    1    3    3    0    0 -0.45308548277E+02 -0.57173936675E+02  0.22928229535E+03  0.24060776077E+03  0.00000000000E+00 0. -1.
         11    1    3    3    0    0  0.21883384298E+02  0.68872949485E+01  0.14679554544E+02  0.27236127876E+02  0.00000000000E+00 0.  1.
</event>
<event>
 7    1  0.5137842E-006  0.1211840E+03  0.7561462E-02  0.1241157E+00
          2   -1    0    0  501    0  0.00000000000E+00  0.00000000000E+00  0.54687685740E+03  0.54687685740E+03  0.00000000000E+00 0. -1.
         -2   -1    0    0    0  501 -0.00000000000E+00 -0.00000000000E+00 -0.29905531782E+02  0.29905531782E+02  0.00000000000E+00 0.  1.
         23    2    1    2    0    0  0.10110430481E+02  0.64393931367E+02  0.25822049174E+03  0.28208251987E+03  0.92972718919E+02 0.  0.
          5    1    1    2  502    0  0.57141121423E+02 -0.25301197369E+02  0.12800173750E+03  0.14250324751E+03  0.41800000000E+01 0.  1.
         -5    1    1    2    0  502 -0.67251551904E+02 -0.39092733998E+02  0.13074909637E+03  0.15219662180E+03  0.41800000000E+01 0.  1.
        -11    1    3    3    0    0  0.38290529138E+02  0.62872517355E+02  0.11822216956E+03  0.13926808477E+03  0.00000000000E+00 0.  1.
         11    1    3    3    0    0 -0.28180098657E+02  0.15214140116E+01  0.13999832218E+03  0.14281443510E+03  0.00000000000E+00 0. -1.
</event>
<event>
 7    1  0.5137842E-006  0.1677166E+03  0.7561462E-02  0.1180250E+00
          2   -1    0    0  501    0  0.00000000000E+00  0.00000000000E+00  0.72819338022E+03  0.72819338022E+03  0.00000000000E+00 0. -1.
         -2   -1    0    0    0  501 -0.00000000000E+00 -0.00000000000E+00 -0.43422876796E+02  0.43422876796E+02  0.00000000000E+00 0.  1.
         23    2    1    2    0    0 -0.72212113110E+02 -0.10803826859E+03  0.43783278836E+03  0.46581765943E+03  0.91660703212E+02 0.  0.
          5    1    1    2  502    0 -0.65939862778E+01  0.10058304764E+03  0.13076145059E+03  0.16515586423E+03  0.41800000000E+01 0. -1.
         -5    1    1    2    0  502  0.78806099388E+02  0.74552209489E+01  0.11617626447E+03  0.14064273336E+03  0.41800000000E+01 0. -1.
        -11    1    3    3    0    0 -0.74986579639E+01  0.14713361258E+02  0.22451310486E+02  0.27870669409E+02  0.00000000000E+00 0.  1.
         11    1    3    3    0    0 -0.64713455146E+02 -0.12275162985E+03  0.41538147787E+03  0.43794699002E+03  0.00000000000E+00 0. -1.
</event>
<event>
 7    1  0.5137842E-006  0.1447465E+03  0.7561462E-02  0.1207081E+00
          2   -1    0    0  501    0  0.00000000000E+00  0.00000000000E+00  0.77598930764E+03  0.77598930764E+03  0.00000000000E+00 0. -1.
         -2   -1    0    0    0  501 -0.00000000000E+00 -0.00000000000E+00 -0.42097798998E+02  0.42097798998E+02  0.00000000000E+00 0.  1.
         23    2    1    2    0    0  0.12975019294E+03 -0.14090500489E+02  0.48415831807E+03  0.50978847275E+03  0.91876848130E+02 0.  0.
          5    1    1    2  502    0  0.20450052416E+01 -0.32185970645E+01 -0.12803791360E+02  0.13998245843E+02  0.41800000000E+01 0.  1.
         -5    1    1    2    0  502 -0.13179519818E+03  0.17309097553E+02  0.26253698192E+03  0.29430038804E+03  0.41800000000E+01 0.  1.
        -11    1    3    3    0    0  0.62371212394E+02 -0.44801759375E+02  0.16271453986E+03  0.17992606053E+03  0.00000000000E+00 0. -1.
         11    1    3    3    0    0  0.67378980542E+02  0.30711258886E+02  0.32144377822E+03  0.32986241222E+03  0.00000000000E+00 0.  1.
</event>
<event>
 7    1  0.5137842E-006  0.2070617E+03  0.7561462E-02  0.1143914E+00
         -2   -1    0    0    0  501 -0.00000000000E+00  0.00000000000E+00  0.32886576866E+02  0.32886576866E+02  0.00000000000E+00 0.  1.
          2   -1    0    0  501    0  0.00000000000E+00 -0.00000000000E+00 -0.15318212959E+04  0.15318212959E+04  0.00000000000E+00 0. -1.
         23    2    1    2    0    0 -0.15325154568E+02  0.18950155050E+03 -0.89711973167E+03  0.92130046671E+03  0.88459250542E+02 0.  0.
          5    1    1    2  502    0  0.65860578175E+02 -0.84427479056E+02 -0.34664170567E+03  0.36282717579E+03  0.41800000000E+01 0. -1.
         -5    1    1    2    0  502 -0.50535423607E+02 -0.10507407144E+03 -0.25517328167E+03  0.28058023025E+03  0.41800000000E+01 0. -1.
        -11    1    3    3    0    0 -0.98756870487E+01  0.15925010873E+03 -0.85131247148E+03  0.86613569977E+03  0.00000000000E+00 0. -1.
         11    1    3    3    0    0 -0.54494675195E+01  0.30251441765E+02 -0.45807260193E+02  0.55164766939E+02  0.00000000000E+00 0.  1.
</event>
<event>
 7    1  0.5137842E-006  0.1437698E+03  0.7561462E-02  0.1208345E+00
         -2   -1    0    0    0  501 -0.00000000000E+00  0.00000000000E+00  0.55681936055E+02  0.55681936055E+02  0.00000000000E+00 0. -1.
          2   -1    0    0  501    0  0.00000000000E+00 -0.00000000000E+00 -0.58178278309E+03  0.58178278309E+03  0.00000000000E+00 0.  1.
         23    2    1    2    0    0  0.68378145826E+02 -0.89526678754E+02 -0.40524200406E+03  0.43023245533E+03  0.90489152575E+02 0.  0.
          5    1    1    2  502    0 -0.81100107047E+02  0.99567114947E+02 -0.55840995603E+02  0.14009470701E+03  0.41800000000E+01 0.  1.
         -5    1    1    2    0  502  0.12721961221E+02 -0.10040436193E+02 -0.65017847370E+02  0.67137556799E+02  0.41800000000E+01 0.  1.
        -11    1    3    3    0    0  0.12273530290E+02  0.17559970506E+02 -0.38254026972E+02  0.43844756694E+02  0.00000000000E+00 0. -1.
         11    1    3    3    0    0  0.56104615535E+02 -0.10708664926E+03 -0.36698797708E+03  0.38638769864E+03  0.00000000000E+00 0.  1.
</event>
<event>
 7    1  0.5137842E-006  0.1986864E+03  0.7561462E-02  0.1150852E+00
          1   -1    0    0  501    0  0.00000000000E+00  0.00000000000E+00  0.76616434963E+03  0.76616434963E+03  0.00000000000E+00 0. -1.
         -1   -1    0    0    0  501 -0.00000000000E+00 -0.00000000000E+00 -0.62619763738E+02  0.62619763738E+02  0.00000000000E+00 0.  1.
         23    2    1    2    0    0  0.88692401525E+02  0.15894097189E+03  0.43985714291E+03  0.48483734668E+03  0.92002021373E+02 0.  0.
          5    1    1    2  502    0 -0.84752688482E+02 -0.17703368943E+03  0.25786306837E+03  0.32409069692E+03  0.41800000000E+01 0.  1.
         -5    1    1    2    0  502 -0.39397130427E+01  0.18092717547E+02  0.58243746168E+01  0.19856069772E+02  0.41800000000E+01 0.  1.
        -11    1    3    3    0    0  0.26782662072E+02  0.43755188835E+02  0.24401246466E+03  0.24934696800E+03  0.00000000000E+00 0. -1.
         11    1    3    3    0    0  0.61909739453E+02  0.11518578305E+03  0.19584467825E+03  0.23549037869E+03  0.00000000000E+00 0.  1.
</event>
<event>
 7    1  0.5137842E-006  0.8829538E+02  0.7561462E-02  0.1307033E+00
         -1   -1    0    0    0  501 -0.00000000000E+00  0.00000000000E+00  0.71185089247E+03  0.71185089247E+03  0.00000000000E+00 0.  1.
          1   -1    0    0  501    0  0.00000000000E+00 -0.00000000000E+00 -0.20663449276E+02  0.20663449276E+02  0.00000000000E+00 0. -1.
         23    2    1    2    0    0  0.21644895345E+02  0.44471691718E+02  0.24092674796E+03  0.26259000958E+03  0.91986859876E+02 0.  0.
          5    1    1    2  502    0  0.15500265497E+02 -0.27517358562E+02  0.19796682904E+02  0.37507923252E+02  0.41800000000E+01 0.  1.
         -5    1    1    2    0  502 -0.37145160842E+02 -0.16954333156E+02  0.43046401234E+03  0.43241640892E+03  0.41800000000E+01 0.  1.
        -11    1    3    3    0    0  0.46740369690E+02 -0.61926294569E+01  0.94039876745E+02  0.10519747733E+03  0.00000000000E+00 0.  1.
         11    1    3    3    0    0 -0.25095474346E+02  0.50664321175E+02  0.14688687121E+03  0.15739253225E+03  0.00000000000E+00 0. -1.
</event>
<event>
 7    1  0.5137842E-006  0.1065638E+03  0.7561462E-02  0.1267069E+00
         -2   -1    0    0    0  501 -0.00000000000E+00  0.00000000000E+00  0.16230690778E+03  0.16230690778E+03  0.00000000000E+00 0.  1.
          2   -1    0    0  501    0  0.00000000000E+00 -0.00000000000E+00 -0.87812342300E+02  0.87812342300E+02  0.00000000000E+00 0. -1.
         23    2    1    2    0    0 -0.25613602215E+02  0.45123369406E+02  0.43457288776E+02  0.11118484822E+03  0.88212014156E+02 0.  0.
          5    1    1    2  502    0  0.64460429835E+02 -0.61504951676E+02  0.36190022306E+02  0.96255889221E+02  0.41800000000E+01 0.  1.
         -5    1    1    2    0  502 -0.38846827621E+02  0.16381582269E+02 -0.51527456007E+01  0.42678512639E+02  0.41800000000E+01 0.  1.
        -11    1    3    3    0    0 -0.42842201963E+00  0.54642198649E+02 -0.59002225226E+01  0.54961496017E+02  0.00000000000E+00 0. -1.
         11    1    3    3    0    0 -0.25185180195E+02 -0.95188292424E+01  0.49357511298E+02  0.56223352205E+02  0.00000000000E+00 0.  1.
</event>
<event>
 7    1  0.5137842E-006  0.1166730E+03  0.7561462E-02  0.1248689E+00
          2   -1    0    0  501    0  0.00000000000E+00  0.00000000000E+00  0.41659891326E+02  0.41659891326E+02  0.00000000000E+00 0. -1.
         -2   -1    0    0    0  501 -0.00000000000E+00 -0.00000000000E+00 -0.39614557964E+03  0.39614557964E+03  0.00000000000E+00 0.  1.
         23    2    1    2    0    0  0.50040360839E+02 -0.46124531390E+02 -0.17485008936E+03  0.20857153872E+03  0.91093484436E+02 0.  0.
          5    1    1    2  502    0 -0.72873193729E+02  0.59297411091E+01 -0.16507082753E+03  0.18058658504E+03  0.41800000000E+01 0. -1.
         -5    1    1    2    0  502  0.22832832889E+02  0.40194790280E+02 -0.14564771420E+02  0.48647347204E+02  0.41800000000E+01 0. -1.
        -11    1    3    3    0    0  0.21023688299E+02 -0.71884289828E+02 -0.11657035932E+03  0.13855683045E+03  0.00000000000E+00 0. -1.
         11    1    3    3    0    0  0.29016672541E+02  0.25759758438E+02 -0.58279730047E+02  0.70014708272E+02  0.00000000000E+00 0.  1.
</event>
<event>
 7    1  0.5137842E-006  0.1409622E+03  0.7561462E-02  0.1212040E+00
          1   -1    0    0  501    0  0.00000000000E+00  0.00000000000E+00  0.43023417404E+03  0.43023417404E+03  0.00000000000E+00 0. -1.
         -1   -1    0    0    0  501 -0.00000000000E+00 -0.00000000000E+00 -0.58676556989E+02  0.58676556989E+02  0.00000000000E+00 0.  1.
         23    2    1    2    0    0 -0.10166624138E+03  0.14640437507E+02  0.25352217632E+03  0.28858410663E+03  0.91961544512E+02 0.  0.
          5    1    1    2  502    0  0.11431764738E+02  0.45706877008E+02  0.12623156958E+02  0.48955289218E+02  0.41800000000E+01 0. -1.
         -5    1    1    2    0  502  0.90234476639E+02 -0.60347314515E+02  0.10541228378E+03  0.15137133518E+03  0.41800000000E+01 0. -1.
        -11    1    3    3    0    0 -0.44493795168E+02  0.43257083857E+02  0.66597826027E+02  0.91028256843E+02  0.00000000000E+00 0.  1.
         11    1    3    3    0    0 -0.57172446209E+02 -0.28616646350E+02  0.18692435029E+03  0.19755584979E+03  0.00000000000E+00 0. -1.
</event>
<event>
 7    1  0.5137842E-006  0.1095765E+03  0.7561462E-02  0.1261356E+00
          2   -1    0    0  501    0  0.00000000000E+00  0.00000000000E+00  0.16380666866E+03  0.16380666866E+03  0.00000000000E+00 0. -1.
         -2   -1    0    0    0  501 -0.00000000000E+00 -0.00000000000E+00 -0.94341087357E+02  0.94341087357E+02  0.00000000000E+00 0.  1.
         23    2    1    2    0    0  0.35729989924E+02 -0.29533119740E+02  0.83530440507E+02  0.13207669728E+03  0.91203520386E+02 0.  0.
          5    1    1    2  502    0 -0.74192275935E+02  0.16749531991E+02  0.12832868220E+02  0.77247624799E+02  0.41800000000E+01 0. -1.
         -5    1    1    2    0  502  0.38462286012E+02  0.12783587749E+02 -0.26897727425E+02  0.48823433939E+02  0.41800000000E+01 0.  1.
        -11    1    3    3    0    0  0.56194864658E+02  0.10597292554E+02  0.44201638181E+02  0.72276899776E+02  0.00000000000E+00 0.  1.
         11    1    3    3    0    0 -0.20464874734E+02 -0.40130412294E+02  0.39328802326E+02  0.59799797501E+02  0.00000000000E+00 0. -1.
</event>
<event>
 7    1  0.5137842E-006  0.9464731E+02  0.7561462E-02  0.1291972E+00
          2   -1    0    0  501    0  0.00000000000E+00  0.00000000000E+00  0.24901386624E+02  0.24901386624E+02  0.00000000000E+00 0. -1.
         -2   -1    0    0    0  501 -0.00000000000E+00 -0.00000000000E+00 -0.49953188229E+03  0.49953188229E+03  0.00000000000E+00 0.  1.
         23    2    1    2    0    0 -0.65118310025E+01  0.19670059238E+02 -0.17318916481E+03  0.19741053447E+03  0.92450620015E+02 0.  0.
          5    1    1    2  502    0 -0.45961513384E+02 -0.24940161784E+02 -0.24124830618E+03  0.24688598587E+03  0.41800000000E+01 0.  1.
         -5    1    1    2    0  502  0.52473344386E+02  0.52701025464E+01 -0.60193024673E+02  0.80136748569E+02  0.41800000000E+01 0.  1.
        -11    1    3    3    0    0 -0.32069533452E+02 -0.19226324283E+02 -0.12476023628E+03  0.13024293868E+03  0.00000000000E+00 0.  1.
         11    1    3    3    0    0  0.25557702450E+02  0.38896383521E+02 -0.48428928530E+02  0.67167595789E+02  0.00000000000E+00 0. -1.
</event>
<event>
 7    1  0.5137842E-006  0.1263029E+03  0.7561462E-02  0.1233047E+00
          2   -1    0    0  501    0  0.00000000000E+00  0.00000000000E+00  0.16977700890E+03  0.16977700890E+03  0.00000000000E+00 0.  1.
         -2   -1    0    0    0  501 -0.00000000000E+00 -0.00000000000E+00 -0.12526562025E+03  0.12526562025E+03  0.00000000000E+00 0. -1.
         23    2    1    2    0    0 -0.72749850414E+02 -0.44790530640E+01  0.84106763703E+02  0.14495047708E+03  0.92865981144E+02 0.  0.
          5    1    1    2  502    0  0.96560970605E+02  0.28224974209E+02 -0.37405622608E+01  0.10075780079E+03  0.41800000000E+01 0. -1.
         -5    1    1    2    0  502 -0.23811120191E+02 -0.23745921145E+02 -0.35854812791E+02  0.49334351278E+02  0.41800000000E+01 0. -1.
        -11    1    3    3    0    0 -0.93500449616E+02  0.79578035539E+01  0.65700854391E+02  0.11455244643E+03  0.00000000000E+00 0.  1.
         11    1    3    3    0    0  0.20750599202E+02 -0.12436856618E+02  0.18405909311E+02  0.30398030649E+02  0.00000000000E+00 0. -1.
</event>
<event>
 7    1  0.5137842E-006  0.1286175E+03  0.7561462E-02  0.1229522E+00
         -2   -1    0    0    0  501 -0.00000000000E+00  0.00000000000E+00  0.26994181771E+02  0.26994181771E+02  0.00000000000E+00 0.  1.
          2   -1    0    0  501    0  0.00000000000E+00 -0.00000000000E+00 -0.69526681268E+03  0.69526681268E+03  0.00000000000E+00 0. -1.
         23    2    1    2    0    0  0.82591135145E+02  0.25123554805E+02 -0.27691138028E+03  0.30242280962E+03  0.85598800457E+02 0.  0.
          5    1    1    2  502    0  0.15667482913E+02 -0.45272833345E+02 -0.87791908189E+02  0.10009990511E+03  0.41800000000E+01 0. -1.
         -5    1    1    2    0  502 -0.98258618058E+02  0.20149278539E+02 -0.30356934244E+03  0.31973827972E+03  0.41800000000E+01 0. -1.
        -11    1    3    3    0    0  0.65372723739E+02 -0.13244497293E+02 -0.97391469377E+02  0.11804282284E+03  0.00000000000E+00 0.  1.
         11    1    3    3    0    0  0.17218411407E+02  0.38368052098E+02 -0.17951991090E+03  0.18437998678E+03  0.00000000000E+00 0. -1.
</event>
<event>
 7    1  0.5137842E-006  0.1834061E+03  0.7561462E-02  0.1164547E+00
         -1   -1    0    0    0  501 -0.00000000000E+00  0.00000000000E+00  0.22554000796E+03  0.22554000796E+03  0.00000000000E+00 0.  1.
          1   -1    0    0  501    0  0.00000000000E+00 -0.00000000000E+00 -0.26201420647E+03  0.26201420647E+03  0.00000000000E+00 0. -1.
         23    2    1    2    0    0 -0.15068343785E+03  0.57418510691E+01 -0.17152524262E+03  0.24959262031E+03  0.10068316621E+03 0.  0.
          5    1    1    2  502    0 -0.11970589959E+02 -0.26878478153E+02  0.89833922737E+01  0.31047082770E+02  0.41800000000E+01 0.  1.
         -5    1    1    2    0  502  0.16265402781E+03  0.21136627084E+02  0.12606765185E+03  0.20691451135E+03  0.41800000000E+01 0.  1.
        -11    1    3    3    0    0  0.94195283893E+01 -0.79566983938E+01 -0.40256857991E+02  0.42102864270E+02  0.00000000000E+00 0. -1.
         11    1    3    3    0    0 -0.16010296624E+03  0.13698549463E+02 -0.13126838463E+03  0.20748975604E+03  0.00000000000E+00 0.  1.
</event>
<event>
 7    1  0.5137842E-006  0.1090193E+03  0.7561462E-02  0.1262397E+00
         -1   -1    0    0    0  501 -0.00000000000E+00  0.00000000000E+00  0.78296777855E+02  0.78296777855E+02  0.00000000000E+00 0.  1.
          1   -1    0    0  501    0  0.00000000000E+00 -0.00000000000E+00 -0.28215992011E+03  0.28215992011E+03  0.00000000000E+00 0. -1.
         23    2    1    2    0    0 -0.48062352009E+02  0.71057284114E+02 -0.16040512914E+03  0.20267267779E+03  0.89371592592E+02 0.  0.
          5    1    1    2  502    0 -0.21656178783E+02 -0.71413059491E+01  0.30027854871E+02  0.37935903815E+02  0.41800000000E+01 0. -1.
         -5    1    1    2    0  502  0.69718530792E+02 -0.63915978165E+02 -0.73485867985E+02  0.11984811636E+03  0.41800000000E+01 0. -1.
        -11    1    3    3    0    0 -0.51956468416E+02  0.32193888505E+02 -0.33096994600E+02  0.69507784592E+02  0.00000000000E+00 0.  1.
         11    1    3    3    0    0  0.38941164066E+01  0.38863395609E+02 -0.12730813454E+03  0.13316489320E+03  0.00000000000E+00 0. -1.
</event>
<event>
 7    1  0.5137842E-006  0.1014060E+03  0.7561462E-02  0.1277367E+00
          1   -1    0    0  501    0  0.00000000000E+00  0.00000000000E+00  0.76780895196E+02  0.76780895196E+02  0.00000000000E+00 0. -1.
         -1   -1    0    0    0  501 -0.00000000000E+00 -0.00000000000E+00 -0.19290616040E+03  0.19290616040E+03  0.00000000000E+00 0.  1.
         23    2    1    2    0    0 -0.25935253081E+02 -0.27202221500E+02 -0.39601720310E+01  0.97522788067E+02  0.89902241479E+02 0.  0.
          5    1    1    2  502    0  0.46044763045E+02 -0.27225240104E+02 -0.98870015965E+02  0.11249038341E+03  0.41800000000E+01 0.  1.
         -5    1    1    2    0  502 -0.20109509964E+02  0.54427461604E+02 -0.13295077205E+02  0.59673884117E+02  0.41800000000E+01 0.  1.
        -11    1    3    3    0    0 -0.17949002851E+02 -0.57195174033E+02  0.14142904021E+02  0.61591203675E+02  0.00000000000E+00 0. -1.
         11    1    3    3    0    0 -0.79862502291E+01  0.29992952533E+02 -0.18103076052E+02  0.35931584392E+02  0.00000000000E+00 0.  1.
</event>
<event>
 7    1  0.5137842E-006  0.1374383E+03  0.7561462E-02  0.1216818E+00
          1   -1    0    0  501    0  0.00000000000E+00  0.00000000000E+00  0.11869926634E+04  0.11869926634E+04  0.00000000000E+00 0. -1.
         -1   -1    0    0    0  501 -0.00000000000E+00 -0.00000000000E+00 -0.23006513245E+02  0.23006513245E+02  0.00000000000E+00 0.  1.
         23    2    1    2    0    0  0.38223632881E+02 -0.11620271100E+03  0.46317014395E+03  0.48767083459E+03  0.91280581228E+02 0.  0.
          5    1    1    2  502    0 -0.12516834911E+02  0.51175424036E+02  0.58204337506E+03  0.58443781366E+03  0.41800000000E+01 0.  1.
         -5    1    1    2    0  502 -0.25706797970E+02  0.65027286963E+02  0.11877263112E+03  0.13789052837E+03  0.41800000000E+01 0.  1.
        -11    1    3    3    0    0  0.59789315777E+02 -0.37969141465E+02  0.23846450945E+03  0.24876040732E+03  0.00000000000E+00 0.  1.
         11    1    3    3    0    0 -0.21565682896E+02 -0.78233569533E+02  0.22470563450E+03  0.23891042727E+03  0.00000000000E+00 0. -1.
</event>
<event>
 7    1  0.5137842E-006  0.1603620E+03  0.7561462E-02  0.1188289E+00
          2   -1    0    0  501    0  0.00000000000E+00  0.00000000000E+00  0.24304937736E+03  0.24304937736E+03  0.00000000000E+00 0. -1.
         -2   -1    0    0    0  501 -0.00000000000E+00 -0.00000000000E+00 -0.24091011180E+03  0.24091011180E+03  0.00000000000E+00 0.  1.
         23    2    1    2    0    0 -0.86220153342E+02 -0.13061492223E+03  0.14951729474E+03  0.23523738319E+03  0.92125090350E+02 0.  0.
          5    1    1    2  502    0  0.57453132282E+02  0.58899261246E+02 -0.15017417015E+03  0.17128846770E+03  0.41800000000E+01 0. -1.
         -5    1    1    2    0  502  0.28767021060E+02  0.71715660982E+02  0.27961409748E+01  0.77433638266E+02  0.41800000000E+01 0. -1.
        -11    1    3    3    0    0 -0.33659668455E+02 -0.21776804060E+02  0.94079000070E+02  0.10226466022E+03  0.00000000000E+00 0.  1.
         11    1    3    3    0    0 -0.52560484887E+02 -0.10883811817E+03  0.55438294670E+02  0.13297272297E+03  0.00000000000E+00 0. -1.
</event>
<event>
 7    1  0.5137842E-006  0.1217376E+03  0.7561462E-02  0.1240258E+00
          1   -1    0    0  501    0  0.00000000000E+00  0.00000000000E+00  0.45254225015E+03  0.45254225015E+03  0.00000000000E+00 0. -1.
         -1   -1    0    0    0  501 -0.00000000000E+00 -0.00000000000E+00 -0.52531988632E+02  0.52531988632E+02  0.00000000000E+00 0.  1.
         23    2    1    2    0    0  0.96813525078E+01 -0.10104578674E+03  0.25065206175E+03  0.28539913534E+03  0.91226261517E+02 0.  0.
          5    1    1    2  502    0  0.12724750889E+02  0.58306680355E+02 -0.29025809235E+01  0.59895622838E+02  0.41800000000E+01 0. -1.
         -5    1    1    2    0  502 -0.22406103397E+02  0.42739106386E+02  0.15226078069E+03  0.15977948060E+03  0.41800000000E+01 0. -1.
        -11    1    3    3    0    0  0.49021216606E+02 -0.68046506609E+02  0.13608534857E+03  0.15985189657E+03  0.00000000000E+00 0.  1.
         11    1    3    3    0    0 -0.39339864098E+02 -0.32999280132E+02  0.11456671317E+03  0.12554723877E+03  0.00000000000E+00 0. -1.
</event>
<event>
 7    1  0.5137842E-006  0.1149819E+03  0.7561462E-02  0.1251613E+00
          1   -1    0    0  501    0  0.00000000000E+00  0.00000000000E+00  0.76448362407E+03  0.76448362407E+03  0.00000000000E+00 0. -1.
         -1   -1    0    0    0  501 -0.00000000000E+00 -0.00000000000E+00 -0.22220311472E+02  0.22220311472E+02  0.00000000000E+00 0.  1.
         23    2    1    2    0    0  0.10630078677E+02 -0.60813180082E+02  0.42778717363E+03  0.44267605732E+03  0.95650323322E+02 0.  0.
          5    1    1    2  502    0 -0.52152479183E+02  0.54395504828E+02  0.99182761096E+02  0.12463324006E+03  0.41800000000E+01 0.  1.
         -5    1    1    2    0  502  0.41522400506E+02  0.64176752539E+01  0.21529337787E+03  0.21939463816E+03  0.41800000000E+01 0.  1.
        -11    1    3    3    0    0  0.36683756873E+02  0.89826609786E+01  0.11110125594E+03  0.11734511190E+03  0.00000000000E+00 0.  1.
         11    1    3    3    0    0 -0.26053678196E+02 -0.69795841061E+02  0.31668591770E+03  0.32533094542E+03  0.00000000000E+00 0. -1.
</event>
<event>
 7    1  0.5137842E-006  0.1621839E+03  0.7561462E-02  0.1186253E+00
         -2   -1    0    0    0  501 -0.00000000000E+00  0.00000000000E+00  0.42472836671E+02  0.42472836671E+02  0.00000000000E+00 0.  1.
          2   -1    0    0  501    0  0.00000000000E+00 -0.00000000000E+00 -0.67980889629E+03  0.67980889629E+03  0.00000000000E+00 0. -1.
         23    2    1    2    0    0 -0.52967096106E+02  0.11640650669E+03 -0.30220821233E+03  0.34239471531E+03  0.97715655861E+02 0.  0.
          5    1    1    2  502    0  0.65782844954E+02 -0.13788731531E+03 -0.27469498052E+03  0.31434869037E+03  0.41800000000E+01 0. -1.
         -5    1    1    2    0  502 -0.12815748848E+02  0.21480808619E+02 -0.60432866771E+02  0.65538327288E+02  0.41800000000E+01 0. -1.
        -11    1    3    3    0    0 -0.38951224335E+02  0.11893607982E+02 -0.30318538185E+02  0.50772724427E+02  0.00000000000E+00 0.  1.
         11    1    3    3    0    0 -0.14015871771E+02  0.10451289871E+03 -0.27188967415E+03  0.29162199088E+03  0.00000000000E+00 0. -1.
</event>
<event>
 7    1  0.5137842E-006  0.5873692E+02  0.7561462E-02  0.1403210E+00
          1   -1    0    0  501    0  0.00000000000E+00  0.00000000000E+00  0.15829526497E+03  0.15829526497E+03  0.00000000000E+00 0. -1.
         -1   -1    0    0    0  501 -0.00000000000E+00 -0.00000000000E+00 -0.97105351308E+02  0.97105351308E+02  0.00000000000E+00 0.  1.
         23    2    1    2    0    0  0.52895726960E+01  0.43422887800E+02  0.70477628747E+02  0.12255284886E+03  0.90214066790E+02 0.  0.
          5    1    1    2  502    0 -0.13888796460E+02 -0.21830609874E+02  0.56860711392E+02  0.62610598900E+02  0.41800000000E+01 0. -1.
         -5    1    1    2    0  502  0.85992237639E+01 -0.21592277926E+02 -0.66148426477E+02  0.70237168514E+02  0.41800000000E+01 0. -1.
        -11    1    3    3    0    0  0.72580191721E+01  0.55217221472E+02  0.49149220661E+01  0.55908647349E+02  0.00000000000E+00 0.  1.
         11    1    3    3    0    0 -0.19684464761E+01 -0.11794333672E+02  0.65562706681E+02  0.66644201516E+02  0.00000000000E+00 0. -1.
</event>
<event>
 7    1  0.5137842E-006  0.1348054E+03  0.7561462E-02  0.1220495E+00
         -3   -1    0    0    0  501 -0.00000000000E+00  0.00000000000E+00  0.33420849091E+03  0.33420849091E+03  0.00000000000E+00 0.  1.
          3   -1    0    0  501    0  0.00000000000E+00 -0.00000000000E+00 -0.72519876994E+02  0.72519876994E+02  0.00000000000E+00 0. -1.
         23    2    1    2    0    0 -0.10450051141E+02 -0.10913152219E+03  0.10277137537E+03  0.17668202968E+03  0.92928420366E+02 0.  0.
          5    1    1    2  502    0  0.41538828694E+02  0.66885636543E+02  0.19775588830E+02  0.81287815684E+02  0.41800000000E+01 0. -1.
         -5    1    1    2    0  502 -0.31088777552E+02  0.42245885646E+02  0.13914164971E+03  0.14875852254E+03  0.41800000000E+01 0. -1.
        -11    1    3    3    0    0  0.33086602864E+02 -0.19257416666E+02  0.52228194334E+02  0.64756124569E+02  0.00000000000E+00 0. -1.
         11    1    3    3    0    0 -0.43536654006E+02 -0.89874105522E+02  0.50543181038E+02  0.11192590511E+03  0.00000000000E+00 0.  1.
</event>
<event>
 7    1  0.5137842E-006  0.2892533E+03  0.7561462E-02  0.1090740E+00
          2   -1    0    0  501    0  0.00000000000E+00  0.00000000000E+00  0.15589187425E+04  0.15589187425E+04  0.00000000000E+00 0. -1.
         -2   -1    0    0    0  501 -0.00000000000E+00 -0.00000000000E+00 -0.60462558635E+02  0.60462558635E+02  0.00000000000E+00 0.  1.
         23    2    1    2    0    0  0.21743029305E+01 -0.28395379567E+03  0.62929795351E+03  0.69649551032E+03  0.91954314386E+02 0.  0.
          5    1    1    2  502    0 -0.29386761111E+02  0.15525425935E+03  0.30437946752E+03  0.34297492536E+03  0.41800000000E+01 0.  1.
         -5    1    1    2    0  502  0.27212458181E+02  0.12869953632E+03  0.56477876285E+03  0.57991086548E+03  0.41800000000E+01 0.  1.
        -11    1    3    3    0    0  0.24787314807E+02 -0.83437627702E+02  0.27868720513E+03  0.29196370835E+03  0.00000000000E+00 0. -1.
         11    1    3    3    0    0 -0.22613011877E+02 -0.20051616797E+03  0.35061074838E+03  0.40453180197E+03  0.00000000000E+00 0.  1.
</event>
<event>
 7    1  0.5137842E-006  0.1883525E+03  0.7561462E-02  0.1159956E+00
         -2   -1    0    0    0  501 -0.00000000000E+00  0.00000000000E+00  0.29371214607E+02  0.29371214607E+02  0.00000000000E+00 0.  1.
          2   -1    0    0  501    0  0.00000000000E+00 -0.00000000000E+00 -0.13765804427E+04  0.13765804427E+04  0.00000000000E+00 0. -1.
         23    2    1    2    0    0  0.24682652636E+01  0.16906245365E+03 -0.60070821939E+03  0.63038691410E+03  0.89157675224E+02 0.  0.
          5    1    1    2  502    0 -0.49332432911E+02 -0.25559798559E+02 -0.27060106246E+03  0.27627775814E+03  0.41800000000E+01 0.  1.
         -5    1    1    2    0  502  0.46864167647E+02 -0.14350265509E+03 -0.47589994626E+03  0.49928698509E+03  0.41800000000E+01 0.  1.
        -11    1    3    3    0    0 -0.74319767083E+01  0.60354724671E+02 -0.93284754285E+02  0.11135516355E+03  0.00000000000E+00 0.  1.
         11    1    3    3    0    0  0.99002419719E+01  0.10870772898E+03 -0.50742346511E+03  0.51903175054E+03  0.00000000000E+00 0. -1.
</event>
<event>
 7    1  0.5137842E-006  0.1254282E+03  0.7561462E-02  0.1234402E+00
          1   -1    0    0  501    0  0.00000000000E+00  0.00000000000E+00  0.29561401061E+02  0.29561401061E+02  0.00000000000E+00 0. -1.
         -1   -1    0    0    0  501 -0.00000000000E+00 -0.00000000000E+00 -0.63854577423E+03  0.63854577423E+03  0.00000000000E+00 0.  1.
         23    2    1    2    0    0  0.81568082050E+02  0.15229506608E+02 -0.22152328485E+03  0.25258517779E+03  0.88551772570E+02 0.  0.
          5    1    1    2  502    0 -0.10941352448E+03 -0.11238390367E+02 -0.22373102867E+03  0.24934046271E+03  0.41800000000E+01 0. -1.
         -5    1    1    2    0  502  0.27845442429E+02 -0.39911162405E+01 -0.16373005965E+03  0.16618153479E+03  0.41800000000E+01 0. -1.
        -11    1    3    3    0    0  0.37504857655E+02  0.45443834910E+02 -0.67712136803E+02  0.89759066113E+02  0.00000000000E+00 0. -1.
         11    1    3    3    0    0  0.44063224395E+02 -0.30214328302E+02 -0.15381114805E+03  0.16282611167E+03  0.00000000000E+00 0.  1.
</event>
<event>
 7    1  0.5137842E-006  0.2670769E+03  0.7561462E-02  0.1102964E+00
          2   -1    0    0  501    0  0.00000000000E+00  0.00000000000E+00  0.62589989072E+03  0.62589989072E+03  0.00000000000E+00 0. -1.
         -2   -1    0    0    0  501 -0.00000000000E+00 -0.00000000000E+00 -0.13642999895E+03  0.13642999895E+03  0.00000000000E+00 0.  1.
         23    2    1    2    0    0 -0.14694609780E+03 -0.21787518971E+03  0.33949526540E+03  0.43491063357E+03  0.69479997221E+02 0.  0.
          5    1    1    2  502    0  0.11261931803E+03  0.10781227390E+03  0.26078698541E+02  0.15812706320E+03  0.41800000000E+01 0.  1.
         -5    1    1    2    0  502  0.34326779764E+02  0.11006291581E+03  0.12389592783E+03  0.16929219290E+03  0.41800000000E+01 0.  1.
        -11    1    3    3    0    0 -0.33856173393E+02 -0.53057467264E+02  0.13500467050E+03  0.14895501457E+03  0.00000000000E+00 0. -1.
         11    1    3    3    0    0 -0.11308992440E+03 -0.16481772245E+03  0.20449059490E+03  0.28595561900E+03  0.00000000000E+00 0.  1.
</event>
<event>
 6    1  0.5137842E-006  0.8390814E+02  0.7561462E-02  0.1318313E+00
         -2   -1    0    0    0  501 -0.00000000000E+00  0.00000000000E+00  0.33009414132E+03  0.33009414132E+03  0.00000000000E+00 0.  1.
          2   -1    0    0  501    0  0.00000000000E+00 -0.00000000000E+00 -0.63127216033E+02  0.63127216033E+02  0.00000000000E+00 0. -1.
          5    1    1    2  502    0  0.27151871580E+02 -0.27820501092E+02 -0.29373848153E+02  0.48902962759E+02  0.41800000000E+01 0. -1.
         -5    1    1    2    0  502 -0.26946443605E+02  0.74426527760E+02  0.28152642511E+03  0.29247225389E+03  0.41800000000E+01 0.  1.
        -11    1    1    2    0    0 -0.81716706302E+01 -0.18179781866E+02  0.35327658880E+01  0.20242556766E+02  0.00000000000E+00 0. -1.
         11    1    1    2    0    0  0.79662426556E+01 -0.28426244802E+02  0.11281582437E+02  0.31603583940E+02  0.00000000000E+00 0.  1.
</event>
<event>
 7    1  0.5137842E-006  0.6784096E+02  0.7561462E-02  0.1367593E+00
         -1   -1    0    0    0  501 -0.00000000000E+00  0.00000000000E+00  0.68045627008E+02  0.68045627008E+02  0.00000000000E+00 0.  1.
          1   -1    0    0  501    0  0.00000000000E+00 -0.00000000000E+00 -0.22570118677E+03  0.22570118677E+03  0.00000000000E+00 0. -1.
         23    2    1    2    0    0  0.42069880884E+02 -0.32895174898E+02 -0.12771634199E+03  0.15447793374E+03  0.68556550334E+02 0.  0.
          5    1    1    2  502    0 -0.22277984037E+02  0.16385632047E+02  0.48836589078E+02  0.56278613550E+02  0.41800000000E+01 0.  1.
         -5    1    1    2    0  502 -0.19791896846E+02  0.16509542852E+02 -0.78775806855E+02  0.82990266487E+02  0.41800000000E+01 0.  1.
        -11    1    3    3    0    0 -0.11567286052E+02 -0.24790455019E+02 -0.70560933918E+02  0.75678359932E+02  0.00000000000E+00 0.  1.
         11    1    3    3    0    0  0.53637166935E+02 -0.81047198789E+01 -0.57155408070E+02  0.78799573811E+02  0.00000000000E+00 0. -1.
</event>
<event>
 7    1  0.5137842E-006  0.1334929E+03  0.7561462E-02  0.1222363E+00
          1   -1    0    0  501    0  0.00000000000E+00  0.00000000000E+00  0.99229962153E+03  0.99229962153E+03  0.00000000000E+00 0. -1.
         -1   -1    0    0    0  501 -0.00000000000E+00 -0.00000000000E+00 -0.18117457980E+02  0.18117457980E+02  0.00000000000E+00 0.  1.
         23    2    1    2    0    0 -0.71002645433E+02  0.36391830869E+02  0.40464768018E+03  0.42187563248E+03  0.88733100917E+02 0.  0.
          5    1    1    2  502    0 -0.35884750664E+02 -0.11065485107E+02  0.17099284879E+03  0.17511763768E+03  0.41800000000E+01 0.  1.
         -5    1    1    2    0  502  0.10688739610E+03 -0.25326345762E+02  0.39854163458E+03  0.41342380934E+03  0.41800000000E+01 0.  1.
        -11    1    3    3    0    0 -0.90021563671E+02  0.16074772243E+02  0.31546435717E+03  0.32845097179E+03  0.00000000000E+00 0.  1.
         11    1    3    3    0    0  0.19018918239E+02  0.20317058626E+02  0.89183323009E+02  0.93424660691E+02  0.00000000000E+00 0. -1.
</event>
<event>
 7    1  0.5137842E-006  0.1868419E+03  0.7561462E-02  0.1161341E+00
         -1   -1    0    0    0  501 -0.00000000000E+00  0.00000000000E+00  0.25547385396E+03  0.25547385396E+03  0.00000000000E+00 0.  1.
          1   -1    0    0  501    0  0.00000000000E+00 -0.00000000000E+00 -0.18923186230E+03  0.18923186230E+03  0.00000000000E+00 0. -1.
         23    2    1    2    0    0  0.68470276337E+02  0.16564601706E+03 -0.38573712038E+02  0.20230065257E+03  0.85503456435E+02 0.  0.
          5    1    1    2  502    0 -0.82506531994E+02 -0.11426624263E+03  0.12182045301E+03  0.18633785766E+03  0.41800000000E+01 0. -1.
         -5    1    1    2    0  502  0.14036255657E+02 -0.51379774425E+02 -0.17004749312E+02  0.56067206030E+02  0.41800000000E+01 0. -1.
        -11    1    3    3    0    0  0.29372693672E+02  0.67969773167E+02  0.26439460522E+02  0.78623725876E+02  0.00000000000E+00 0.  1.
         11    1    3    3    0    0  0.39097582666E+02  0.97676243889E+02 -0.65013172560E+02  0.12367692670E+03  0.00000000000E+00 0. -1.
</event>
<event>
 7    1  0.5137842E-006  0.2543113E+03  0.7561462E-02  0.1110610E+00
          1   -1    0    0  501    0  0.00000000000E+00  0.00000000000E+00  0.93166007089E+03  0.93166007089E+03  0.00000000000E+00 0. -1.
         -1   -1    0    0    0  501 -0.00000000000E+00 -0.00000000000E+00 -0.11578556517E+03  0.11578556517E+03  0.00000000000E+00 0.  1.
         23    2    1    2    0    0 -0.17918008250E+03 -0.15770776289E+03  0.71575998647E+03  0.75996024030E+03  0.90829335413E+02 0.  0.
          5    1    1    2  502    0  0.13829185081E+03  0.43757774312E+02  0.76606030251E+02  0.16408941186E+03  0.41800000000E+01 0.  1.
         -5    1    1    2    0  502  0.40888231686E+02  0.11394998858E+03  0.23508489010E+02  0.12339598390E+03  0.41800000000E+01 0.  1.
        -11    1    3    3    0    0 -0.92145165977E+02 -0.10867082828E+03  0.29640822346E+03  0.32887370747E+03  0.00000000000E+00 0.  1.
         11    1    3    3    0    0 -0.87034916519E+02 -0.49036934614E+02  0.41935176301E+03  0.43108653283E+03  0.00000000000E+00 0. -1.
</event>
<event>
 7    1  0.5137842E-006  0.1486779E+03  0.7561462E-02  0.1202107E+00
         -2   -1    0    0    0  501 -0.00000000000E+00  0.00000000000E+00  0.20669973233E+03  0.20669973233E+03  0.00000000000E+00 0.  1.
          2   -1    0    0  501    0  0.00000000000E+00 -0.00000000000E+00 -0.21388533017E+03  0.21388533017E+03  0.00000000000E+00 0. -1.
         23    2    1    2    0    0 -0.85297649033E+02 -0.11294887378E+03 -0.11410912705E+03  0.20353053094E+03  0.91491240723E+02 0.  0.
          5    1    1    2  502    0  0.63198936990E+02  0.42693441648E+02  0.11989147462E+03  0.14215580777E+03  0.41800000000E+01 0. -1.
         -5    1    1    2    0  502  0.22098712042E+02  0.70255432132E+02 -0.12967945417E+02  0.74898723796E+02  0.41800000000E+01 0. -1.
        -11    1    3    3    0    0 -0.51053791735E+02 -0.34525559030E+02 -0.99024144181E+02  0.11663740827E+03  0.00000000000E+00 0. -1.
         11    1    3    3    0    0 -0.34243857297E+02 -0.78423314750E+02 -0.15084982868E+02  0.86893122668E+02  0.00000000000E+00 0.  1.
</event>
<event>
 7    1  0.5137842E-006  0.1535942E+03  0.7561462E-02  0.1196125E+00
         -1   -1    0    0    0  501 -0.00000000000E+00  0.00000000000E+00  0.57305881259E+02  0.57305881259E+02  0.00000000000E+00 0.  1.
          1   -1    0    0  501    0  0.00000000000E+00 -0.00000000000E+00 -0.49769572848E+03  0.49769572848E+03  0.00000000000E+00 0. -1.
         23    2    1    2    0    0 -0.95074101059E-01 -0.12371637285E+03 -0.26147193784E+03  0.30409007842E+03  0.93794731020E+02 0.  0.
          5    1    1    2  502    0  0.37361994806E+02  0.20346462279E+02 -0.11733501651E+03  0.12487944459E+03  0.41800000000E+01 0.  1.
         -5    1    1    2    0  502 -0.37266920704E+02  0.10336991057E+03 -0.61582892881E+02  0.12603208673E+03  0.41800000000E+01 0.  1.
        -11    1    3    3    0    0  0.36462199277E+02 -0.10923130684E+03 -0.20750273653E+03  0.23731488794E+03  0.00000000000E+00 0.  1.
         11    1    3    3    0    0 -0.36557273378E+02 -0.14485066013E+02 -0.53969201307E+02  0.66775190482E+02  0.00000000000E+00 0. -1.
</event>
<event>
 7    1  0.5137842E-006  0.6409853E+02  0.7561462E-02  0.1381395E+00
          2   -1    0    0  501    0  0.00000000000E+00  0.00000000000E+00  0.69189240472E+02  0.69189240472E+02  0.00000000000E+00 0. -1.
         -2   -1    0    0    0  501 -0.00000000000E+00 -0.00000000000E+00 -0.19126769242E+03  0.19126769242E+03  0.00000000000E+00 0.  1.
         23    2    1    2    0    0  0.12439209080E+02  0.14024390442E+02 -0.17914147632E+02  0.96599499379E+02  0.93054441834E+02 0.  0.
          5    1    1    2  502    0 -0.50217773538E+02 -0.16736996658E+02 -0.16676596822E+00  0.53098512664E+02  0.41800000000E+01 0. -1.
         -5    1    1    2    0  502  0.37778564458E+02  0.27126062157E+01 -0.10399753835E+03  0.11075892085E+03  0.41800000000E+01 0. -1.
        -11    1    3    3    0    0 -0.10866467990E+02  0.54834620419E+01 -0.52576168559E+02  0.53966674744E+02  0.00000000000E+00 0.  1.
         11    1    3    3    0    0  0.23305677070E+02  0.85409284000E+01  0.34662020927E+02  0.42632824635E+02  0.00000000000E+00 0. -1.
</event>
<event>
 7    1  0.5137842E-006  0.1050220E+03  0.7561462E-02  0.1270076E+00
          1   -1    0    0  501    0  0.00000000000E+00  0.00000000000E+00  0.73404102182E+02  0.73404102182E+02  0.00000000000E+00 0. -1.
         -1   -1    0    0    0  501 -0.00000000000E+00 -0.00000000000E+00 -0.21645852289E+03  0.21645852289E+03  0.00000000000E+00 0.  1.
         23    2    1    2    0    0 -0.59994056555E+02 -0.21437902024E+02 -0.52311121913E+02  0.12271016339E+03  0.90898076214E+02 0.  0.
          5    1    1    2  502    0  0.77712528989E+02  0.36860804699E+02 -0.10769061798E+03  0.13788653918E+03  0.41800000000E+01 0.  1.
         -5    1    1    2    0  502 -0.17718472435E+02 -0.15422902675E+02  0.16947319185E+02  0.29265922502E+02  0.41800000000E+01 0.  1.
        -11    1    3    3    0    0 -0.64046660218E+02 -0.43640877661E+02 -0.60894952397E+02  0.98563158003E+02  0.00000000000E+00 0.  1.
         11    1    3    3    0    0  0.40526036635E+01  0.22202975637E+02  0.85838304845E+01  0.24147005391E+02  0.00000000000E+00 0. -1.
</event>
<event>
 7    1  0.5137842E-006  0.1112661E+03  0.7561462E-02  0.1258243E+00
          1   -1    0    0  501    0  0.00000000000E+00  0.00000000000E+00  0.20213653098E+02  0.20213653098E+02  0.00000000000E+00 0. -1.
         -1   -1    0    0    0  501 -0.00000000000E+00 -0.00000000000E+00 -0.73872257965E+03  0.73872257965E+03  0.00000000000E+00 0.  1.
         23    2    1    2    0    0  0.53338475590E+02  0.17848495154E+02 -0.35002268617E+03  0.36575273759E+03  0.89975677073E+02 0.  0.
          5    1    1    2  502    0 -0.74126147999E+02 -0.53448076217E+02 -0.29453549365E+03  0.30841532402E+03  0.41800000000E+01 0. -1.
         -5    1    1    2    0  502  0.20787672409E+02  0.35599581064E+02 -0.73950746728E+02  0.84768171136E+02  0.41800000000E+01 0. -1.
        -11    1    3    3    0    0 -0.16534731591E+02 -0.27652701377E+01 -0.13757619881E+02  0.21686774138E+02  0.00000000000E+00 0. -1.
         11    1    3    3    0    0  0.69873207180E+02  0.20613765291E+02 -0.33626506629E+03  0.34406596346E+03  0.00000000000E+00 0.  1.
</event>
<event>
 7    1  0.5137842E-006  0.9943282E+02  0.7561462E-02  0.1281493E+00
         -2   -1    0    0    0  501 -0.00000000000E+00  0.00000000000E+00  0.23049787096E+02  0.23049787096E+02  0.00000000000E+00 0.  1.
          2   -1    0    0  501    0  0.00000000000E+00 -0.00000000000E+00 -0.67413077767E+03  0.67413077767E+03  0.00000000000E+00 0. -1.
         23    2    1    2    0    0 -0.23585101060E+02  0.52047277657E+02 -0.35242332514E+03  0.36838164024E+03  0.90761537327E+02 0.  0.
          5    1    1    2  502    0  0.21063199966E+02 -0.71099173514E+02 -0.79632137897E+02  0.10889215148E+03  0.41800000000E+01 0. -1.
         -5    1    1    2    0  502  0.25219010940E+01  0.19051895858E+02 -0.21902552754E+03  0.21990677306E+03  0.41800000000E+01 0. -1.
        -11    1    3    3    0    0  0.29060153376E+02 -0.24390040258E+01 -0.13565432894E+03  0.13875351605E+03  0.00000000000E+00 0. -1.
         11    1    3    3    0    0 -0.52645254437E+02  0.54486281683E+02 -0.21676899619E+03  0.22962812419E+03  0.00000000000E+00 0.  1.
</event>
<event>
 7    1  0.5137842E-006  0.1238363E+03  0.7561462E-02  0.1236899E+00
          1   -1    0    0  501    0  0.00000000000E+00  0.00000000000E+00  0.44518789399E+03  0.44518789399E+03  0.00000000000E+00 0. -1.
         -1   -1    0    0    0  501 -0.00000000000E+00 -0.00000000000E+00 -0.28429498848E+03  0.28429498848E+03  0.00000000000E+00 0.  1.
         23    2    1    2    0    0 -0.79802655008E+02  0.74862281149E+02  0.40447981302E+03  0.42926955868E+03  0.93250254620E+02 0.  0.
          5    1    1    2  502    0  0.69152143636E+02 -0.75108540064E+02 -0.64658722699E+02  0.12091953763E+03  0.41800000000E+01 0. -1.
         -5    1    1    2    0  502  0.10650511372E+02  0.24625891504E+00 -0.17892818481E+03  0.17929378616E+03  0.41800000000E+01 0.  1.
        -11    1    3    3    0    0  0.12477848534E+02 -0.35277731305E+01  0.93021448154E+01  0.15958439318E+02  0.00000000000E+00 0.  1.
         11    1    3    3    0    0 -0.92280503542E+02  0.78390054280E+02  0.39517766820E+03  0.41331111936E+03  0.00000000000E+00 0. -1.
</event>
<event>
 7    1  0.5137842E-006  0.1709858E+03  0.7561462E-02  0.1176824E+00
         -1   -1    0    0    0  501 -0.00000000000E+00  0.00000000000E+00  0.16445215088E+03  0.16445215088E+03  0.00000000000E+00 0.  1.
          1   -1    0    0  501    0  0.00000000000E+00 -0.00000000000E+00 -0.20235661913E+03  0.20235661913E+03  0.00000000000E+00 0. -1.
         23    2    1    2    0    0 -0.58234384692E+02  0.11953892106E+03 -0.79545114235E+02  0.17956057376E+03  0.90740163336E+02 0.  0.
          5    1    1    2  502    0  0.96902302182E+02 -0.83652953716E+02  0.40437023061E+02  0.13431492124E+03  0.41800000000E+01 0.  1.
         -5    1    1    2    0  502 -0.38667917490E+02 -0.35885967341E+02  0.12036229264E+01  0.52933275009E+02  0.41800000000E+01 0.  1.
        -11    1    3    3    0    0  0.23364006916E+02  0.43776878827E+02 -0.25511103904E+02  0.55795236010E+02  0.00000000000E+00 0.  1.
         11    1    3    3    0    0 -0.81598391608E+02  0.75762042230E+02 -0.54034010331E+02  0.12376533775E+03  0.00000000000E+00 0. -1.
</event>
<event>
 7    1  0.5137842E-006  0.1254644E+03  0.7561462E-02  0.1234345E+00
          2   -1    0    0  501    0  0.00000000000E+00  0.00000000000E+00  0.29661464459E+03  0.29661464459E+03  0.00000000000E+00 0. -1.
         -2   -1    0    0    0  501 -0.00000000000E+00 -0.00000000000E+00 -0.85630438538E+02  0.85630438538E+02  0.00000000000E+00 0.  1.
         23    2    1    2    0    0  0.76229085614E+02  0.45850316166E+01  0.20280235149E+03  0.23545773238E+03  0.92085036561E+02 0.  0.
          5    1    1    2  502    0 -0.88750898584E+02 -0.45330416056E+02  0.21298303360E+02  0.10199342501E+03  0.41800000000E+01 0. -1.
         -5    1    1    2    0  502  0.12521812970E+02  0.40745384439E+02 -0.13116448807E+02  0.44793925732E+02  0.41800000000E+01 0. -1.
        -11    1    3    3    0    0  0.51183220910E+02 -0.34647756241E+02  0.16260990464E+03  0.17396025466E+03  0.00000000000E+00 0. -1.
         11    1    3    3    0    0  0.25045864704E+02  0.39232787857E+02  0.40192446857E+02  0.61497477722E+02  0.00000000000E+00 0.  1.
</event>
<event>
 7    1  0.5137842E-006  0.1268303E+03  0.7561462E-02  0.1232236E+00
         -1   -1    0    0    0  501 -0.00000000000E+00  0.00000000000E+00  0.33347215241E+03  0.33347215241E+03  0.00000000000E+00 0. -1.
          1   -1    0    0  501    0  0.00000000000E+00 -0.00000000000E+00 -0.65952742892E+02  0.65952742892E+02  0.00000000000E+00 0.  1.
         23    2    1    2    0    0 -0.32824228471E+02  0.76403228321E+02  0.52623213927E+02  0.13723624169E+03  0.95654064817E+02 0.  0.
          5    1    1    2  502    0  0.32878685468E+02  0.23385604993E+02  0.11050420201E+03  0.11771382901E+03  0.41800000000E+01 0. -1.
         -5    1    1    2    0  502 -0.54456997257E-01 -0.99788833314E+02  0.10439199358E+03  0.14447482460E+03  0.41800000000E+01 0. -1.
        -11    1    3    3    0    0  0.25334849026E+02  0.25209012516E+02  0.47692991352E+02  0.59598408631E+02  0.00000000000E+00 0. -1.
         11    1    3    3    0    0 -0.58159077497E+02  0.51194215804E+02  0.49302225742E+01  0.77637833057E+02  0.00000000000E+00 0.  1.
</event>
<event>
 7    1  0.5137842E-006  0.1109073E+03  0.7561462E-02  0.1258899E+00
         -4   -1    0    0    0  501 -0.00000000000E+00  0.00000000000E+00  0.82252811246E+02  0.82252811246E+02  0.00000000000E+00 0.  1.
          4   -1    0    0  501    0  0.00000000000E+00 -0.00000000000E+00 -0.25460441971E+03  0.25460441971E+03  0.00000000000E+00 0. -1.
         23    2    1    2    0    0  0.93736955550E+01  0.32530412167E+02 -0.18290444874E+03  0.20683587402E+03  0.90448590527E+02 0.  0.
          5    1    1    2  502    0 -0.65621827983E+02 -0.13919275296E+02  0.19437380596E+02  0.69966096769E+02  0.41800000000E+01 0.  1.
         -5    1    1    2    0  502  0.56248132428E+02 -0.18611136872E+02 -0.88845403222E+01  0.60055260170E+02  0.41800000000E+01 0.  1.
        -11    1    3    3    0    0  0.46584598855E+02  0.34463646632E+02 -0.12770805646E+03  0.14023984981E+03  0.00000000000E+00 0. -1.
         11    1    3    3    0    0 -0.37210903300E+02 -0.19332344648E+01 -0.55196392278E+02  0.66596024209E+02  0.00000000000E+00 0.  1.
</event>
<event>
 7    1  0.5137842E-006  0.1426241E+03  0.7561462E-02  0.1209841E+00
          1   -1    0    0  501    0  0.00000000000E+00  0.00000000000E+00  0.10309127074E+03  0.10309127074E+03  0.00000000000E+00 0. -1.
         -1   -1    0    0    0  501 -0.00000000000E+00 -0.00000000000E+00 -0.25756050660E+03  0.25756050660E+03  0.00000000000E+00 0.  1.
         23    2    1    2    0    0 -0.10641001373E+03 -0.31593310511E+02 -0.25319948824E+02  0.14935172310E+03  0.96662345780E+02 0.  0.
          5    1    1    2  502    0 -0.44278194093E+01  0.31511749130E+02  0.97554171570E+01  0.33544544740E+02  0.41800000000E+01 0.  1.
         -5    1    1    2    0  502  0.11083783314E+03  0.81561381864E-01 -0.13890470420E+03  0.17775550950E+03  0.41800000000E+01 0.  1.
        -11    1    3    3    0    0 -0.74099553576E+02  0.24040019126E+02  0.53394086871E+01  0.78084413585E+02  0.00000000000E+00 0. -1.
         11    1    3    3    0    0 -0.32310460159E+02 -0.55633329638E+02 -0.30659357511E+02  0.71267309513E+02  0.00000000000E+00 0.  1.
</event>
<event>
 7    1  0.5137842E-006  0.1505044E+03  0.7561462E-02  0.1199855E+00
          2   -1    0    0  501    0  0.00000000000E+00  0.00000000000E+00  0.54851841800E+03  0.54851841800E+03  0.00000000000E+00 0. -1.
         -2   -1    0    0    0  501 -0.00000000000E+00 -0.00000000000E+00 -0.61499526619E+02  0.61499526619E+02  0.00000000000E+00 0.  1.
         23    2    1    2    0    0  0.73009120568E+02 -0.11257548465E+03  0.32590923515E+03  0.36586817950E+03  0.98179039444E+02 0.  0.
          5    1    1    2  502    0  0.12348838800E+01  0.56503622190E+02  0.13653535226E+03  0.14782949325E+03  0.41800000000E+01 0. -1.
         -5    1    1    2    0  502 -0.74244004448E+02  0.56071862461E+02  0.24574303972E+02  0.96320271864E+02  0.41800000000E+01 0. -1.
        -11    1    3    3    0    0  0.60081356981E+02 -0.29142873722E+02  0.22286041986E+03  0.23264961484E+03  0.00000000000E+00 0.  1.
         11    1    3    3    0    0  0.12927763586E+02 -0.83432610929E+02  0.10304881529E+03  0.13321856466E+03  0.00000000000E+00 0. -1.
</event>
<event>
 7    1  0.5137842E-006  0.1269353E+03  0.7561462E-02  0.1232075E+00
         -1   -1    0    0    0  501 -0.00000000000E+00  0.00000000000E+00  0.93699505675E+02  0.93699505675E+02  0.00000000000E+00 0.  1.
          1   -1    0    0  501    0  0.00000000000E+00 -0.00000000000E+00 -0.23309770464E+03  0.23309770464E+03  0.00000000000E+00 0. -1.
         23    2    1    2    0    0 -0.78520624344E+02  0.64394620005E+02 -0.69672770425E+02  0.15123641105E+03  0.87783834250E+02 0.  0.
          5    1    1    2  502    0  0.61553718546E+02 -0.76880057389E+02  0.41155130968E+01  0.98660089900E+02  0.41800000000E+01 0.  1.
         -5    1    1    2    0  502  0.16966905798E+02  0.12485437384E+02 -0.73840941633E+02  0.76900709361E+02  0.41800000000E+01 0.  1.
        -11    1    3    3    0    0 -0.95418884060E+02  0.67177234893E+02 -0.64566298236E+02  0.13336547976E+03  0.00000000000E+00 0. -1.
         11    1    3    3    0    0  0.16898259716E+02 -0.27826148881E+01 -0.51064721886E+01  0.17870931292E+02  0.00000000000E+00 0.  1.
</event>
<event>
 7    1  0.5137842E-006  0.1021754E+03  0.7561462E-02  0.1275787E+00
         -1   -1    0    0    0  501 -0.00000000000E+00  0.00000000000E+00  0.97161710338E+02  0.97161710338E+02  0.00000000000E+00 0.  1.
          1   -1    0    0  501    0  0.00000000000E+00 -0.00000000000E+00 -0.24033451980E+03  0.24033451980E+03  0.00000000000E+00 0. -1.
         23    2    1    2    0    0  0.20889538900E+02  0.10305427844E+02 -0.18162282493E+03  0.20457418232E+03  0.91220451952E+02 0.  0.
          5    1    1    2  502    0 -0.64058139342E+01  0.57294634598E+02  0.14016655280E+02  0.59478135740E+02  0.41800000000E+01 0. -1.
         -5    1    1    2    0  502 -0.14483724966E+02 -0.67600062442E+02  0.24433360196E+02  0.73443912079E+02  0.41800000000E+01 0. -1.
        -11    1    3    3    0    0  0.38524423503E+02  0.31466052232E+02 -0.16515105598E+03  0.17247931743E+03  0.00000000000E+00 0. -1.
         11    1    3    3    0    0 -0.17634884602E+02 -0.21160624389E+02 -0.16471768949E+02  0.32094864882E+02  0.00000000000E+00 0.  1.
</event>
<event>
 7    1  0.5137842E-006  0.1255309E+03  0.7561462E-02  0.1234242E+00
          1   -1    0    0  501    0  0.00000000000E+00  0.00000000000E+00  0.20338031301E+03  0.20338031301E+03  0.00000000000E+00 0. -1.
         -1   -1    0    0    0  501 -0.00000000000E+00 -0.00000000000E+00 -0.11260923391E+03  0.11260923391E+03  0.00000000000E+00 0.  1.
         23    2    1    2    0    0 -0.61892715258E+02  0.30518640267E+02  0.12872195657E+03  0.16817177749E+03  0.83368513457E+02 0.  0.
          5    1    1    2  502    0 -0.18912393528E+02  0.34164628753E+02 -0.10466783802E+02  0.40643898065E+02  0.41800000000E+01 0. -1.
         -5    1    1    2    0  502  0.80805108786E+02 -0.64683269020E+02 -0.27484093666E+02  0.10717387136E+03  0.41800000000E+01 0. -1.
        -11    1    3    3    0    0 -0.34534012595E+02 -0.27439443780E+02  0.50705717459E+02  0.67205586701E+02  0.00000000000E+00 0.  1.
         11    1    3    3    0    0 -0.27358702664E+02  0.57958084047E+02  0.78016239111E+02  0.10096619079E+03  0.00000000000E+00 0. -1.
</event>
<event>
 7    1  0.5137842E-006  0.1054690E+03  0.7561462E-02  0.1269198E+00
          2   -1    0    0  501    0  0.00000000000E+00  0.00000000000E+00  0.41263754544E+03  0.41263754544E+03  0.00000000000E+00 0. -1.
         -2   -1    0    0    0  501 -0.00000000000E+00 -0.00000000000E+00 -0.36004868662E+02  0.36004868662E+02  0.00000000000E+00 0.  1.
         23    2    1    2    0    0  0.33255830543E+02 -0.36536714382E+02  0.15470113685E+03  0.18913854591E+03  0.96953937745E+02 0.  0.
          5    1    1    2  502    0  0.32056988477E+02  0.13922145015E+02  0.10065575258E+02  0.36609627659E+02  0.41800000000E+01 0.  1.
         -5    1    1    2    0  502 -0.65312819020E+02  0.22614569367E+02  0.21186596468E+03  0.22289424054E+03  0.41800000000E+01 0.  1.
        -11    1    3    3    0    0 -0.12341752886E+02  0.26187102544E+02  0.26162807006E+02  0.39020195725E+02  0.00000000000E+00 0.  1.
         11    1    3    3    0    0  0.45597583429E+02 -0.62723816925E+02  0.12853832984E+03  0.15011835018E+03  0.00000000000E+00 0. -1.
</event>
<event>
 7    1  0.5137842E-006  0.9663760E+02  0.7561462E-02  0.1287530E+00
          2   -1    0    0  501    0  0.00000000000E+00  0.00000000000E+00  0.37454035751E+03  0.37454035751E+03  0.00000000000E+00 0. -1.
         -2   -1    0    0    0  501 -0.00000000000E+00 -0.00000000000E+00 -0.34349915229E+02  0.34349915229E+02  0.00000000000E+00 0.  1.
         23    2    1    2    0    0 -0.12712739004E+02 -0.12425895557E+02  0.19551301851E+03  0.21679958519E+03  0.91982080433E+02 0.  0.
          5    1    1    2  502    0 -0.41082850702E+02 -0.26140937914E+02  0.24137625166E+02  0.54509142402E+02  0.41800000000E+01 0.  1.
         -5    1    1    2    0  502  0.53795589705E+02  0.38566833472E+02  0.12053979861E+03  0.13758154514E+03  0.41800000000E+01 0.  1.
        -11    1    3    3    0    0  0.12109569452E+02  0.28075199223E+02  0.14195665699E+03  0.14521208953E+03  0.00000000000E+00 0. -1.
         11    1    3    3    0    0 -0.24822308456E+02 -0.40501094781E+02  0.53556361518E+02  0.71587495658E+02  0.00000000000E+00 0.  1.
</event>
<event>
 7    1  0.5137842E-006  0.1070281E+03  0.7561462E-02  0.1266175E+00
          2   -1    0    0  501    0  0.00000000000E+00  0.00000000000E+00  0.64003690661E+03  0.64003690661E+03  0.00000000000E+00 0. -1.
         -2   -1    0    0    0  501 -0.00000000000E+00 -0.00000000000E+00 -0.35810299014E+02  0.35810299014E+02  0.00000000000E+00 0.  1.
         23    2    1    2    0    0 -0.43364447641E+02  0.70175602555E+02  0.42712486358E+03  0.44386016379E+03  0.88153873447E+02 0.  0.
          5    1    1    2  502    0  0.17287718883E+02  0.34452365544E+01  0.14710713518E+03  0.14821847557E+03  0.41800000000E+01 0.  1.
         -5    1    1    2    0  502  0.26076728758E+02 -0.73620839109E+02  0.29994608837E+02  0.83768566260E+02  0.41800000000E+01 0.  1.
        -11    1    3    3    0    0 -0.52868164452E+02  0.64100550277E+01  0.24322652427E+03  0.24898850119E+03  0.00000000000E+00 0. -1.
         11    1    3    3    0    0  0.95037168103E+01  0.63765547527E+02  0.18389833931E+03  0.19487166260E+03  0.00000000000E+00 0.  1.
</event>
<event>
 7    1  0.5137842E-006  0.1322857E+03  0.7561462E-02  0.1224103E+00
          1   -1    0    0  501    0  0.00000000000E+00  0.00000000000E+00  0.63237314699E+03  0.63237314699E+03  0.00000000000E+00 0. -1.
         -1   -1    0    0    0  501 -0.00000000000E+00 -0.00000000000E+00 -0.29111201789E+02  0.29111201789E+02  0.00000000000E+00 0.  1.
         23    2    1    2    0    0  0.17529597733E+02 -0.79283537639E+02  0.27055688496E+03  0.29688444558E+03  0.91357429331E+02 0.  0.
          5    1    1    2  502    0 -0.63667957406E+02  0.80264418421E+02  0.23888548047E+03  0.25996101793E+03  0.41800000000E+01 0.  1.
         -5    1    1    2    0  502  0.46138359673E+02 -0.98088078169E+00  0.93819579771E+02  0.10463888526E+03  0.41800000000E+01 0.  1.
        -11    1    3    3    0    0  0.47293447745E+02 -0.24288216709E+02  0.77742169529E+02  0.94182974011E+02  0.00000000000E+00 0.  1.
         11    1    3    3    0    0 -0.29763850012E+02 -0.54995320930E+02  0.19281471543E+03  0.20270147157E+03  0.00000000000E+00 0. -1.
</event>
<event>
 7    1  0.5137842E-006  0.1326378E+03  0.7561462E-02  0.1223593E+00
         -2   -1    0    0    0  501 -0.00000000000E+00  0.00000000000E+00  0.34177920867E+02  0.34177920867E+02  0.00000000000E+00 0.  1.
          2   -1    0    0  501    0  0.00000000000E+00 -0.00000000000E+00 -0.63856289487E+03  0.63856289487E+03  0.00000000000E+00 0. -1.
         23    2    1    2    0    0  0.14223047890E+02  0.82589130322E+02 -0.40753909553E+03  0.42490877508E+03  0.86232785049E+02 0.  0.
          5    1    1    2  502    0 -0.33273026769E+02  0.23738786584E+02 -0.40003058078E+02  0.57344061196E+02  0.41800000000E+01 0.  1.
         -5    1    1    2    0  502  0.19049978879E+02 -0.10632791691E+03 -0.15684282040E+03  0.19048797946E+03  0.41800000000E+01 0.  1.
        -11    1    3    3    0    0 -0.55385192559E+01  0.93398563384E+02 -0.36468197896E+03  0.37649291177E+03  0.00000000000E+00 0. -1.
         11    1    3    3    0    0  0.19761567146E+02 -0.10809433062E+02 -0.42857116575E+02  0.48415863312E+02  0.00000000000E+00 0.  1.
</event>
<event>
 7    1  0.5137842E-006  0.1829545E+03  0.7561462E-02  0.1164974E+00
         -2   -1    0    0    0  501 -0.00000000000E+00  0.00000000000E+00  0.93159860954E+02  0.93159860954E+02  0.00000000000E+00 0.  1.
          2   -1    0    0  501    0  0.00000000000E+00 -0.00000000000E+00 -0.52445884307E+03  0.52445884307E+03  0.00000000000E+00 0. -1.
         23    2    1    2    0    0  0.26365606014E+02 -0.16143773355E+03 -0.35640528340E+03  0.39849397655E+03  0.70819745290E+02 0.  0.
          5    1    1    2  502    0 -0.69155376650E+02  0.12475950872E+03 -0.27416241776E+02  0.14531525677E+03  0.41800000000E+01 0. -1.
         -5    1    1    2    0  502  0.42789770636E+02  0.36678224823E+02 -0.47477456941E+02  0.73809470699E+02  0.41800000000E+01 0. -1.
        -11    1    3    3    0    0 -0.74360677662E+01 -0.37237301629E+02 -0.15411380218E+03  0.15872295284E+03  0.00000000000E+00 0.  1.
         11    1    3    3    0    0  0.33801673780E+02 -0.12420043192E+03 -0.20229148122E+03  0.23977102371E+03  0.00000000000E+00 0. -1.
</event>
<event>
 7    1  0.5137842E-006  0.9231522E+02  0.7561462E-02  0.1297340E+00
          2   -1    0    0  501    0  0.00000000000E+00  0.00000000000E+00  0.17057330895E+03  0.17057330895E+03  0.00000000000E+00 0. -1.
         -2   -1    0    0    0  501 -0.00000000000E+00 -0.00000000000E+00 -0.71287263917E+02  0.71287263917E+02  0.00000000000E+00 0.  1.
         23    2    1    2    0    0 -0.11131268288E+02 -0.95710250711E+01  0.67893496642E+02  0.11205805085E+03  0.87931622410E+02 0.  0.
          5    1    1    2  502    0  0.50799301817E+02 -0.37039228427E+02  0.56085593462E+01  0.63256634795E+02  0.41800000000E+01 0. -1.
         -5    1    1    2    0  502 -0.39668033530E+02  0.46610253498E+02  0.25783989049E+02  0.66545887225E+02  0.41800000000E+01 0. -1.
        -11    1    3    3    0    0  0.16426116450E+02  0.15818718320E+02 -0.10548377436E+02  0.25126030675E+02  0.00000000000E+00 0.  1.
         11    1    3    3    0    0 -0.27557384738E+02 -0.25389743392E+02  0.78441874078E+02  0.86932020176E+02  0.00000000000E+00 0. -1.
</event>
<event>
 7    1  0.5137842E-006  0.1236913E+03  0.7561462E-02  0.1237129E+00
         -1   -1    0    0    0  501 -0.00000000000E+00  0.00000000000E+00  0.88210208827E+02  0.88210208827E+02  0.00000000000E+00 0.  1.
          1   -1    0    0  501    0  0.00000000000E+00 -0.00000000000E+00 -0.24431578845E+03  0.24431578845E+03  0.00000000000E+00 0. -1.
         23    2    1    2    0    0  0.90790549550E+02 -0.18892606971E+02 -0.11050199382E+03  0.17028902988E+03  0.90486510445E+02 0.  0.
          5    1    1    2  502    0 -0.23617918028E+02 -0.50603167754E+02 -0.17731008565E+01  0.56027697840E+02  0.41800000000E+01 0.  1.
         -5    1    1    2    0  502 -0.67172631522E+02  0.69495774725E+02 -0.43830484952E+02  0.10620926956E+03  0.41800000000E+01 0.  1.
        -11    1    3    3    0    0  0.52938376205E+02 -0.14410773545E+01 -0.83112052987E+00  0.52964508310E+02  0.00000000000E+00 0.  1.
         11    1    3    3    0    0  0.37852173345E+02 -0.17451529617E+02 -0.10967087329E+03  0.11732452157E+03  0.00000000000E+00 0. -1.
</event>
<event>
 7    1  0.5137842E-006  0.1103193E+03  0.7561462E-02  0.1259980E+00
          2   -1    0    0  501    0  0.00000000000E+00  0.00000000000E+00  0.12660904030E+02  0.12660904030E+02  0.00000000000E+00 0. -1.
         -2   -1    0    0    0  501 -0.00000000000E+00 -0.00000000000E+00 -0.15615961857E+04  0.15615961857E+04  0.00000000000E+00 0.  1.
         23    2    1    2    0    0 -0.53631111144E+02  0.40898849510E+02 -0.39264819033E+03  0.40926912438E+03  0.93699534810E+02 0.  0.
          5    1    1    2  502    0  0.68762223366E+02  0.10908864709E+01 -0.31222880950E+03  0.31974010583E+03  0.41800000000E+01 0.  1.
         -5    1    1    2    0  502 -0.15131112222E+02 -0.41989735980E+02 -0.84405828188E+03  0.84524785956E+03  0.41800000000E+01 0.  1.
        -11    1    3    3    0    0 -0.74695105562E+02  0.20194592275E+02 -0.34194744826E+03  0.35059269491E+03  0.00000000000E+00 0.  1.
         11    1    3    3    0    0  0.21063994418E+02  0.20704257235E+02 -0.50700742072E+02  0.58676429468E+02  0.00000000000E+00 0. -1.
</event>
<event>
 7    1  0.5137842E-006  0.1009490E+03  0.7561462E-02  0.1278313E+00
         -2   -1    0    0    0  501 -0.00000000000E+00  0.00000000000E+00  0.45621012945E+02  0.45621012945E+02  0.00000000000E+00 0. -1.
          2   -1    0    0  501    0  0.00000000000E+00 -0.00000000000E+00 -0.28659955896E+03  0.28659955896E+03  0.00000000000E+00 0.  1.
         23    2    1    2    0    0  0.35441607089E+02 -0.13536816801E+01 -0.97535082960E+02  0.13861977061E+03  0.91893462385E+02 0.  0.
          5    1    1    2  502    0  0.32097095348E+02  0.36937121061E+02 -0.81714768983E+02  0.95338084268E+02  0.41800000000E+01 0. -1.
         -5    1    1    2    0  502 -0.67538702437E+02 -0.35583439381E+02 -0.61728694069E+02  0.98262717022E+02  0.41800000000E+01 0. -1.
        -11    1    3    3    0    0  0.28814599369E+02  0.31572950922E+02 -0.86646338628E+01  0.43614312407E+02  0.00000000000E+00 0.  1.
         11    1    3    3    0    0  0.66270077200E+01 -0.32926632603E+02 -0.88870449097E+02  0.95005458204E+02  0.00000000000E+00 0. -1.
</event>
<event>
 7    1  0.5137842E-006  0.1370117E+03  0.7561462E-02  0.1217408E+00
         -1   -1    0    0    0  501 -0.00000000000E+00  0.00000000000E+00  0.31783129353E+02  0.31783129353E+02  0.00000000000E+00 0.  1.
          1   -1    0    0  501    0  0.00000000000E+00 -0.00000000000E+00 -0.81557467842E+03  0.81557467842E+03  0.00000000000E+00 0. -1.
         23    2    1    2    0    0  0.91212732214E+02  0.72494347428E+02 -0.41253889929E+03  0.43863973448E+03  0.92958487016E+02 0.  0.
          5    1    1    2  502    0 -0.53741579766E+01  0.11639648456E+02 -0.19427812789E+03  0.19474554261E+03  0.41800000000E+01 0.  1.
         -5    1    1    2    0  502 -0.85838574237E+02 -0.84133995885E+02 -0.17697452189E+03  0.21397253069E+03  0.41800000000E+01 0.  1.
        -11    1    3    3    0    0  0.89040243788E+02  0.24666068976E+02 -0.19346529099E+03  0.21439542623E+03  0.00000000000E+00 0.  1.
         11    1    3    3    0    0  0.21724884256E+01  0.47828278452E+02 -0.21907360831E+03  0.22424430825E+03  0.00000000000E+00 0. -1.
</event>
<event>
 7    1  0.5137842E-006  0.1218245E+03  0.7561462E-02  0.1240117E+00
          2   -1    0    0  501    0  0.00000000000E+00  0.00000000000E+00  0.19903632784E+03  0.19903632784E+03  0.00000000000E+00 0. -1.
         -2   -1    0    0    0  501 -0.00000000000E+00 -0.00000000000E+00 -0.97896432911E+02  0.97896432911E+02  0.00000000000E+00 0.  1.
         23    2    1    2    0    0 -0.12318318608E+02 -0.77612121919E+02  0.75649906453E+02  0.14702340163E+03  0.98577836450E+02 0.  0.
          5    1    1    2  502    0  0.18019432931E+02 -0.27902794306E+02 -0.14983292027E+02  0.36677477193E+02  0.41800000000E+01 0. -1.
         -5    1    1    2    0  502 -0.57011143229E+01  0.10551491623E+03  0.40473280508E+02  0.11323188193E+03  0.41800000000E+01 0. -1.
        -11    1    3    3    0    0 -0.46889609593E+01 -0.89864432991E+02  0.23628970922E+02  0.93037255648E+02  0.00000000000E+00 0.  1.
         11    1    3    3    0    0 -0.76293576485E+01  0.12252311072E+02  0.52020935531E+02  0.53986145985E+02  0.00000000000E+00 0. -1.
</event>
<event>
 7    1  0.5137842E-006  0.1124153E+03  0.7561462E-02  0.1256161E+00
         -2   -1    0    0    0  501 -0.00000000000E+00  0.00000000000E+00  0.21116876828E+03  0.21116876828E+03  0.00000000000E+00 0.  1.
          2   -1    0    0  501    0  0.00000000000E+00 -0.00000000000E+00 -0.13177873895E+03  0.13177873895E+03  0.00000000000E+00 0. -1.
         23    2    1    2    0    0 -0.13725033601E+02  0.44772718443E+02 -0.83698735012E+02  0.13214243798E+03  0.90901995625E+02 0.  0.
          5    1    1    2  502    0  0.67600117662E+02 -0.13425921970E+02  0.67117312344E+02  0.96292457155E+02  0.41800000000E+01 0. -1.
         -5    1    1    2    0  502 -0.53875084061E+02 -0.31346796473E+02  0.95971451992E+02  0.11451261210E+03  0.41800000000E+01 0. -1.
        -11    1    3    3    0    0 -0.39694965186E+02  0.52866775416E+02 -0.31391368044E+02  0.73184726492E+02  0.00000000000E+00 0. -1.
         11    1    3    3    0    0  0.25969931586E+02 -0.80940569724E+01 -0.52307366968E+02  0.58957711489E+02  0.00000000000E+00 0.  1.
</event>
<event>
 7    1  0.5137842E-006  0.1757282E+03  0.7561462E-02  0.1172003E+00
         -1   -1    0    0    0  501 -0.00000000000E+00  0.00000000000E+00  0.16675541801E+03  0.16675541801E+03  0.00000000000E+00 0.  1.
          1   -1    0    0  501    0  0.00000000000E+00 -0.00000000000E+00 -0.22234990765E+03  0.22234990765E+03  0.00000000000E+00 0. -1.
         23    2    1    2    0    0  0.10228639099E+03  0.11938682841E+03 -0.47621065896E+02  0.18804152765E+03  0.91521197693E+02 0.  0.
          5    1    1    2  502    0 -0.40925223104E+02 -0.10113866962E+03  0.44775030343E+02  0.11800923744E+03  0.41800000000E+01 0.  1.
         -5    1    1    2    0  502 -0.61361167882E+02 -0.18248158785E+02 -0.52748454090E+02  0.83054560572E+02  0.41800000000E+01 0.  1.
        -11    1    3    3    0    0  0.10308479762E+03  0.13087752547E+03 -0.33701296676E+02  0.16997405558E+03  0.00000000000E+00 0.  1.
         11    1    3    3    0    0 -0.79840663069E+00 -0.11490697059E+02 -0.13919769220E+02  0.18067472076E+02  0.00000000000E+00 0. -1.
</event>
<event>
 7    1  0.5137842E-006  0.1204548E+03  0.7561462E-02  0.1242349E+00
         -2   -1    0    0    0  501 -0.00000000000E+00  0.00000000000E+00  0.56260067013E+02  0.56260067013E+02  0.00000000000E+00 0.  1.
          2   -1    0    0  501    0  0.00000000000E+00 -0.00000000000E+00 -0.31012560006E+03  0.31012560006E+03  0.00000000000E+00 0. -1.
         23    2    1    2    0    0  0.50569265774E+02 -0.53030056742E+02 -0.12894572849E+03  0.17501554674E+03  0.92919336775E+02 0.  0.
          5    1    1    2  502    0 -0.63325216982E+02 -0.11189556658E+02 -0.10429382121E+03  0.12259674884E+03  0.41800000000E+01 0. -1.
         -5    1    1    2    0  502  0.12755951208E+02  0.64219613401E+02 -0.20625983345E+02  0.68773371485E+02  0.41800000000E+01 0. -1.
        -11    1    3    3    0    0  0.27504536011E+02 -0.74459388827E+02 -0.11690922972E+03  0.14130983009E+03  0.00000000000E+00 0. -1.
         11    1    3    3    0    0  0.23064729763E+02  0.21429332084E+02 -0.12036498771E+02  0.33705716655E+02  0.00000000000E+00 0.  1.
</event>
<event>
 7    1  0.5137842E-006  0.1218962E+03  0.7561462E-02  0.1240001E+00
         -2   -1    0    0    0  501 -0.00000000000E+00  0.00000000000E+00  0.67240700127E+03  0.67240700127E+03  0.00000000000E+00 0.  1.
          2   -1    0    0  501    0  0.00000000000E+00 -0.00000000000E+00 -0.23562922326E+02  0.23562922326E+02  0.00000000000E+00 0. -1.
         23    2    1    2    0    0  0.31917695013E+01 -0.63392328461E+02  0.26099321213E+03  0.28353210060E+03  0.90797690451E+02 0.  0.
          5    1    1    2  502    0 -0.60167000844E+02  0.41701060721E+02  0.26877661021E+03  0.27859896814E+03  0.41800000000E+01 0.  1.
         -5    1    1    2    0  502  0.56975231342E+02  0.21691267740E+02  0.11907425660E+03  0.13383885485E+03  0.41800000000E+01 0.  1.
        -11    1    3    3    0    0  0.27223598554E+02  0.12351818308E+02  0.52595212339E+02  0.60497504863E+02  0.00000000000E+00 0. -1.
         11    1    3    3    0    0 -0.24031829053E+02 -0.75744146769E+02  0.20839799979E+03  0.22303459574E+03  0.00000000000E+00 0.  1.
</event>
<event>
 7    1  0.5137842E-006  0.8981775E+02  0.7561462E-02  0.1303294E+00
         -1   -1    0    0    0  501 -0.00000000000E+00  0.00000000000E+00  0.36992433806E+03  0.36992433806E+03  0.00000000000E+00 0.  1.
          1   -1    0    0  501    0  0.00000000000E+00 -0.00000000000E+00 -0.50613791617E+02  0.50613791617E+02  0.00000000000E+00 0. -1.
         23    2    1    2    0    0  0.59380425225E+02  0.27086492468E+02  0.57534093500E+02  0.12315009561E+03  0.87155385147E+02 0.  0.
          5    1    1    2  502    0 -0.24218973736E+02  0.35068960335E+02  0.24012913478E+02  0.49096670779E+02  0.41800000000E+01 0. -1.
         -5    1    1    2    0  502 -0.35161451489E+02 -0.62155452803E+02  0.23776353947E+03  0.24829136329E+03  0.41800000000E+01 0. -1.
        -11    1    3    3    0    0  0.45481005496E+02  0.20173388592E+02  0.80972519230E+02  0.95037026146E+02  0.00000000000E+00 0.  1.
         11    1    3    3    0    0  0.13899419730E+02  0.69131038753E+01 -0.23438425731E+02  0.28113069465E+02  0.00000000000E+00 0. -1.
</event>
<event>
 7    1  0.5137842E-006  0.1435669E+03  0.7561462E-02  0.1208608E+00
         -2   -1    0    0    0  501 -0.00000000000E+00  0.00000000000E+00  0.13508710118E+03  0.13508710118E+03  0.00000000000E+00 0.  1.
          2   -1    0    0  501    0  0.00000000000E+00 -0.00000000000E+00 -0.20453843922E+03  0.20453843922E+03  0.00000000000E+00 0. -1.
         23    2    1    2    0    0  0.88216293743E+02  0.75139584592E+02 -0.84262421293E+02  0.16846644917E+03  0.88615558445E+02 0.  0.
          5    1    1    2  502    0  0.28189766427E+02  0.10716859265E+01 -0.90741823144E+01  0.29926988265E+02  0.41800000000E+01 0. -1.
         -5    1    1    2    0  502 -0.11640606017E+03 -0.76211270519E+02  0.23885265562E+02  0.14123210297E+03  0.41800000000E+01 0. -1.
        -11    1    3    3    0    0  0.55192731574E+02  0.64124014088E+02 -0.84294175940E+01  0.85024595750E+02  0.00000000000E+00 0.  1.
         11    1    3    3    0    0  0.33023562169E+02  0.11015570504E+02 -0.75833003699E+02  0.83441853418E+02  0.00000000000E+00 0. -1.
</event>
<event>
 7    1  0.5137842E-006  0.9380322E+02  0.7561462E-02  0.1293895E+00
          2   -1    0    0  501    0  0.00000000000E+00  0.00000000000E+00  0.63218681565E+02  0.63218681565E+02  0.00000000000E+00 0. -1.
         -2   -1    0    0    0  501 -0.00000000000E+00 -0.00000000000E+00 -0.22793255168E+03  0.22793255168E+03  0.00000000000E+00 0.  1.
         23    2    1    2    0    0 -0.63446533931E+01  0.30703557448E+02 -0.19145679785E+02  0.96675370986E+02  0.89423750952E+02 0.  0.
          5    1    1    2  502    0  0.17142551138E+02  0.36352115022E+02 -0.82786520217E+01  0.41247446047E+02  0.41800000000E+01 0. -1.
         -5    1    1    2    0  502 -0.10797897744E+02 -0.67055672470E+02 -0.13728953831E+03  0.15322841621E+03  0.41800000000E+01 0. -1.
        -11    1    3    3    0    0  0.32869146699E+02  0.79635680254E+01 -0.34983094673E+02  0.48658155877E+02  0.00000000000E+00 0.  1.
         11    1    3    3    0    0 -0.39213800092E+02  0.22739989423E+02  0.15837414888E+02  0.48017215110E+02  0.00000000000E+00 0. -1.
</event>
<event>
 7    1  0.5137842E-006  0.6977740E+02  0.7561462E-02  0.1360852E+00
          2   -1    0    0  501    0  0.00000000000E+00  0.00000000000E+00  0.80783892576E+02  0.80783892576E+02  0.00000000000E+00 0. -1.
         -2   -1    0    0    0  501 -0.00000000000E+00 -0.00000000000E+00 -0.22283541482E+03  0.22283541482E+03  0.00000000000E+00 0.  1.
         23    2    1    2    0    0 -0.55420568912E+00  0.55889866199E+02 -0.13161571634E+01  0.10720917404E+03  0.91477267351E+02 0.  0.
          5    1    1    2  502    0 -0.17219663195E+02 -0.22267557568E+02  0.17638319900E+02  0.33480496554E+02  0.41800000000E+01 0. -1.
         -5    1    1    2    0  502  0.17773868885E+02 -0.33622308631E+02 -0.15837368499E+03  0.16292963680E+03  0.41800000000E+01 0. -1.
        -11    1    3    3    0    0  0.20420047766E+02  0.10783075204E+02  0.37549314559E+02  0.44081788592E+02  0.00000000000E+00 0. -1.
         11    1    3    3    0    0 -0.20974253455E+02  0.45106790995E+02 -0.38865471722E+02  0.63127385453E+02  0.00000000000E+00 0.  1.
</event>
<event>
 7    1  0.5137842E-006  0.1167089E+03  0.7561462E-02  0.1248627E+00
         -2   -1    0    0    0  501 -0.00000000000E+00  0.00000000000E+00  0.99085362933E+02  0.99085362933E+02  0.00000000000E+00 0.  1.
          2   -1    0    0  501    0  0.00000000000E+00 -0.00000000000E+00 -0.14281637007E+03  0.14281637007E+03  0.00000000000E+00 0. -1.
         23    2    1    2    0    0  0.33993111544E+02 -0.31927379033E+02 -0.21945829451E+02  0.10664144043E+03  0.93358921494E+02 0.  0.
          5    1    1    2  502    0 -0.40954349130E+02 -0.39602421751E+02  0.73589799326E+01  0.57595464291E+02  0.41800000000E+01 0. -1.
         -5    1    1    2    0  502  0.69612375863E+01  0.71529800784E+02 -0.29144157621E+02  0.77664828284E+02  0.41800000000E+01 0. -1.
        -11    1    3    3    0    0  0.66594728798E+02 -0.23647134898E+02 -0.13266742414E+02  0.71903069106E+02  0.00000000000E+00 0.  1.
         11    1    3    3    0    0 -0.32601617254E+02 -0.82802441345E+01 -0.86790870373E+01  0.34738371325E+02  0.00000000000E+00 0. -1.
</event>
<event>
 7    1  0.5137842E-006  0.1178151E+03  0.7561462E-02  0.1246746E+00
         -1   -1    0    0    0  501 -0.00000000000E+00  0.00000000000E+00  0.53105474449E+03  0.53105474449E+03  0.00000000000E+00 0.  1.
          1   -1    0    0  501    0  0.00000000000E+00 -0.00000000000E+00 -0.32345047294E+02  0.32345047294E+02  0.00000000000E+00 0. -1.
         23    2    1    2    0    0 -0.22730237033E+02 -0.64145204495E+02  0.16240469928E+03  0.19818839299E+03  0.90950985877E+02 0.  0.
          5    1    1    2  502    0 -0.18252495703E+01  0.88283259907E+02  0.13793385146E+03  0.16383066042E+03  0.41800000000E+01 0.  1.
         -5    1    1    2    0  502  0.24555486604E+02 -0.24138055412E+02  0.19837114646E+03  0.20138073838E+03  0.41800000000E+01 0.  1.
        -11    1    3    3    0    0 -0.53896182827E+02 -0.17927530624E+02  0.68512289421E+02  0.88995104805E+02  0.00000000000E+00 0.  1.
         11    1    3    3    0    0  0.31165945794E+02 -0.46217673870E+02  0.93892409858E+02  0.10919328818E+03  0.00000000000E+00 0. -1.
</event>
<event>
 7    1  0.5137842E-006  0.1128389E+03  0.7561462E-02  0.1255401E+00
          1   -1    0    0  501    0  0.00000000000E+00  0.00000000000E+00  0.49938450705E+02  0.49938450705E+02  0.00000000000E+00 0. -1.
         -1   -1    0    0    0  501 -0.00000000000E+00 -0.00000000000E+00 -0.25709543886E+03  0.25709543886E+03  0.00000000000E+00 0.  1.
         23    2    1    2    0    0 -0.21140453834E+02  0.26696433043E+02 -0.80833630727E+02  0.12602522792E+03  0.90491236540E+02 0.  0.
          5    1    1    2  502    0 -0.14069120997E+02 -0.71175702227E+02 -0.74094912602E+02  0.10378559258E+03  0.41800000000E+01 0. -1.
         -5    1    1    2    0  502  0.35209574831E+02  0.44479269184E+02 -0.52228444824E+02  0.77223069064E+02  0.41800000000E+01 0. -1.
        -11    1    3    3    0    0  0.25469952907E+02 -0.18279574271E+02 -0.32906130633E+02  0.45449694937E+02  0.00000000000E+00 0.  1.
         11    1    3    3    0    0 -0.46610406741E+02  0.44976007314E+02 -0.47927500094E+02  0.80575532984E+02  0.00000000000E+00 0. -1.
</event>
<event>
 7    1  0.5137842E-006  0.8480548E+02  0.7561462E-02  0.1315942E+00
          1   -1    0    0  501    0  0.00000000000E+00  0.00000000000E+00  0.20109696497E+03  0.20109696497E+03  0.00000000000E+00 0. -1.
         -1   -1    0    0    0  501 -0.00000000000E+00 -0.00000000000E+00 -0.27516289408E+03  0.27516289408E+03  0.00000000000E+00 0.  1.
         23    2    1    2    0    0 -0.19582256449E+02 -0.30716537011E+01  0.17589538241E+03  0.19903847997E+03  0.91017751731E+02 0.  0.
          5    1    1    2  502    0 -0.45308482799E+02  0.23155244680E+02 -0.91849077351E+02  0.10508448687E+03  0.41800000000E+01 0. -1.
         -5    1    1    2    0  502  0.64890739248E+02 -0.20083590978E+02 -0.15811223417E+03  0.17213689221E+03  0.41800000000E+01 0.  1.
        -11    1    3    3    0    0  0.14781096810E+02  0.42217865745E+01 -0.38871729519E+01  0.15856053051E+02  0.00000000000E+00 0.  1.
         11    1    3    3    0    0 -0.34363353259E+02 -0.72934402756E+01  0.17978255536E+03  0.18318242692E+03  0.00000000000E+00 0. -1.
</event>
<event>
 7    1  0.5137842E-006  0.1094923E+03  0.7561462E-02  0.1261513E+00
         -2   -1    0    0    0  501 -0.00000000000E+00  0.00000000000E+00  0.72661325833E+02  0.72661325833E+02  0.00000000000E+00 0.  1.
          2   -1    0    0  501    0  0.00000000000E+00 -0.00000000000E+00 -0.29803696085E+03  0.29803696085E+03  0.00000000000E+00 0. -1.
         23    2    1    2    0    0 -0.29965049646E+02  0.66802931964E+02 -0.18619000341E+03  0.22055183997E+03  0.92821661396E+02 0.  0.
          5    1    1    2  502    0  0.59570439629E+02 -0.32729038111E+02 -0.68157720374E+02  0.96347155951E+02  0.41800000000E+01 0.  1.
         -5    1    1    2    0  502 -0.29605389983E+02 -0.34073893852E+02  0.28972088773E+02  0.53799290759E+02  0.41800000000E+01 0.  1.
        -11    1    3    3    0    0 -0.55776670312E+02  0.42773539514E+02 -0.70287281446E+02  0.99402789532E+02  0.00000000000E+00 0.  1.
         11    1    3    3    0    0  0.25811620667E+02  0.24029392450E+02 -0.11590272197E+03  0.12114905044E+03  0.00000000000E+00 0. -1.
</event>
<event>
 7    1  0.5137842E-006  0.7630250E+02  0.7561462E-02  0.1339884E+00
          2   -1    0    0  501    0  0.00000000000E+00  0.00000000000E+00  0.22623524071E+03  0.22623524071E+03  0.00000000000E+00 0. -1.
         -2   -1    0    0    0  501 -0.00000000000E+00 -0.00000000000E+00 -0.63865287383E+02  0.63865287383E+02  0.00000000000E+00 0.  1.
         23    2    1    2    0    0  0.23858853026E+02  0.35424676351E+02  0.96304248329E+02  0.14231272027E+03  0.95677842482E+02 0.  0.
          5    1    1    2  502    0  0.83416395624E+01  0.14601470245E+02 -0.30040641112E+02  0.34679942364E+02  0.41800000000E+01 0. -1.
         -5    1    1    2    0  502 -0.32200492588E+02 -0.50026146597E+02  0.96106346109E+02  0.11310786546E+03  0.41800000000E+01 0. -1.
        -11    1    3    3    0    0 -0.21316637844E+02  0.14959212886E+02 -0.76430364488E+01  0.27140248807E+02  0.00000000000E+00 0.  1.
         11    1    3    3    0    0  0.45175490870E+02  0.20465463466E+02  0.10394728478E+03  0.11517247146E+03  0.00000000000E+00 0. -1.
</event>
<event>
 7    1  0.5137842E-006  0.1661348E+03  0.7561462E-02  0.1181940E+00
          1   -1    0    0  501    0  0.00000000000E+00  0.00000000000E+00  0.29859893117E+03  0.29859893117E+03  0.00000000000E+00 0. -1.
         -1   -1    0    0    0  501 -0.00000000000E+00 -0.00000000000E+00 -0.11724698370E+03  0.11724698370E+03  0.00000000000E+00 0.  1.
         23    2    1    2    0    0 -0.10685207216E+03 -0.10826822499E+03  0.70236542985E+02  0.18971962852E+03  0.88999952860E+02 0.  0.
          5    1    1    2  502    0  0.72417753434E+01  0.66957272618E+02 -0.49285751749E+01  0.67657098074E+02  0.41800000000E+01 0. -1.
         -5    1    1    2    0  502  0.99610296817E+02  0.41310952368E+02  0.11604397966E+03  0.15846918828E+03  0.41800000000E+01 0. -1.
        -11    1    3    3    0    0 -0.10728003501E+03 -0.94106586290E+02  0.28340904605E+02  0.14549316949E+03  0.00000000000E+00 0.  1.
         11    1    3    3    0    0  0.42796285380E+00 -0.14161638697E+02  0.41895638380E+02  0.44226459027E+02  0.00000000000E+00 0. -1.
</event>
<event>
 7    1  0.5137842E-006  0.1087420E+03  0.7561462E-02  0.1262917E+00
          3   -1    0    0  501    0  0.00000000000E+00  0.00000000000E+00  0.10779376238E+03  0.10779376238E+03  0.00000000000E+00 0. -1.
         -3   -1    0    0    0  501 -0.00000000000E+00 -0.00000000000E+00 -0.19642252676E+03  0.19642252676E+03  0.00000000000E+00 0.  1.
         23    2    1    2    0    0  0.69171874608E+02  0.18711022868E+01  0.39242905997E+02  0.12144549254E+03  0.91764659470E+02 0.  0.
          5    1    1    2  502    0  0.25456189269E+02  0.14829656282E+02 -0.11756384680E+02  0.31994081613E+02  0.41800000000E+01 0. -1.
         -5    1    1    2    0  502 -0.94628063877E+02 -0.16700758569E+02 -0.11611528570E+03  0.15077671499E+03  0.41800000000E+01 0.  1.
        -11    1    3    3    0    0  0.69883659832E+01 -0.23402353653E+02  0.47899003706E+02  0.53766364686E+02  0.00000000000E+00 0. -1.
         11    1    3    3    0    0  0.62183508625E+02  0.25273455940E+02 -0.86560977090E+01  0.67679127858E+02  0.00000000000E+00 0.  1.
</event>
<event>
 7    1  0.5137842E-006  0.1140125E+03  0.7561462E-02  0.1253315E+00
         -2   -1    0    0    0  501 -0.00000000000E+00  0.00000000000E+00  0.65124700109E+03  0.65124700109E+03  0.00000000000E+00 0.  1.
          2   -1    0    0  501    0  0.00000000000E+00 -0.00000000000E+00 -0.23424266664E+02  0.23424266664E+02  0.00000000000E+00 0. -1.
         23    2    1    2    0    0 -0.27386130765E+02  0.35786211333E+02  0.23237732367E+03  0.25744353251E+03  0.10122894246E+03 0.  0.
          5    1    1    2  502    0  0.75950856595E+02 -0.14065090083E+02  0.27097116318E+03  0.28179638581E+03  0.41800000000E+01 0.  1.
         -5    1    1    2    0  502 -0.48564725830E+02 -0.21721121250E+02  0.12447424757E+03  0.13543134944E+03  0.41800000000E+01 0.  1.
        -11    1    3    3    0    0 -0.20562006061E+02  0.64548300833E+02  0.20915451396E+03  0.21985197279E+03  0.00000000000E+00 0.  1.
         11    1    3    3    0    0 -0.68241247044E+01 -0.28762089500E+02  0.23222809716E+02  0.37591559710E+02  0.00000000000E+00 0. -1.
</event>
<event>
 7    1  0.5137842E-006  0.2622980E+03  0.7561462E-02  0.1105770E+00
          2   -1    0    0  501    0  0.00000000000E+00  0.00000000000E+00  0.63235650181E+03  0.63235650181E+03  0.00000000000E+00 0.  1.
         -2   -1    0    0    0  501 -0.00000000000E+00 -0.00000000000E+00 -0.18700154138E+03  0.18700154138E+03  0.00000000000E+00 0. -1.
         23    2    1    2    0    0  0.28629330760E+02 -0.24312315522E+03  0.47552056575E+03  0.54280655192E+03  0.92685690242E+02 0.  0.
          5    1    1    2  502    0  0.88783660619E+01  0.22718217811E+03 -0.47100608679E+02  0.23222081554E+03  0.41800000000E+01 0.  1.
         -5    1    1    2    0  502 -0.37507696822E+02  0.15940977111E+02  0.16935003359E+02  0.44330675733E+02  0.41800000000E+01 0.  1.
        -11    1    3    3    0    0 -0.20250514547E+02 -0.22544912491E+02  0.26960122005E+02  0.40561121745E+02  0.00000000000E+00 0. -1.
         11    1    3    3    0    0  0.48879845308E+02 -0.22057824273E+03  0.44856044374E+03  0.50224543017E+03  0.00000000000E+00 0.  1.
</event>
<event>
 7    1  0.5137842E-006  0.1043577E+03  0.7561462E-02  0.1271390E+00
         -1   -1    0    0    0  501 -0.00000000000E+00  0.00000000000E+00  0.10642405119E+03  0.10642405119E+03  0.00000000000E+00 0.  1.
          1   -1    0    0  501    0  0.00000000000E+00 -0.00000000000E+00 -0.16094831489E+03  0.16094831489E+03  0.00000000000E+00 0. -1.
         23    2    1    2    0    0 -0.45773635181E+01  0.55057138711E+02 -0.73061855070E+02  0.12937576049E+03  0.91366361182E+02 0.  0.
          5    1    1    2  502    0 -0.33407623632E+02  0.76816084275E+01 -0.33389931991E+02  0.48035782320E+02  0.41800000000E+01 0. -1.
         -5    1    1    2    0  502  0.37984987150E+02 -0.62738747139E+02  0.51927523366E+02  0.89960823275E+02  0.41800000000E+01 0. -1.
        -11    1    3    3    0    0 -0.41226239762E+02  0.95975537004E+01 -0.52566959201E+02  0.67490748118E+02  0.00000000000E+00 0. -1.
         11    1    3    3    0    0  0.36648876244E+02  0.45459585011E+02 -0.20494895869E+02  0.61885012369E+02  0.00000000000E+00 0.  1.
</event>
<event>
 7    1  0.5137842E-006  0.1396624E+03  0.7561462E-02  0.1213784E+00
         -1   -1    0    0    0  501 -0.00000000000E+00  0.00000000000E+00  0.10114980348E+03  0.10114980348E+03  0.00000000000E+00 0.  1.
          1   -1    0    0  501    0  0.00000000000E+00 -0.00000000000E+00 -0.22219031760E+03  0.22219031760E+03  0.00000000000E+00 0. -1.
         23    2    1    2    0    0  0.64637218566E+02  0.81736762469E+02 -0.66291971405E+02  0.15157165067E+03  0.87866213372E+02 0.  0.
          5    1    1    2  502    0 -0.48746334873E+02  0.24009239242E+02 -0.28851167726E+02  0.61664503660E+02  0.41800000000E+01 0.  1.
         -5    1    1    2    0  502 -0.15890883693E+02 -0.10574600171E+03 -0.25897374983E+02  0.11010396675E+03  0.41800000000E+01 0.  1.
        -11    1    3    3    0    0  0.48085163008E+02  0.17015862869E+02 -0.67685881720E+02  0.84753177373E+02  0.00000000000E+00 0. -1.
         11    1    3    3    0    0  0.16552055558E+02  0.64720899600E+02  0.13939103149E+01  0.66818473300E+02  0.00000000000E+00 0.  1.
</event>
<event>
 7    1  0.5137842E-006  0.1087908E+03  0.7561462E-02  0.1262826E+00
         -2   -1    0    0    0  501 -0.00000000000E+00  0.00000000000E+00  0.58376223882E+02  0.58376223882E+02  0.00000000000E+00 0.  1.
          2   -1    0    0  501    0  0.00000000000E+00 -0.00000000000E+00 -0.35916025866E+03  0.35916025866E+03  0.00000000000E+00 0. -1.
         23    2    1    2    0    0 -0.24351822207E+01  0.22307880102E+02 -0.27128226181E+03  0.28707138513E+03  0.91172051428E+02 0.  0.
          5    1    1    2  502    0  0.19465719671E+02 -0.71667665366E+02 -0.21866942774E+02  0.77529375643E+02  0.41800000000E+01 0. -1.
         -5    1    1    2    0  502 -0.17030537451E+02  0.49359785264E+02 -0.76348301981E+01  0.52935721770E+02  0.41800000000E+01 0. -1.
        -11    1    3    3    0    0 -0.16190575450E+02  0.53943574575E+02 -0.13069874135E+03  0.14231726867E+03  0.00000000000E+00 0.  1.
         11    1    3    3    0    0  0.13755393229E+02 -0.31635694473E+02 -0.14058352045E+03  0.14475411645E+03  0.00000000000E+00 0. -1.
</event>
<event>
 7    1  0.5137842E-006  0.6383091E+02  0.7561462E-02  0.1382424E+00
          2   -1    0    0  501    0  0.00000000000E+00  0.00000000000E+00  0.46507483957E+03  0.46507483957E+03  0.00000000000E+00 0.  1.
         -2   -1    0    0    0  501 -0.00000000000E+00 -0.00000000000E+00 -0.27945754673E+02  0.27945754673E+02  0.00000000000E+00 0. -1.
         23    2    1    2    0    0  0.14910832613E+02  0.28818139786E+02  0.21408076078E+03  0.23524993498E+03  0.91973592184E+02 0.  0.
          5    1    1    2  502    0 -0.10118529586E+02 -0.16781444464E+02 -0.11315914363E+02  0.23011384946E+02  0.41800000000E+01 0.  1.
         -5    1    1    2    0  502 -0.47923030267E+01 -0.12036695322E+02  0.23436423848E+03  0.23475927432E+03  0.41800000000E+01 0.  1.
        -11    1    3    3    0    0 -0.30919813972E+02 -0.11481772398E+02  0.10735207921E+03  0.11230465219E+03  0.00000000000E+00 0.  1.
         11    1    3    3    0    0  0.45830646585E+02  0.40299912184E+02  0.10672868157E+03  0.12294528278E+03  0.00000000000E+00 0. -1.
</event>
<event>
 7    1  0.5137842E-006  0.9510446E+02  0.7561462E-02  0.1290941E+00
         -1   -1    0    0    0  501 -0.00000000000E+00  0.00000000000E+00  0.15892776961E+03  0.15892776961E+03  0.00000000000E+00 0.  1.
          1   -1    0    0  501    0  0.00000000000E+00 -0.00000000000E+00 -0.89859140797E+02  0.89859140797E+02  0.00000000000E+00 0. -1.
         23    2    1    2    0    0 -0.27676171000E+02 -0.11278011007E+02 -0.13239929474E+02  0.97111059799E+02  0.91444509017E+02 0.  0.
          5    1    1    2  502    0  0.60375158600E+02 -0.11301710265E+02  0.91869667210E+02  0.11059112344E+03  0.41800000000E+01 0. -1.
         -5    1    1    2    0  502 -0.32698987599E+02  0.22579721273E+02 -0.95611089207E+01  0.41084727169E+02  0.41800000000E+01 0.  1.
        -11    1    3    3    0    0 -0.52962881359E+02  0.12012435277E+02 -0.26293081509E+02  0.60338143312E+02  0.00000000000E+00 0. -1.
         11    1    3    3    0    0  0.25286710359E+02 -0.23290446284E+02  0.13053152035E+02  0.36772916487E+02  0.00000000000E+00 0.  1.
</event>
<event>
 7    1  0.5137842E-006  0.1710015E+03  0.7561462E-02  0.1176807E+00
         -2   -1    0    0    0  501 -0.00000000000E+00  0.00000000000E+00  0.62255782093E+02  0.62255782093E+02  0.00000000000E+00 0.  1.
          2   -1    0    0  501    0  0.00000000000E+00 -0.00000000000E+00 -0.55026760328E+03  0.55026760328E+03  0.00000000000E+00 0. -1.
         23    2    1    2    0    0 -0.63310629286E+01  0.15449501788E+03 -0.22101786878E+03  0.27959384376E+03  0.73586861859E+02 0.  0.
          5    1    1    2  502    0 -0.46975373629E+02 -0.43482942139E+02 -0.42828688230E+02  0.77131192913E+02  0.41800000000E+01 0.  1.
         -5    1    1    2    0  502  0.53306436558E+02 -0.11101207574E+03 -0.22416526417E+03  0.25579834870E+03  0.41800000000E+01 0.  1.
        -11    1    3    3    0    0 -0.37376113005E+01  0.11257853532E+03 -0.96973101042E+02  0.14863269721E+03  0.00000000000E+00 0.  1.
         11    1    3    3    0    0 -0.25934516281E+01  0.41916482552E+02 -0.12404476774E+03  0.13096114655E+03  0.00000000000E+00 0. -1.
</event>
<event>
 7    1  0.5137842E-006  0.1028822E+03  0.7561462E-02  0.1274349E+00
          2   -1    0    0  501    0  0.00000000000E+00  0.00000000000E+00  0.57391393413E+03  0.57391393413E+03  0.00000000000E+00 0. -1.
         -2   -1    0    0    0  501 -0.00000000000E+00 -0.00000000000E+00 -0.21496248548E+02  0.21496248548E+02  0.00000000000E+00 0.  1.
         23    2    1    2    0    0 -0.25332421867E+01 -0.17609874761E+02  0.28128866671E+03  0.29628426593E+03  0.91348383735E+02 0.  0.
          5    1    1    2  502    0  0.50289591173E+02  0.36069029089E+02  0.21156252650E+03  0.22046812210E+03  0.41800000000E+01 0.  1.
         -5    1    1    2    0  502 -0.47756348986E+02 -0.18459154327E+02  0.59566492362E+02  0.78657794650E+02  0.41800000000E+01 0.  1.
        -11    1    3    3    0    0 -0.36507890200E+02 -0.38037988203E+02  0.14232563127E+03  0.15177713895E+03  0.00000000000E+00 0.  1.
         11    1    3    3    0    0  0.33974648013E+02  0.20428113442E+02  0.13896303544E+03  0.14450712697E+03  0.00000000000E+00 0. -1.
</event>
<event>
 7    1  0.5137842E-006  0.9910390E+02  0.7561462E-02  0.1282192E+00
          3   -1    0    0  501    0  0.00000000000E+00  0.00000000000E+00  0.31512255981E+02  0.31512255981E+02  0.00000000000E+00 0. -1.
         -3   -1    0    0    0  501 -0.00000000000E+00 -0.00000000000E+00 -0.42574867072E+03  0.42574867072E+03  0.00000000000E+00 0.  1.
         23    2    1    2    0    0  0.27869050840E+02 -0.12816863142E+02 -0.11670437152E+03  0.15129957390E+03  0.91272639694E+02 0.  0.
          5    1    1    2  502    0 -0.51961897646E+02  0.43722744574E+02 -0.82256930034E+02  0.10674920205E+03  0.41800000000E+01 0.  1.
         -5    1    1    2    0  502  0.24092846807E+02 -0.30905881432E+02 -0.19527511318E+03  0.19921215074E+03  0.41800000000E+01 0.  1.
        -11    1    3    3    0    0 -0.52389097965E+01  0.33455452404E+02 -0.69727839037E+02  0.77515708138E+02  0.00000000000E+00 0.  1.
         11    1    3    3    0    0  0.33107960636E+02 -0.46272315545E+02 -0.46976532480E+02  0.73783865765E+02  0.00000000000E+00 0. -1.
</event>
<event>
 7    1  0.5137842E-006  0.1474378E+03  0.7561462E-02  0.1203657E+00
         -1   -1    0    0    0  501 -0.00000000000E+00  0.00000000000E+00  0.20563845244E+02  0.20563845244E+02  0.00000000000E+00 0. -1.
          1   -1    0    0  501    0  0.00000000000E+00 -0.00000000000E+00 -0.12048662978E+04  0.12048662978E+04  0.00000000000E+00 0.  1.
         23    2    1    2    0    0  0.10858602328E+03 -0.27782288990E+02 -0.59823714615E+03  0.61577188662E+03  0.93405317201E+02 0.  0.
          5    1    1    2  502    0 -0.12767429493E+03  0.19910221576E+02 -0.35813035521E+03  0.38075184337E+03  0.41800000000E+01 0.  1.
         -5    1    1    2    0  502  0.19088271650E+02  0.78720674136E+01 -0.22793495116E+03  0.22890641302E+03  0.41800000000E+01 0.  1.
        -11    1    3    3    0    0 -0.34969210345E+01 -0.32165744422E+02 -0.17237322007E+03  0.17538355273E+03  0.00000000000E+00 0.  1.
         11    1    3    3    0    0  0.11208294431E+03  0.43834554323E+01 -0.42586392608E+03  0.44038833389E+03  0.00000000000E+00 0. -1.
</event>
<event>
 7    1  0.5137842E-006  0.9493102E+02  0.7561462E-02  0.1291332E+00
         -2   -1    0    0    0  501 -0.00000000000E+00  0.00000000000E+00  0.36060344618E+03  0.36060344618E+03  0.00000000000E+00 0.  1.
          2   -1    0    0  501    0  0.00000000000E+00 -0.00000000000E+00 -0.36946635298E+02  0.36946635298E+02  0.00000000000E+00 0. -1.
         23    2    1    2    0    0 -0.29771884724E+02  0.25995666340E+02  0.12303896640E+03  0.15784785460E+03  0.90637840659E+02 0.  0.
          5    1    1    2  502    0  0.50283310270E+02  0.10799005534E+02  0.21926357767E+02  0.56064849747E+02  0.41800000000E+01 0.  1.
         -5    1    1    2    0  502 -0.20511425546E+02 -0.36794671874E+02  0.17869148671E+03  0.18363737713E+03  0.41800000000E+01 0.  1.
        -11    1    3    3    0    0 -0.50757854215E+02  0.44838393888E+02  0.10291572519E+03  0.12320100577E+03  0.00000000000E+00 0.  1.
         11    1    3    3    0    0  0.20985969491E+02 -0.18842727548E+02  0.20123241213E+02  0.34646848830E+02  0.00000000000E+00 0. -1.
</event>
<event>
 7    1  0.5137842E-006  0.9122979E+02  0.7561462E-02  0.1299901E+00
         -2   -1    0    0    0  501 -0.00000000000E+00  0.00000000000E+00  0.19075398434E+02  0.19075398434E+02  0.00000000000E+00 0.  1.
          2   -1    0    0  501    0  0.00000000000E+00 -0.00000000000E+00 -0.63253908722E+03  0.63253908722E+03  0.00000000000E+00 0. -1.
         23    2    1    2    0    0 -0.24778159916E+02 -0.72221528494E+01 -0.28098238922E+03  0.29544607692E+03  0.87585184896E+02 0.  0.
          5    1    1    2  502    0  0.16135293706E+02  0.51275041068E+02 -0.28738647161E+03  0.29240029754E+03  0.41800000000E+01 0. -1.
         -5    1    1    2    0  502  0.86428662097E+01 -0.44052888218E+02 -0.45094827959E+02  0.63768111194E+02  0.41800000000E+01 0. -1.
        -11    1    3    3    0    0 -0.70178102747E+01  0.36026250294E+02 -0.18592593989E+03  0.18951410368E+03  0.00000000000E+00 0.  1.
         11    1    3    3    0    0 -0.17760349641E+02 -0.43248403143E+02 -0.95056449332E+02  0.10593197324E+03  0.00000000000E+00 0. -1.
</event>
<event>
 7    1  0.5137842E-006  0.9969889E+02  0.7561462E-02  0.1280930E+00
         -1   -1    0    0    0  501 -0.00000000000E+00  0.00000000000E+00  0.25132988911E+03  0.25132988911E+03  0.00000000000E+00 0.  1.
          1   -1    0    0  501    0  0.00000000000E+00 -0.00000000000E+00 -0.52718930215E+02  0.52718930215E+02  0.00000000000E+00 0. -1.
         23    2    1    2    0    0  0.19477609409E+02 -0.23540328067E+02  0.11565293370E+03  0.15087531117E+03  0.91946909313E+02 0.  0.
          5    1    1    2  502    0  0.15598518266E+02  0.57172912292E+02  0.85749370417E+02  0.10431913822E+03  0.41800000000E+01 0. -1.
         -5    1    1    2    0  502 -0.35076127675E+02 -0.33632584225E+02 -0.27913452184E+01  0.48854369942E+02  0.41800000000E+01 0. -1.
        -11    1    3    3    0    0 -0.18140074326E+02 -0.44567467198E+02  0.86056966637E+02  0.98595755161E+02  0.00000000000E+00 0. -1.
         11    1    3    3    0    0  0.37617683735E+02  0.21027139132E+02  0.29595967062E+02  0.52279556004E+02  0.00000000000E+00 0.  1.
</event>
<event>
 7    1  0.5137842E-006  0.1364140E+03  0.7561462E-02  0.1218237E+00
         -2   -1    0    0    0  501 -0.00000000000E+00  0.00000000000E+00  0.27220310407E+02  0.27220310407E+02  0.00000000000E+00 0.  1.
          2   -1    0    0  501    0  0.00000000000E+00 -0.00000000000E+00 -0.98591214567E+03  0.98591214567E+03  0.00000000000E+00 0. -1.
         23    2    1    2    0    0  0.88205385640E+02 -0.84339255169E+02 -0.38092693745E+03  0.40951800567E+03  0.87785905887E+02 0.  0.
          5    1    1    2  502    0 -0.54464901876E+02  0.29286667217E+02 -0.77756450617E+02  0.99436776022E+02  0.41800000000E+01 0.  1.
         -5    1    1    2    0  502 -0.33740483765E+02  0.55052587952E+02 -0.50000844719E+03  0.50417767438E+03  0.41800000000E+01 0.  1.
        -11    1    3    3    0    0  0.48514789454E+02 -0.93564117242E+02 -0.22674795912E+03  0.25004512752E+03  0.00000000000E+00 0.  1.
         11    1    3    3    0    0  0.39690596186E+02  0.92248620727E+01 -0.15417897834E+03  0.15947287816E+03  0.00000000000E+00 0. -1.
</event>
<event>
 7    1  0.5137842E-006  0.1410092E+03  0.7561462E-02  0.1211977E+00
          1   -1    0    0  501    0  0.00000000000E+00  0.00000000000E+00  0.16267187693E+02  0.16267187693E+02  0.00000000000E+00 0. -1.
         -1   -1    0    0    0  501 -0.00000000000E+00 -0.00000000000E+00 -0.14308284216E+04  0.14308284216E+04  0.00000000000E+00 0.  1.
         23    2    1    2    0    0 -0.89671582514E+02  0.30606590516E+02 -0.41127171486E+03  0.43160656811E+03  0.90344065067E+02 0.  0.
          5    1    1    2  502    0  0.97368003666E+02  0.22067574479E+02 -0.54351994327E+03  0.55262908638E+03  0.41800000000E+01 0.  1.
         -5    1    1    2    0  502 -0.76964211525E+01 -0.52674164995E+02 -0.45976957577E+03  0.46285995480E+03  0.41800000000E+01 0.  1.
        -11    1    3    3    0    0  0.45402622353E+01  0.34118236280E+02 -0.14842877397E+03  0.15236721751E+03  0.00000000000E+00 0.  1.
         11    1    3    3    0    0 -0.94211844749E+02 -0.35116457639E+01 -0.26284294089E+03  0.27923935060E+03  0.00000000000E+00 0. -1.
</event>
<event>
 7    1  0.5137842E-006  0.1317350E+03  0.7561462E-02  0.1224904E+00
          2   -1    0    0  501    0  0.00000000000E+00  0.00000000000E+00  0.31204406541E+03  0.31204406541E+03  0.00000000000E+00 0. -1.
         -2   -1    0    0    0  501 -0.00000000000E+00 -0.00000000000E+00 -0.71831838670E+02  0.71831838670E+02  0.00000000000E+00 0.  1.
         23    2    1    2    0    0 -0.94091768140E+02 -0.35421780147E+02  0.13065394006E+03  0.18956203814E+03  0.93570032111E+02 0.  0.
          5    1    1    2  502    0 -0.27674015777E+02  0.11558998942E+02  0.25121244795E+01  0.30384943232E+02  0.41800000000E+01 0. -1.
         -5    1    1    2    0  502  0.12176578392E+03  0.23862781204E+02  0.10704616220E+03  0.16392892271E+03  0.41800000000E+01 0. -1.
        -11    1    3    3    0    0 -0.40617874806E+02  0.64409668862E+01 -0.13129911835E+01  0.41146345573E+02  0.00000000000E+00 0.  1.
         11    1    3    3    0    0 -0.53473893335E+02 -0.41862747033E+02  0.13196693125E+03  0.14841569257E+03  0.00000000000E+00 0. -1.
</event>
<event>
 7    1  0.5137842E-006  0.7690610E+02  0.7561462E-02  0.1338068E+00
          1   -1    0    0  501    0  0.00000000000E+00  0.00000000000E+00  0.36685336166E+02  0.36685336166E+02  0.00000000000E+00 0. -1.
         -1   -1    0    0    0  501 -0.00000000000E+00 -0.00000000000E+00 -0.31975714823E+03  0.31975714823E+03  0.00000000000E+00 0.  1.
         23    2    1    2    0    0  0.14634353561E+02 -0.85087462980E+01 -0.49713285618E+02  0.91130993154E+02  0.74477406497E+02 0.  0.
          5    1    1    2  502    0 -0.21546532129E+02 -0.39566766879E+02 -0.20277719232E+03  0.20776391460E+03  0.41800000000E+01 0. -1.
         -5    1    1    2    0  502  0.69121785673E+01  0.48075513177E+02 -0.30581334128E+02  0.57547576637E+02  0.41800000000E+01 0. -1.
        -11    1    3    3    0    0 -0.12488727902E+02 -0.25089930695E+02 -0.52195928846E+02  0.59244307195E+02  0.00000000000E+00 0.  1.
         11    1    3    3    0    0  0.27123081463E+02  0.16581184397E+02  0.24826432283E+01  0.31886685959E+02  0.00000000000E+00 0. -1.
</event>
<event>
 7    1  0.5137842E-006  0.1411435E+03  0.7561462E-02  0.1211799E+00
          1   -1    0    0  501    0  0.00000000000E+00  0.00000000000E+00  0.12476846041E+04  0.12476846041E+04  0.00000000000E+00 0. -1.
         -1   -1    0    0    0  501 -0.00000000000E+00 -0.00000000000E+00 -0.18212148599E+02  0.18212148599E+02  0.00000000000E+00 0.  1.
         23    2    1    2    0    0 -0.90028915142E+02  0.34021089110E+02  0.74172105042E+03  0.75324344788E+03  0.89235279230E+02 0.  0.
          5    1    1    2  502    0  0.51905888671E+02  0.41463748061E+02  0.28994448335E+03  0.29748737706E+03  0.41800000000E+01 0. -1.
         -5    1    1    2    0  502  0.38123026470E+02 -0.75484837171E+02  0.19780692175E+03  0.21516592779E+03  0.41800000000E+01 0. -1.
        -11    1    3    3    0    0 -0.59506402054E+02 -0.25048633482E+02  0.34499972174E+03  0.35098896553E+03  0.00000000000E+00 0. -1.
         11    1    3    3    0    0 -0.30522513087E+02  0.59069722592E+02  0.39672132868E+03  0.40225448234E+03  0.00000000000E+00 0.  1.
</event>
<event>
 7    1  0.5137842E-006  0.1098152E+03  0.7561462E-02  0.1260912E+00
          1   -1    0    0  501    0  0.00000000000E+00  0.00000000000E+00  0.40911190454E+03  0.40911190454E+03  0.00000000000E+00 0. -1.
         -1   -1    0    0    0  501 -0.00000000000E+00 -0.00000000000E+00 -0.34977870028E+02  0.34977870028E+02  0.00000000000E+00 0.  1.
         23    2    1    2    0    0  0.98916300323E+01  0.34363988969E+02  0.23030089892E+03  0.25014656338E+03  0.90862924490E+02 0.  0.
          5    1    1    2  502    0 -0.62313672749E+02 -0.59341466650E+01  0.40838471694E+02  0.74856269466E+02  0.41800000000E+01 0.  1.
         -5    1    1    2    0  502  0.52422042717E+02 -0.28429842304E+02  0.10299466390E+03  0.11908694172E+03  0.41800000000E+01 0.  1.
        -11    1    3    3    0    0  0.20747914823E+02  0.63085282158E+02  0.14488943495E+03  0.15938374181E+03  0.00000000000E+00 0.  1.
         11    1    3    3    0    0 -0.10856284791E+02 -0.28721293189E+02  0.85411463968E+02  0.90762821569E+02  0.00000000000E+00 0. -1.
</event>
<event>
 7    1  0.5137842E-006  0.2459763E+03  0.7561462E-02  0.1115874E+00
         -1   -1    0    0    0  501 -0.00000000000E+00  0.00000000000E+00  0.35206977890E+03  0.35206977890E+03  0.00000000000E+00 0.  1.
          1   -1    0    0  501    0  0.00000000000E+00 -0.00000000000E+00 -0.24510619078E+03  0.24510619078E+03  0.00000000000E+00 0. -1.
         23    2    1    2    0    0 -0.52311801826E+02  0.23164664473E+03 -0.76970033540E+02  0.27179270842E+03  0.10747184591E+03 0.  0.
          5    1    1    2  502    0  0.29911235020E+02 -0.22387999360E+03  0.19542569586E+03  0.29870655921E+03  0.41800000000E+01 0. -1.
         -5    1    1    2    0  502  0.22400566806E+02 -0.77666511304E+01 -0.11492074193E+02  0.26676702050E+02  0.41800000000E+01 0. -1.
        -11    1    3    3    0    0  0.86807056633E+01  0.36283728720E+02  0.23198370546E+02  0.43932084137E+02  0.00000000000E+00 0.  1.
         11    1    3    3    0    0 -0.60992507490E+02  0.19536291601E+03 -0.10016840409E+03  0.22786062428E+03  0.00000000000E+00 0. -1.
</event>
<event>
 7    1  0.5137842E-006  0.1416256E+03  0.7561462E-02  0.1211158E+00
         -1   -1    0    0    0  501 -0.00000000000E+00  0.00000000000E+00  0.20699667416E+03  0.20699667416E+03  0.00000000000E+00 0.  1.
          1   -1    0    0  501    0  0.00000000000E+00 -0.00000000000E+00 -0.19155161352E+03  0.19155161352E+03  0.00000000000E+00 0. -1.
         23    2    1    2    0    0  0.63293002133E+02 -0.11113125243E+03 -0.74518704696E+02  0.17369101910E+03  0.90881094743E+02 0.  0.
          5    1    1    2  502    0 -0.25032913970E+01  0.22516308221E+02 -0.46033922022E+02  0.51476645000E+02  0.41800000000E+01 0. -1.
         -5    1    1    2    0  502 -0.60789710736E+02  0.88614944207E+02  0.13599768735E+03  0.17338062358E+03  0.41800000000E+01 0.  1.
        -11    1    3    3    0    0  0.61203217906E+02 -0.12471715552E+03 -0.54122770761E+02  0.14909553004E+03  0.00000000000E+00 0. -1.
         11    1    3    3    0    0  0.20897842266E+01  0.13585903094E+02 -0.20395933935E+02  0.24595489060E+02  0.00000000000E+00 0.  1.
</event>
<event>
 7    1  0.5137842E-006  0.8319631E+02  0.7561462E-02  0.1320218E+00
          2   -1    0    0  501    0  0.00000000000E+00  0.00000000000E+00  0.63858762935E+03  0.63858762935E+03  0.00000000000E+00 0. -1.
         -2   -1    0    0    0  501 -0.00000000000E+00 -0.00000000000E+00 -0.20743456432E+02  0.20743456432E+02  0.00000000000E+00 0.  1.
         23    2    1    2    0    0  0.92075920898E+01  0.39957151629E+01  0.35558189066E+03  0.36858870065E+03  0.96531879661E+02 0.  0.
          5    1    1    2  502    0  0.21993715699E+02  0.20408739805E+02  0.53523210367E+01  0.30762963628E+02  0.41800000000E+01 0.  1.
         -5    1    1    2    0  502 -0.31201307789E+02 -0.24404454968E+02  0.25690996122E+03  0.25997942150E+03  0.41800000000E+01 0.  1.
        -11    1    3    3    0    0 -0.28857562686E+02 -0.32548707212E+02  0.18423813396E+03  0.18930363776E+03  0.00000000000E+00 0.  1.
         11    1    3    3    0    0  0.38065154775E+02  0.36544422375E+02  0.17134375670E+03  0.17928506289E+03  0.00000000000E+00 0. -1.
</event>
<event>
 7    1  0.5137842E-006  0.1122634E+03  0.7561462E-02  0.1256435E+00
          1   -1    0    0  501    0  0.00000000000E+00  0.00000000000E+00  0.29883279249E+03  0.29883279249E+03  0.00000000000E+00 0. -1.
         -1   -1    0    0    0  501 -0.00000000000E+00 -0.00000000000E+00 -0.65520598527E+02  0.65520598527E+02  0.00000000000E+00 0.  1.
         23    2    1    2    0    0 -0.47852916146E+02 -0.39537680280E+02  0.18639320990E+03  0.21703886254E+03  0.92251338256E+02 0.  0.
          5    1    1    2  502    0 -0.57394267822E+01  0.67146269776E+02 -0.49148301747E+01  0.67699265286E+02  0.41800000000E+01 0.  1.
         -5    1    1    2    0  502  0.53592342929E+02 -0.27608589496E+02  0.51833814234E+02  0.79615263189E+02  0.41800000000E+01 0.  1.
        -11    1    3    3    0    0 -0.60752359085E+02 -0.64879958245E+01  0.59513751236E+02  0.85292612872E+02  0.00000000000E+00 0.  1.
         11    1    3    3    0    0  0.12899442939E+02 -0.33049684455E+02  0.12687945867E+03  0.13174624967E+03  0.00000000000E+00 0. -1.
</event>
<event>
 7    1  0.5137842E-006  0.1282571E+03  0.7561462E-02  0.1230065E+00
          2   -1    0    0  501    0  0.00000000000E+00  0.00000000000E+00  0.49303365337E+03  0.49303365337E+03  0.00000000000E+00 0. -1.
         -2   -1    0    0    0  501 -0.00000000000E+00 -0.00000000000E+00 -0.76657194340E+02  0.76657194340E+02  0.00000000000E+00 0.  1.
         23    2    1    2    0    0  0.10143892394E+03 -0.32997197253E+02  0.37474563979E+03  0.40010298075E+03  0.90936408245E+02 0.  0.
          5    1    1    2  502    0 -0.86687272345E+02  0.77758070886E+01  0.81951125204E+02  0.11961858419E+03  0.41800000000E+01 0.  1.
         -5    1    1    2    0  502 -0.14751651593E+02  0.25221390165E+02 -0.40320305968E+02  0.49969282764E+02  0.41800000000E+01 0.  1.
        -11    1    3    3    0    0 -0.15512158837E+01  0.22715859858E+02  0.71388745918E+02  0.74931766318E+02  0.00000000000E+00 0.  1.
         11    1    3    3    0    0  0.10299013982E+03 -0.55713057112E+02  0.30335689387E+03  0.32517121443E+03  0.00000000000E+00 0. -1.
</event>
<event>
 7    1  0.5137842E-006  0.1065304E+03  0.7561462E-02  0.1267133E+00
         -1   -1    0    0    0  501 -0.00000000000E+00  0.00000000000E+00  0.14175922319E+03  0.14175922319E+03  0.00000000000E+00 0.  1.
          1   -1    0    0  501    0  0.00000000000E+00 -0.00000000000E+00 -0.42594889055E+03  0.42594889055E+03  0.00000000000E+00 0. -1.
         23    2    1    2    0    0  0.45552914887E+02  0.41418161011E+02 -0.38798920539E+03  0.40180593985E+03  0.84391099564E+02 0.  0.
          5    1    1    2  502    0 -0.79171594247E+02 -0.33487772538E+02  0.43859134419E+02  0.96595384554E+02  0.41800000000E+01 0. -1.
         -5    1    1    2    0  502  0.33618679360E+02 -0.79303884732E+01  0.59940403609E+02  0.69306789336E+02  0.41800000000E+01 0.  1.
        -11    1    3    3    0    0  0.61414771355E+02  0.44757840498E+02 -0.36942745559E+03  0.37716267495E+03  0.00000000000E+00 0. -1.
         11    1    3    3    0    0 -0.15861856468E+02 -0.33396794870E+01 -0.18561749793E+02  0.24643264903E+02  0.00000000000E+00 0.  1.
</event>
<event>
 7    1  0.5137842E-006  0.1037150E+03  0.7561462E-02  0.1272672E+00
         -1   -1    0    0    0  501 -0.00000000000E+00  0.00000000000E+00  0.11358899409E+03  0.11358899409E+03  0.00000000000E+00 0.  1.
          1   -1    0    0  501    0  0.00000000000E+00 -0.00000000000E+00 -0.15146609770E+03  0.15146609770E+03  0.00000000000E+00 0. -1.
         23    2    1    2    0    0  0.30527414653E+02 -0.12963835645E+02 -0.83119798369E+02  0.12796333927E+03  0.91464371399E+02 0.  0.
          5    1    1    2  502    0  0.34760112029E+02  0.31524078904E+02 -0.11533758666E+02  0.48502916696E+02  0.41800000000E+01 0.  1.
         -5    1    1    2    0  502 -0.65287526682E+02 -0.18560243260E+02  0.56776453418E+02  0.88588835825E+02  0.41800000000E+01 0.  1.
        -11    1    3    3    0    0 -0.22995300276E+02 -0.28465133212E+02 -0.53613233934E+02  0.64910911999E+02  0.00000000000E+00 0. -1.
         11    1    3    3    0    0  0.53522714929E+02  0.15501297567E+02 -0.29506564434E+02  0.63052427268E+02  0.00000000000E+00 0.  1.
</event>
<event>
 7    1  0.5137842E-006  0.8000847E+02  0.7561462E-02  0.1329027E+00
         -1   -1    0    0    0  501 -0.00000000000E+00  0.00000000000E+00  0.19742593335E+02  0.19742593335E+02  0.00000000000E+00 0.  1.
          1   -1    0    0  501    0  0.00000000000E+00 -0.00000000000E+00 -0.65440058465E+03  0.65440058465E+03  0.00000000000E+00 0. -1.
         23    2    1    2    0    0  0.19564313397E+02 -0.16093402213E+02 -0.34253590136E+03  0.35535704340E+03  0.91137394167E+02 0.  0.
          5    1    1    2  502    0  0.94068591081E+01 -0.22658356512E+02 -0.23780942035E+01  0.25000357001E+02  0.41800000000E+01 0.  1.
         -5    1    1    2    0  502 -0.28971172506E+02  0.38751758725E+02 -0.28974399575E+03  0.29378577758E+03  0.41800000000E+01 0.  1.
        -11    1    3    3    0    0 -0.17209436077E+01 -0.48098207160E+02 -0.11607586641E+03  0.12565829038E+03  0.00000000000E+00 0.  1.
         11    1    3    3    0    0  0.21285257005E+02  0.32004804947E+02 -0.22646003495E+03  0.22969875301E+03  0.00000000000E+00 0. -1.
</event>
<event>
 7    1  0.5137842E-006  0.1289789E+03  0.7561462E-02  0.1228979E+00
          1   -1    0    0  501    0  0.00000000000E+00  0.00000000000E+00  0.10683920747E+03  0.10683920747E+03  0.00000000000E+00 0. -1.
         -1   -1    0    0    0  501 -0.00000000000E+00 -0.00000000000E+00 -0.21756868424E+03  0.21756868424E+03  0.00000000000E+00 0.  1.
         23    2    1    2    0    0 -0.69484530319E+02  0.51363087369E+02  0.15148146525E+02  0.12702831049E+03  0.91871968655E+02 0.  0.
          5    1    1    2  502    0 -0.83218634840E+01 -0.71002070428E+02 -0.62215947932E+02  0.94862236923E+02  0.41800000000E+01 0.  1.
         -5    1    1    2    0  502  0.77806393803E+02  0.19638983060E+02 -0.63661675368E+02  0.10251734430E+03  0.41800000000E+01 0.  1.
        -11    1    3    3    0    0 -0.23095394924E+02 -0.13115853976E+02 -0.26346612371E+02  0.37410785553E+02  0.00000000000E+00 0.  1.
         11    1    3    3    0    0 -0.46389135394E+02  0.64478941345E+02  0.41494758896E+02  0.89617524935E+02  0.00000000000E+00 0. -1.
</event>
<event>
 7    1  0.5137842E-006  0.1307823E+03  0.7561462E-02  0.1226300E+00
          2   -1    0    0  501    0  0.00000000000E+00  0.00000000000E+00  0.41988560215E+03  0.41988560215E+03  0.00000000000E+00 0. -1.
         -2   -1    0    0    0  501 -0.00000000000E+00 -0.00000000000E+00 -0.51057974020E+02  0.51057974020E+02  0.00000000000E+00 0.  1.
         23    2    1    2    0    0 -0.95771230282E+02 -0.19645307685E+01  0.19524860527E+03  0.23652262346E+03  0.92978199691E+02 0.  0.
          5    1    1    2  502    0 -0.29158380766E+02  0.66063223312E+01  0.19408729585E+02  0.35889076997E+02  0.41800000000E+01 0.  1.
         -5    1    1    2    0  502  0.12492961105E+03 -0.46417915627E+01  0.15417029327E+03  0.19853187571E+03  0.41800000000E+01 0.  1.
        -11    1    3    3    0    0 -0.57211328177E+02  0.21539935112E+02  0.35889133649E+02  0.70888185126E+02  0.00000000000E+00 0.  1.
         11    1    3    3    0    0 -0.38559902104E+02 -0.23504465880E+02  0.15935947162E+03  0.16563443834E+03  0.00000000000E+00 0. -1.
</event>
<event>
 7    1  0.5137842E-006  0.9375145E+02  0.7561462E-02  0.1294013E+00
          2   -1    0    0  501    0  0.00000000000E+00  0.00000000000E+00  0.26516623651E+03  0.26516623651E+03  0.00000000000E+00 0. -1.
         -2   -1    0    0    0  501 -0.00000000000E+00 -0.00000000000E+00 -0.63743632671E+02  0.63743632671E+02  0.00000000000E+00 0.  1.
         23    2    1    2    0    0 -0.11995461049E+02 -0.18683531875E+02  0.17484671261E+03  0.19911210687E+03  0.92635267272E+02 0.  0.
          5    1    1    2  502    0  0.68473074678E+01  0.70926676951E+02  0.13168532377E+01  0.71391075250E+02  0.41800000000E+01 0. -1.
         -5    1    1    2    0  502  0.51481535814E+01 -0.52243145077E+02  0.25259037986E+02  0.58406687055E+02  0.41800000000E+01 0. -1.
        -11    1    3    3    0    0  0.15675681872E+02 -0.29775801456E+02  0.15584409637E+02  0.37083678057E+02  0.00000000000E+00 0.  1.
         11    1    3    3    0    0 -0.27671142921E+02  0.11092269582E+02  0.15926230298E+03  0.16202842882E+03  0.00000000000E+00 0. -1.
</event>
<event>
 7    1  0.5137842E-006  0.1280648E+03  0.7561462E-02  0.1230356E+00
         -3   -1    0    0    0  501 -0.00000000000E+00  0.00000000000E+00  0.22828881480E+02  0.22828881480E+02  0.00000000000E+00 0.  1.
          3   -1    0    0  501    0  0.00000000000E+00 -0.00000000000E+00 -0.82628142642E+03  0.82628142642E+03  0.00000000000E+00 0. -1.
         23    2    1    2    0    0 -0.50178620428E+02  0.59747036774E+02 -0.26834576937E+03  0.29406460494E+03  0.91525611661E+02 0.  0.
          5    1    1    2  502    0  0.68090919582E+02 -0.83866287688E+02 -0.31900994960E+03  0.33683044382E+03  0.41800000000E+01 0.  1.
         -5    1    1    2    0  502 -0.17912299154E+02  0.24119250914E+02 -0.21609682598E+03  0.21821525915E+03  0.41800000000E+01 0.  1.
        -11    1    3    3    0    0 -0.22893736371E+02 -0.21852154497E+02 -0.10181087215E+03  0.10661657240E+03  0.00000000000E+00 0. -1.
         11    1    3    3    0    0 -0.27284884057E+02  0.81599191271E+02 -0.16653489721E+03  0.18744803254E+03  0.00000000000E+00 0.  1.
</event>
<event>
 7    1  0.5137842E-006  0.1000403E+03  0.7561462E-02  0.1280211E+00
          1   -1    0    0  501    0  0.00000000000E+00  0.00000000000E+00  0.19855583969E+03  0.19855583969E+03  0.00000000000E+00 0. -1.
         -1   -1    0    0    0  501 -0.00000000000E+00 -0.00000000000E+00 -0.86793830751E+02  0.86793830751E+02  0.00000000000E+00 0.  1.
         23    2    1    2    0    0  0.19964201459E+02  0.26241440280E+02  0.12241030783E+03  0.15555049561E+03  0.90135956730E+02 0.  0.
          5    1    1    2  502    0 -0.48838664502E+02 -0.48010177561E+02 -0.43105029310E+02  0.81029058070E+02  0.41800000000E+01 0. -1.
         -5    1    1    2    0  502  0.28874463043E+02  0.21768737282E+02  0.32456730424E+02  0.48770116759E+02  0.41800000000E+01 0. -1.
        -11    1    3    3    0    0 -0.16388908685E+02 -0.26411378343E+02  0.50466751612E+02  0.59270989971E+02  0.00000000000E+00 0. -1.
         11    1    3    3    0    0  0.36353110144E+02  0.52652818623E+02  0.71943556215E+02  0.96279505643E+02  0.00000000000E+00 0.  1.
</event>
<event>
 7    1  0.5137842E-006  0.2123632E+03  0.7561462E-02  0.1139708E+00
          1   -1    0    0  501    0  0.00000000000E+00  0.00000000000E+00  0.40117113013E+03  0.40117113013E+03  0.00000000000E+00 0. -1.
         -1   -1    0    0    0  501 -0.00000000000E+00 -0.00000000000E+00 -0.25959252108E+03  0.25959252108E+03  0.00000000000E+00 0.  1.
         23    2    1    2    0    0  0.34116478650E+02 -0.19177982221E+03  0.30742150003E+03  0.37599323190E+03  0.94443090977E+02 0.  0.
          5    1    1    2  502    0 -0.21133774771E+02 -0.12277182299E+02 -0.68463475308E+01  0.25723734484E+02  0.41800000000E+01 0.  1.
         -5    1    1    2    0  502 -0.12982703879E+02  0.20405700451E+03 -0.15899654345E+03  0.25904668482E+03  0.41800000000E+01 0.  1.
        -11    1    3    3    0    0  0.28693887524E+02 -0.11796954274E+03  0.10517174256E+03  0.16062766769E+03  0.00000000000E+00 0.  1.
         11    1    3    3    0    0  0.54225911265E+01 -0.73810279466E+02  0.20224975747E+03  0.21536556421E+03  0.00000000000E+00 0. -1.
</event>
<event>
 7    1  0.5137842E-006  0.1849438E+03  0.7561462E-02  0.1163102E+00
          2   -1    0    0  501    0  0.00000000000E+00  0.00000000000E+00  0.18522026676E+03  0.18522026676E+03  0.00000000000E+00 0.  1.
         -2   -1    0    0    0  501 -0.00000000000E+00 -0.00000000000E+00 -0.18610590472E+03  0.18610590472E+03  0.00000000000E+00 0. -1.
         23    2    1    2    0    0 -0.14278929392E+03  0.46515661544E+02 -0.17500862491E+01  0.17587401811E+03  0.91521135345E+02 0.  0.
          5    1    1    2  502    0  0.16203696430E+02  0.38820243326E+02 -0.53166135731E+01  0.42606453147E+02  0.41800000000E+01 0.  1.
         -5    1    1    2    0  502  0.12658559749E+03 -0.85335904870E+02  0.61810618580E+01  0.15284570023E+03  0.41800000000E+01 0.  1.
        -11    1    3    3    0    0 -0.13494305866E+03  0.75590620049E+01  0.64077266089E+01  0.13530642062E+03  0.00000000000E+00 0.  1.
         11    1    3    3    0    0 -0.78462352593E+01  0.38956599539E+02 -0.81578128580E+01  0.40567597489E+02  0.00000000000E+00 0. -1.
</event>
<event>
 7    1  0.5137842E-006  0.9274962E+02  0.7561462E-02  0.1296326E+00
          1   -1    0    0  501    0  0.00000000000E+00  0.00000000000E+00  0.16881999313E+03  0.16881999313E+03  0.00000000000E+00 0. -1.
         -1   -1    0    0    0  501 -0.00000000000E+00 -0.00000000000E+00 -0.78665669742E+02  0.78665669742E+02  0.00000000000E+00 0.  1.
         23    2    1    2    0    0  0.29953501852E+01 -0.38636850655E+02  0.34922773994E+02  0.10535877169E+03  0.91537381857E+02 0.  0.
          5    1    1    2  502    0 -0.48660408541E+02  0.62203724670E+02  0.38205355960E+02  0.87830862151E+02  0.41800000000E+01 0. -1.
         -5    1    1    2    0  502  0.45665058356E+02 -0.23566874015E+02  0.17026193432E+02  0.54296029029E+02  0.41800000000E+01 0. -1.
        -11    1    3    3    0    0 -0.12933238152E+02 -0.36574911020E+02 -0.23102112683E+02  0.45151969787E+02  0.00000000000E+00 0.  1.
         11    1    3    3    0    0  0.15928588337E+02 -0.20619396345E+01  0.58024886677E+02  0.60206801903E+02  0.00000000000E+00 0. -1.
</event>
<event>
 7    1  0.5137842E-006  0.1553658E+03  0.7561462E-02  0.1194030E+00
          2   -1    0    0  501    0  0.00000000000E+00  0.00000000000E+00  0.24652621790E+03  0.24652621790E+03  0.00000000000E+00 0. -1.
         -2   -1    0    0    0  501 -0.00000000000E+00 -0.00000000000E+00 -0.13087024423E+03  0.13087024423E+03  0.00000000000E+00 0.  1.
         23    2    1    2    0    0  0.57829187151E+02  0.10522664966E+03  0.13630168789E+03  0.20278184430E+03  0.90141353286E+02 0.  0.
          5    1    1    2  502    0  0.23422304934E+02  0.93078084208E+01  0.15062291086E+02  0.29657792885E+02  0.41800000000E+01 0. -1.
         -5    1    1    2    0  502 -0.81251492085E+02 -0.11453445808E+03 -0.35708005300E+02  0.14495682494E+03  0.41800000000E+01 0. -1.
        -11    1    3    3    0    0  0.75279656932E+02  0.10227849816E+03  0.97407277632E+02  0.16005029107E+03  0.00000000000E+00 0.  1.
         11    1    3    3    0    0 -0.17450469781E+02  0.29481514967E+01  0.38894410257E+02  0.42731553237E+02  0.00000000000E+00 0. -1.
</event>
<event>
 7    1  0.5137842E-006  0.1143668E+03  0.7561462E-02  0.1252690E+00
         -1   -1    0    0    0  501 -0.00000000000E+00  0.00000000000E+00  0.50066159965E+02  0.50066159965E+02  0.00000000000E+00 0.  1.
          1   -1    0    0  501    0  0.00000000000E+00 -0.00000000000E+00 -0.46120409408E+03  0.46120409408E+03  0.00000000000E+00 0. -1.
         23    2    1    2    0    0 -0.23160290587E+02  0.38219784942E+02 -0.31502489393E+03  0.33433321106E+03  0.10266869629E+03 0.  0.
          5    1    1    2  502    0 -0.59992360598E+02 -0.12580624469E+02 -0.40024270868E+02  0.73326462486E+02  0.41800000000E+01 0. -1.
         -5    1    1    2    0  502  0.83152651185E+02 -0.25639160473E+02 -0.56088769315E+02  0.10361058050E+03  0.41800000000E+01 0.  1.
        -11    1    3    3    0    0 -0.17861905807E+02 -0.17027280256E+02 -0.14282583234E+02  0.28512596090E+02  0.00000000000E+00 0. -1.
         11    1    3    3    0    0 -0.52983847800E+01  0.55247065198E+02 -0.30074231070E+03  0.30582061497E+03  0.00000000000E+00 0.  1.
</event>
<event>
 7    1  0.5137842E-006  0.1668400E+03  0.7561462E-02  0.1181184E+00
          1   -1    0    0  501    0  0.00000000000E+00  0.00000000000E+00  0.16003627565E+03  0.16003627565E+03  0.00000000000E+00 0. -1.
         -1   -1    0    0    0  501 -0.00000000000E+00 -0.00000000000E+00 -0.19578968613E+03  0.19578968613E+03  0.00000000000E+00 0.  1.
         23    2    1    2    0    0 -0.25067499903E+02 -0.12773543048E+03 -0.19461004363E+02  0.17456274408E+03  0.11466778613E+03 0.  0.
          5    1    1    2  502    0  0.61242712677E+02  0.68254335463E+02  0.31121259245E+02  0.96929507079E+02  0.41800000000E+01 0. -1.
         -5    1    1    2    0  502 -0.36175212774E+02  0.59481095019E+02 -0.47413665362E+02  0.84333710620E+02  0.41800000000E+01 0. -1.
        -11    1    3    3    0    0  0.31017386817E+02 -0.10850154439E+03 -0.24308406892E+01  0.11287414410E+03  0.00000000000E+00 0. -1.
         11    1    3    3    0    0 -0.56084886720E+02 -0.19233886097E+02 -0.17030163674E+02  0.61688599980E+02  0.00000000000E+00 0.  1.
</event>
<event>
 7    1  0.5137842E-006  0.1468682E+03  0.7561462E-02  0.1204375E+00
          2   -1    0    0  501    0  0.00000000000E+00  0.00000000000E+00  0.15620766563E+03  0.15620766563E+03  0.00000000000E+00 0. -1.
         -2   -1    0    0    0  501 -0.00000000000E+00 -0.00000000000E+00 -0.23887923820E+03  0.23887923820E+03  0.00000000000E+00 0.  1.
         23    2    1    2    0    0  0.13232136256E+03 -0.17762186646E+02  0.49860603265E+02  0.16917343676E+03  0.91154449607E+02 0.  0.
          5    1    1    2  502    0 -0.48965318123E+02  0.40669693345E+02 -0.12336573765E+03  0.13888197853E+03  0.41800000000E+01 0.  1.
         -5    1    1    2    0  502 -0.83356044441E+02 -0.22907506700E+02 -0.91664381818E+01  0.87031488537E+02  0.41800000000E+01 0.  1.
        -11    1    3    3    0    0  0.49978585528E+02  0.18676809344E+02 -0.18121172781E+02  0.56347662965E+02  0.00000000000E+00 0.  1.
         11    1    3    3    0    0  0.82342777035E+02 -0.36438995990E+02  0.67981776047E+02  0.11282577380E+03  0.00000000000E+00 0. -1.
</event>
<event>
 7    1  0.5137842E-006  0.1525371E+03  0.7561462E-02  0.1197390E+00
          2   -1    0    0  501    0  0.00000000000E+00  0.00000000000E+00  0.49421208416E+03  0.49421208416E+03  0.00000000000E+00 0. -1.
         -2   -1    0    0    0  501 -0.00000000000E+00 -0.00000000000E+00 -0.11330914224E+03  0.11330914224E+03  0.00000000000E+00 0.  1.
         23    2    1    2    0    0 -0.72483683426E+02  0.92905376680E+02  0.40774129774E+03  0.43358915078E+03  0.88663929608E+02 0.  0.
          5    1    1    2  502    0  0.31374118476E+02  0.28948324751E+02 -0.23818552070E+01  0.42959125343E+02  0.41800000000E+01 0. -1.
         -5    1    1    2    0  502  0.41109564950E+02 -0.12185370143E+03 -0.24456500615E+02  0.13097295028E+03  0.41800000000E+01 0. -1.
        -11    1    3    3    0    0 -0.51022116781E+02  0.15706017935E+02  0.79867065171E+02  0.96066037178E+02  0.00000000000E+00 0.  1.
         11    1    3    3    0    0 -0.21461566645E+02  0.77199358744E+02  0.32787423257E+03  0.33752311360E+03  0.00000000000E+00 0. -1.
</event>
<event>
 7    1  0.5137842E-006  0.1097444E+03  0.7561462E-02  0.1261044E+00
         -1   -1    0    0    0  501 -0.00000000000E+00  0.00000000000E+00  0.22277950985E+03  0.22277950985E+03  0.00000000000E+00 0.  1.
          1   -1    0    0  501    0  0.00000000000E+00 -0.00000000000E+00 -0.58785133551E+02  0.58785133551E+02  0.00000000000E+00 0. -1.
         23    2    1    2    0    0 -0.24445962225E+02  0.17893619380E+02  0.40426499059E+02  0.10314360945E+03  0.89925055800E+02 0.  0.
          5    1    1    2  502    0  0.71823264305E+02 -0.32503140090E+02  0.75074941774E+02  0.10894381439E+03  0.41800000000E+01 0.  1.
         -5    1    1    2    0  502 -0.47377302080E+02  0.14609520710E+02  0.48492935464E+02  0.69477219559E+02  0.41800000000E+01 0.  1.
        -11    1    3    3    0    0 -0.58005116839E+00  0.50432021010E+02  0.37184367772E+02  0.62661011875E+02  0.00000000000E+00 0.  1.
         11    1    3    3    0    0 -0.23865911057E+02 -0.32538401630E+02  0.32421312869E+01  0.40482597576E+02  0.00000000000E+00 0. -1.
</event>
<event>
 7    1  0.5137842E-006  0.1505902E+03  0.7561462E-02  0.1199750E+00
          2   -1    0    0  501    0  0.00000000000E+00  0.00000000000E+00  0.20593845310E+03  0.20593845310E+03  0.00000000000E+00 0. -1.
         -2   -1    0    0    0  501 -0.00000000000E+00 -0.00000000000E+00 -0.16908837615E+03  0.16908837615E+03  0.00000000000E+00 0.  1.
         23    2    1    2    0    0 -0.92150029998E+02 -0.11789056709E+03 -0.55448122986E+01  0.17544404893E+03  0.91433339231E+02 0.  0.
          5    1    1    2  502    0  0.82429471765E+02  0.10602942174E+03  0.81651678643E+02  0.15723016605E+03  0.41800000000E+01 0.  1.
         -5    1    1    2    0  502  0.97205582326E+01  0.11861145351E+02 -0.39256789398E+02  0.42352614266E+02  0.41800000000E+01 0.  1.
        -11    1    3    3    0    0 -0.84173650991E+02 -0.96297734000E+02  0.31599018287E+02  0.13174579709E+03  0.00000000000E+00 0. -1.
         11    1    3    3    0    0 -0.79763790065E+01 -0.21592833093E+02 -0.37143830585E+02  0.43698251837E+02  0.00000000000E+00 0.  1.
</event>
<event>
 7    1  0.5137842E-006  0.1090360E+03  0.7561462E-02  0.1262365E+00
         -3   -1    0    0    0  501 -0.00000000000E+00  0.00000000000E+00  0.66876565560E+02  0.66876565560E+02  0.00000000000E+00 0.  1.
          3   -1    0    0  501    0  0.00000000000E+00 -0.00000000000E+00 -0.22786227992E+03  0.22786227992E+03  0.00000000000E+00 0. -1.
         23    2    1    2    0    0  0.13120725492E+02 -0.51531518492E+02 -0.10191734989E+03  0.14652475137E+03  0.90855411072E+02 0.  0.
          5    1    1    2  502    0 -0.51010961705E+02  0.61257610226E+02 -0.71282866773E+02  0.10702024351E+03  0.41800000000E+01 0.  1.
         -5    1    1    2    0  502  0.37890236213E+02 -0.97260917333E+01  0.12214502303E+02  0.41193850599E+02  0.41800000000E+01 0.  1.
        -11    1    3    3    0    0 -0.29989044712E+02 -0.46735405566E+02 -0.31561007961E+02  0.63872045213E+02  0.00000000000E+00 0.  1.
         11    1    3    3    0    0  0.43109770204E+02 -0.47961129262E+01 -0.70356341925E+02  0.82652706158E+02  0.00000000000E+00 0. -1.
</event>
<event>
 7    1  0.5137842E-006  0.1349911E+03  0.7561462E-02  0.1220232E+00
         -2   -1    0    0    0  501 -0.00000000000E+00  0.00000000000E+00  0.44857169236E+03  0.44857169236E+03  0.00000000000E+00 0.  1.
          2   -1    0    0  501    0  0.00000000000E+00 -0.00000000000E+00 -0.61357848972E+02  0.61357848972E+02  0.00000000000E+00 0. -1.
         23    2    1    2    0    0  0.72119570792E+02 -0.90761910233E+02  0.11027522951E+03  0.18469079079E+03  0.92255650867E+02 0.  0.
          5    1    1    2  502    0 -0.42889943182E+02  0.25192871551E+02  0.23856238603E+03  0.24372876816E+03  0.41800000000E+01 0.  1.
         -5    1    1    2    0  502 -0.29229627610E+02  0.65569038682E+02  0.38376227844E+02  0.81509982379E+02  0.41800000000E+01 0.  1.
        -11    1    3    3    0    0  0.24641289717E+02  0.17309905269E+02  0.22160229987E+02  0.37388524609E+02  0.00000000000E+00 0.  1.
         11    1    3    3    0    0  0.47478281076E+02 -0.10807181550E+03  0.88114999528E+02  0.14730226618E+03  0.00000000000E+00 0. -1.
</event>
<event>
 7    1  0.5137842E-006  0.1047335E+03  0.7561462E-02  0.1270646E+00
         -2   -1    0    0    0  501 -0.00000000000E+00  0.00000000000E+00  0.47045612756E+02  0.47045612756E+02  0.00000000000E+00 0.  1.
          2   -1    0    0  501    0  0.00000000000E+00 -0.00000000000E+00 -0.27300632610E+03  0.27300632610E+03  0.00000000000E+00 0. -1.
         23    2    1    2    0    0 -0.22091920504E+02  0.21018460569E+02 -0.11735713506E+03  0.15161188340E+03  0.91014490077E+02 0.  0.
          5    1    1    2  502    0 -0.10167756075E+02 -0.67774960178E+02 -0.77506955982E+02  0.10354529983E+03  0.41800000000E+01 0. -1.
         -5    1    1    2    0  502  0.32259676580E+02  0.46756499609E+02 -0.31096622302E+02  0.64894755622E+02  0.41800000000E+01 0. -1.
        -11    1    3    3    0    0 -0.48496111734E+02 -0.23981068732E+01 -0.10230757855E+03  0.11324515177E+03  0.00000000000E+00 0.  1.
         11    1    3    3    0    0  0.26404191229E+02  0.23416567442E+02 -0.15049556504E+02  0.38366731633E+02  0.00000000000E+00 0. -1.
</event>
<event>
 7    1  0.5137842E-006  0.9674653E+02  0.7561462E-02  0.1287290E+00
         -1   -1    0    0    0  501 -0.00000000000E+00  0.00000000000E+00  0.65456244441E+02  0.65456244441E+02  0.00000000000E+00 0.  1.
          1   -1    0    0  501    0  0.00000000000E+00 -0.00000000000E+00 -0.19978793418E+03  0.19978793418E+03  0.00000000000E+00 0. -1.
         23    2    1    2    0    0 -0.28487338977E+02 -0.22504721164E+02 -0.45362573163E+02  0.10753054453E+03  0.90482396108E+02 0.  0.
          5    1    1    2  502    0 -0.41465141501E+02  0.35723886281E+02 -0.58332486563E+02  0.80098098600E+02  0.41800000000E+01 0. -1.
         -5    1    1    2    0  502  0.69952480478E+02 -0.13219165116E+02 -0.30636630009E+02  0.77615535492E+02  0.41800000000E+01 0. -1.
        -11    1    3    3    0    0  0.14439275268E+02  0.61315278754E+01  0.19255672914E+02  0.24836852532E+02  0.00000000000E+00 0.  1.
         11    1    3    3    0    0 -0.42926614244E+02 -0.28636249040E+02 -0.64618246077E+02  0.82693691994E+02  0.00000000000E+00 0. -1.
</event>
<event>
 7    1  0.5851037E-006  0.3583416E+03  0.7561462E-02  0.1059242E+00
          1   -1    0    0  501    0  0.00000000000E+00  0.00000000000E+00  0.39041039113E+03  0.39041039113E+03  0.00000000000E+00 0. -1.
         -1   -1    0    0    0  501 -0.00000000000E+00 -0.00000000000E+00 -0.36357883933E+03  0.36357883933E+03  0.00000000000E+00 0.  1.
         23    2    1    2    0    0 -0.14449522432E+03 -0.32095022587E+03  0.88328167895E+02  0.37541666890E+03  0.96165964374E+02 0.  0.
          5    1    1    2  502    0  0.12704296124E+03  0.17302259848E+03 -0.78492730267E+02  0.22859421403E+03  0.41800000000E+01 0. -1.
         -5    1    1    2    0  502  0.17452263081E+02  0.14792762739E+03  0.16996114167E+02  0.14997834754E+03  0.41800000000E+01 0. -1.
        -11    1    3    3    0    0 -0.28133837753E+02 -0.91165291186E+02 -0.17421481123E+02  0.96985210977E+02  0.00000000000E+00 0.  1.
         11    1    3    3    0    0 -0.11636138656E+03 -0.22978493469E+03  0.10574964902E+03  0.27843145792E+03  0.00000000000E+00 0. -1.
</event>
<event>
 7    1  0.5137842E-006  0.9620406E+02  0.7561462E-02  0.1288487E+00
         -3   -1    0    0    0  501 -0.00000000000E+00  0.00000000000E+00  0.88242106876E+02  0.88242106876E+02  0.00000000000E+00 0.  1.
          3   -1    0    0  501    0  0.00000000000E+00 -0.00000000000E+00 -0.16021053960E+03  0.16021053960E+03  0.00000000000E+00 0. -1.
         23    2    1    2    0    0 -0.15227845168E+02 -0.42839223086E+02 -0.32663530740E+02  0.10967521184E+03  0.94311502733E+02 0.  0.
          5    1    1    2  502    0  0.41802319301E+02  0.65212840107E+01 -0.71571050545E+02  0.83245712924E+02  0.41800000000E+01 0.  1.
         -5    1    1    2    0  502 -0.26574474133E+02  0.36317939076E+02  0.32266148560E+02  0.55531721719E+02  0.41800000000E+01 0.  1.
        -11    1    3    3    0    0  0.35812924135E+02 -0.39838650215E+02 -0.16666342107E+02  0.56102143857E+02  0.00000000000E+00 0.  1.
         11    1    3    3    0    0 -0.51040769303E+02 -0.30005728709E+01 -0.15997188633E+02  0.53573067980E+02  0.00000000000E+00 0. -1.
</event>
<event>
 7    1  0.5137842E-006  0.1132977E+03  0.7561462E-02  0.1254582E+00
         -3   -1    0    0    0  501 -0.00000000000E+00  0.00000000000E+00  0.39830860879E+03  0.39830860879E+03  0.00000000000E+00 0.  1.
          3   -1    0    0  501    0  0.00000000000E+00 -0.00000000000E+00 -0.40513521370E+02  0.40513521370E+02  0.00000000000E+00 0. -1.
         23    2    1    2    0    0  0.49925912046E+02  0.35967946911E+02  0.10760613910E+03  0.15241611214E+03  0.88686527548E+02 0.  0.
          5    1    1    2  502    0  0.24154500489E+02 -0.40478066510E+02  0.35342661789E+02  0.59063439661E+02  0.41800000000E+01 0.  1.
         -5    1    1    2    0  502 -0.74080412535E+02  0.45101195996E+01  0.21484628653E+03  0.22734257836E+03  0.41800000000E+01 0.  1.
        -11    1    3    3    0    0  0.73343847010E+02  0.18271210704E+02  0.92340518597E+02  0.11933117116E+03  0.00000000000E+00 0.  1.
         11    1    3    3    0    0 -0.23417934965E+02  0.17696736207E+02  0.15265620505E+02  0.33084940982E+02  0.00000000000E+00 0. -1.
</event>
<event>
 7    1  0.5137842E-006  0.2110838E+03  0.7561462E-02  0.1140711E+00
          1   -1    0    0  501    0  0.00000000000E+00  0.00000000000E+00  0.19669806174E+03  0.19669806174E+03  0.00000000000E+00 0. -1.
         -1   -1    0    0    0  501 -0.00000000000E+00 -0.00000000000E+00 -0.25257464918E+03  0.25257464918E+03  0.00000000000E+00 0.  1.
         23    2    1    2    0    0  0.18700628631E+03  0.46369633570E+02 -0.47788713811E+02  0.21941635468E+03  0.93478775657E+02 0.  0.
          5    1    1    2  502    0 -0.10231076196E+03 -0.87621631323E+02 -0.13228950017E+02  0.13541609877E+03  0.41800000000E+01 0.  1.
         -5    1    1    2    0  502 -0.84695524350E+02  0.41251997753E+02  0.51410763916E+01  0.94440257465E+02  0.41800000000E+01 0.  1.
        -11    1    3    3    0    0  0.12986764180E+03  0.38271099179E+02  0.12492331820E+02  0.13596447982E+03  0.00000000000E+00 0. -1.
         11    1    3    3    0    0  0.57138644513E+02  0.80985343902E+01 -0.60281045631E+02  0.83451874864E+02  0.00000000000E+00 0.  1.
</event>
<event>
 7    1  0.5137842E-006  0.5860235E+02  0.7561462E-02  0.1403792E+00
         -2   -1    0    0    0  501 -0.00000000000E+00  0.00000000000E+00  0.32175993316E+02  0.32175993316E+02  0.00000000000E+00 0. -1.
          2   -1    0    0  501    0  0.00000000000E+00 -0.00000000000E+00 -0.42687321053E+03  0.42687321053E+03  0.00000000000E+00 0.  1.
         23    2    1    2    0    0  0.30346825229E+02 -0.29603225746E+02 -0.19523831834E+03  0.21982432510E+03  0.91692159869E+02 0.  0.
          5    1    1    2  502    0 -0.16130383527E+02  0.31213322547E+02  0.36494120577E+01  0.35570372299E+02  0.41800000000E+01 0. -1.
         -5    1    1    2    0  502 -0.14216441702E+02 -0.16100968002E+01 -0.20310831094E+03  0.20365450645E+03  0.41800000000E+01 0. -1.
        -11    1    3    3    0    0  0.45117666746E+02 -0.20417775793E+02 -0.19624902774E+03  0.20240101361E+03  0.00000000000E+00 0.  1.
         11    1    3    3    0    0 -0.14770841517E+02 -0.91854499531E+01  0.10107093968E+01  0.17423311495E+02  0.00000000000E+00 0. -1.
</event>
<event>
 7    1  0.5137842E-006  0.9213965E+02  0.7561462E-02  0.1297751E+00
         -4   -1    0    0    0  501 -0.00000000000E+00  0.00000000000E+00  0.24409160138E+03  0.24409160138E+03  0.00000000000E+00 0.  1.
          4   -1    0    0  501    0  0.00000000000E+00 -0.00000000000E+00 -0.66697504506E+02  0.66697504506E+02  0.00000000000E+00 0. -1.
         23    2    1    2    0    0  0.63921175179E+02 -0.10100622629E+02  0.56933862407E+02  0.12545817186E+03  0.91161115525E+02 0.  0.
          5    1    1    2  502    0 -0.16153389021E+02  0.17770917781E+02 -0.23220545724E+02  0.33666060645E+02  0.41800000000E+01 0.  1.
         -5    1    1    2    0  502 -0.47767786159E+02 -0.76702951522E+01  0.14368078019E+03  0.15166487338E+03  0.41800000000E+01 0.  1.
        -11    1    3    3    0    0  0.85757407356E+02  0.31240189784E+01  0.39005734091E+02  0.94263140744E+02  0.00000000000E+00 0.  1.
         11    1    3    3    0    0 -0.21836232176E+02 -0.13224641608E+02  0.17928128316E+02  0.31195031114E+02  0.00000000000E+00 0. -1.
</event>
<event>
 7    1  0.5137842E-006  0.1278566E+03  0.7561462E-02  0.1230671E+00
          3   -1    0    0  501    0  0.00000000000E+00  0.00000000000E+00  0.12713732678E+03  0.12713732678E+03  0.00000000000E+00 0. -1.
         -3   -1    0    0    0  501 -0.00000000000E+00 -0.00000000000E+00 -0.15447426127E+03  0.15447426127E+03  0.00000000000E+00 0.  1.
         23    2    1    2    0    0 -0.61025589520E+02  0.28359722428E+02  0.44229595464E+02  0.12255711902E+03  0.92388277801E+02 0.  0.
          5    1    1    2  502    0 -0.15507295923E+02 -0.57331458935E+02 -0.23159539772E+02  0.63884341531E+02  0.41800000000E+01 0. -1.
         -5    1    1    2    0  502  0.76532885443E+02  0.28971736506E+02 -0.48406990174E+02  0.95170127499E+02  0.41800000000E+01 0. -1.
        -11    1    3    3    0    0  0.12302687444E+02 -0.22050558220E+02  0.11478103565E+02  0.27736800421E+02  0.00000000000E+00 0. -1.
         11    1    3    3    0    0 -0.73328276964E+02  0.50410280648E+02  0.32751491898E+02  0.94820318599E+02  0.00000000000E+00 0.  1.
</event>
<event>
 7    1  0.5137842E-006  0.3714620E+03  0.7561462E-02  0.1054135E+00
          2   -1    0    0  501    0  0.00000000000E+00  0.00000000000E+00  0.31676829700E+04  0.31676829700E+04  0.00000000000E+00 0. -1.
         -2   -1    0    0    0  501 -0.00000000000E+00 -0.00000000000E+00 -0.45316693932E+02  0.45316693932E+02  0.00000000000E+00 0.  1.
         23    2    1    2    0    0 -0.33768403372E+03  0.12668272914E+03  0.17130034809E+04  0.17529890037E+04  0.92252377115E+02 0.  0.
          5    1    1    2  502    0  0.77212955572E+00 -0.15871645582E+02  0.17293118627E+03  0.17371002533E+03  0.41800000000E+01 0.  1.
         -5    1    1    2    0  502  0.33691190417E+03 -0.11081108356E+03  0.12364316089E+04  0.12863006349E+04  0.41800000000E+01 0.  1.
        -11    1    3    3    0    0 -0.26398547491E+03  0.56359559293E+02  0.12032002812E+04  0.12331081248E+04  0.00000000000E+00 0.  1.
         11    1    3    3    0    0 -0.73698558811E+02  0.70323169849E+02  0.50980319972E+03  0.51988087889E+03  0.00000000000E+00 0. -1.
</event>
<event>
 7    1  0.5137842E-006  0.9898270E+02  0.7561462E-02  0.1282450E+00
          1   -1    0    0  501    0  0.00000000000E+00  0.00000000000E+00  0.80536455978E+02  0.80536455978E+02  0.00000000000E+00 0. -1.
         -1   -1    0    0    0  501 -0.00000000000E+00 -0.00000000000E+00 -0.27440415704E+03  0.27440415704E+03  0.00000000000E+00 0.  1.
         23    2    1    2    0    0 -0.27341967528E+02  0.51353366117E+02  0.10790451934E+02  0.10812496961E+03  0.90497645270E+02 0.  0.
          5    1    1    2  502    0 -0.21484097332E+02  0.30818528338E+02 -0.89130444711E+02  0.96814547985E+02  0.41800000000E+01 0.  1.
         -5    1    1    2    0  502  0.48826064861E+02 -0.82171894455E+02 -0.11552770828E+03  0.15000109543E+03  0.41800000000E+01 0.  1.
        -11    1    3    3    0    0 -0.69607319458E+01  0.41082253005E+02 -0.36641982855E+02  0.55487279702E+02  0.00000000000E+00 0.  1.
         11    1    3    3    0    0 -0.20381235583E+02  0.10271113112E+02  0.47432434788E+02  0.52637689904E+02  0.00000000000E+00 0. -1.
</event>
<event>
 7    1  0.5137842E-006  0.1455900E+03  0.7561462E-02  0.1205999E+00
          2   -1    0    0  501    0  0.00000000000E+00  0.00000000000E+00  0.33343646942E+03  0.33343646942E+03  0.00000000000E+00 0. -1.
         -2   -1    0    0    0  501 -0.00000000000E+00 -0.00000000000E+00 -0.73939048173E+02  0.73939048173E+02  0.00000000000E+00 0.  1.
         23    2    1    2    0    0  0.92619834677E+02  0.55153651658E+02  0.15611505403E+03  0.21255302376E+03  0.95846328821E+02 0.  0.
          5    1    1    2  502    0 -0.51668659417E+02 -0.91493086658E+02  0.44136631019E+02  0.11404450828E+03  0.41800000000E+01 0. -1.
         -5    1    1    2    0  502 -0.40951175261E+02  0.36339435000E+02  0.59245736202E+02  0.80777985550E+02  0.41800000000E+01 0. -1.
        -11    1    3    3    0    0  0.40827358451E+02  0.66555931129E+02  0.46745271890E+02  0.91003767013E+02  0.00000000000E+00 0.  1.
         11    1    3    3    0    0  0.51792476226E+02 -0.11402279471E+02  0.10936978214E+03  0.12154925675E+03  0.00000000000E+00 0. -1.
</event>
<event>
 7    1  0.5137842E-006  0.1159529E+03  0.7561462E-02  0.1249927E+00
         -4   -1    0    0    0  501 -0.00000000000E+00  0.00000000000E+00  0.10229606904E+04  0.10229606904E+04  0.00000000000E+00 0.  1.
          4   -1    0    0  501    0  0.00000000000E+00 -0.00000000000E+00 -0.37792385284E+02  0.37792385284E+02  0.00000000000E+00 0. -1.
         23    2    1    2    0    0 -0.77763269889E+02 -0.62781710833E+02  0.11788744086E+03  0.17881571108E+03  0.89938537114E+02 0.  0.
          5    1    1    2  502    0 -0.15401145919E+02 -0.42120830992E+01  0.16136664460E+02  0.23082488590E+02  0.41800000000E+01 0.  1.
         -5    1    1    2    0  502  0.93164415808E+02  0.66993793933E+02  0.85114419983E+03  0.85885487605E+03  0.41800000000E+01 0.  1.
        -11    1    3    3    0    0 -0.39622954201E+02 -0.39172603280E+02  0.33619502484E+01  0.55819119098E+02  0.00000000000E+00 0. -1.
         11    1    3    3    0    0 -0.38140315688E+02 -0.23609107553E+02  0.11452549061E+03  0.12299659198E+03  0.00000000000E+00 0.  1.
</event>
<event>
 7    1  0.5137842E-006  0.1054581E+03  0.7561462E-02  0.1269220E+00
         -1   -1    0    0    0  501 -0.00000000000E+00  0.00000000000E+00  0.49735610194E+02  0.49735610194E+02  0.00000000000E+00 0.  1.
          1   -1    0    0  501    0  0.00000000000E+00 -0.00000000000E+00 -0.27541943368E+03  0.27541943368E+03  0.00000000000E+00 0. -1.
         23    2    1    2    0    0 -0.45755568455E+02 -0.39401759871E+01 -0.11183048754E+03  0.14988766144E+03  0.88606749609E+02 0.  0.
          5    1    1    2  502    0  0.60567316871E+02  0.50163319139E+02 -0.94074353095E+02  0.12268746786E+03  0.41800000000E+01 0.  1.
         -5    1    1    2    0  502 -0.14811748417E+02 -0.46223143152E+02 -0.19778982849E+02  0.52579914573E+02  0.41800000000E+01 0.  1.
        -11    1    3    3    0    0  0.99946399745E+01 -0.22553315999E+02 -0.13014774283E+01  0.24703010632E+02  0.00000000000E+00 0.  1.
         11    1    3    3    0    0 -0.55750208429E+02  0.18613140012E+02 -0.11052901011E+03  0.12518465080E+03  0.00000000000E+00 0. -1.
</event>
<event>
 7    1  0.5137842E-006  0.1116824E+03  0.7561462E-02  0.1257486E+00
         -2   -1    0    0    0  501 -0.00000000000E+00  0.00000000000E+00  0.13152687175E+03  0.13152687175E+03  0.00000000000E+00 0.  1.
          2   -1    0    0  501    0  0.00000000000E+00 -0.00000000000E+00 -0.11293504784E+03  0.11293504784E+03  0.00000000000E+00 0. -1.
         23    2    1    2    0    0  0.21918792022E+02 -0.48022027023E+02 -0.25208161216E+01  0.10705979661E+03  0.93106911734E+02 0.  0.
          5    1    1    2  502    0 -0.71351425947E+02  0.10914010927E+02  0.11438069099E+01  0.72311287593E+02  0.41800000000E+01 0.  1.
         -5    1    1    2    0  502  0.49432633925E+02  0.37108016096E+02  0.19968833126E+02  0.65090835389E+02  0.41800000000E+01 0.  1.
        -11    1    3    3    0    0  0.42289564414E+02 -0.64002813483E+01 -0.30859866528E+02  0.52741845074E+02  0.00000000000E+00 0. -1.
         11    1    3    3    0    0 -0.20370772392E+02 -0.41621745675E+02  0.28339050406E+02  0.54317951534E+02  0.00000000000E+00 0.  1.
</event>
<event>
 7    1  0.5137842E-006  0.2044120E+03  0.7561462E-02  0.1146069E+00
         -1   -1    0    0    0  501 -0.00000000000E+00  0.00000000000E+00  0.10691101389E+03  0.10691101389E+03  0.00000000000E+00 0.  1.
          1   -1    0    0  501    0  0.00000000000E+00 -0.00000000000E+00 -0.41280871927E+03  0.41280871927E+03  0.00000000000E+00 0. -1.
         23    2    1    2    0    0 -0.11810794877E+03  0.13684853243E+03 -0.15249071074E+03  0.25165636008E+03  0.86026149011E+02 0.  0.
          5    1    1    2  502    0  0.14338663934E+03 -0.12886347771E+03 -0.13121205233E+03  0.23323721681E+03  0.41800000000E+01 0. -1.
         -5    1    1    2    0  502 -0.25278690573E+02 -0.79850547210E+01 -0.22194942308E+02  0.34826156263E+02  0.41800000000E+01 0. -1.
        -11    1    3    3    0    0  0.46376395588E+01  0.16940940398E+02  0.55015511879E+01  0.18405711823E+02  0.00000000000E+00 0.  1.
         11    1    3    3    0    0 -0.12274558833E+03  0.11990759203E+03 -0.15799226193E+03  0.23325064825E+03  0.00000000000E+00 0. -1.
</event>
<event>
 7    1  0.5137842E-006  0.3249401E+03  0.7561462E-02  0.1073398E+00
         -1   -1    0    0    0  501 -0.00000000000E+00  0.00000000000E+00  0.52995843168E+03  0.52995843168E+03  0.00000000000E+00 0.  1.
          1   -1    0    0  501    0  0.00000000000E+00 -0.00000000000E+00 -0.20872964021E+03  0.20872964021E+03  0.00000000000E+00 0. -1.
         23    2    1    2    0    0 -0.28938280052E+03  0.10538358825E+03  0.86174289375E+02  0.33156857219E+03  0.87542012796E+02 0.  0.
          5    1    1    2  502    0  0.12148443522E+01  0.18168185635E+02  0.16242755635E+02  0.24755975576E+02  0.41800000000E+01 0.  1.
         -5    1    1    2    0  502  0.28816795617E+03 -0.12355177389E+03  0.21881174646E+03  0.38236352412E+03  0.41800000000E+01 0.  1.
        -11    1    3    3    0    0 -0.19137815282E+03  0.10769765751E+03  0.40029279568E+02  0.22321900911E+03  0.00000000000E+00 0. -1.
         11    1    3    3    0    0 -0.98004647705E+02 -0.23140692555E+01  0.46145009807E+02  0.10834956307E+03  0.00000000000E+00 0.  1.
</event>
<event>
 7    1  0.5137842E-006  0.9039379E+02  0.7561462E-02  0.1301901E+00
         -2   -1    0    0    0  501 -0.00000000000E+00  0.00000000000E+00  0.56759871323E+02  0.56759871323E+02  0.00000000000E+00 0.  1.
          2   -1    0    0  501    0  0.00000000000E+00 -0.00000000000E+00 -0.36296727346E+03  0.36296727346E+03  0.00000000000E+00 0. -1.
         23    2    1    2    0    0  0.54518498730E+02  0.18040062999E+02 -0.12216122230E+03  0.16145736186E+03  0.88585579465E+02 0.  0.
          5    1    1    2  502    0 -0.15318638482E+02 -0.30455961565E+02 -0.20778627486E+03  0.21060587528E+03  0.41800000000E+01 0. -1.
         -5    1    1    2    0  502 -0.39199860247E+02  0.12415898567E+02  0.23740095020E+02  0.47663907647E+02  0.41800000000E+01 0.  1.
        -11    1    3    3    0    0  0.21659691537E+02  0.52925394779E+02 -0.73920367372E+02  0.93458334901E+02  0.00000000000E+00 0. -1.
         11    1    3    3    0    0  0.32858807193E+02 -0.34885331781E+02 -0.48240854924E+02  0.67999026959E+02  0.00000000000E+00 0.  1.
</event>
<event>
 7    1  0.5137842E-006  0.1976909E+03  0.7561462E-02  0.1151702E+00
          2   -1    0    0  501    0  0.00000000000E+00  0.00000000000E+00  0.83914604894E+03  0.83914604894E+03  0.00000000000E+00 0. -1.
         -2   -1    0    0    0  501 -0.00000000000E+00 -0.00000000000E+00 -0.57998464529E+02  0.57998464529E+02  0.00000000000E+00 0.  1.
         23    2    1    2    0    0  0.50924015301E+02 -0.17034566435E+03  0.52265584274E+03  0.55939246835E+03  0.90221410962E+02 0.  0.
          5    1    1    2  502    0 -0.44859972391E+02  0.19036638194E+03  0.23902534322E+03  0.30887273042E+03  0.41800000000E+01 0.  1.
         -5    1    1    2    0  502 -0.60640429101E+01 -0.20020717584E+02  0.19466398446E+02  0.28879314698E+02  0.41800000000E+01 0.  1.
        -11    1    3    3    0    0  0.79903542410E+01 -0.50324465663E+02  0.28683300426E+03  0.29132382315E+03  0.00000000000E+00 0. -1.
         11    1    3    3    0    0  0.42933661060E+02 -0.12002119869E+03  0.23582283849E+03  0.26806864520E+03  0.00000000000E+00 0.  1.
</event>
<event>
 7    1  0.5137842E-006  0.1322904E+03  0.7561462E-02  0.1224096E+00
          2   -1    0    0  501    0  0.00000000000E+00  0.00000000000E+00  0.65881792502E+03  0.65881792502E+03  0.00000000000E+00 0. -1.
         -2   -1    0    0    0  501 -0.00000000000E+00 -0.00000000000E+00 -0.42212267803E+02  0.42212267803E+02  0.00000000000E+00 0.  1.
         23    2    1    2    0    0 -0.77492444667E+02 -0.31254391079E+02  0.48632033108E+03  0.50203435227E+03  0.92461400006E+02 0.  0.
          5    1    1    2  502    0 -0.14653549890E+02  0.53188731444E+02  0.53877389398E+02  0.77227023543E+02  0.41800000000E+01 0.  1.
         -5    1    1    2    0  502  0.92145994558E+02 -0.21934340365E+02  0.76407936740E+02  0.12176881701E+03  0.41800000000E+01 0.  1.
        -11    1    3    3    0    0  0.16081066314E+02 -0.82770396432E+01  0.25587768944E+02  0.31334390030E+02  0.00000000000E+00 0.  1.
         11    1    3    3    0    0 -0.93573510981E+02 -0.22977351436E+02  0.46073256214E+03  0.47069996224E+03  0.00000000000E+00 0. -1.
</event>
<event>
 7    1  0.5137842E-006  0.1081880E+03  0.7561462E-02  0.1263963E+00
          2   -1    0    0  501    0  0.00000000000E+00  0.00000000000E+00  0.21131360285E+03  0.21131360285E+03  0.00000000000E+00 0. -1.
         -2   -1    0    0    0  501 -0.00000000000E+00 -0.00000000000E+00 -0.65487301982E+02  0.65487301982E+02  0.00000000000E+00 0.  1.
         23    2    1    2    0    0  0.35941128625E+02 -0.25531034497E+02  0.63814462564E+02  0.12086149477E+03  0.92690974939E+02 0.  0.
          5    1    1    2  502    0 -0.12373802300E+02  0.75663600487E+02  0.52692298470E+02  0.93123800073E+02  0.41800000000E+01 0. -1.
         -5    1    1    2    0  502 -0.23567326325E+02 -0.50132565989E+02  0.29319539836E+02  0.62815609995E+02  0.41800000000E+01 0. -1.
        -11    1    3    3    0    0  0.10536029266E+02 -0.48596976612E+02  0.70130766607E+02  0.85970916440E+02  0.00000000000E+00 0. -1.
         11    1    3    3    0    0  0.25405099359E+02  0.23065942115E+02 -0.63163040433E+01  0.34890578326E+02  0.00000000000E+00 0.  1.
</event>
<event>
 7    1  0.5137842E-006  0.2177598E+03  0.7561462E-02  0.1135564E+00
         -4   -1    0    0    0  501 -0.00000000000E+00  0.00000000000E+00  0.12243128557E+03  0.12243128557E+03  0.00000000000E+00 0.  1.
          4   -1    0    0  501    0  0.00000000000E+00 -0.00000000000E+00 -0.42095030956E+03  0.42095030956E+03  0.00000000000E+00 0. -1.
         23    2    1    2    0    0  0.12771298892E+02 -0.19739216571E+03 -0.16043069323E+03  0.27163555398E+03  0.94451541516E+02 0.  0.
          5    1    1    2  502    0  0.13458733983E+02 -0.13553884076E+02 -0.22268807151E+02  0.29634734112E+02  0.41800000000E+01 0. -1.
         -5    1    1    2    0  502 -0.26230032874E+02  0.21094604979E+03 -0.11581952361E+03  0.24211130704E+03  0.41800000000E+01 0. -1.
        -11    1    3    3    0    0  0.30759543640E+02 -0.11709963453E+03 -0.43487435907E+02  0.12864536919E+03  0.00000000000E+00 0. -1.
         11    1    3    3    0    0 -0.17988244749E+02 -0.80292531185E+02 -0.11694325732E+03  0.14299018479E+03  0.00000000000E+00 0.  1.
</event>
<event>
 7    1  0.5137842E-006  0.1496112E+03  0.7561462E-02  0.1200952E+00
          2   -1    0    0  501    0  0.00000000000E+00  0.00000000000E+00  0.39424903353E+02  0.39424903353E+02  0.00000000000E+00 0. -1.
         -2   -1    0    0    0  501 -0.00000000000E+00 -0.00000000000E+00 -0.71569119852E+03  0.71569119852E+03  0.00000000000E+00 0.  1.
         23    2    1    2    0    0 -0.31534211784E+02  0.11949683435E+03 -0.24291303008E+03  0.28744436879E+03  0.91343445492E+02 0.  0.
          5    1    1    2  502    0  0.13756654787E+01  0.13341116083E+02 -0.70393544266E+00  0.14065765495E+02  0.41800000000E+01 0. -1.
         -5    1    1    2    0  502  0.30158546305E+02 -0.13283795043E+03 -0.43264932964E+03  0.45360596759E+03  0.41800000000E+01 0. -1.
        -11    1    3    3    0    0  0.89267206440E+01  0.10579898550E+03 -0.13762583104E+03  0.17382169325E+03  0.00000000000E+00 0.  1.
         11    1    3    3    0    0 -0.40460932428E+02  0.13697848853E+02 -0.10528719904E+03  0.11362267555E+03  0.00000000000E+00 0. -1.
</event>
<event>
 7    1  0.5137842E-006  0.2152810E+03  0.7561462E-02  0.1137451E+00
         -1   -1    0    0    0  501 -0.00000000000E+00  0.00000000000E+00  0.43260775600E+02  0.43260775600E+02  0.00000000000E+00 0.  1.
          1   -1    0    0  501    0  0.00000000000E+00 -0.00000000000E+00 -0.12092181579E+04  0.12092181579E+04  0.00000000000E+00 0. -1.
         23    2    1    2    0    0 -0.10509379083E+03  0.16740083902E+03 -0.65090841852E+03  0.68680154645E+03  0.94587785288E+02 0.  0.
          5    1    1    2  502    0 -0.16960594989E+01 -0.11277033440E+03 -0.22319968211E+03  0.25011116615E+03  0.41800000000E+01 0.  1.
         -5    1    1    2    0  502  0.10678985033E+03 -0.54630504619E+02 -0.29184928170E+03  0.31556622094E+03  0.41800000000E+01 0.  1.
        -11    1    3    3    0    0 -0.52722529196E+02  0.86670940313E+02 -0.48057036219E+03  0.49116126679E+03  0.00000000000E+00 0. -1.
         11    1    3    3    0    0 -0.52371261630E+02  0.80729898704E+02 -0.17033805634E+03  0.19564027966E+03  0.00000000000E+00 0.  1.
</event>
<event>
 7    1  0.5137842E-006  0.1090800E+03  0.7561462E-02  0.1262283E+00
         -3   -1    0    0    0  501 -0.00000000000E+00  0.00000000000E+00  0.53274100128E+03  0.53274100128E+03  0.00000000000E+00 0.  1.
          3   -1    0    0  501    0  0.00000000000E+00 -0.00000000000E+00 -0.44540788524E+02  0.44540788524E+02  0.00000000000E+00 0. -1.
         23    2    1    2    0    0  0.63647953265E+02  0.69571099944E+02  0.12016887280E+03  0.17730014683E+03  0.90019909875E+02 0.  0.
          5    1    1    2  502    0 -0.38199968040E+02 -0.39633722185E+02  0.35364937869E+03  0.35793215131E+03  0.41800000000E+01 0.  1.
         -5    1    1    2    0  502 -0.25447985225E+02 -0.29937377759E+02  0.14381961262E+02  0.42049491660E+02  0.41800000000E+01 0.  1.
        -11    1    3    3    0    0  0.16750364971E+02 -0.17699197160E+02  0.50840620348E+02  0.56379118334E+02  0.00000000000E+00 0.  1.
         11    1    3    3    0    0  0.46897588294E+02  0.87270297104E+02  0.69328252449E+02  0.12092102849E+03  0.00000000000E+00 0. -1.
</event>
<event>
 7    1  0.5137842E-006  0.1075885E+03  0.7561462E-02  0.1265102E+00
          3   -1    0    0  501    0  0.00000000000E+00  0.00000000000E+00  0.97908382560E+02  0.97908382560E+02  0.00000000000E+00 0. -1.
         -3   -1    0    0    0  501 -0.00000000000E+00 -0.00000000000E+00 -0.13834335799E+03  0.13834335799E+03  0.00000000000E+00 0.  1.
         23    2    1    2    0    0  0.32700399286E+02 -0.57329614851E+01 -0.49188946995E+01  0.10203594671E+03  0.96358476198E+02 0.  0.
          5    1    1    2  502    0  0.27804282701E+02 -0.34627064418E+02  0.13272015769E+02  0.46537409998E+02  0.41800000000E+01 0.  1.
         -5    1    1    2    0  502 -0.60504681987E+02  0.40360025903E+02 -0.48788096503E+02  0.87678383845E+02  0.41800000000E+01 0.  1.
        -11    1    3    3    0    0 -0.23284848801E+02 -0.28916374391E+02  0.12182063115E+02  0.39073565915E+02  0.00000000000E+00 0.  1.
         11    1    3    3    0    0  0.55985248087E+02  0.23183412906E+02 -0.17100957814E+02  0.62962380795E+02  0.00000000000E+00 0. -1.
</event>
<event>
 7    1  0.5137842E-006  0.8733584E+02  0.7561462E-02  0.1309435E+00
         -2   -1    0    0    0  501 -0.00000000000E+00  0.00000000000E+00  0.92234061923E+02  0.92234061923E+02  0.00000000000E+00 0.  1.
          2   -1    0    0  501    0  0.00000000000E+00 -0.00000000000E+00 -0.15128748975E+03  0.15128748975E+03  0.00000000000E+00 0. -1.
         23    2    1    2    0    0 -0.13588165149E+02  0.30974734728E+02 -0.58505472081E+02  0.11393691189E+03  0.91731440651E+02 0.  0.
          5    1    1    2  502    0  0.42723097811E+02 -0.22748342168E+02 -0.51102700586E+02  0.70510343675E+02  0.41800000000E+01 0.  1.
         -5    1    1    2    0  502 -0.29134932663E+02 -0.82263925608E+01  0.50554744836E+02  0.59074296113E+02  0.41800000000E+01 0.  1.
        -11    1    3    3    0    0  0.29388866404E+02  0.41904792745E+02 -0.19155606448E+02  0.54650291691E+02  0.00000000000E+00 0.  1.
         11    1    3    3    0    0 -0.42977031553E+02 -0.10930058017E+02 -0.39349865633E+02  0.59286620199E+02  0.00000000000E+00 0. -1.
</event>
<event>
 7    1  0.5137842E-006  0.1274246E+03  0.7561462E-02  0.1231328E+00
          2   -1    0    0  501    0  0.00000000000E+00  0.00000000000E+00  0.49739145127E+03  0.49739145127E+03  0.00000000000E+00 0.  1.
         -2   -1    0    0    0  501 -0.00000000000E+00 -0.00000000000E+00 -0.45553841277E+02  0.45553841277E+02  0.00000000000E+00 0. -1.
         23    2    1    2    0    0  0.72189133667E+02 -0.56113511832E+02  0.29670142152E+03  0.32368687795E+03  0.91550336929E+02 0.  0.
          5    1    1    2  502    0  0.14486951526E+02 -0.12453465774E+02 -0.88480308848E+01  0.21464403669E+02  0.41800000000E+01 0.  1.
         -5    1    1    2    0  502 -0.86676085193E+02  0.68566977606E+02  0.16398421935E+03  0.19779401093E+03  0.41800000000E+01 0.  1.
        -11    1    3    3    0    0 -0.10639855371E+02 -0.38595615607E+02  0.58500911949E+02  0.70888537615E+02  0.00000000000E+00 0. -1.
         11    1    3    3    0    0  0.82828989039E+02 -0.17517896226E+02  0.23820050958E+03  0.25279834033E+03  0.00000000000E+00 0.  1.
</event>
<event>
 7    1  0.5137842E-006  0.1101379E+03  0.7561462E-02  0.1260315E+00
          1   -1    0    0  501    0  0.00000000000E+00  0.00000000000E+00  0.20760415490E+02  0.20760415490E+02  0.00000000000E+00 0. -1.
         -1   -1    0    0    0  501 -0.00000000000E+00 -0.00000000000E+00 -0.61431093393E+03  0.61431093393E+03  0.00000000000E+00 0.  1.
         23    2    1    2    0    0  0.95950634516E+01 -0.26468287417E+02 -0.23667630277E+03  0.25583679742E+03  0.92973970240E+02 0.  0.
          5    1    1    2  502    0  0.32723354810E+02 -0.35494947379E+02 -0.93001393868E+02  0.10486868408E+03  0.41800000000E+01 0. -1.
         -5    1    1    2    0  502 -0.42318418262E+02  0.61963234796E+02 -0.26387282180E+03  0.27436586791E+03  0.41800000000E+01 0. -1.
        -11    1    3    3    0    0 -0.22627161149E+02 -0.51245827980E+02 -0.12447071259E+03  0.13649572008E+03  0.00000000000E+00 0. -1.
         11    1    3    3    0    0  0.32222224601E+02  0.24777540563E+02 -0.11220559018E+03  0.11934107735E+03  0.00000000000E+00 0.  1.
</event>
<event>
 7    1  0.5137842E-006  0.9263834E+02  0.7561462E-02  0.1296585E+00
         -2   -1    0    0    0  501 -0.00000000000E+00  0.00000000000E+00  0.22423295416E+02  0.22423295416E+02  0.00000000000E+00 0.  1.
          2   -1    0    0  501    0  0.00000000000E+00 -0.00000000000E+00 -0.66523588180E+03  0.66523588180E+03  0.00000000000E+00 0. -1.
         23    2    1    2    0    0 -0.43888518131E+02  0.33247335248E+02 -0.30502140854E+03  0.32326515675E+03  0.91818922779E+02 0.  0.
          5    1    1    2  502    0 -0.79412177457E+01  0.81704886923E+01  0.64836738447E+01  0.13759732965E+02  0.41800000000E+01 0.  1.
         -5    1    1    2    0  502  0.51829735877E+02 -0.41417823940E+02 -0.34427485169E+03  0.35063428750E+03  0.41800000000E+01 0.  1.
        -11    1    3    3    0    0 -0.71818381654E+02  0.15198776723E+02 -0.19657254231E+03  0.20983242635E+03  0.00000000000E+00 0. -1.
         11    1    3    3    0    0  0.27929863522E+02  0.18048558525E+02 -0.10844886622E+03  0.11343273040E+03  0.00000000000E+00 0.  1.
</event>
<event>
 7    1  0.5137842E-006  0.1086835E+03  0.7561462E-02  0.1263027E+00
         -1   -1    0    0    0  501 -0.00000000000E+00  0.00000000000E+00  0.35878168786E+02  0.35878168786E+02  0.00000000000E+00 0.  1.
          1   -1    0    0  501    0  0.00000000000E+00 -0.00000000000E+00 -0.60016422616E+03  0.60016422616E+03  0.00000000000E+00 0. -1.
         23    2    1    2    0    0 -0.75482019569E+02 -0.52226308991E+02 -0.24936891516E+03  0.28406160398E+03  0.10040426476E+03 0.  0.
          5    1    1    2  502    0  0.76408404063E+02  0.25678252523E+02 -0.73800107089E+02  0.10936884872E+03  0.41800000000E+01 0. -1.
         -5    1    1    2    0  502 -0.92638449462E+00  0.26548056468E+02 -0.24111703513E+03  0.24261194225E+03  0.41800000000E+01 0.  1.
        -11    1    3    3    0    0 -0.35523508046E+02 -0.59352313058E+02 -0.63785664928E+02  0.94091592289E+02  0.00000000000E+00 0.  1.
         11    1    3    3    0    0 -0.39958511523E+02  0.71260040668E+01 -0.18558325023E+03  0.18997001169E+03  0.00000000000E+00 0. -1.
</event>
<event>
 7    1  0.5137842E-006  0.1259023E+03  0.7561462E-02  0.1233666E+00
          2   -1    0    0  501    0  0.00000000000E+00  0.00000000000E+00  0.45632692860E+03  0.45632692860E+03  0.00000000000E+00 0. -1.
         -2   -1    0    0    0  501 -0.00000000000E+00 -0.00000000000E+00 -0.83749362151E+02  0.83749362151E+02  0.00000000000E+00 0.  1.
         23    2    1    2    0    0  0.48537112857E+02  0.82012843013E+02  0.35871988025E+03  0.38230875304E+03  0.91640997490E+02 0.  0.
          5    1    1    2  502    0 -0.34989887577E+01 -0.86292216240E+02 -0.32955600206E+02  0.92531797188E+02  0.41800000000E+01 0.  1.
         -5    1    1    2    0  502 -0.45038124099E+02  0.42793732265E+01  0.46813286407E+02  0.65235740525E+02  0.41800000000E+01 0.  1.
        -11    1    3    3    0    0  0.14025815085E+02  0.84167581421E+02  0.31616144719E+03  0.32747361106E+03  0.00000000000E+00 0. -1.
         11    1    3    3    0    0  0.34511297772E+02 -0.21547384074E+01  0.42558433060E+02  0.54835141980E+02  0.00000000000E+00 0.  1.
</event>
<event>
 7    1  0.5137842E-006  0.1015263E+03  0.7561462E-02  0.1277119E+00
          1   -1    0    0  501    0  0.00000000000E+00  0.00000000000E+00  0.21535137077E+03  0.21535137077E+03  0.00000000000E+00 0. -1.
         -1   -1    0    0    0  501 -0.00000000000E+00 -0.00000000000E+00 -0.56789173251E+02  0.56789173251E+02  0.00000000000E+00 0.  1.
         23    2    1    2    0    0  0.61391076002E+01 -0.91543724024E+00  0.86754538589E+02  0.12777287767E+03  0.93600382660E+02 0.  0.
          5    1    1    2  502    0  0.51354367496E+02 -0.36515638993E+01  0.69372466742E+02  0.86490557414E+02  0.41800000000E+01 0.  1.
         -5    1    1    2    0  502 -0.57493475097E+02  0.45670011396E+01  0.24351921870E+01  0.57877108939E+02  0.41800000000E+01 0.  1.
        -11    1    3    3    0    0  0.40908835852E+02  0.26973173379E+02  0.40928907729E+02  0.63845598289E+02  0.00000000000E+00 0.  1.
         11    1    3    3    0    0 -0.34769728252E+02 -0.27888610619E+02  0.45825630860E+02  0.63927279378E+02  0.00000000000E+00 0. -1.
</event>
<event>
 7    1  0.5137842E-006  0.9765044E+02  0.7561462E-02  0.1285316E+00
         -1   -1    0    0    0  501 -0.00000000000E+00  0.00000000000E+00  0.68249715319E+02  0.68249715319E+02  0.00000000000E+00 0.  1.
          1   -1    0    0  501    0  0.00000000000E+00 -0.00000000000E+00 -0.26985104602E+03  0.26985104602E+03  0.00000000000E+00 0. -1.
         23    2    1    2    0    0  0.99855537271E+00  0.81210028417E+02 -0.10554835740E+03  0.16070423510E+03  0.89940700477E+02 0.  0.
          5    1    1    2  502    0  0.11320977895E+02 -0.23135053644E+02 -0.11263293273E+03  0.11561593827E+03  0.41800000000E+01 0. -1.
         -5    1    1    2    0  502 -0.12319533267E+02 -0.58074974773E+02  0.16579959424E+02  0.61780587965E+02  0.41800000000E+01 0. -1.
        -11    1    3    3    0    0 -0.36370457467E+02  0.39953728873E+02 -0.17981282259E+02  0.56942401941E+02  0.00000000000E+00 0.  1.
         11    1    3    3    0    0  0.37369012839E+02  0.41256299544E+02 -0.87567075139E+02  0.10376183316E+03  0.00000000000E+00 0. -1.
</event>
<event>
 7    1  0.5137842E-006  0.9592636E+02  0.7561462E-02  0.1289103E+00
          1   -1    0    0  501    0  0.00000000000E+00  0.00000000000E+00  0.42510378147E+03  0.42510378147E+03  0.00000000000E+00 0. -1.
         -1   -1    0    0    0  501 -0.00000000000E+00 -0.00000000000E+00 -0.30558155456E+02  0.30558155456E+02  0.00000000000E+00 0.  1.
         23    2    1    2    0    0 -0.28246782434E+02  0.16264309880E+02  0.18468803733E+03  0.20920643612E+03  0.92710588864E+02 0.  0.
          5    1    1    2  502    0 -0.19312199318E+00 -0.63030270226E+02  0.16107150258E+03  0.17301547216E+03  0.41800000000E+01 0.  1.
         -5    1    1    2    0  502  0.28439904428E+02  0.46765960346E+02  0.48786086100E+02  0.73440028648E+02  0.41800000000E+01 0.  1.
        -11    1    3    3    0    0  0.56892203220E+01  0.34704154769E+02  0.15894995995E+03  0.16279384311E+03  0.00000000000E+00 0. -1.
         11    1    3    3    0    0 -0.33936002756E+02 -0.18439844888E+02  0.25738077374E+02  0.46412593006E+02  0.00000000000E+00 0.  1.
</event>
<event>
 7    1  0.5137842E-006  0.1945223E+03  0.7561462E-02  0.1154445E+00
          1   -1    0    0  501    0  0.00000000000E+00  0.00000000000E+00  0.67819428546E+02  0.67819428546E+02  0.00000000000E+00 0. -1.
         -1   -1    0    0    0  501 -0.00000000000E+00 -0.00000000000E+00 -0.65639343645E+03  0.65639343645E+03  0.00000000000E+00 0.  1.
         23    2    1    2    0    0 -0.26866623410E+02  0.17510507448E+03 -0.22359321468E+03  0.29966314017E+03  0.91763115482E+02 0.  0.
          5    1    1    2  502    0  0.40301837922E+02 -0.18444883157E+03 -0.36066828729E+03  0.40711754502E+03  0.41800000000E+01 0.  1.
         -5    1    1    2    0  502 -0.13435214512E+02  0.93437570870E+01 -0.43125059363E+01  0.17432179810E+02  0.41800000000E+01 0.  1.
        -11    1    3    3    0    0 -0.18255857987E+02  0.16928540641E+02  0.89237935741E+00  0.24912811564E+02  0.00000000000E+00 0. -1.
         11    1    3    3    0    0 -0.86107654227E+01  0.15817653384E+03 -0.22448559403E+03  0.27475032860E+03  0.00000000000E+00 0.  1.
</event>
<event>
 7    1  0.5137842E-006  0.9222403E+02  0.7561462E-02  0.1297554E+00
          4   -1    0    0  501    0  0.00000000000E+00  0.00000000000E+00  0.26170658704E+02  0.26170658704E+02  0.00000000000E+00 0. -1.
         -4   -1    0    0    0  501 -0.00000000000E+00 -0.00000000000E+00 -0.46254598998E+03  0.46254598998E+03  0.00000000000E+00 0.  1.
         23    2    1    2    0    0  0.13105400922E+02 -0.15168149828E+02 -0.20051292124E+03  0.22098176536E+03  0.90695560723E+02 0.  0.
          5    1    1    2  502    0  0.52964028744E+02  0.42240610912E+01 -0.64293872216E+02  0.83511708385E+02  0.41800000000E+01 0.  1.
         -5    1    1    2    0  502 -0.66069429666E+02  0.10944088737E+02 -0.17156853782E+03  0.18422317494E+03  0.41800000000E+01 0.  1.
        -11    1    3    3    0    0  0.17575334850E+02 -0.37427118859E+02 -0.19252356539E+03  0.19691369900E+03  0.00000000000E+00 0.  1.
         11    1    3    3    0    0 -0.44699339287E+01  0.22258969031E+02 -0.79893558488E+01  0.24068066364E+02  0.00000000000E+00 0. -1.
</event>
<event>
 7    1  0.5137842E-006  0.1299222E+03  0.7561462E-02  0.1227571E+00
         -1   -1    0    0    0  501 -0.00000000000E+00  0.00000000000E+00  0.71984068569E+02  0.71984068569E+02  0.00000000000E+00 0.  1.
          1   -1    0    0  501    0  0.00000000000E+00 -0.00000000000E+00 -0.40364844221E+03  0.40364844221E+03  0.00000000000E+00 0. -1.
         23    2    1    2    0    0 -0.75938612807E+02 -0.71650435533E+01 -0.30394952391E+03  0.32658013214E+03  0.91930728584E+02 0.  0.
          5    1    1    2  502    0 -0.34704655918E+02  0.64374948573E+01 -0.99678178132E+01  0.36914553693E+02  0.41800000000E+01 0.  1.
         -5    1    1    2    0  502  0.11064326872E+03  0.72754869593E+00 -0.17747031913E+02  0.11213782494E+03  0.41800000000E+01 0.  1.
        -11    1    3    3    0    0 -0.13742113381E+02  0.35557408970E+02 -0.15486710907E+03  0.15948980056E+03  0.00000000000E+00 0.  1.
         11    1    3    3    0    0 -0.62196499426E+02 -0.42722452524E+02 -0.14908241485E+03  0.16709033158E+03  0.00000000000E+00 0. -1.
</event>
<event>
 7    1  0.5137842E-006  0.1188375E+03  0.7561462E-02  0.1245027E+00
         -1   -1    0    0    0  501 -0.00000000000E+00  0.00000000000E+00  0.63782098430E+02  0.63782098430E+02  0.00000000000E+00 0.  1.
          1   -1    0    0  501    0  0.00000000000E+00 -0.00000000000E+00 -0.27522091304E+03  0.27522091304E+03  0.00000000000E+00 0. -1.
         23    2    1    2    0    0  0.55534323727E+02 -0.42009557118E+02 -0.91676393894E+02  0.15233766554E+03  0.99766422934E+02 0.  0.
          5    1    1    2  502    0 -0.36330706894E+02  0.75625532477E+02 -0.12147114906E+03  0.14768836745E+03  0.41800000000E+01 0. -1.
         -5    1    1    2    0  502 -0.19203616833E+02 -0.33615975359E+02  0.17087283408E+01  0.38976978479E+02  0.41800000000E+01 0. -1.
        -11    1    3    3    0    0  0.80946945243E+02 -0.27627741400E+02 -0.88316344808E+02  0.12294501535E+03  0.00000000000E+00 0. -1.
         11    1    3    3    0    0 -0.25412621516E+02 -0.14381815718E+02 -0.33600490859E+01  0.29392650195E+02  0.00000000000E+00 0.  1.
</event>
<event>
 7    1  0.5137842E-006  0.1299709E+03  0.7561462E-02  0.1227499E+00
         -4   -1    0    0    0  501 -0.00000000000E+00  0.00000000000E+00  0.26275566588E+03  0.26275566588E+03  0.00000000000E+00 0.  1.
          4   -1    0    0  501    0  0.00000000000E+00 -0.00000000000E+00 -0.82714343093E+02  0.82714343093E+02  0.00000000000E+00 0. -1.
         23    2    1    2    0    0  0.79879501740E+02  0.58002650064E+02  0.72929675499E+02  0.15346409077E+03  0.92127343245E+02 0.  0.
          5    1    1    2  502    0  0.13052513296E+02 -0.23498638906E+02  0.86489465761E+02  0.90666720583E+02  0.41800000000E+01 0. -1.
         -5    1    1    2    0  502 -0.92932015036E+02 -0.34504011158E+02  0.20622181531E+02  0.10133919763E+03  0.41800000000E+01 0. -1.
        -11    1    3    3    0    0  0.82607816036E+02  0.77835004884E+02  0.53175306965E+02  0.12533934947E+03  0.00000000000E+00 0. -1.
         11    1    3    3    0    0 -0.27283142959E+01 -0.19832354820E+02  0.19754368534E+02  0.28124741292E+02  0.00000000000E+00 0.  1.
</event>
<event>
 7    1  0.5137842E-006  0.1693879E+03  0.7561462E-02  0.1178488E+00
         -2   -1    0    0    0  501 -0.00000000000E+00  0.00000000000E+00  0.34925716493E+02  0.34925716493E+02  0.00000000000E+00 0.  1.
          2   -1    0    0  501    0  0.00000000000E+00 -0.00000000000E+00 -0.11024634936E+04  0.11024634936E+04  0.00000000000E+00 0. -1.
         23    2    1    2    0    0  0.63923990113E+02  0.14100731652E+03 -0.64654879730E+03  0.67171877825E+03  0.95976194692E+02 0.  0.
          5    1    1    2  502    0 -0.19032302819E+02 -0.13268926533E+02 -0.23174347930E+03  0.23293948906E+03  0.41800000000E+01 0. -1.
         -5    1    1    2    0  502 -0.44891687295E+02 -0.12773838998E+03 -0.18924550046E+03  0.23273094274E+03  0.41800000000E+01 0. -1.
        -11    1    3    3    0    0  0.86797394028E+02  0.12342628364E+03 -0.49651091395E+03  0.51893248383E+03  0.00000000000E+00 0.  1.
         11    1    3    3    0    0 -0.22873403915E+02  0.17581032872E+02 -0.15003788335E+03  0.15278629442E+03  0.00000000000E+00 0. -1.
</event>
<event>
 7    1  0.5137842E-006  0.6663607E+02  0.7561462E-02  0.1371921E+00
         -2   -1    0    0    0  501 -0.00000000000E+00  0.00000000000E+00  0.67075748816E+02  0.67075748816E+02  0.00000000000E+00 0.  1.
          2   -1    0    0  501    0  0.00000000000E+00 -0.00000000000E+00 -0.19077775132E+03  0.19077775132E+03  0.00000000000E+00 0. -1.
         23    2    1    2    0    0 -0.21149873180E+02 -0.19922381966E+02 -0.92751309272E+02  0.12578378883E+03  0.79840702161E+02 0.  0.
          5    1    1    2  502    0  0.39168121932E+02  0.86566411602E+01 -0.73775746587E+02  0.84079797789E+02  0.41800000000E+01 0. -1.
         -5    1    1    2    0  502 -0.18018248752E+02  0.11265740805E+02  0.42825053358E+02  0.47989913515E+02  0.41800000000E+01 0. -1.
        -11    1    3    3    0    0 -0.38180103146E+02  0.75901507982E+01 -0.15265544307E+02  0.41813484768E+02  0.00000000000E+00 0.  1.
         11    1    3    3    0    0  0.17030229967E+02 -0.27512532764E+02 -0.77485764965E+02  0.83970304060E+02  0.00000000000E+00 0. -1.
</event>
<event>
 7    1  0.5137842E-006  0.1035201E+03  0.7561462E-02  0.1273063E+00
          1   -1    0    0  501    0  0.00000000000E+00  0.00000000000E+00  0.16799877706E+03  0.16799877706E+03  0.00000000000E+00 0. -1.
         -1   -1    0    0    0  501 -0.00000000000E+00 -0.00000000000E+00 -0.79254863089E+02  0.79254863089E+02  0.00000000000E+00 0.  1.
         23    2    1    2    0    0  0.28256086700E+02  0.30017452213E+02  0.53801721518E+02  0.11098965853E+03  0.87889846909E+02 0.  0.
          5    1    1    2  502    0 -0.61463858402E+02 -0.49942462516E+02  0.50828841415E+02  0.94197128255E+02  0.41800000000E+01 0. -1.
         -5    1    1    2    0  502  0.33207771702E+02  0.19925010303E+02 -0.15886648958E+02  0.42066853366E+02  0.41800000000E+01 0. -1.
        -11    1    3    3    0    0  0.33036384295E+02  0.54557697830E+02  0.16150424862E+02  0.65793474623E+02  0.00000000000E+00 0.  1.
         11    1    3    3    0    0 -0.47802975949E+01 -0.24540245617E+02  0.37651296656E+02  0.45196183908E+02  0.00000000000E+00 0. -1.
</event>
<event>
 7    1  0.5137842E-006  0.1075491E+03  0.7561462E-02  0.1265177E+00
         -1   -1    0    0    0  501 -0.00000000000E+00  0.00000000000E+00  0.69178137875E+02  0.69178137875E+02  0.00000000000E+00 0.  1.
          1   -1    0    0  501    0  0.00000000000E+00 -0.00000000000E+00 -0.17174905792E+03  0.17174905792E+03  0.00000000000E+00 0. -1.
         23    2    1    2    0    0  0.15577100729E+02 -0.40086161576E+01 -0.47021569767E+02  0.10310688488E+03  0.90339839587E+02 0.  0.
          5    1    1    2  502    0  0.27309528391E+02  0.52471472488E+02 -0.38723612634E+02  0.70824122596E+02  0.41800000000E+01 0.  1.
         -5    1    1    2    0  502 -0.42886629121E+02 -0.48462856331E+02 -0.16825737640E+02  0.66996188311E+02  0.41800000000E+01 0.  1.
        -11    1    3    3    0    0 -0.13828018014E+02  0.37563807513E+02 -0.27537769304E+02  0.48585825663E+02  0.00000000000E+00 0. -1.
         11    1    3    3    0    0  0.29405118743E+02 -0.41572423671E+02 -0.19483800464E+02  0.54521059222E+02  0.00000000000E+00 0.  1.
</event>
<event>
 7    1  0.5166286E-006  0.2473607E+03  0.7561462E-02  0.1114984E+00
          2   -1    0    0  501    0  0.00000000000E+00  0.00000000000E+00  0.21311531302E+04  0.21311531302E+04  0.00000000000E+00 0. -1.
         -2   -1    0    0    0  501 -0.00000000000E+00 -0.00000000000E+00 -0.33313418386E+02  0.33313418386E+02  0.00000000000E+00 0.  1.
         23    2    1    2    0    0 -0.83061807044E+02 -0.22263653936E+03  0.12354458084E+04  0.12612288351E+04  0.88913083679E+02 0.  0.
          5    1    1    2  502    0  0.43205283222E+02  0.18856242936E+03  0.48464113651E+03  0.52184000408E+03  0.41800000000E+01 0. -1.
         -5    1    1    2    0  502  0.39856523822E+02  0.34074110004E+02  0.37775276690E+03  0.38139770944E+03  0.41800000000E+01 0. -1.
        -11    1    3    3    0    0 -0.70780490981E+02 -0.85753303187E+02  0.43008571329E+03  0.44422654996E+03  0.00000000000E+00 0. -1.
         11    1    3    3    0    0 -0.12281316063E+02 -0.13688323617E+03  0.80536009510E+03  0.81700228509E+03  0.00000000000E+00 0.  1.
</event>
<event>
 7    1  0.5137842E-006  0.1159509E+03  0.7561462E-02  0.1249930E+00
          1   -1    0    0  501    0  0.00000000000E+00  0.00000000000E+00  0.62704693185E+02  0.62704693185E+02  0.00000000000E+00 0. -1.
         -1   -1    0    0    0  501 -0.00000000000E+00 -0.00000000000E+00 -0.30759358564E+03  0.30759358564E+03  0.00000000000E+00 0.  1.
         23    2    1    2    0    0 -0.18862296175E+02  0.56413943973E+02 -0.31716659021E+02  0.11607135864E+03  0.94489653110E+02 0.  0.
          5    1    1    2  502    0  0.68988797914E+02 -0.27101081746E+02 -0.81416020129E+02  0.11018150300E+03  0.41800000000E+01 0. -1.
         -5    1    1    2    0  502 -0.50126501739E+02 -0.29312862227E+02 -0.13175621330E+03  0.14404541719E+03  0.41800000000E+01 0. -1.
        -11    1    3    3    0    0 -0.49409606310E+02  0.24087389924E+02 -0.43457029207E+02  0.70071570102E+02  0.00000000000E+00 0.  1.
         11    1    3    3    0    0  0.30547310135E+02  0.32326554049E+02  0.11740370186E+02  0.45999788536E+02  0.00000000000E+00 0. -1.
</event>
<event>
 7    1  0.5137842E-006  0.1474214E+03  0.7561462E-02  0.1203678E+00
          1   -1    0    0  501    0  0.00000000000E+00  0.00000000000E+00  0.40877085826E+03  0.40877085826E+03  0.00000000000E+00 0. -1.
         -1   -1    0    0    0  501 -0.00000000000E+00 -0.00000000000E+00 -0.61999244910E+02  0.61999244910E+02  0.00000000000E+00 0.  1.
         23    2    1    2    0    0 -0.30175629849E+02 -0.11232622972E+03  0.14822851680E+03  0.20886382159E+03  0.90136852929E+02 0.  0.
          5    1    1    2  502    0  0.23684095395E+02 -0.12731594085E+02  0.96654547937E+02  0.10041217008E+03  0.41800000000E+01 0. -1.
         -5    1    1    2    0  502  0.64915344545E+01  0.12505782380E+03  0.10188854861E+03  0.16149411151E+03  0.41800000000E+01 0. -1.
        -11    1    3    3    0    0 -0.58647936186E+02 -0.80995228184E+02  0.77835801900E+02  0.12672103008E+03  0.00000000000E+00 0. -1.
         11    1    3    3    0    0  0.28472306337E+02 -0.31331001532E+02  0.70392714903E+02  0.82142791507E+02  0.00000000000E+00 0.  1.
</event>
<event>
 7    1  0.5137842E-006  0.9036595E+02  0.7561462E-02  0.1301968E+00
          2   -1    0    0  501    0  0.00000000000E+00  0.00000000000E+00  0.20329657021E+03  0.20329657021E+03  0.00000000000E+00 0. -1.
         -2   -1    0    0    0  501 -0.00000000000E+00 -0.00000000000E+00 -0.12625206588E+03  0.12625206588E+03  0.00000000000E+00 0.  1.
         23    2    1    2    0    0 -0.27822716959E+02  0.74777910693E+01  0.15132749908E+03  0.18120124289E+03  0.95414136847E+02 0.  0.
          5    1    1    2  502    0 -0.11062021237E+02  0.28381707297E+02  0.22413879810E+02  0.38049231676E+02  0.41800000000E+01 0.  1.
         -5    1    1    2    0  502  0.38884738195E+02 -0.35859498367E+02 -0.96696874550E+02  0.11029816152E+03  0.41800000000E+01 0.  1.
        -11    1    3    3    0    0  0.34137942929E+02  0.75557942280E+01  0.35409715815E+02  0.49762808883E+02  0.00000000000E+00 0.  1.
         11    1    3    3    0    0 -0.61960659888E+02 -0.78003158702E-01  0.11591778326E+03  0.13143843401E+03  0.00000000000E+00 0. -1.
</event>
<event>
 7    1  0.5137842E-006  0.1753533E+03  0.7561462E-02  0.1172377E+00
          1   -1    0    0  501    0  0.00000000000E+00  0.00000000000E+00  0.69564716041E+03  0.69564716041E+03  0.00000000000E+00 0. -1.
         -1   -1    0    0    0  501 -0.00000000000E+00 -0.00000000000E+00 -0.48889217834E+02  0.48889217834E+02  0.00000000000E+00 0.  1.
         23    2    1    2    0    0 -0.44156055229E+02  0.13435659494E+03  0.39459921131E+03  0.42952428236E+03  0.93707629134E+02 0.  0.
          5    1    1    2  502    0  0.83833598349E+02 -0.70060386076E+02  0.17906463216E+03  0.20980501614E+03  0.41800000000E+01 0. -1.
         -5    1    1    2    0  502 -0.39677543120E+02 -0.64296208863E+02  0.73094099114E+02  0.10520707974E+03  0.41800000000E+01 0. -1.
        -11    1    3    3    0    0  0.22093386534E+02  0.88798304181E+01  0.96260681366E+02  0.99161927643E+02  0.00000000000E+00 0. -1.
         11    1    3    3    0    0 -0.66249441763E+02  0.12547676452E+03  0.29833852994E+03  0.33036235472E+03  0.00000000000E+00 0.  1.
</event>
<event>
 7    1  0.5137842E-006  0.9817384E+02  0.7561462E-02  0.1284184E+00
         -1   -1    0    0    0  501 -0.00000000000E+00  0.00000000000E+00  0.16435218974E+03  0.16435218974E+03  0.00000000000E+00 0.  1.
          1   -1    0    0  501    0  0.00000000000E+00 -0.00000000000E+00 -0.94179810619E+02  0.94179810619E+02  0.00000000000E+00 0. -1.
         23    2    1    2    0    0 -0.93919421893E+01 -0.47038245191E+02 -0.72922012861E+01  0.10378252394E+03  0.91743288513E+02 0.  0.
          5    1    1    2  502    0  0.24591097679E+02 -0.23050415776E+02  0.75608062678E+02  0.82886037994E+02  0.41800000000E+01 0.  1.
         -5    1    1    2    0  502 -0.15199155490E+02  0.70088660967E+02  0.18565177282E+01  0.71863438422E+02  0.41800000000E+01 0.  1.
        -11    1    3    3    0    0  0.18437450897E+02 -0.57828632387E+02 -0.28611830737E+02  0.67102363427E+02  0.00000000000E+00 0. -1.
         11    1    3    3    0    0 -0.27829393087E+02  0.10790387196E+02  0.21319629451E+02  0.36680160514E+02  0.00000000000E+00 0.  1.
</event>
<event>
 7    1  0.5137842E-006  0.1771946E+03  0.7561462E-02  0.1170546E+00
          2   -1    0    0  501    0  0.00000000000E+00  0.00000000000E+00  0.36051319606E+02  0.36051319606E+02  0.00000000000E+00 0. -1.
         -2   -1    0    0    0  501 -0.00000000000E+00 -0.00000000000E+00 -0.10118205725E+04  0.10118205725E+04  0.00000000000E+00 0.  1.
         23    2    1    2    0    0  0.14001879545E+03  0.25249533546E+02 -0.30039510904E+03  0.34642978599E+03  0.97640017721E+02 0.  0.
          5    1    1    2  502    0 -0.94356922700E+02 -0.72111354071E+02 -0.50733200695E+03  0.52106286945E+03  0.41800000000E+01 0.  1.
         -5    1    1    2    0  502 -0.45661872748E+02  0.46861820525E+02 -0.16804213693E+03  0.18037923670E+03  0.41800000000E+01 0.  1.
        -11    1    3    3    0    0 -0.65164805814E+01  0.22510288110E+02 -0.23779828198E+02  0.33386491566E+02  0.00000000000E+00 0.  1.
         11    1    3    3    0    0  0.14653527603E+03  0.27392454361E+01 -0.27661528084E+03  0.31304329442E+03  0.00000000000E+00 0. -1.
</event>
<event>
 7    1  0.5137842E-006  0.1221863E+03  0.7561462E-02  0.1239533E+00
          2   -1    0    0  501    0  0.00000000000E+00  0.00000000000E+00  0.41636328822E+03  0.41636328822E+03  0.00000000000E+00 0. -1.
         -2   -1    0    0    0  501 -0.00000000000E+00 -0.00000000000E+00 -0.41560810085E+02  0.41560810085E+02  0.00000000000E+00 0.  1.
         23    2    1    2    0    0 -0.22539471627E+02  0.69929408486E+02  0.19126640573E+03  0.22397370003E+03  0.90461209336E+02 0.  0.
          5    1    1    2  502    0 -0.37030260854E+02 -0.74608395870E+02  0.88421653781E+02  0.12154634594E+03  0.41800000000E+01 0. -1.
         -5    1    1    2    0  502  0.59569732480E+02  0.46789873837E+01  0.95114418629E+02  0.11240405234E+03  0.41800000000E+01 0. -1.
        -11    1    3    3    0    0 -0.47691548652E+02  0.48690795344E+02  0.67578161450E+02  0.95979608611E+02  0.00000000000E+00 0.  1.
         11    1    3    3    0    0  0.25152077026E+02  0.21238613142E+02  0.12368824428E+03  0.12799409142E+03  0.00000000000E+00 0. -1.
</event>
<event>
 7    1  0.5137842E-006  0.1396625E+03  0.7561462E-02  0.1213784E+00
          1   -1    0    0  501    0  0.00000000000E+00  0.00000000000E+00  0.17726412523E+03  0.17726412523E+03  0.00000000000E+00 0. -1.
         -1   -1    0    0    0  501 -0.00000000000E+00 -0.00000000000E+00 -0.14453965974E+03  0.14453965974E+03  0.00000000000E+00 0.  1.
         23    2    1    2    0    0  0.36928732730E+02  0.10416619999E+03  0.54594491498E+02  0.15345873094E+03  0.91404021127E+02 0.  0.
          5    1    1    2  502    0  0.42907466529E+02 -0.55047349054E+02 -0.25555339045E+02  0.74443327945E+02  0.41800000000E+01 0. -1.
         -5    1    1    2    0  502 -0.79836199259E+02 -0.49118850935E+02  0.36853130357E+01  0.93901726084E+02  0.41800000000E+01 0. -1.
        -11    1    3    3    0    0  0.32691399617E+02  0.41797635262E+02 -0.19484850052E+02  0.56528128431E+02  0.00000000000E+00 0. -1.
         11    1    3    3    0    0  0.42373331132E+01  0.62368564728E+02  0.74079341550E+02  0.96930602508E+02  0.00000000000E+00 0.  1.
</event>
<event>
 7    1  0.5137842E-006  0.1195777E+03  0.7561462E-02  0.1243795E+00
         -1   -1    0    0    0  501 -0.00000000000E+00  0.00000000000E+00  0.15400888828E+03  0.15400888828E+03  0.00000000000E+00 0.  1.
          1   -1    0    0  501    0  0.00000000000E+00 -0.00000000000E+00 -0.99348493726E+02  0.99348493726E+02  0.00000000000E+00 0. -1.
         23    2    1    2    0    0  0.52067379678E+02 -0.42307777776E+02  0.81660110843E+01  0.11451477506E+03  0.92444523277E+02 0.  0.
          5    1    1    2  502    0 -0.79918808324E+02  0.48615820028E+01  0.12942628917E+02  0.81213514558E+02  0.41800000000E+01 0. -1.
         -5    1    1    2    0  502  0.27851428646E+02  0.37446195773E+02  0.33551754551E+02  0.57629092384E+02  0.41800000000E+01 0.  1.
        -11    1    3    3    0    0 -0.24224175359E+02  0.12829803912E+01  0.10925079752E+02  0.26604775476E+02  0.00000000000E+00 0. -1.
         11    1    3    3    0    0  0.76291555038E+02 -0.43590758167E+02 -0.27590686675E+01  0.87909999588E+02  0.00000000000E+00 0.  1.
</event>
<event>
 7    1  0.5137842E-006  0.1116882E+03  0.7561462E-02  0.1257475E+00
          2   -1    0    0  501    0  0.00000000000E+00  0.00000000000E+00  0.92235750883E+03  0.92235750883E+03  0.00000000000E+00 0. -1.
         -2   -1    0    0    0  501 -0.00000000000E+00 -0.00000000000E+00 -0.22368991343E+02  0.22368991343E+02  0.00000000000E+00 0.  1.
         23    2    1    2    0    0 -0.59190363991E+02  0.52124470673E+02  0.56825387537E+03  0.58152458350E+03  0.95067947810E+02 0.  0.
          5    1    1    2  502    0  0.45879271914E+02 -0.66165970004E+02  0.90692780729E+02  0.12134865493E+03  0.41800000000E+01 0. -1.
         -5    1    1    2    0  502  0.13311092077E+02  0.14041499331E+02  0.24104186138E+03  0.24185326174E+03  0.41800000000E+01 0. -1.
        -11    1    3    3    0    0  0.23645912402E+02  0.28063887085E+02  0.19614707549E+03  0.19955046017E+03  0.00000000000E+00 0. -1.
         11    1    3    3    0    0 -0.82836276394E+02  0.24060583588E+02  0.37210679988E+03  0.38197412332E+03  0.00000000000E+00 0.  1.
</event>
<event>
 7    1  0.5137842E-006  0.6053639E+02  0.7561462E-02  0.1395594E+00
         -2   -1    0    0    0  501 -0.00000000000E+00  0.00000000000E+00  0.19066042509E+03  0.19066042509E+03  0.00000000000E+00 0.  1.
          2   -1    0    0  501    0  0.00000000000E+00 -0.00000000000E+00 -0.90298940937E+02  0.90298940937E+02  0.00000000000E+00 0. -1.
         23    2    1    2    0    0 -0.49086267458E+01 -0.23921732529E+02 -0.29118345570E+02  0.99276228024E+02  0.91714489031E+02 0.  0.
          5    1    1    2  502    0 -0.20235471362E+02 -0.58258464869E-01  0.14276317080E+03  0.14425072975E+03  0.41800000000E+01 0. -1.
         -5    1    1    2    0  502  0.25144098108E+02  0.23979990993E+02 -0.13283341078E+02  0.37432408257E+02  0.41800000000E+01 0. -1.
        -11    1    3    3    0    0 -0.45208480571E+01 -0.44551523727E+02  0.17669827669E+02  0.48140410711E+02  0.00000000000E+00 0.  1.
         11    1    3    3    0    0 -0.38777868865E+00  0.20629791198E+02 -0.46788173240E+02  0.51135817313E+02  0.00000000000E+00 0. -1.
</event>
<event>
 7    1  0.5137842E-006  0.1176110E+03  0.7561462E-02  0.1247091E+00
         -2   -1    0    0    0  501 -0.00000000000E+00  0.00000000000E+00  0.68627116703E+02  0.68627116703E+02  0.00000000000E+00 0.  1.
          2   -1    0    0  501    0  0.00000000000E+00 -0.00000000000E+00 -0.36342113935E+03  0.36342113935E+03  0.00000000000E+00 0. -1.
         23    2    1    2    0    0  0.55305548694E+02  0.41629605046E+02 -0.26094640229E+03  0.28513099400E+03  0.91732933789E+02 0.  0.
          5    1    1    2  502    0 -0.94593744941E+02 -0.36321332419E+02 -0.34278497883E+02  0.10705000508E+03  0.41800000000E+01 0.  1.
         -5    1    1    2    0  502  0.39288196247E+02 -0.53082726270E+01  0.43087752677E+00  0.39867256967E+02  0.41800000000E+01 0.  1.
        -11    1    3    3    0    0  0.63530316737E+02  0.13917657482E+02 -0.86055565988E+02  0.10786733876E+03  0.00000000000E+00 0.  1.
         11    1    3    3    0    0 -0.82247680433E+01  0.27711947564E+02 -0.17489083630E+03  0.17726365524E+03  0.00000000000E+00 0. -1.
</event>
<event>
 7    1  0.5137842E-006  0.2071214E+03  0.7561462E-02  0.1143866E+00
         -2   -1    0    0    0  501 -0.00000000000E+00  0.00000000000E+00  0.25482037147E+03  0.25482037147E+03  0.00000000000E+00 0.  1.
          2   -1    0    0  501    0  0.00000000000E+00 -0.00000000000E+00 -0.20078079928E+03  0.20078079928E+03  0.00000000000E+00 0. -1.
         23    2    1    2    0    0 -0.86544734955E+01 -0.18002757396E+03 -0.57244458185E+02  0.20959611219E+03  0.90381275463E+02 0.  0.
          5    1    1    2  502    0  0.60727370890E+02  0.82471727361E+02  0.82714973757E+02  0.13171423109E+03  0.41800000000E+01 0.  1.
         -5    1    1    2    0  502 -0.52072897395E+02  0.97555846594E+02  0.28569056612E+02  0.11429082747E+03  0.41800000000E+01 0.  1.
        -11    1    3    3    0    0  0.28379986740E+02 -0.15307102023E+02 -0.35951096349E+01  0.32444658004E+02  0.00000000000E+00 0. -1.
         11    1    3    3    0    0 -0.37034460235E+02 -0.16472047193E+03 -0.53649348550E+02  0.17715145418E+03  0.00000000000E+00 0.  1.
</event>
<event>
 7    1  0.5137842E-006  0.1611627E+03  0.7561462E-02  0.1187390E+00
          2   -1    0    0  501    0  0.00000000000E+00  0.00000000000E+00  0.42574670685E+03  0.42574670685E+03  0.00000000000E+00 0.  1.
         -2   -1    0    0    0  501 -0.00000000000E+00 -0.00000000000E+00 -0.74015670466E+02  0.74015670466E+02  0.00000000000E+00 0. -1.
         23    2    1    2    0    0  0.34964433154E+02 -0.13530859407E+03  0.17368392306E+03  0.24115185469E+03  0.91962952746E+02 0.  0.
          5    1    1    2  502    0 -0.72238487698E+02  0.12044532436E+03  0.16383487687E+03  0.21583515595E+03  0.41800000000E+01 0.  1.
         -5    1    1    2    0  502  0.37274054544E+02  0.14863269712E+02  0.14212236449E+02  0.42775366668E+02  0.41800000000E+01 0.  1.
        -11    1    3    3    0    0  0.26832577091E+02 -0.60030138357E+02  0.18222952317E+02  0.68232548653E+02  0.00000000000E+00 0. -1.
         11    1    3    3    0    0  0.81318560628E+01 -0.75278455713E+02  0.15546097074E+03  0.17291930604E+03  0.00000000000E+00 0.  1.
</event>
<event>
 7    1  0.5137842E-006  0.1042128E+03  0.7561462E-02  0.1271678E+00
         -1   -1    0    0    0  501 -0.00000000000E+00  0.00000000000E+00  0.23903121995E+02  0.23903121995E+02  0.00000000000E+00 0.  1.
          1   -1    0    0  501    0  0.00000000000E+00 -0.00000000000E+00 -0.65400487228E+03  0.65400487228E+03  0.00000000000E+00 0. -1.
         23    2    1    2    0    0  0.33827065474E+02 -0.34225351604E+02 -0.38751715229E+03  0.40076318423E+03  0.90144004063E+02 0.  0.
          5    1    1    2  502    0 -0.23042344736E+02 -0.35418743004E+02 -0.17256572070E+03  0.17771279461E+03  0.41800000000E+01 0.  1.
         -5    1    1    2    0  502 -0.10784720738E+02  0.69644094608E+02 -0.70018877300E+02  0.99432015435E+02  0.41800000000E+01 0.  1.
        -11    1    3    3    0    0 -0.27052063479E+02 -0.38304494297E+01 -0.55689657302E+02  0.62030834362E+02  0.00000000000E+00 0.  1.
         11    1    3    3    0    0  0.60879128953E+02 -0.30394902174E+02 -0.33182749499E+03  0.33873234987E+03  0.00000000000E+00 0. -1.
</event>
<event>
 7    1  0.5137842E-006  0.1085930E+03  0.7561462E-02  0.1263198E+00
         -2   -1    0    0    0  501 -0.00000000000E+00  0.00000000000E+00  0.84806375980E+02  0.84806375980E+02  0.00000000000E+00 0.  1.
          2   -1    0    0  501    0  0.00000000000E+00 -0.00000000000E+00 -0.16943345007E+03  0.16943345007E+03  0.00000000000E+00 0. -1.
         23    2    1    2    0    0  0.47690216735E+01  0.18417471648E+02 -0.88516070404E+02  0.12764853262E+03  0.89983922627E+02 0.  0.
          5    1    1    2  502    0 -0.56853347549E+02  0.20585684858E+02 -0.48558966363E+01  0.60803993954E+02  0.41800000000E+01 0. -1.
         -5    1    1    2    0  502  0.52084325876E+02 -0.39003156506E+02  0.87448929482E+01  0.65787299474E+02  0.41800000000E+01 0. -1.
        -11    1    3    3    0    0  0.47106569665E+02  0.11271058282E+02 -0.39619145238E+02  0.62575892561E+02  0.00000000000E+00 0.  1.
         11    1    3    3    0    0 -0.42337547992E+02  0.71464133659E+01 -0.48896925167E+02  0.65072640062E+02  0.00000000000E+00 0. -1.
</event>
<event>
 7    1  0.5137842E-006  0.9225280E+02  0.7561462E-02  0.1297486E+00
          2   -1    0    0  501    0  0.00000000000E+00  0.00000000000E+00  0.60966060716E+03  0.60966060716E+03  0.00000000000E+00 0. -1.
         -2   -1    0    0    0  501 -0.00000000000E+00 -0.00000000000E+00 -0.38991195935E+02  0.38991195935E+02  0.00000000000E+00 0.  1.
         23    2    1    2    0    0 -0.56890029028E+01 -0.69632799203E+02  0.33069603248E+03  0.34967256657E+03  0.89609968384E+02 0.  0.
          5    1    1    2  502    0 -0.23465062851E+02  0.31789543180E+02  0.24729802718E+03  0.25046950089E+03  0.41800000000E+01 0. -1.
         -5    1    1    2    0  502  0.29154065754E+02  0.37843256024E+02 -0.73246484363E+01  0.48509735633E+02  0.41800000000E+01 0.  1.
        -11    1    3    3    0    0 -0.46095320458E+01 -0.83140893716E+02  0.32405372719E+03  0.33458104265E+03  0.00000000000E+00 0.  1.
         11    1    3    3    0    0 -0.10794708571E+01  0.13508094513E+02  0.66423052913E+01  0.15091523922E+02  0.00000000000E+00 0. -1.
</event>
<event>
 7    1  0.5137842E-006  0.1639125E+03  0.7561462E-02  0.1184349E+00
         -2   -1    0    0    0  501 -0.00000000000E+00  0.00000000000E+00  0.92385823041E+02  0.92385823041E+02  0.00000000000E+00 0. -1.
          2   -1    0    0  501    0  0.00000000000E+00 -0.00000000000E+00 -0.61186210486E+03  0.61186210486E+03  0.00000000000E+00 0.  1.
         23    2    1    2    0    0 -0.13623046632E+03  0.14327315505E+02 -0.48923987350E+03  0.51629699950E+03  0.91885395705E+02 0.  0.
          5    1    1    2  502    0  0.75346077804E+02  0.53281347810E+02 -0.12980597194E+01  0.92385555278E+02  0.41800000000E+01 0.  1.
         -5    1    1    2    0  502  0.60884388518E+02 -0.67608663314E+02 -0.28938348594E+02  0.95565373121E+02  0.41800000000E+01 0.  1.
        -11    1    3    3    0    0 -0.76746458119E+02 -0.14763269681E+02 -0.13558778964E+03  0.15649927050E+03  0.00000000000E+00 0. -1.
         11    1    3    3    0    0 -0.59484008203E+02  0.29090585186E+02 -0.35365208386E+03  0.35979772900E+03  0.00000000000E+00 0.  1.
</event>
<event>
 7    1  0.5137842E-006  0.1109573E+03  0.7561462E-02  0.1258807E+00
          2   -1    0    0  501    0  0.00000000000E+00  0.00000000000E+00  0.27501148800E+02  0.27501148800E+02  0.00000000000E+00 0. -1.
         -2   -1    0    0    0  501 -0.00000000000E+00 -0.00000000000E+00 -0.54053949229E+03  0.54053949229E+03  0.00000000000E+00 0.  1.
         23    2    1    2    0    0  0.40671727133E+02 -0.35292261258E+02 -0.24390353669E+03  0.26641108101E+03  0.92661727712E+02 0.  0.
          5    1    1    2  502    0  0.29999548997E+02  0.38194270710E+02 -0.18655666154E+03  0.19282021580E+03  0.41800000000E+01 0.  1.
         -5    1    1    2    0  502 -0.70671276130E+02 -0.29020094511E+01 -0.82578145261E+02  0.10880934428E+03  0.41800000000E+01 0.  1.
        -11    1    3    3    0    0  0.53948821999E+02  0.10216375684E+02 -0.90544422669E+02  0.10589212531E+03  0.00000000000E+00 0.  1.
         11    1    3    3    0    0 -0.13277094866E+02 -0.45508636942E+02 -0.15335911402E+03  0.16051895569E+03  0.00000000000E+00 0. -1.
</event>
<event>
 7    1  0.5137842E-006  0.1007096E+03  0.7561462E-02  0.1278811E+00
         -2   -1    0    0    0  501 -0.00000000000E+00  0.00000000000E+00  0.48226302310E+03  0.48226302310E+03  0.00000000000E+00 0.  1.
          2   -1    0    0  501    0  0.00000000000E+00 -0.00000000000E+00 -0.29205467936E+02  0.29205467936E+02  0.00000000000E+00 0. -1.
         23    2    1    2    0    0  0.23666679824E+02 -0.31099501811E+01  0.10588862072E+03  0.14168068631E+03  0.91056209848E+02 0.  0.
          5    1    1    2  502    0 -0.17302742867E+02 -0.60610716435E+02  0.17168344912E+03  0.18293639047E+03  0.41800000000E+01 0.  1.
         -5    1    1    2    0  502 -0.63639369572E+01  0.63720666616E+02  0.17548548533E+03  0.18685141426E+03  0.41800000000E+01 0.  1.
        -11    1    3    3    0    0  0.31473680508E+02  0.27923039052E+02  0.13941710792E+02  0.44324485044E+02  0.00000000000E+00 0. -1.
         11    1    3    3    0    0 -0.78070006836E+01 -0.31032989233E+02  0.91946909923E+02  0.97356201265E+02  0.00000000000E+00 0.  1.
</event>
<event>
 7    1  0.5137842E-006  0.1033920E+03  0.7561462E-02  0.1273320E+00
         -2   -1    0    0    0  501 -0.00000000000E+00  0.00000000000E+00  0.56201970939E+02  0.56201970939E+02  0.00000000000E+00 0.  1.
          2   -1    0    0  501    0  0.00000000000E+00 -0.00000000000E+00 -0.35105510706E+03  0.35105510706E+03  0.00000000000E+00 0. -1.
         23    2    1    2    0    0  0.20931065918E+02  0.53542468152E+02 -0.19797939910E+03  0.22527798844E+03  0.90826340832E+02 0.  0.
          5    1    1    2  502    0  0.32344269434E+02 -0.41658151648E+02 -0.11311505336E+03  0.12487610284E+03  0.41800000000E+01 0. -1.
         -5    1    1    2    0  502 -0.53275335352E+02 -0.11884316504E+02  0.16241316344E+02  0.57102986719E+02  0.41800000000E+01 0.  1.
        -11    1    3    3    0    0 -0.30046589101E+02  0.88077376333E+01 -0.10893645653E+03  0.11334692462E+03  0.00000000000E+00 0.  1.
         11    1    3    3    0    0  0.50977655020E+02  0.44734730519E+02 -0.89042942574E+02  0.11193106382E+03  0.00000000000E+00 0. -1.
</event>
<event>
 7    1  0.5137842E-006  0.1018183E+03  0.7561462E-02  0.1276518E+00
         -1   -1    0    0    0  501 -0.00000000000E+00  0.00000000000E+00  0.52472081922E+02  0.52472081922E+02  0.00000000000E+00 0.  1.
          1   -1    0    0  501    0  0.00000000000E+00 -0.00000000000E+00 -0.29037441007E+03  0.29037441007E+03  0.00000000000E+00 0. -1.
         23    2    1    2    0    0  0.11400440687E+02 -0.61025604952E+02 -0.10117312141E+03  0.14741384677E+03  0.87411367776E+02 0.  0.
          5    1    1    2  502    0  0.26611327900E+02  0.31863569197E+01 -0.12143543445E+03  0.12442810286E+03  0.41800000000E+01 0.  1.
         -5    1    1    2    0  502 -0.38011768587E+02  0.57839248033E+02 -0.15293772286E+02  0.71004542353E+02  0.41800000000E+01 0.  1.
        -11    1    3    3    0    0 -0.29607609069E+02  0.44255286043E+01 -0.30101015253E+02  0.42453114580E+02  0.00000000000E+00 0. -1.
         11    1    3    3    0    0  0.41008049757E+02 -0.65451133557E+02 -0.71072106162E+02  0.10496073220E+03  0.00000000000E+00 0.  1.
</event>
<event>
 7    1  0.5137842E-006  0.9442079E+02  0.7561462E-02  0.1292486E+00
         -3   -1    0    0    0  501 -0.00000000000E+00  0.00000000000E+00  0.10374914500E+03  0.10374914500E+03  0.00000000000E+00 0.  1.
          3   -1    0    0  501    0  0.00000000000E+00 -0.00000000000E+00 -0.18541966399E+03  0.18541966399E+03  0.00000000000E+00 0. -1.
         23    2    1    2    0    0 -0.14435765716E+02 -0.86296909168E+02 -0.28486745880E+02  0.12751372147E+03  0.88276308314E+02 0.  0.
          5    1    1    2  502    0  0.20785501355E+02  0.40259956904E+02  0.37963466422E+02  0.59258740953E+02  0.41800000000E+01 0.  1.
         -5    1    1    2    0  502 -0.63497356392E+01  0.46036952264E+02 -0.91147239532E+02  0.10239634657E+03  0.41800000000E+01 0.  1.
        -11    1    3    3    0    0 -0.26609258867E+02 -0.35046734276E+02 -0.53440614274E+02  0.69225901907E+02  0.00000000000E+00 0. -1.
         11    1    3    3    0    0  0.12173493151E+02 -0.51250174892E+02  0.24953868394E+02  0.58287819566E+02  0.00000000000E+00 0.  1.
</event>
<event>
 7    1  0.5137842E-006  0.1285475E+03  0.7561462E-02  0.1229627E+00
          1   -1    0    0  501    0  0.00000000000E+00  0.00000000000E+00  0.22069372579E+03  0.22069372579E+03  0.00000000000E+00 0. -1.
         -1   -1    0    0    0  501 -0.00000000000E+00 -0.00000000000E+00 -0.13980717893E+03  0.13980717893E+03  0.00000000000E+00 0.  1.
         23    2    1    2    0    0  0.11193713278E+03  0.11014348564E+02  0.11998017645E+03  0.18779530702E+03  0.90667508114E+02 0.  0.
          5    1    1    2  502    0 -0.23575017990E+02  0.28552680193E+02 -0.62725762578E+02  0.72959102999E+02  0.41800000000E+01 0.  1.
         -5    1    1    2    0  502 -0.88362114792E+02 -0.39567028758E+02  0.23632132988E+02  0.99746494699E+02  0.41800000000E+01 0.  1.
        -11    1    3    3    0    0  0.72436407135E+02  0.30840668527E+02  0.24288556205E+02  0.82390010780E+02  0.00000000000E+00 0.  1.
         11    1    3    3    0    0  0.39500725646E+02 -0.19826319962E+02  0.95691620249E+02  0.10540529624E+03  0.00000000000E+00 0. -1.
</event>
<event>
 7    1  0.5137842E-006  0.1281794E+03  0.7561462E-02  0.1230182E+00
          2   -1    0    0  501    0  0.00000000000E+00  0.00000000000E+00  0.25470911245E+03  0.25470911245E+03  0.00000000000E+00 0. -1.
         -2   -1    0    0    0  501 -0.00000000000E+00 -0.00000000000E+00 -0.75846063745E+02  0.75846063745E+02  0.00000000000E+00 0.  1.
         23    2    1    2    0    0  0.57204534608E+02  0.45169266436E+02  0.13726960628E+03  0.17992467105E+03  0.90649440348E+02 0.  0.
          5    1    1    2  502    0 -0.95342895531E+02 -0.41425292886E+02  0.18429282425E+02  0.10565715058E+03  0.41800000000E+01 0. -1.
         -5    1    1    2    0  502  0.38138360924E+02 -0.37439735506E+01  0.23164160007E+02  0.44973354564E+02  0.41800000000E+01 0. -1.
        -11    1    3    3    0    0  0.18097810939E+02  0.66712936876E+02  0.64461056411E+02  0.94516530306E+02  0.00000000000E+00 0.  1.
         11    1    3    3    0    0  0.39106723668E+02 -0.21543670439E+02  0.72808549865E+02  0.85408140745E+02  0.00000000000E+00 0. -1.
</event>
<event>
 7    1  0.5137842E-006  0.1262477E+03  0.7561462E-02  0.1233132E+00
         -1   -1    0    0    0  501 -0.00000000000E+00  0.00000000000E+00  0.21639635421E+03  0.21639635421E+03  0.00000000000E+00 0.  1.
          1   -1    0    0  501    0  0.00000000000E+00 -0.00000000000E+00 -0.11355938913E+03  0.11355938913E+03  0.00000000000E+00 0. -1.
         23    2    1    2    0    0  0.11282980691E+03  0.20207371624E+01  0.27050444165E+02  0.14522199178E+03  0.87310089107E+02 0.  0.
          5    1    1    2  502    0 -0.11420421089E+03  0.11143522485E+02  0.10295782772E+03  0.15422245805E+03  0.41800000000E+01 0.  1.
         -5    1    1    2    0  502  0.13744039778E+01 -0.13164259647E+02 -0.27171306801E+02  0.30511293510E+02  0.41800000000E+01 0.  1.
        -11    1    3    3    0    0  0.32372135713E+02 -0.22797669408E+02 -0.24437748346E+02  0.46528404714E+02  0.00000000000E+00 0. -1.
         11    1    3    3    0    0  0.80457671196E+02  0.24818406570E+02  0.51488192511E+02  0.98693587061E+02  0.00000000000E+00 0.  1.
</event>
<event>
 7    1  0.5137842E-006  0.9892267E+02  0.7561462E-02  0.1282578E+00
         -1   -1    0    0    0  501 -0.00000000000E+00  0.00000000000E+00  0.37168360135E+02  0.37168360135E+02  0.00000000000E+00 0.  1.
          1   -1    0    0  501    0  0.00000000000E+00 -0.00000000000E+00 -0.33359922864E+03  0.33359922864E+03  0.00000000000E+00 0. -1.
         23    2    1    2    0    0  0.10565946592E+01 -0.20114633970E+02 -0.16972453269E+03  0.19158132987E+03  0.86552146527E+02 0.  0.
          5    1    1    2  502    0 -0.28227756954E+02  0.63185891937E+02 -0.99572736054E+02  0.12133204592E+03  0.41800000000E+01 0. -1.
         -5    1    1    2    0  502  0.27171162295E+02 -0.43071257968E+02 -0.27133599768E+02  0.57854212982E+02  0.41800000000E+01 0. -1.
        -11    1    3    3    0    0 -0.36609853741E+02 -0.55238412275E+01 -0.12905392888E+03  0.13425986285E+03  0.00000000000E+00 0. -1.
         11    1    3    3    0    0  0.37666448400E+02 -0.14590792742E+02 -0.40670603807E+02  0.57321467025E+02  0.00000000000E+00 0.  1.
</event>
<event>
 7    1  0.5137842E-006  0.8538325E+02  0.7561462E-02  0.1314433E+00
         -1   -1    0    0    0  501 -0.00000000000E+00  0.00000000000E+00  0.17380553676E+02  0.17380553676E+02  0.00000000000E+00 0.  1.
          1   -1    0    0  501    0  0.00000000000E+00 -0.00000000000E+00 -0.71636665247E+03  0.71636665247E+03  0.00000000000E+00 0. -1.
         23    2    1    2    0    0 -0.31484607682E+02  0.11284606626E+02 -0.30879624540E+03  0.32263474338E+03  0.87289367007E+02 0.  0.
          5    1    1    2  502    0  0.46814761220E+02  0.13003699725E+02 -0.50564862929E+02  0.70249525533E+02  0.41800000000E+01 0. -1.
         -5    1    1    2    0  502 -0.15330153538E+02 -0.24288306351E+02 -0.33962499046E+03  0.34086293723E+03  0.41800000000E+01 0. -1.
        -11    1    3    3    0    0  0.29481798854E+02  0.12438223288E+02 -0.90916106582E+02  0.96382697089E+02  0.00000000000E+00 0.  1.
         11    1    3    3    0    0 -0.60966406536E+02 -0.11536166619E+01 -0.21788013882E+03  0.22625204629E+03  0.00000000000E+00 0. -1.
</event>
<event>
 7    1  0.5137842E-006  0.1287994E+03  0.7561462E-02  0.1229248E+00
         -2   -1    0    0    0  501 -0.00000000000E+00  0.00000000000E+00  0.26036035965E+02  0.26036035965E+02  0.00000000000E+00 0.  1.
          2   -1    0    0  501    0  0.00000000000E+00 -0.00000000000E+00 -0.64177293234E+03  0.64177293234E+03  0.00000000000E+00 0. -1.
         23    2    1    2    0    0 -0.21910001317E+02 -0.65754849305E+02 -0.30143116965E+03  0.32249788815E+03  0.91325732727E+02 0.  0.
          5    1    1    2  502    0  0.73809789387E+02  0.47178367009E+02 -0.18946412435E+03  0.20877693872E+03  0.41800000000E+01 0. -1.
         -5    1    1    2    0  502 -0.51899788070E+02  0.18576482297E+02 -0.12484160236E+03  0.13653414143E+03  0.41800000000E+01 0. -1.
        -11    1    3    3    0    0 -0.56353773492E+02 -0.26136860652E+02 -0.16708351317E+03  0.17825763278E+03  0.00000000000E+00 0. -1.
         11    1    3    3    0    0  0.34443772175E+02 -0.39617988653E+02 -0.13434765649E+03  0.14424025537E+03  0.00000000000E+00 0.  1.
</event>
<event>
 7    1  0.5137842E-006  0.1043695E+03  0.7561462E-02  0.1271367E+00
         -2   -1    0    0    0  501 -0.00000000000E+00  0.00000000000E+00  0.61324896908E+02  0.61324896908E+02  0.00000000000E+00 0.  1.
          2   -1    0    0  501    0  0.00000000000E+00 -0.00000000000E+00 -0.23157697066E+03  0.23157697066E+03  0.00000000000E+00 0. -1.
         23    2    1    2    0    0 -0.57814153165E+01 -0.46581366254E+02 -0.91526671983E+02  0.13782602499E+03  0.91736759453E+02 0.  0.
          5    1    1    2  502    0 -0.39791148922E+02 -0.25644371845E+02 -0.21301191546E+02  0.52078618464E+02  0.41800000000E+01 0.  1.
         -5    1    1    2    0  502  0.45572564238E+02  0.72225738099E+02 -0.57424210219E+02  0.10299722411E+03  0.41800000000E+01 0.  1.
        -11    1    3    3    0    0 -0.24840080981E+02  0.57851346920E+00  0.79595975954E+01  0.26090601658E+02  0.00000000000E+00 0.  1.
         11    1    3    3    0    0  0.19058665665E+02 -0.47159879723E+02 -0.99486269579E+02  0.11173542333E+03  0.00000000000E+00 0. -1.
</event>
<event>
 6    1  0.5137842E-006  0.2315958E+03  0.7561462E-02  0.1125522E+00
         -2   -1    0    0    0  501 -0.00000000000E+00  0.00000000000E+00  0.11201011178E+03  0.11201011178E+03  0.00000000000E+00 0.  1.
          2   -1    0    0  501    0  0.00000000000E+00 -0.00000000000E+00 -0.86933952594E+03  0.86933952594E+03  0.00000000000E+00 0. -1.
          5    1    1    2  502    0 -0.15587204079E+03 -0.51187803729E+01 -0.14624434966E+02  0.15669601625E+03  0.41800000000E+01 0.  1.
         -5    1    1    2    0  502 -0.61809086302E+02  0.53452366541E+02 -0.84214287852E+02  0.11741821544E+03  0.41800000000E+01 0.  1.
        -11    1    1    2    0    0  0.72071877049E+02 -0.31923871026E+02 -0.41994833173E+03  0.42728221391E+03  0.00000000000E+00 0. -1.
         11    1    1    2    0    0  0.14560925004E+03 -0.16409715142E+02 -0.23854235961E+03  0.27995319212E+03  0.00000000000E+00 0.  1.
</event>
<event>
 7    1  0.5137842E-006  0.1177189E+03  0.7561462E-02  0.1246908E+00
         -2   -1    0    0    0  501 -0.00000000000E+00  0.00000000000E+00  0.14650878524E+03  0.14650878524E+03  0.00000000000E+00 0.  1.
          2   -1    0    0  501    0  0.00000000000E+00 -0.00000000000E+00 -0.99055563292E+02  0.99055563292E+02  0.00000000000E+00 0. -1.
         23    2    1    2    0    0 -0.33517240356E+02  0.33643115597E+02 -0.44517711118E+01  0.10204928214E+03  0.90216257350E+02 0.  0.
          5    1    1    2  502    0  0.81361605403E+02 -0.21511487260E+02  0.32165912864E+02  0.90191869191E+02  0.41800000000E+01 0.  1.
         -5    1    1    2    0  502 -0.47844365048E+02 -0.12131628337E+02  0.19739080192E+02  0.53323197201E+02  0.41800000000E+01 0.  1.
        -11    1    3    3    0    0 -0.17531721543E+02 -0.30694119795E+02 -0.53443643851E+01  0.35749859873E+02  0.00000000000E+00 0.  1.
         11    1    3    3    0    0 -0.15985518812E+02  0.64337235392E+02  0.89259327325E+00  0.66299422263E+02  0.00000000000E+00 0. -1.
</event>
<event>
 7    1  0.5137842E-006  0.1008910E+03  0.7561462E-02  0.1278433E+00
         -2   -1    0    0    0  501 -0.00000000000E+00  0.00000000000E+00  0.35715102209E+02  0.35715102209E+02  0.00000000000E+00 0.  1.
          2   -1    0    0  501    0  0.00000000000E+00 -0.00000000000E+00 -0.42181287996E+03  0.42181287996E+03  0.00000000000E+00 0. -1.
         23    2    1    2    0    0  0.21207034544E+02  0.52279730057E+02 -0.18757592191E+03  0.21619604058E+03  0.91504606409E+02 0.  0.
          5    1    1    2  502    0 -0.56723635767E+02 -0.55652784704E+02 -0.18761329978E+03  0.20379162386E+03  0.41800000000E+01 0. -1.
         -5    1    1    2    0  502  0.35516601223E+02  0.33730546469E+01 -0.10908556064E+02  0.37540317733E+02  0.41800000000E+01 0. -1.
        -11    1    3    3    0    0 -0.75731897710E+01  0.56669216027E+02 -0.51201059348E+02  0.76748301133E+02  0.00000000000E+00 0.  1.
         11    1    3    3    0    0  0.28780224315E+02 -0.43894859703E+01 -0.13637486256E+03  0.13944773945E+03  0.00000000000E+00 0. -1.
</event>
<event>
 7    1  0.5137842E-006  0.1084167E+03  0.7561462E-02  0.1263530E+00
         -2   -1    0    0    0  501 -0.00000000000E+00  0.00000000000E+00  0.37099735584E+03  0.37099735584E+03  0.00000000000E+00 0.  1.
          2   -1    0    0  501    0  0.00000000000E+00 -0.00000000000E+00 -0.41884377709E+02  0.41884377709E+02  0.00000000000E+00 0. -1.
         23    2    1    2    0    0 -0.32402447621E+02 -0.48189947852E+02  0.10664443393E+03  0.15113429555E+03  0.89979721698E+02 0.  0.
          5    1    1    2  502    0  0.45127582777E+02  0.70839374779E+02  0.21975250348E+03  0.23529417956E+03  0.41800000000E+01 0.  1.
         -5    1    1    2    0  502 -0.12725135157E+02 -0.22649426928E+02  0.27160407142E+01  0.26453258440E+02  0.41800000000E+01 0.  1.
        -11    1    3    3    0    0 -0.89737855600E+01 -0.72270983368E+02  0.80572388802E+02  0.10860724516E+03  0.00000000000E+00 0.  1.
         11    1    3    3    0    0 -0.23428662061E+02  0.24081035516E+02  0.26072045128E+02  0.42527050387E+02  0.00000000000E+00 0. -1.
</event>
<event>
 6    1  0.5137842E-006  0.9834956E+02  0.7561462E-02  0.1283805E+00
         -2   -1    0    0    0  501 -0.00000000000E+00  0.00000000000E+00  0.41654159042E+03  0.41654159042E+03  0.00000000000E+00 0.  1.
          2   -1    0    0  501    0  0.00000000000E+00 -0.00000000000E+00 -0.30177903714E+02  0.30177903714E+02  0.00000000000E+00 0. -1.
          5    1    1    2  502    0  0.87995568772E+02 -0.82216693136E+01  0.27219122335E+03  0.28621032553E+03  0.41800000000E+01 0.  1.
         -5    1    1    2    0  502 -0.39034362993E+02 -0.92521035476E+01  0.57605916395E+02  0.70322094096E+02  0.41800000000E+01 0.  1.
        -11    1    1    2    0    0 -0.43072467167E+02  0.31045106974E+02  0.52891390100E+02  0.74943547031E+02  0.00000000000E+00 0.  1.
         11    1    1    2    0    0 -0.58887386114E+01 -0.13571334113E+02  0.36751568605E+01  0.15243527478E+02  0.00000000000E+00 0. -1.
</event>
<event>
 6    1  0.5137842E-006  0.1880895E+03  0.7561462E-02  0.1160196E+00
          1   -1    0    0  501    0  0.00000000000E+00  0.00000000000E+00  0.51211786838E+03  0.51211786838E+03  0.00000000000E+00 0. -1.
         -1   -1    0    0    0  501 -0.00000000000E+00 -0.00000000000E+00 -0.76223900077E+02  0.76223900077E+02  0.00000000000E+00 0.  1.
          5    1    1    2  502    0 -0.11483845418E+03 -0.97005555482E+02  0.13277631513E+03  0.20061149173E+03  0.41800000000E+01 0. -1.
         -5    1    1    2    0  502  0.69247422312E+02  0.58052342099E+02  0.13452251928E+03  0.16210817534E+03  0.41800000000E+01 0.  1.
        -11    1    1    2    0    0  0.21513658286E+02  0.82672145405E+02  0.55144467340E+02  0.10167808710E+03  0.00000000000E+00 0.  1.
         11    1    1    2    0    0  0.24077373579E+02 -0.43718932023E+02  0.11345066655E+03  0.12394401428E+03  0.00000000000E+00 0. -1.
</event>
<event>
 7    1  0.5137842E-006  0.1242018E+03  0.7561462E-02  0.1236322E+00
          3   -1    0    0  501    0  0.00000000000E+00  0.00000000000E+00  0.33142961058E+03  0.33142961058E+03  0.00000000000E+00 0. -1.
         -3   -1    0    0    0  501 -0.00000000000E+00 -0.00000000000E+00 -0.49425867063E+02  0.49425867063E+02  0.00000000000E+00 0.  1.
         23    2    1    2    0    0  0.58775410227E+02 -0.30247606455E+02  0.14719878024E+03  0.18543431103E+03  0.91372513698E+02 0.  0.
          5    1    1    2  502    0 -0.28593016801E+02 -0.45545491582E+02  0.82004750725E+02  0.98153980840E+02  0.41800000000E+01 0.  1.
         -5    1    1    2    0  502 -0.30182393425E+02  0.75793098037E+02  0.52800212554E+02  0.97267185775E+02  0.41800000000E+01 0.  1.
        -11    1    3    3    0    0 -0.24735549257E+02 -0.11023975704E+02  0.35301716160E+02  0.44492545457E+02  0.00000000000E+00 0.  1.
         11    1    3    3    0    0  0.83510959484E+02 -0.19223630751E+02  0.11189706408E+03  0.14094176557E+03  0.00000000000E+00 0. -1.
</event>
<event>
 7    1  0.5137842E-006  0.9725541E+02  0.7561462E-02  0.1286176E+00
         -1   -1    0    0    0  501 -0.00000000000E+00  0.00000000000E+00  0.82857642105E+02  0.82857642105E+02  0.00000000000E+00 0.  1.
          1   -1    0    0  501    0  0.00000000000E+00 -0.00000000000E+00 -0.19765160616E+03  0.19765160616E+03  0.00000000000E+00 0. -1.
         23    2    1    2    0    0  0.41611636758E+02  0.42385536128E+02 -0.85655519141E+02  0.13900197077E+03  0.91959871321E+02 0.  0.
          5    1    1    2  502    0  0.27655876551E+02 -0.27818324760E+02 -0.53554575513E+02  0.66515198704E+02  0.41800000000E+01 0.  1.
         -5    1    1    2    0  502 -0.69267513308E+02 -0.14567211368E+02  0.24416130601E+02  0.74992078785E+02  0.41800000000E+01 0.  1.
        -11    1    3    3    0    0  0.10927161632E+02  0.51102521793E+02 -0.52749222842E+01  0.52523284361E+02  0.00000000000E+00 0.  1.
         11    1    3    3    0    0  0.30684475125E+02 -0.87169856654E+01 -0.80380596857E+02  0.86478686414E+02  0.00000000000E+00 0. -1.
</event>
<event>
 7    1  0.5137842E-006  0.1336807E+03  0.7561462E-02  0.1222094E+00
          2   -1    0    0  501    0  0.00000000000E+00  0.00000000000E+00  0.33278774640E+03  0.33278774640E+03  0.00000000000E+00 0. -1.
         -2   -1    0    0    0  501 -0.00000000000E+00 -0.00000000000E+00 -0.81618306202E+02  0.81618306202E+02  0.00000000000E+00 0.  1.
         23    2    1    2    0    0  0.39703392961E+02 -0.85950287532E+02  0.21664719416E+03  0.25377244719E+03  0.92198898459E+02 0.  0.
          5    1    1    2  502    0 -0.44997493348E+02 -0.17478063356E+02 -0.70414953860E+01  0.48962354555E+02  0.41800000000E+01 0. -1.
         -5    1    1    2    0  502  0.52941003861E+01  0.10342835089E+03  0.41563741425E+02  0.11167125086E+03  0.41800000000E+01 0. -1.
        -11    1    3    3    0    0  0.44909287940E+02 -0.20096532742E+02  0.15783746934E+03  0.16532810257E+03  0.00000000000E+00 0. -1.
         11    1    3    3    0    0 -0.52058949790E+01 -0.65853754790E+02  0.58809724823E+02  0.88444344625E+02  0.00000000000E+00 0.  1.
</event>
<event>
 7    1  0.5137842E-006  0.1138847E+03  0.7561462E-02  0.1253541E+00
          2   -1    0    0  501    0  0.00000000000E+00  0.00000000000E+00  0.11183776741E+04  0.11183776741E+04  0.00000000000E+00 0. -1.
         -2   -1    0    0    0  501 -0.00000000000E+00 -0.00000000000E+00 -0.18629457538E+02  0.18629457538E+02  0.00000000000E+00 0.  1.
         23    2    1    2    0    0  0.16550268229E+01  0.94311446527E+02  0.48752486045E+03  0.50505769127E+03  0.92224692418E+02 0.  0.
          5    1    1    2  502    0 -0.14424841774E+02 -0.57630235900E+02  0.57471653557E+03  0.57779398475E+03  0.41800000000E+01 0. -1.
         -5    1    1    2    0  502  0.12769814951E+02 -0.36681210627E+02  0.37506820544E+02  0.54155455628E+02  0.41800000000E+01 0. -1.
        -11    1    3    3    0    0 -0.42502231969E+02  0.34149605225E+02  0.15651502960E+03  0.16573952380E+03  0.00000000000E+00 0.  1.
         11    1    3    3    0    0  0.44157258792E+02  0.60161841302E+02  0.33100983085E+03  0.33931816747E+03  0.00000000000E+00 0. -1.
</event>
<event>
 7    1  0.5137842E-006  0.1290339E+03  0.7561462E-02  0.1228896E+00
          2   -1    0    0  501    0  0.00000000000E+00  0.00000000000E+00  0.12454080897E+04  0.12454080897E+04  0.00000000000E+00 0. -1.
         -2   -1    0    0    0  501 -0.00000000000E+00 -0.00000000000E+00 -0.16977899006E+02  0.16977899006E+02  0.00000000000E+00 0.  1.
         23    2    1    2    0    0 -0.55277483106E+01 -0.94267370615E+02  0.63295098334E+03  0.64662656987E+03  0.92639518504E+02 0.  0.
          5    1    1    2  502    0 -0.70425132749E+00  0.10910353004E+03  0.29072524388E+03  0.31055227589E+03  0.41800000000E+01 0. -1.
         -5    1    1    2    0  502  0.62319996381E+01 -0.14836159422E+02  0.30475396349E+03  0.30520714296E+03  0.41800000000E+01 0. -1.
        -11    1    3    3    0    0  0.43525042439E+02 -0.48520942631E+02  0.31855618228E+03  0.32515650457E+03  0.00000000000E+00 0.  1.
         11    1    3    3    0    0 -0.49052790749E+02 -0.45746427984E+02  0.31439480105E+03  0.32147006530E+03  0.00000000000E+00 0. -1.
</event>
<event>
 7    1  0.5137842E-006  0.1062030E+03  0.7561462E-02  0.1267767E+00
         -2   -1    0    0    0  501 -0.00000000000E+00  0.00000000000E+00  0.18479931915E+03  0.18479931915E+03  0.00000000000E+00 0.  1.
          2   -1    0    0  501    0  0.00000000000E+00 -0.00000000000E+00 -0.77080662641E+02  0.77080662641E+02  0.00000000000E+00 0. -1.
         23    2    1    2    0    0 -0.33613847467E+02 -0.29918456505E+02  0.44661168741E+02  0.11478836425E+03  0.95690876222E+02 0.  0.
          5    1    1    2  502    0 -0.40907141049E+02  0.22164043095E+02 -0.34235902861E+01  0.46838364249E+02  0.41800000000E+01 0. -1.
         -5    1    1    2    0  502  0.74520988516E+02  0.77544134105E+01  0.66481078052E+02  0.10025325329E+03  0.41800000000E+01 0. -1.
        -11    1    3    3    0    0  0.24827068469E+02 -0.18852555461E+02  0.45676308390E+02  0.55300337470E+02  0.00000000000E+00 0.  1.
         11    1    3    3    0    0 -0.58440915936E+02 -0.11065901044E+02 -0.10151396488E+01  0.59488026778E+02  0.00000000000E+00 0. -1.
</event>
<event>
 7    1  0.5137842E-006  0.1606019E+03  0.7561462E-02  0.1188019E+00
          2   -1    0    0  501    0  0.00000000000E+00  0.00000000000E+00  0.18713630062E+02  0.18713630062E+02  0.00000000000E+00 0. -1.
         -2   -1    0    0    0  501 -0.00000000000E+00 -0.00000000000E+00 -0.19407717998E+04  0.19407717998E+04  0.00000000000E+00 0.  1.
         23    2    1    2    0    0 -0.12095989673E+03 -0.23090844893E+02 -0.41748547223E+03  0.44470791720E+03  0.91140157799E+02 0.  0.
          5    1    1    2  502    0  0.46700050993E+02  0.68270177187E+02 -0.54364766466E+03  0.54991996467E+03  0.41800000000E+01 0. -1.
         -5    1    1    2    0  502  0.74259845734E+02 -0.45179332295E+02 -0.96092503290E+03  0.96485754804E+03  0.41800000000E+01 0. -1.
        -11    1    3    3    0    0 -0.66302512119E+02 -0.56661772501E+02 -0.27379368149E+03  0.28734919454E+03  0.00000000000E+00 0.  1.
         11    1    3    3    0    0 -0.54657384607E+02  0.33570927609E+02 -0.14369179073E+03  0.15735872266E+03  0.00000000000E+00 0. -1.
</event>
<event>
 7    1  0.5137842E-006  0.1177423E+03  0.7561462E-02  0.1246869E+00
         -2   -1    0    0    0  501 -0.00000000000E+00  0.00000000000E+00  0.18521553516E+03  0.18521553516E+03  0.00000000000E+00 0. -1.
          2   -1    0    0  501    0  0.00000000000E+00 -0.00000000000E+00 -0.82113430683E+02  0.82113430683E+02  0.00000000000E+00 0.  1.
         23    2    1    2    0    0  0.17502121405E+02  0.54975313315E+02  0.63030484871E+02  0.12386831025E+03  0.89676679982E+02 0.  0.
          5    1    1    2  502    0 -0.48553356697E+02  0.16103176375E+02 -0.82444531658E+01  0.51982536913E+02  0.41800000000E+01 0. -1.
         -5    1    1    2    0  502  0.31051235292E+02 -0.71078489690E+02  0.48316072773E+02  0.91478118684E+02  0.41800000000E+01 0. -1.
        -11    1    3    3    0    0 -0.27761322290E+01  0.76708157186E+02  0.42448307273E+02  0.87713779302E+02  0.00000000000E+00 0.  1.
         11    1    3    3    0    0  0.20278253634E+02 -0.21732843872E+02  0.20582177598E+02  0.36154530945E+02  0.00000000000E+00 0. -1.
</event>
<event>
 7    1  0.5137842E-006  0.1034805E+03  0.7561462E-02  0.1273143E+00
          1   -1    0    0  501    0  0.00000000000E+00  0.00000000000E+00  0.87145795801E+02  0.87145795801E+02  0.00000000000E+00 0. -1.
         -1   -1    0    0    0  501 -0.00000000000E+00 -0.00000000000E+00 -0.17320599451E+03  0.17320599451E+03  0.00000000000E+00 0.  1.
         23    2    1    2    0    0 -0.49858038456E+02  0.57823331496E+01 -0.49820417812E+01  0.10306004257E+03  0.89873757345E+02 0.  0.
          5    1    1    2  502    0  0.90797849426E+02  0.38684897927E+01 -0.66073671598E+02  0.11243850387E+03  0.41800000000E+01 0.  1.
         -5    1    1    2    0  502 -0.40939810970E+02 -0.96508229423E+01 -0.15004485329E+02  0.44853243870E+02  0.41800000000E+01 0.  1.
        -11    1    3    3    0    0 -0.38603885172E+02  0.28753642142E+02 -0.37975394181E+02  0.61312009019E+02  0.00000000000E+00 0.  1.
         11    1    3    3    0    0 -0.11254153284E+02 -0.22971308992E+02  0.32993352400E+02  0.41748033553E+02  0.00000000000E+00 0. -1.
</event>
<event>
 7    1  0.5137842E-006  0.1431683E+03  0.7561462E-02  0.1209128E+00
         -1   -1    0    0    0  501 -0.00000000000E+00  0.00000000000E+00  0.95399893627E+02  0.95399893627E+02  0.00000000000E+00 0.  1.
          1   -1    0    0  501    0  0.00000000000E+00 -0.00000000000E+00 -0.25806711068E+03  0.25806711068E+03  0.00000000000E+00 0. -1.
         23    2    1    2    0    0 -0.10888666744E+03  0.46769780669E+01 -0.94313908063E+02  0.17405141860E+03  0.97573575273E+02 0.  0.
          5    1    1    2  502    0  0.78645934979E+02 -0.49068591924E+02 -0.52430221962E+00  0.92793626370E+02  0.41800000000E+01 0. -1.
         -5    1    1    2    0  502  0.30240732459E+02  0.44391613857E+02 -0.67829006770E+02  0.86621959340E+02  0.41800000000E+01 0. -1.
        -11    1    3    3    0    0 -0.80861559272E+02  0.43474802321E+02 -0.36005385856E+02  0.98615607362E+02  0.00000000000E+00 0.  1.
         11    1    3    3    0    0 -0.28025108166E+02 -0.38797824254E+02 -0.58308522207E+02  0.75435811234E+02  0.00000000000E+00 0. -1.
</event>
<event>
 7    1  0.5137842E-006  0.8812804E+02  0.7561462E-02  0.1307449E+00
         -2   -1    0    0    0  501 -0.00000000000E+00  0.00000000000E+00  0.75300070658E+02  0.75300070658E+02  0.00000000000E+00 0.  1.
          2   -1    0    0  501    0  0.00000000000E+00 -0.00000000000E+00 -0.16945093588E+03  0.16945093588E+03  0.00000000000E+00 0. -1.
         23    2    1    2    0    0 -0.63568293927E+01 -0.20203861641E+01 -0.71627194196E+02  0.11747388588E+03  0.92871780833E+02 0.  0.
          5    1    1    2  502    0 -0.31328801012E+01 -0.60875504972E+02 -0.16255969275E+02  0.63224765562E+02  0.41800000000E+01 0.  1.
         -5    1    1    2    0  502  0.94897094939E+01  0.62895891136E+02 -0.62677017502E+01  0.64052355096E+02  0.41800000000E+01 0.  1.
        -11    1    3    3    0    0  0.17850534884E+02 -0.15555689142E+02 -0.83876804276E+02  0.87154686368E+02  0.00000000000E+00 0. -1.
         11    1    3    3    0    0 -0.24207364276E+02  0.13535302978E+02  0.12249610080E+02  0.30319199512E+02  0.00000000000E+00 0.  1.
</event>
<event>
 7    1  0.5137842E-006  0.1501289E+03  0.7561462E-02  0.1200315E+00
         -2   -1    0    0    0  501 -0.00000000000E+00  0.00000000000E+00  0.34768275918E+02  0.34768275918E+02  0.00000000000E+00 0. -1.
          2   -1    0    0  501    0  0.00000000000E+00 -0.00000000000E+00 -0.89403506673E+03  0.89403506673E+03  0.00000000000E+00 0.  1.
         23    2    1    2    0    0 -0.84872530504E+02  0.80164047635E+02 -0.60890134453E+03  0.62555443155E+03  0.83233878267E+02 0.  0.
          5    1    1    2  502    0 -0.16610008591E+02 -0.56190858904E+02 -0.49200995754E+02  0.76625814142E+02  0.41800000000E+01 0. -1.
         -5    1    1    2    0  502  0.10148253909E+03 -0.23973188731E+02 -0.20116445053E+03  0.22662309696E+03  0.41800000000E+01 0. -1.
        -11    1    3    3    0    0  0.12179130600E+02  0.15879480352E+01 -0.19315475974E+02  0.22889744718E+02  0.00000000000E+00 0. -1.
         11    1    3    3    0    0 -0.97051661104E+02  0.78576099600E+02 -0.58958586855E+03  0.60266468683E+03  0.00000000000E+00 0.  1.
</event>
<event>
 7    1  0.5137842E-006  0.1467900E+03  0.7561462E-02  0.1204474E+00
         -1   -1    0    0    0  501 -0.00000000000E+00  0.00000000000E+00  0.25694830722E+03  0.25694830722E+03  0.00000000000E+00 0.  1.
          1   -1    0    0  501    0  0.00000000000E+00 -0.00000000000E+00 -0.99762398025E+02  0.99762398025E+02  0.00000000000E+00 0. -1.
         23    2    1    2    0    0  0.99922466661E+02  0.57023798707E+02  0.10002293302E+03  0.17740493042E+03  0.90728767459E+02 0.  0.
          5    1    1    2  502    0  0.15924895356E+01  0.25987434354E+02  0.38674375679E+02  0.46808786583E+02  0.41800000000E+01 0.  1.
         -5    1    1    2    0  502 -0.10151495620E+03 -0.83011233061E+02  0.18488600498E+02  0.13249698825E+03  0.41800000000E+01 0.  1.
        -11    1    3    3    0    0  0.51280393821E+02  0.68948112775E+02  0.93355162828E+02  0.12688068203E+03  0.00000000000E+00 0.  1.
         11    1    3    3    0    0  0.48642072840E+02 -0.11924314068E+02  0.66677701950E+01  0.50524248391E+02  0.00000000000E+00 0. -1.
</event>
<event>
 7    1  0.5137842E-006  0.2278129E+03  0.7561462E-02  0.1128189E+00
          2   -1    0    0  501    0  0.00000000000E+00  0.00000000000E+00  0.53276371489E+02  0.53276371489E+02  0.00000000000E+00 0.  1.
         -2   -1    0    0    0  501 -0.00000000000E+00 -0.00000000000E+00 -0.11697471250E+04  0.11697471250E+04  0.00000000000E+00 0. -1.
         23    2    1    2    0    0 -0.16328308310E+03 -0.11888660622E+03 -0.30215753842E+03  0.37476184821E+03  0.91388590555E+02 0.  0.
          5    1    1    2  502    0 -0.18565598299E+02  0.40033041206E+01 -0.11403066305E+03  0.11567701759E+03  0.41800000000E+01 0.  1.
         -5    1    1    2    0  502  0.18184868140E+03  0.11488330210E+03 -0.70028255204E+03  0.73258463069E+03  0.41800000000E+01 0.  1.
        -11    1    3    3    0    0 -0.92415620652E+02 -0.12565727487E+02 -0.14180905351E+03  0.16973023332E+03  0.00000000000E+00 0. -1.
         11    1    3    3    0    0 -0.70867462446E+02 -0.10632087873E+03 -0.16034848492E+03  0.20503161489E+03  0.00000000000E+00 0.  1.
</event>
<event>
 7    1  0.5137842E-006  0.9798591E+02  0.7561462E-02  0.1284589E+00
         -1   -1    0    0    0  501 -0.00000000000E+00  0.00000000000E+00  0.91782608881E+02  0.91782608881E+02  0.00000000000E+00 0.  1.
          1   -1    0    0  501    0  0.00000000000E+00 -0.00000000000E+00 -0.19001454383E+03  0.19001454383E+03  0.00000000000E+00 0. -1.
         23    2    1    2    0    0 -0.69822087508E+02 -0.18689027114E+02 -0.26290346236E+02  0.12040472017E+03  0.92637523149E+02 0.  0.
          5    1    1    2  502    0  0.30192350706E+01 -0.21306555711E+02  0.27409544887E+02  0.35097587490E+02  0.41800000000E+01 0.  1.
         -5    1    1    2    0  502  0.66802852437E+02  0.39995582826E+02 -0.99351133603E+02  0.12629484505E+03  0.41800000000E+01 0.  1.
        -11    1    3    3    0    0 -0.93125151407E+01  0.21505011163E+02  0.22827151176E+02  0.32714939617E+02  0.00000000000E+00 0.  1.
         11    1    3    3    0    0 -0.60509572367E+02 -0.40194038277E+02 -0.49117497412E+02  0.87689780551E+02  0.00000000000E+00 0. -1.
</event>
<event>
 7    1  0.5137842E-006  0.1635999E+03  0.7561462E-02  0.1184691E+00
          3   -1    0    0  501    0  0.00000000000E+00  0.00000000000E+00  0.53481050179E+02  0.53481050179E+02  0.00000000000E+00 0. -1.
         -3   -1    0    0    0  501 -0.00000000000E+00 -0.00000000000E+00 -0.81672766422E+03  0.81672766422E+03  0.00000000000E+00 0.  1.
         23    2    1    2    0    0 -0.63137935621E+02  0.13298846796E+03 -0.15651717335E+03  0.23346713832E+03  0.91306886929E+02 0.  0.
          5    1    1    2  502    0 -0.70660997359E+01 -0.14601063211E+02 -0.23994100521E+01  0.16921890585E+02  0.41800000000E+01 0.  1.
         -5    1    1    2    0  502  0.70204035356E+02 -0.11838740475E+03 -0.60433003064E+03  0.61981968549E+03  0.41800000000E+01 0.  1.
        -11    1    3    3    0    0 -0.79750324547E+02  0.65369720092E+02 -0.84785824383E+02  0.13349887860E+03  0.00000000000E+00 0.  1.
         11    1    3    3    0    0  0.16612388926E+02  0.67618747868E+02 -0.71731348962E+02  0.99968259727E+02  0.00000000000E+00 0. -1.
</event>
<event>
 7    1  0.5137842E-006  0.1182159E+03  0.7561462E-02  0.1246070E+00
         -2   -1    0    0    0  501 -0.00000000000E+00  0.00000000000E+00  0.33494370299E+02  0.33494370299E+02  0.00000000000E+00 0.  1.
          2   -1    0    0  501    0  0.00000000000E+00 -0.00000000000E+00 -0.59559084043E+03  0.59559084043E+03  0.00000000000E+00 0. -1.
         23    2    1    2    0    0 -0.24448089163E+02  0.62593429932E+02 -0.39262160871E+03  0.40798585429E+03  0.88233118178E+02 0.  0.
          5    1    1    2  502    0 -0.21941905161E+02  0.29806321014E+02 -0.32497319744E+02  0.49430882706E+02  0.41800000000E+01 0.  1.
         -5    1    1    2    0  502  0.46389994324E+02 -0.92399750947E+02 -0.13697754168E+03  0.17166847373E+03  0.41800000000E+01 0.  1.
        -11    1    3    3    0    0 -0.39754411335E+02  0.10082773244E+02 -0.73124412348E+02  0.83840653731E+02  0.00000000000E+00 0.  1.
         11    1    3    3    0    0  0.15306322173E+02  0.52510656689E+02 -0.31949719636E+03  0.32414520056E+03  0.00000000000E+00 0. -1.
</event>
<event>
 7    1  0.5137842E-006  0.1542937E+03  0.7561462E-02  0.1195294E+00
          1   -1    0    0  501    0  0.00000000000E+00  0.00000000000E+00  0.13328590557E+04  0.13328590557E+04  0.00000000000E+00 0. -1.
         -1   -1    0    0    0  501 -0.00000000000E+00 -0.00000000000E+00 -0.28076015195E+02  0.28076015195E+02  0.00000000000E+00 0.  1.
         23    2    1    2    0    0  0.26497020758E+02  0.13450659378E+03  0.90577639455E+03  0.92088065870E+03  0.93788031041E+02 0.  0.
          5    1    1    2  502    0 -0.36621834967E+02 -0.11227322094E+03  0.15557881741E+03  0.19536805206E+03  0.41800000000E+01 0. -1.
         -5    1    1    2    0  502  0.10124814209E+02 -0.22233372841E+02  0.24342782852E+03  0.24468636012E+03  0.41800000000E+01 0. -1.
        -11    1    3    3    0    0 -0.17393647558E+02 -0.60245729730E+01  0.80797900952E+02  0.82868179979E+02  0.00000000000E+00 0. -1.
         11    1    3    3    0    0  0.43890668316E+02  0.14053116675E+03  0.82497849360E+03  0.83801247873E+03  0.00000000000E+00 0.  1.
</event>
<event>
 7    1  0.5137842E-006  0.1376693E+03  0.7561462E-02  0.1216500E+00
         -2   -1    0    0    0  501 -0.00000000000E+00  0.00000000000E+00  0.39291541380E+02  0.39291541380E+02  0.00000000000E+00 0.  1.
          2   -1    0    0  501    0  0.00000000000E+00 -0.00000000000E+00 -0.76196041072E+03  0.76196041072E+03  0.00000000000E+00 0. -1.
         23    2    1    2    0    0 -0.89842183548E+02 -0.17168968530E+02 -0.56695292537E+03  0.58156835796E+03  0.91759162865E+02 0.  0.
          5    1    1    2  502    0  0.17449079454E+02  0.60958860450E+02 -0.99352403532E+02  0.11793568387E+03  0.41800000000E+01 0.  1.
         -5    1    1    2    0  502  0.72393104094E+02 -0.43789891920E+02 -0.56363540438E+02  0.10174791028E+03  0.41800000000E+01 0.  1.
        -11    1    3    3    0    0 -0.78900954365E+02 -0.49370621749E+02 -0.46060673393E+03  0.46991635663E+03  0.00000000000E+00 0. -1.
         11    1    3    3    0    0 -0.10941229182E+02  0.32201653218E+02 -0.10634619144E+03  0.11165200132E+03  0.00000000000E+00 0.  1.
</event>
<event>
 7    1  0.5137842E-006  0.1140608E+03  0.7561462E-02  0.1253229E+00
         -2   -1    0    0    0  501 -0.00000000000E+00  0.00000000000E+00  0.26168711702E+02  0.26168711702E+02  0.00000000000E+00 0.  1.
          2   -1    0    0  501    0  0.00000000000E+00 -0.00000000000E+00 -0.61698432271E+03  0.61698432271E+03  0.00000000000E+00 0. -1.
         23    2    1    2    0    0 -0.12831717236E+02 -0.53886448374E+02 -0.35121501992E+03  0.36725132893E+03  0.91940992493E+02 0.  0.
          5    1    1    2  502    0 -0.37950923262E+02 -0.11646922647E+02 -0.28446761126E+02  0.49016466643E+02  0.41800000000E+01 0.  1.
         -5    1    1    2    0  502  0.50782640498E+02  0.65533371022E+02 -0.21115382996E+03  0.22688523883E+03  0.41800000000E+01 0.  1.
        -11    1    3    3    0    0  0.11621855588E+02 -0.73147010849E+02 -0.27793278979E+03  0.28763203640E+03  0.00000000000E+00 0. -1.
         11    1    3    3    0    0 -0.24453572824E+02  0.19260562474E+02 -0.73282230128E+02  0.79619292532E+02  0.00000000000E+00 0.  1.
</event>
<event>
 7    1  0.5137842E-006  0.1304378E+03  0.7561462E-02  0.1226808E+00
         -2   -1    0    0    0  501 -0.00000000000E+00  0.00000000000E+00  0.25562896039E+03  0.25562896039E+03  0.00000000000E+00 0.  1.
          2   -1    0    0  501    0  0.00000000000E+00 -0.00000000000E+00 -0.68050071601E+02  0.68050071601E+02  0.00000000000E+00 0. -1.
         23    2    1    2    0    0  0.56633420721E+02  0.45636666518E+02  0.10106941189E+03  0.15509389961E+03  0.92461029640E+02 0.  0.
          5    1    1    2  502    0  0.37415892600E+02  0.27880620310E+01  0.32106724145E+02  0.49558414465E+02  0.41800000000E+01 0.  1.
         -5    1    1    2    0  502 -0.94049313322E+02 -0.48424728549E+02  0.54402752751E+02  0.11902671792E+03  0.41800000000E+01 0.  1.
        -11    1    3    3    0    0  0.15232473394E+02 -0.28516394724E+02  0.22426608917E+02  0.39346738128E+02  0.00000000000E+00 0.  1.
         11    1    3    3    0    0  0.41400947327E+02  0.74153061242E+02  0.78642802976E+02  0.11574716148E+03  0.00000000000E+00 0. -1.
</event>
<event>
 7    1  0.5137842E-006  0.1224976E+03  0.7561462E-02  0.1239033E+00
          1   -1    0    0  501    0  0.00000000000E+00  0.00000000000E+00  0.11643221508E+03  0.11643221508E+03  0.00000000000E+00 0. -1.
         -1   -1    0    0    0  501 -0.00000000000E+00 -0.00000000000E+00 -0.10206471197E+04  0.10206471197E+04  0.00000000000E+00 0.  1.
         23    2    1    2    0    0  0.20958824277E+01  0.49117895015E+02  0.82682931632E+02  0.13369940686E+03  0.92855284594E+02 0.  0.
          5    1    1    2  502    0  0.43828708902E+02 -0.80604342847E+02 -0.28880447488E+03  0.30305694667E+03  0.41800000000E+01 0. -1.
         -5    1    1    2    0  502 -0.45924591330E+02  0.31486447832E+02 -0.69809336141E+03  0.70032298130E+03  0.41800000000E+01 0.  1.
        -11    1    3    3    0    0 -0.37717138582E+02  0.42720859580E+02  0.22527365857E+02  0.61279169368E+02  0.00000000000E+00 0.  1.
         11    1    3    3    0    0  0.39813021010E+02  0.63970354358E+01  0.60155565776E+02  0.72420237490E+02  0.00000000000E+00 0. -1.
</event>
<event>
 7    1  0.5137842E-006  0.1167774E+03  0.7561462E-02  0.1248510E+00
          2   -1    0    0  501    0  0.00000000000E+00  0.00000000000E+00  0.68806269386E+03  0.68806269386E+03  0.00000000000E+00 0. -1.
         -2   -1    0    0    0  501 -0.00000000000E+00 -0.00000000000E+00 -0.23070124570E+02  0.23070124570E+02  0.00000000000E+00 0.  1.
         23    2    1    2    0    0  0.49304703932E+02  0.40453592898E+02  0.35520707147E+03  0.37101228508E+03  0.86084871182E+02 0.  0.
          5    1    1    2  502    0 -0.35217894440E+01  0.42778940464E+02  0.70627690330E+02  0.82753753930E+02  0.41800000000E+01 0.  1.
         -5    1    1    2    0  502 -0.45782914488E+02 -0.83232533362E+02  0.23915780749E+03  0.25736677943E+03  0.41800000000E+01 0.  1.
        -11    1    3    3    0    0 -0.20523222503E+01 -0.17665278878E+02  0.19202972889E+02  0.26173044764E+02  0.00000000000E+00 0.  1.
         11    1    3    3    0    0  0.51357026182E+02  0.58118871776E+02  0.33600409858E+03  0.34483924031E+03  0.00000000000E+00 0. -1.
</event>
<event>
 7    1  0.5137842E-006  0.1015119E+03  0.7561462E-02  0.1277148E+00
         -1   -1    0    0    0  501 -0.00000000000E+00  0.00000000000E+00  0.60333861453E+02  0.60333861453E+02  0.00000000000E+00 0. -1.
          1   -1    0    0  501    0  0.00000000000E+00 -0.00000000000E+00 -0.34069279372E+03  0.34069279372E+03  0.00000000000E+00 0.  1.
         23    2    1    2    0    0 -0.70538091073E+02 -0.93625700060E+00 -0.20096742787E+03  0.23696502993E+03  0.10386539114E+03 0.  0.
          5    1    1    2  502    0 -0.21178941426E+02  0.28665430052E+02 -0.54022461084E+02  0.64854862128E+02  0.41800000000E+01 0. -1.
         -5    1    1    2    0  502  0.91717032499E+02 -0.27729173051E+02 -0.25369043311E+02  0.99206763112E+02  0.41800000000E+01 0. -1.
        -11    1    3    3    0    0 -0.44782210760E+02 -0.53450211554E+01 -0.20554666774E+03  0.21043632830E+03  0.00000000000E+00 0.  1.
         11    1    3    3    0    0 -0.25755880313E+02  0.44087641548E+01  0.45792398724E+01  0.26528701624E+02  0.00000000000E+00 0. -1.
</event>
<event>
 7    1  0.5137842E-006  0.1366870E+03  0.7561462E-02  0.1217858E+00
         -1   -1    0    0    0  501 -0.00000000000E+00  0.00000000000E+00  0.11954486967E+03  0.11954486967E+03  0.00000000000E+00 0.  1.
          1   -1    0    0  501    0  0.00000000000E+00 -0.00000000000E+00 -0.26254039082E+03  0.26254039082E+03  0.00000000000E+00 0. -1.
         23    2    1    2    0    0 -0.63167778367E+02 -0.64940311530E+02 -0.18153676030E+03  0.22290191468E+03  0.92316065467E+02 0.  0.
          5    1    1    2  502    0  0.84818255477E+02  0.37331462749E+01  0.40363920759E+02  0.94099900863E+02  0.41800000000E+01 0. -1.
         -5    1    1    2    0  502 -0.21650477110E+02  0.61207165255E+02 -0.18226816123E+01  0.65083444946E+02  0.41800000000E+01 0. -1.
        -11    1    3    3    0    0  0.17857528465E+01 -0.57957490292E+02 -0.52275918728E+02  0.78070681264E+02  0.00000000000E+00 0.  1.
         11    1    3    3    0    0 -0.64953531213E+02 -0.69828212381E+01 -0.12926084157E+03  0.14483123341E+03  0.00000000000E+00 0. -1.
</event>
<event>
 7    1  0.5137842E-006  0.1005574E+03  0.7561462E-02  0.1279128E+00
          2   -1    0    0  501    0  0.00000000000E+00  0.00000000000E+00  0.15487093381E+02  0.15487093381E+02  0.00000000000E+00 0. -1.
         -2   -1    0    0    0  501 -0.00000000000E+00 -0.00000000000E+00 -0.95149109662E+03  0.95149109662E+03  0.00000000000E+00 0.  1.
         23    2    1    2    0    0 -0.29263567268E+02 -0.34725264330E+02 -0.29050655028E+03  0.30790674494E+03  0.91380016814E+02 0.  0.
          5    1    1    2  502    0 -0.30594547120E+02  0.17982315010E+01 -0.44527763376E+02  0.54216732300E+02  0.41800000000E+01 0.  1.
         -5    1    1    2    0  502  0.59858114388E+02  0.32927032829E+02 -0.60096968959E+03  0.60485471277E+03  0.41800000000E+01 0.  1.
        -11    1    3    3    0    0  0.33150080126E+02 -0.10256541036E+02 -0.11059311242E+03  0.11590927901E+03  0.00000000000E+00 0.  1.
         11    1    3    3    0    0 -0.62413647394E+02 -0.24468723294E+02 -0.17991343786E+03  0.19199746593E+03  0.00000000000E+00 0. -1.
</event>
<event>
 7    1  0.5137842E-006  0.1020049E+03  0.7561462E-02  0.1276135E+00
         -1   -1    0    0    0  501 -0.00000000000E+00  0.00000000000E+00  0.45947584268E+02  0.45947584268E+02  0.00000000000E+00 0.  1.
          1   -1    0    0  501    0  0.00000000000E+00 -0.00000000000E+00 -0.37703788274E+03  0.37703788274E+03  0.00000000000E+00 0. -1.
         23    2    1    2    0    0  0.27832389433E+02  0.57048143356E+02 -0.21118723925E+03  0.23845079856E+03  0.90717146941E+02 0.  0.
          5    1    1    2  502    0 -0.10868954106E+02 -0.81096691430E+02 -0.12955110931E+03  0.15328329931E+03  0.41800000000E+01 0.  1.
         -5    1    1    2    0  502 -0.16963435328E+02  0.24048548074E+02  0.96480500888E+01  0.31251369139E+02  0.41800000000E+01 0.  1.
        -11    1    3    3    0    0 -0.20761283911E+02  0.30751982574E+02 -0.15602360041E+03  0.16037480858E+03  0.00000000000E+00 0. -1.
         11    1    3    3    0    0  0.48593673344E+02  0.26296160783E+02 -0.55163638835E+02  0.78075989975E+02  0.00000000000E+00 0.  1.
</event>
<event>
 7    1  0.5137842E-006  0.1084175E+03  0.7561462E-02  0.1263529E+00
         -4   -1    0    0    0  501 -0.00000000000E+00  0.00000000000E+00  0.22817070878E+03  0.22817070878E+03  0.00000000000E+00 0.  1.
          4   -1    0    0  501    0  0.00000000000E+00 -0.00000000000E+00 -0.74873006504E+02  0.74873006504E+02  0.00000000000E+00 0. -1.
         23    2    1    2    0    0  0.26106013808E+02 -0.54795269306E+02  0.11780438326E+03  0.15954760795E+03  0.88845489433E+02 0.  0.
          5    1    1    2  502    0 -0.34109477359E+02 -0.16359481536E+02  0.57068801601E+02  0.68595988206E+02  0.41800000000E+01 0.  1.
         -5    1    1    2    0  502  0.80034635512E+01  0.71154750842E+02 -0.21575482586E+02  0.74900119126E+02  0.41800000000E+01 0.  1.
        -11    1    3    3    0    0 -0.32481745855E+02 -0.12560474903E+02  0.46083430325E+02  0.57762547503E+02  0.00000000000E+00 0.  1.
         11    1    3    3    0    0  0.58587759662E+02 -0.42234794403E+02  0.71720952934E+02  0.10178506045E+03  0.00000000000E+00 0. -1.
</event>
<event>
 7    1  0.5137842E-006  0.1338205E+03  0.7561462E-02  0.1221894E+00
          1   -1    0    0  501    0  0.00000000000E+00  0.00000000000E+00  0.23560479857E+03  0.23560479857E+03  0.00000000000E+00 0. -1.
         -1   -1    0    0    0  501 -0.00000000000E+00 -0.00000000000E+00 -0.11242251390E+03  0.11242251390E+03  0.00000000000E+00 0.  1.
         23    2    1    2    0    0 -0.10177262942E+03 -0.66034959332E+02  0.53597642652E+02  0.16039255052E+03  0.90193009766E+02 0.  0.
          5    1    1    2  502    0  0.73369451332E+02  0.15018197696E+01  0.87983352801E+02  0.11464673838E+03  0.41800000000E+01 0. -1.
         -5    1    1    2    0  502  0.28403178087E+02  0.64533139563E+02 -0.18398710786E+02  0.72988023578E+02  0.41800000000E+01 0. -1.
        -11    1    3    3    0    0 -0.94485246493E+02 -0.52391554280E+02  0.36451069390E+01  0.10810006276E+03  0.00000000000E+00 0.  1.
         11    1    3    3    0    0 -0.72873829251E+01 -0.13643405052E+02  0.49952535713E+02  0.52292487754E+02  0.00000000000E+00 0. -1.
</event>
<event>
 7    1  0.5137842E-006  0.1159409E+03  0.7561462E-02  0.1249948E+00
          2   -1    0    0  501    0  0.00000000000E+00  0.00000000000E+00  0.14313742507E+03  0.14313742507E+03  0.00000000000E+00 0. -1.
         -2   -1    0    0    0  501 -0.00000000000E+00 -0.00000000000E+00 -0.10829987538E+03  0.10829987538E+03  0.00000000000E+00 0.  1.
         23    2    1    2    0    0  0.62210914765E+02 -0.19662737332E+02  0.30225939875E+02  0.11027901961E+03  0.83612400813E+02 0.  0.
          5    1    1    2  502    0 -0.48251155434E+02 -0.48976744522E+02 -0.96568214453E+01  0.69553016507E+02  0.41800000000E+01 0.  1.
         -5    1    1    2    0  502 -0.13959759330E+02  0.68639481854E+02  0.14268431254E+02  0.71605264333E+02  0.41800000000E+01 0.  1.
        -11    1    3    3    0    0  0.24171652963E+02  0.24588207348E+02  0.38112869109E+02  0.51394936903E+02  0.00000000000E+00 0. -1.
         11    1    3    3    0    0  0.38039261802E+02 -0.44250944680E+02 -0.78869292344E+01  0.58884082707E+02  0.00000000000E+00 0.  1.
</event>
<event>
 7    1  0.5137842E-006  0.1375784E+03  0.7561462E-02  0.1216625E+00
         -2   -1    0    0    0  501 -0.00000000000E+00  0.00000000000E+00  0.13042679327E+02  0.13042679327E+02  0.00000000000E+00 0.  1.
          2   -1    0    0  501    0  0.00000000000E+00 -0.00000000000E+00 -0.15001421982E+04  0.15001421982E+04  0.00000000000E+00 0. -1.
         23    2    1    2    0    0 -0.31756575330E+01  0.90476590300E+02 -0.61621462394E+03  0.62871656120E+03  0.85836783315E+02 0.  0.
          5    1    1    2  502    0 -0.36148428738E+02  0.13940254611E+02 -0.14957089532E+03  0.15456378853E+03  0.41800000000E+01 0.  1.
         -5    1    1    2    0  502  0.39324086271E+02 -0.10441684491E+03 -0.72131399957E+03  0.72990452776E+03  0.41800000000E+01 0.  1.
        -11    1    3    3    0    0 -0.26806572224E+02  0.96494707419E+02 -0.48000179849E+03  0.49033819699E+03  0.00000000000E+00 0.  1.
         11    1    3    3    0    0  0.23630914691E+02 -0.60181171186E+01 -0.13621282546E+03  0.13837836421E+03  0.00000000000E+00 0. -1.
</event>
<event>
 7    1  0.5137842E-006  0.9522119E+02  0.7561462E-02  0.1290679E+00
         -1   -1    0    0    0  501 -0.00000000000E+00  0.00000000000E+00  0.13090363804E+02  0.13090363804E+02  0.00000000000E+00 0.  1.
          1   -1    0    0  501    0  0.00000000000E+00 -0.00000000000E+00 -0.77965740943E+03  0.77965740943E+03  0.00000000000E+00 0. -1.
         23    2    1    2    0    0 -0.22342851295E+02  0.30805698054E+01 -0.35347922722E+03  0.36451194036E+03  0.86097024773E+02 0.  0.
          5    1    1    2  502    0  0.63421819122E+02 -0.60975338474E+01 -0.32071606498E+03  0.32701035732E+03  0.41800000000E+01 0. -1.
         -5    1    1    2    0  502 -0.41078967827E+02  0.30169640419E+01 -0.92371753428E+02  0.10122547555E+03  0.41800000000E+01 0.  1.
        -11    1    3    3    0    0  0.25435131867E+02  0.22168641515E+02 -0.19479244769E+03  0.19769292420E+03  0.00000000000E+00 0.  1.
         11    1    3    3    0    0 -0.47777983162E+02 -0.19088071710E+02 -0.15868677952E+03  0.16681901616E+03  0.00000000000E+00 0. -1.
</event>
<event>
 7    1  0.5137842E-006  0.1150696E+03  0.7561462E-02  0.1251460E+00
         -1   -1    0    0    0  501 -0.00000000000E+00  0.00000000000E+00  0.51104519041E+02  0.51104519041E+02  0.00000000000E+00 0.  1.
          1   -1    0    0  501    0  0.00000000000E+00 -0.00000000000E+00 -0.40682019735E+03  0.40682019735E+03  0.00000000000E+00 0. -1.
         23    2    1    2    0    0  0.36072745328E+02  0.86512809072E+02 -0.15640213846E+03  0.20462371413E+03  0.92862944069E+02 0.  0.
          5    1    1    2  502    0 -0.35555606373E+02 -0.50037918481E+02 -0.20686025567E+03  0.21581620006E+03  0.41800000000E+01 0.  1.
         -5    1    1    2    0  502 -0.51713895434E+00 -0.36474890591E+02  0.75467158232E+01  0.37484802201E+02  0.41800000000E+01 0.  1.
        -11    1    3    3    0    0  0.71959599810E+01  0.99835103452E+02 -0.12102785568E+03  0.15705595045E+03  0.00000000000E+00 0.  1.
         11    1    3    3    0    0  0.28876785347E+02 -0.13322294379E+02 -0.35374282776E+02  0.47567763678E+02  0.00000000000E+00 0. -1.
</event>
<event>
 7    1  0.5137842E-006  0.9943338E+02  0.7561462E-02  0.1281492E+00
          1   -1    0    0  501    0  0.00000000000E+00  0.00000000000E+00  0.42003688395E+03  0.42003688395E+03  0.00000000000E+00 0. -1.
         -1   -1    0    0    0  501 -0.00000000000E+00 -0.00000000000E+00 -0.52715456290E+02  0.52715456290E+02  0.00000000000E+00 0.  1.
         23    2    1    2    0    0 -0.89190233870E+01  0.42250663902E+02  0.31389163253E+03  0.33004701991E+03  0.92403521606E+02 0.  0.
          5    1    1    2  502    0 -0.41216901844E+02  0.26919914997E+01  0.62090351714E+02  0.74691123916E+02  0.41800000000E+01 0. -1.
         -5    1    1    2    0  502  0.50135925231E+02 -0.44942655402E+02 -0.86605565789E+01  0.68014196412E+02  0.41800000000E+01 0. -1.
        -11    1    3    3    0    0 -0.44050820990E+02  0.20664082774E+02  0.89241812274E+02  0.10164438108E+03  0.00000000000E+00 0.  1.
         11    1    3    3    0    0  0.35131797603E+02  0.21586581129E+02  0.22464982025E+03  0.22840263883E+03  0.00000000000E+00 0. -1.
</event>
<event>
 7    1  0.5137842E-006  0.5544759E+02  0.7561462E-02  0.1417994E+00
         -1   -1    0    0    0  501 -0.00000000000E+00  0.00000000000E+00  0.72288340376E+02  0.72288340376E+02  0.00000000000E+00 0.  1.
          1   -1    0    0  501    0  0.00000000000E+00 -0.00000000000E+00 -0.18294821968E+03  0.18294821968E+03  0.00000000000E+00 0. -1.
         23    2    1    2    0    0 -0.68400846112E+01  0.50206779257E+01 -0.88219178154E+02  0.12786601530E+03  0.92168869526E+02 0.  0.
          5    1    1    2  502    0  0.11571942169E+02 -0.11758712295E+02 -0.73519575352E+02  0.75463749710E+02  0.41800000000E+01 0.  1.
         -5    1    1    2    0  502 -0.47318575579E+01  0.67380343689E+01  0.51078874198E+02  0.51906795051E+02  0.41800000000E+01 0.  1.
        -11    1    3    3    0    0  0.37665748765E+02  0.12133003974E+02 -0.15888425329E+02  0.42642238155E+02  0.00000000000E+00 0.  1.
         11    1    3    3    0    0 -0.44505833376E+02 -0.71123260481E+01 -0.72330752825E+02  0.85223777143E+02  0.00000000000E+00 0. -1.
</event>
<event>
 7    1  0.5137842E-006  0.1087117E+03  0.7561462E-02  0.1262974E+00
         -2   -1    0    0    0  501 -0.00000000000E+00  0.00000000000E+00  0.19706126824E+03  0.19706126824E+03  0.00000000000E+00 0.  1.
          2   -1    0    0  501    0  0.00000000000E+00 -0.00000000000E+00 -0.10675196953E+03  0.10675196953E+03  0.00000000000E+00 0. -1.
         23    2    1    2    0    0  0.49199866669E+01 -0.92945763970E+02  0.16134202986E+02  0.13118333483E+03  0.91025455350E+02 0.  0.
          5    1    1    2  502    0 -0.22076603312E+01  0.65892330698E+02  0.10948371922E+03  0.12787036475E+03  0.41800000000E+01 0. -1.
         -5    1    1    2    0  502 -0.27123263357E+01  0.27053433272E+02 -0.35308623495E+02  0.44759538191E+02  0.41800000000E+01 0. -1.
        -11    1    3    3    0    0 -0.37921314958E+02 -0.33638822411E+02 -0.13164606240E+02  0.52372734880E+02  0.00000000000E+00 0. -1.
         11    1    3    3    0    0  0.42841301625E+02 -0.59306941559E+02  0.29298809227E+02  0.78810599948E+02  0.00000000000E+00 0.  1.
</event>
<event>
 7    1  0.5137842E-006  0.1035388E+03  0.7561462E-02  0.1273026E+00
         -1   -1    0    0    0  501 -0.00000000000E+00  0.00000000000E+00  0.33988317217E+03  0.33988317217E+03  0.00000000000E+00 0.  1.
          1   -1    0    0  501    0  0.00000000000E+00 -0.00000000000E+00 -0.16076102061E+03  0.16076102061E+03  0.00000000000E+00 0. -1.
         23    2    1    2    0    0 -0.33555942680E+02  0.18749144776E+02 -0.13082746633E+03  0.16421154132E+03  0.91499030795E+02 0.  0.
          5    1    1    2  502    0 -0.37311235537E+02 -0.10644212302E+02  0.35233559440E+02  0.52576645610E+02  0.41800000000E+01 0.  1.
         -5    1    1    2    0  502  0.70867178217E+02 -0.81049324746E+01  0.27471605846E+03  0.28385600584E+03  0.41800000000E+01 0.  1.
        -11    1    3    3    0    0 -0.63331994406E+02  0.42266257564E+01 -0.66958575191E+02  0.92261891767E+02  0.00000000000E+00 0.  1.
         11    1    3    3    0    0  0.29776051726E+02  0.14522519020E+02 -0.63868891144E+02  0.71949649554E+02  0.00000000000E+00 0. -1.
</event>
<event>
 7    1  0.5137842E-006  0.1214835E+03  0.7561462E-02  0.1240670E+00
          1   -1    0    0  501    0  0.00000000000E+00  0.00000000000E+00  0.17047492044E+03  0.17047492044E+03  0.00000000000E+00 0. -1.
         -1   -1    0    0    0  501 -0.00000000000E+00 -0.00000000000E+00 -0.10799525717E+03  0.10799525717E+03  0.00000000000E+00 0.  1.
         23    2    1    2    0    0 -0.33794071500E+02 -0.70160670520E+02  0.48120151847E+02  0.13039248327E+03  0.92855219154E+02 0.  0.
          5    1    1    2  502    0 -0.15697410067E+02  0.91778179909E+02  0.83908102659E+01  0.93581627936E+02  0.41800000000E+01 0.  1.
         -5    1    1    2    0  502  0.49491481567E+02 -0.21617509388E+02  0.59687011536E+01  0.54496066402E+02  0.41800000000E+01 0.  1.
        -11    1    3    3    0    0 -0.27491333639E+02 -0.79617059606E+02  0.67491286731E+02  0.10793388435E+03  0.00000000000E+00 0. -1.
         11    1    3    3    0    0 -0.63027378612E+01  0.94563890857E+01 -0.19371134884E+02  0.22458598927E+02  0.00000000000E+00 0.  1.
</event>
<event>
 7    1  0.5137842E-006  0.1212282E+03  0.7561462E-02  0.1241085E+00
         -2   -1    0    0    0  501 -0.00000000000E+00  0.00000000000E+00  0.10052305463E+03  0.10052305463E+03  0.00000000000E+00 0.  1.
          2   -1    0    0  501    0  0.00000000000E+00 -0.00000000000E+00 -0.20306693454E+03  0.20306693454E+03  0.00000000000E+00 0. -1.
         23    2    1    2    0    0 -0.51885318198E+02  0.38923961766E+02 -0.11296910577E+03  0.16229472631E+03  0.96800817591E+02 0.  0.
          5    1    1    2  502    0 -0.30223150093E+02  0.21487521203E+02 -0.64925943661E+01  0.37878470805E+02  0.41800000000E+01 0. -1.
         -5    1    1    2    0  502  0.82108468291E+02 -0.60411482968E+02  0.16917820219E+02  0.10341679206E+03  0.41800000000E+01 0. -1.
        -11    1    3    3    0    0  0.19960991595E+02 -0.26039276061E+01  0.23004957558E+01  0.20261142741E+02  0.00000000000E+00 0.  1.
         11    1    3    3    0    0 -0.71846309793E+02  0.41527889372E+02 -0.11526960152E+03  0.14203358357E+03  0.00000000000E+00 0. -1.
</event>
<event>
 7    1  0.5137842E-006  0.1369910E+03  0.7561462E-02  0.1217436E+00
          2   -1    0    0  501    0  0.00000000000E+00  0.00000000000E+00  0.15170024369E+03  0.15170024369E+03  0.00000000000E+00 0. -1.
         -2   -1    0    0    0  501 -0.00000000000E+00 -0.00000000000E+00 -0.25197249446E+03  0.25197249446E+03  0.00000000000E+00 0.  1.
         23    2    1    2    0    0 -0.12985904892E+03  0.13492156343E+02  0.52574221405E+02  0.16691337749E+03  0.89725224762E+02 0.  0.
          5    1    1    2  502    0  0.12498524772E+02  0.16748139745E+02 -0.10377542118E+03  0.10594113341E+03  0.41800000000E+01 0.  1.
         -5    1    1    2    0  502  0.11736052415E+03 -0.30240296088E+02 -0.49071050995E+02  0.13081822725E+03  0.41800000000E+01 0.  1.
        -11    1    3    3    0    0 -0.46600058553E+02  0.12050302348E+02  0.66902729017E+02  0.82418143596E+02  0.00000000000E+00 0. -1.
         11    1    3    3    0    0 -0.83258990368E+02  0.14418539944E+01 -0.14328507612E+02  0.84495233892E+02  0.00000000000E+00 0.  1.
</event>
<event>
 7    1  0.5137842E-006  0.1687425E+03  0.7561462E-02  0.1179166E+00
         -2   -1    0    0    0  501 -0.00000000000E+00  0.00000000000E+00  0.71473673129E+02  0.71473673129E+02  0.00000000000E+00 0. -1.
          2   -1    0    0  501    0  0.00000000000E+00 -0.00000000000E+00 -0.51974111744E+03  0.51974111744E+03  0.00000000000E+00 0.  1.
         23    2    1    2    0    0 -0.15121033191E+03  0.18847309143E+02 -0.28301347826E+03  0.33396936546E+03  0.90659377091E+02 0.  0.
          5    1    1    2  502    0  0.98370719879E+02 -0.56279121240E+02 -0.47825052840E+02  0.12308064875E+03  0.41800000000E+01 0. -1.
         -5    1    1    2    0  502  0.52839612031E+02  0.37431812097E+02 -0.11742891322E+03  0.13416477636E+03  0.41800000000E+01 0. -1.
        -11    1    3    3    0    0 -0.13763706405E+03  0.21309208291E+01 -0.28028650136E+03  0.31226435126E+03  0.00000000000E+00 0.  1.
         11    1    3    3    0    0 -0.13573267856E+02  0.16716388314E+02 -0.27269769005E+01  0.21705014204E+02  0.00000000000E+00 0. -1.
</event>
<event>
 7    1  0.5137842E-006  0.1575135E+03  0.7561462E-02  0.1191533E+00
         -3   -1    0    0    0  501 -0.00000000000E+00  0.00000000000E+00  0.72984663780E+03  0.72984663780E+03  0.00000000000E+00 0.  1.
          3   -1    0    0  501    0  0.00000000000E+00 -0.00000000000E+00 -0.70021643207E+02  0.70021643207E+02  0.00000000000E+00 0. -1.
         23    2    1    2    0    0 -0.50510814453E+02 -0.13376505843E+03  0.75441238784E+02  0.18537898717E+03  0.90716895560E+02 0.  0.
          5    1    1    2  502    0 -0.12872907985E+02  0.55440869254E+02  0.70009435410E+02  0.90322727982E+02  0.41800000000E+01 0.  1.
         -5    1    1    2    0  502  0.63383722438E+02  0.78324189175E+02  0.51437432040E+03  0.52416656586E+03  0.41800000000E+01 0.  1.
        -11    1    3    3    0    0 -0.33426973224E+02 -0.14173689645E+02 -0.97048844078E+01  0.37582453332E+02  0.00000000000E+00 0.  1.
         11    1    3    3    0    0 -0.17083841230E+02 -0.11959136878E+03  0.85146123191E+02  0.14779653383E+03  0.00000000000E+00 0. -1.
</event>
<event>
 7    1  0.5137842E-006  0.3494537E+03  0.7561462E-02  0.1062839E+00
         -2   -1    0    0    0  501 -0.00000000000E+00  0.00000000000E+00  0.79575568009E+02  0.79575568009E+02  0.00000000000E+00 0.  1.
          2   -1    0    0  501    0  0.00000000000E+00 -0.00000000000E+00 -0.19588438454E+04  0.19588438454E+04  0.00000000000E+00 0. -1.
         23    2    1    2    0    0 -0.14705247157E+03  0.31012891339E+03 -0.13444296311E+04  0.13907288858E+04  0.93975680703E+02 0.  0.
          5    1    1    2  502    0  0.60921093664E+02 -0.21851213783E+03 -0.25779520382E+03  0.34341632684E+03  0.41800000000E+01 0. -1.
         -5    1    1    2    0  502  0.86131377905E+02 -0.91616775562E+02 -0.27704344254E+03  0.30427420081E+03  0.41800000000E+01 0. -1.
        -11    1    3    3    0    0 -0.93872777330E+02  0.14507143277E+03 -0.83193256951E+03  0.84968795399E+03  0.00000000000E+00 0. -1.
         11    1    3    3    0    0 -0.53179694238E+02  0.16505748062E+03 -0.51249706156E+03  0.54104093181E+03  0.00000000000E+00 0.  1.
</event>
<event>
 7    1  0.5137842E-006  0.1450141E+03  0.7561462E-02  0.1206737E+00
         -1   -1    0    0    0  501 -0.00000000000E+00  0.00000000000E+00  0.75116851711E+02  0.75116851711E+02  0.00000000000E+00 0.  1.
          1   -1    0    0  501    0  0.00000000000E+00 -0.00000000000E+00 -0.36998782739E+03  0.36998782739E+03  0.00000000000E+00 0. -1.
         23    2    1    2    0    0 -0.45566156643E+02 -0.91791642692E+02 -0.23395119744E+03  0.27226386579E+03  0.94299891486E+02 0.  0.
          5    1    1    2  502    0  0.27301980968E+02  0.11963670328E+03 -0.65176563103E+02  0.13901005616E+03  0.41800000000E+01 0. -1.
         -5    1    1    2    0  502  0.18264175675E+02 -0.27845060583E+02  0.42567848614E+01  0.33830757150E+02  0.41800000000E+01 0. -1.
        -11    1    3    3    0    0 -0.71345139041E+02 -0.65270414422E+02 -0.13065323516E+03  0.16254422082E+03  0.00000000000E+00 0.  1.
         11    1    3    3    0    0  0.25778982398E+02 -0.26521228270E+02 -0.10329796228E+03  0.10971964498E+03  0.00000000000E+00 0. -1.
</event>
<event>
 7    1  0.5137842E-006  0.3135631E+03  0.7561462E-02  0.1078650E+00
         -1   -1    0    0    0  501 -0.00000000000E+00  0.00000000000E+00  0.11591789929E+03  0.11591789929E+03  0.00000000000E+00 0.  1.
          1   -1    0    0  501    0  0.00000000000E+00 -0.00000000000E+00 -0.11727642949E+04  0.11727642949E+04  0.00000000000E+00 0. -1.
         23    2    1    2    0    0  0.26394630230E+03  0.15007812274E+03 -0.83259372941E+03  0.89102863697E+03  0.92350529090E+02 0.  0.
          5    1    1    2  502    0 -0.14308207168E+02 -0.53710076243E+02 -0.67352142056E+02  0.87425857285E+02  0.41800000000E+01 0. -1.
         -5    1    1    2    0  502 -0.24963809513E+03 -0.96368046498E+02 -0.15690052413E+03  0.31022769992E+03  0.41800000000E+01 0. -1.
        -11    1    3    3    0    0  0.59517578501E+02  0.38169703130E+02 -0.10159045104E+03  0.12377353566E+03  0.00000000000E+00 0.  1.
         11    1    3    3    0    0  0.20442872380E+03  0.11190841961E+03 -0.73100327838E+03  0.76725510132E+03  0.00000000000E+00 0. -1.
</event>
<event>
 7    1  0.5137842E-006  0.1046206E+03  0.7561462E-02  0.1270869E+00
         -2   -1    0    0    0  501 -0.00000000000E+00  0.00000000000E+00  0.61829605237E+02  0.61829605237E+02  0.00000000000E+00 0.  1.
          2   -1    0    0  501    0  0.00000000000E+00 -0.00000000000E+00 -0.47107501742E+03  0.47107501742E+03  0.00000000000E+00 0. -1.
         23    2    1    2    0    0 -0.43135805468E+02 -0.25286846665E+02 -0.38045819718E+03  0.39515135596E+03  0.94318778568E+02 0.  0.
          5    1    1    2  502    0  0.69449864034E+02  0.53189937988E+02  0.32002724814E+01  0.87636563496E+02  0.41800000000E+01 0.  1.
         -5    1    1    2    0  502 -0.26314058565E+02 -0.27903091323E+02 -0.31987487482E+02  0.50116703194E+02  0.41800000000E+01 0.  1.
        -11    1    3    3    0    0  0.63285097424E+01  0.16915771121E+02 -0.13686754429E+02  0.22660992806E+02  0.00000000000E+00 0. -1.
         11    1    3    3    0    0 -0.49464315211E+02 -0.42202617786E+02 -0.36677144275E+03  0.37249036316E+03  0.00000000000E+00 0.  1.
</event>
<event>
 7    1  0.5137842E-006  0.1151501E+03  0.7561462E-02  0.1251319E+00
          2   -1    0    0  501    0  0.00000000000E+00  0.00000000000E+00  0.29840736182E+02  0.29840736182E+02  0.00000000000E+00 0. -1.
         -2   -1    0    0    0  501 -0.00000000000E+00 -0.00000000000E+00 -0.73256256536E+03  0.73256256536E+03  0.00000000000E+00 0.  1.
         23    2    1    2    0    0 -0.40183874582E+02 -0.39529533967E+02 -0.10604540214E+03  0.15015433025E+03  0.90129727324E+02 0.  0.
          5    1    1    2  502    0 -0.32870963546E+02 -0.13308010031E+02 -0.78091018649E+02  0.85867822664E+02  0.41800000000E+01 0. -1.
         -5    1    1    2    0  502  0.73054838128E+02  0.52837543997E+02 -0.51858540839E+03  0.52638114862E+03  0.41800000000E+01 0. -1.
        -11    1    3    3    0    0 -0.23336511901E+02  0.27010603350E+02 -0.50571612146E+02  0.61900350856E+02  0.00000000000E+00 0.  1.
         11    1    3    3    0    0 -0.16847362680E+02 -0.66540137317E+02 -0.55473789992E+02  0.88253979398E+02  0.00000000000E+00 0. -1.
</event>
<event>
 7    1  0.5137842E-006  0.1082582E+03  0.7561462E-02  0.1263830E+00
         -1   -1    0    0    0  501 -0.00000000000E+00  0.00000000000E+00  0.19105327986E+03  0.19105327986E+03  0.00000000000E+00 0.  1.
          1   -1    0    0  501    0  0.00000000000E+00 -0.00000000000E+00 -0.29837966911E+03  0.29837966911E+03  0.00000000000E+00 0. -1.
         23    2    1    2    0    0  0.12420259372E+02  0.35176786192E+02 -0.24162845039E+03  0.26095656779E+03  0.91226931906E+02 0.  0.
          5    1    1    2  502    0  0.51880984339E+02 -0.12876424292E+02 -0.21994114724E+02  0.57953880983E+02  0.41800000000E+01 0. -1.
         -5    1    1    2    0  502 -0.64301243711E+02 -0.22300361900E+02  0.15629617587E+03  0.17052250020E+03  0.41800000000E+01 0.  1.
        -11    1    3    3    0    0  0.45761259674E+02  0.40302779618E+02 -0.11821130613E+03  0.13301247997E+03  0.00000000000E+00 0. -1.
         11    1    3    3    0    0 -0.33341000302E+02 -0.51259934260E+01 -0.12341714426E+03  0.12794408781E+03  0.00000000000E+00 0.  1.
</event>
<event>
 7    1  0.5137842E-006  0.8978729E+02  0.7561462E-02  0.1303368E+00
          2   -1    0    0  501    0  0.00000000000E+00  0.00000000000E+00  0.93913642143E+02  0.93913642143E+02  0.00000000000E+00 0. -1.
         -2   -1    0    0    0  501 -0.00000000000E+00 -0.00000000000E+00 -0.14148054237E+03  0.14148054237E+03  0.00000000000E+00 0.  1.
         23    2    1    2    0    0  0.92112174751E+01  0.19399922470E+02  0.95397061475E+01  0.96032483865E+02  0.93112987519E+02 0.  0.
          5    1    1    2  502    0 -0.34936744549E+01  0.36155105279E+02 -0.72570779453E+02  0.81261232020E+02  0.41800000000E+01 0. -1.
         -5    1    1    2    0  502 -0.57175430202E+01 -0.55555027749E+02  0.15464173075E+02  0.58100468632E+02  0.41800000000E+01 0. -1.
        -11    1    3    3    0    0  0.24686346439E+02 -0.27891796634E+02  0.23883668869E+02  0.44247007341E+02  0.00000000000E+00 0. -1.
         11    1    3    3    0    0 -0.15475128963E+02  0.47291719105E+02 -0.14343962722E+02  0.51785476524E+02  0.00000000000E+00 0.  1.
</event>
<event>
 7    1  0.5137842E-006  0.8727351E+02  0.7561462E-02  0.1309592E+00
          1   -1    0    0  501    0  0.00000000000E+00  0.00000000000E+00  0.28591861576E+03  0.28591861576E+03  0.00000000000E+00 0. -1.
         -1   -1    0    0    0  501 -0.00000000000E+00 -0.00000000000E+00 -0.47736697731E+02  0.47736697731E+02  0.00000000000E+00 0.  1.
         23    2    1    2    0    0  0.11077423520E+02  0.38445704128E+02  0.12629143749E+03  0.16112127546E+03  0.91704725859E+02 0.  0.
          5    1    1    2  502    0  0.44438357142E+02 -0.90517706449E+01  0.16373774078E+01  0.45572530565E+02  0.41800000000E+01 0.  1.
         -5    1    1    2    0  502 -0.55515780662E+02 -0.29393933483E+02  0.11025310314E+03  0.12696150747E+03  0.41800000000E+01 0.  1.
        -11    1    3    3    0    0 -0.17920281305E+02  0.31482931894E+02  0.54245843711E+01  0.36629736531E+02  0.00000000000E+00 0.  1.
         11    1    3    3    0    0  0.28997704824E+02  0.69627722332E+01  0.12086685312E+03  0.12449153893E+03  0.00000000000E+00 0. -1.
</event>
<event>
 7    1  0.5137842E-006  0.2510588E+03  0.7561462E-02  0.1112638E+00
          2   -1    0    0  501    0  0.00000000000E+00  0.00000000000E+00  0.25581209185E+03  0.25581209185E+03  0.00000000000E+00 0. -1.
         -2   -1    0    0    0  501 -0.00000000000E+00 -0.00000000000E+00 -0.25938359783E+03  0.25938359783E+03  0.00000000000E+00 0.  1.
         23    2    1    2    0    0 -0.14145994390E+03  0.18375875312E+03  0.24332680775E+02  0.25023586526E+03  0.90816924817E+02 0.  0.
          5    1    1    2  502    0  0.46857619379E+02  0.59526598336E+01 -0.23404696058E+02  0.52880269010E+02  0.41800000000E+01 0. -1.
         -5    1    1    2    0  502  0.94602324516E+02 -0.18971141295E+03 -0.44994906998E+01  0.21207955541E+03  0.41800000000E+01 0. -1.
        -11    1    3    3    0    0 -0.12862435142E+03  0.11442454370E+03 -0.86903197845E+01  0.17237378466E+03  0.00000000000E+00 0.  1.
         11    1    3    3    0    0 -0.12835592477E+02  0.69334209414E+02  0.33023000559E+02  0.77862080599E+02  0.00000000000E+00 0. -1.
</event>
<event>
 7    1  0.5137842E-006  0.1025937E+03  0.7561462E-02  0.1274934E+00
          3   -1    0    0  501    0  0.00000000000E+00  0.00000000000E+00  0.11995516306E+03  0.11995516306E+03  0.00000000000E+00 0. -1.
         -3   -1    0    0    0  501 -0.00000000000E+00 -0.00000000000E+00 -0.15222183008E+03  0.15222183008E+03  0.00000000000E+00 0.  1.
         23    2    1    2    0    0  0.30055674126E+02  0.17221153779E+02  0.59858883594E+02  0.11299862323E+03  0.89362694795E+02 0.  0.
          5    1    1    2  502    0 -0.13623966742E+02  0.44066837313E+02  0.11039686516E+01  0.46326987463E+02  0.41800000000E+01 0.  1.
         -5    1    1    2    0  502 -0.16431707385E+02 -0.61287991092E+02 -0.93229519260E+02  0.11285138245E+03  0.41800000000E+01 0.  1.
        -11    1    3    3    0    0  0.47794740456E+02 -0.21715312176E+02  0.26887300277E+02  0.58981513327E+02  0.00000000000E+00 0. -1.
         11    1    3    3    0    0 -0.17739066330E+02  0.38936465955E+02  0.32971583317E+02  0.54017109898E+02  0.00000000000E+00 0.  1.
</event>
<event>
 7    1  0.5137842E-006  0.1170202E+03  0.7561462E-02  0.1248095E+00
          1   -1    0    0  501    0  0.00000000000E+00  0.00000000000E+00  0.15644668253E+03  0.15644668253E+03  0.00000000000E+00 0. -1.
         -1   -1    0    0    0  501 -0.00000000000E+00 -0.00000000000E+00 -0.10833735629E+03  0.10833735629E+03  0.00000000000E+00 0.  1.
         23    2    1    2    0    0 -0.64456518666E+02  0.12733350658E+02  0.46270124121E+02  0.12348177540E+03  0.93755231599E+02 0.  0.
          5    1    1    2  502    0 -0.12575825029E+02  0.43198289940E+02 -0.64981600128E+01  0.45650214812E+02  0.41800000000E+01 0. -1.
         -5    1    1    2    0  502  0.77032343695E+02 -0.55931640598E+02  0.83373621304E+01  0.95652048606E+02  0.41800000000E+01 0. -1.
        -11    1    3    3    0    0 -0.14331426886E+02  0.35671499215E+02 -0.14817396538E+02  0.41199525398E+02  0.00000000000E+00 0.  1.
         11    1    3    3    0    0 -0.50125091780E+02 -0.22938148557E+02  0.61087520659E+02  0.82282250002E+02  0.00000000000E+00 0. -1.
</event>
<event>
 7    1  0.5137842E-006  0.8955863E+02  0.7561462E-02  0.1303924E+00
         -1   -1    0    0    0  501 -0.00000000000E+00  0.00000000000E+00  0.84236678855E+02  0.84236678855E+02  0.00000000000E+00 0.  1.
          1   -1    0    0  501    0  0.00000000000E+00 -0.00000000000E+00 -0.16792298052E+03  0.16792298052E+03  0.00000000000E+00 0. -1.
         23    2    1    2    0    0 -0.13998884504E+01  0.60292007505E+02 -0.29707634726E+02  0.10320131273E+03  0.78299945922E+02 0.  0.
          5    1    1    2  502    0  0.37136011502E+02 -0.16794315605E+01 -0.69067824709E+02  0.78547696661E+02  0.41800000000E+01 0.  1.
         -5    1    1    2    0  502 -0.35736123051E+02 -0.58612575944E+02  0.15089157767E+02  0.70410649988E+02  0.41800000000E+01 0.  1.
        -11    1    3    3    0    0 -0.20966713289E+02  0.36868897420E+02  0.18396861574E+02  0.46231625311E+02  0.00000000000E+00 0.  1.
         11    1    3    3    0    0  0.19566824839E+02  0.23423110085E+02 -0.48104496300E+02  0.56969687419E+02  0.00000000000E+00 0. -1.
</event>
<event>
 7    1  0.5137842E-006  0.8382074E+02  0.7561462E-02  0.1318546E+00
         -1   -1    0    0    0  501 -0.00000000000E+00  0.00000000000E+00  0.75476087492E+02  0.75476087492E+02  0.00000000000E+00 0.  1.
          1   -1    0    0  501    0  0.00000000000E+00 -0.00000000000E+00 -0.17434427255E+03  0.17434427255E+03  0.00000000000E+00 0. -1.
         23    2    1    2    0    0  0.13791188043E+02 -0.24328593385E+02 -0.59414132841E+02  0.11571147239E+03  0.95273439832E+02 0.  0.
          5    1    1    2  502    0 -0.47590200519E+02  0.22853913978E+02  0.26983404532E+02  0.59436563576E+02  0.41800000000E+01 0.  1.
         -5    1    1    2    0  502  0.33799012476E+02  0.14746794066E+01 -0.66437456747E+02  0.74672324074E+02  0.41800000000E+01 0.  1.
        -11    1    3    3    0    0 -0.23306367811E+02 -0.34948430607E+02  0.32358871185E+01  0.42131348755E+02  0.00000000000E+00 0.  1.
         11    1    3    3    0    0  0.37097555855E+02  0.10619837222E+02 -0.62650019959E+02  0.73580123633E+02  0.00000000000E+00 0. -1.
</event>
<event>
 7    1  0.5137842E-006  0.8944996E+02  0.7561462E-02  0.1304189E+00
          2   -1    0    0  501    0  0.00000000000E+00  0.00000000000E+00  0.10814974708E+03  0.10814974708E+03  0.00000000000E+00 0. -1.
         -2   -1    0    0    0  501 -0.00000000000E+00 -0.00000000000E+00 -0.12773654956E+03  0.12773654956E+03  0.00000000000E+00 0.  1.
         23    2    1    2    0    0 -0.18621659379E+02  0.99925521221E+01  0.31764752128E+02  0.99032685946E+02  0.91388490041E+02 0.  0.
          5    1    1    2  502    0 -0.15818854190E+02 -0.44650455122E+02 -0.69800026400E+02  0.84459548755E+02  0.41800000000E+01 0. -1.
         -5    1    1    2    0  502  0.34440513570E+02  0.34657903000E+02  0.18448471789E+02  0.52394061941E+02  0.41800000000E+01 0. -1.
        -11    1    3    3    0    0 -0.44141033878E+02 -0.14968685788E+02 -0.60840979662E+01  0.47005411116E+02  0.00000000000E+00 0.  1.
         11    1    3    3    0    0  0.25519374499E+02  0.24961237910E+02  0.37848850094E+02  0.52027274830E+02  0.00000000000E+00 0. -1.
</event>
<event>
 7    1  0.5137842E-006  0.7953178E+02  0.7561462E-02  0.1330385E+00
         -1   -1    0    0    0  501 -0.00000000000E+00  0.00000000000E+00  0.55301613602E+03  0.55301613602E+03  0.00000000000E+00 0.  1.
          1   -1    0    0  501    0  0.00000000000E+00 -0.00000000000E+00 -0.32568310672E+02  0.32568310672E+02  0.00000000000E+00 0. -1.
         23    2    1    2    0    0  0.29314685962E+02 -0.30832748570E+02  0.21381587590E+03  0.25169607887E+03  0.12579220220E+03 0.  0.
          5    1    1    2  502    0 -0.24671529767E+02  0.34687337256E+02  0.31772246525E+03  0.32058841693E+03  0.41800000000E+01 0.  1.
         -5    1    1    2    0  502 -0.46431561958E+01 -0.38545886855E+01 -0.11090515792E+02  0.13299950900E+02  0.41800000000E+01 0.  1.
        -11    1    3    3    0    0  0.51842292569E+02 -0.55226502823E+02  0.20316313828E+03  0.21682446972E+03  0.00000000000E+00 0.  1.
         11    1    3    3    0    0 -0.22527606606E+02  0.24393754252E+02  0.10652737618E+02  0.34871609150E+02  0.00000000000E+00 0. -1.
</event>
<event>
 7    1  0.5137842E-006  0.1041420E+03  0.7561462E-02  0.1271819E+00
          1   -1    0    0  501    0  0.00000000000E+00  0.00000000000E+00  0.44777404087E+03  0.44777404087E+03  0.00000000000E+00 0. -1.
         -1   -1    0    0    0  501 -0.00000000000E+00 -0.00000000000E+00 -0.28010541233E+02  0.28010541233E+02  0.00000000000E+00 0.  1.
         23    2    1    2    0    0  0.12057493246E+02 -0.44904941860E+01  0.23640493505E+03  0.25343668404E+03  0.90428490074E+02 0.  0.
          5    1    1    2  502    0 -0.67837708853E+02  0.10822083439E+01  0.11868243247E+03  0.13677031145E+03  0.41800000000E+01 0.  1.
         -5    1    1    2    0  502  0.55780215607E+02  0.34082858422E+01  0.64676132111E+02  0.85577586613E+02  0.41800000000E+01 0.  1.
        -11    1    3    3    0    0  0.47384354601E+02  0.51136322106E+01  0.82868910321E+02  0.95596457011E+02  0.00000000000E+00 0.  1.
         11    1    3    3    0    0 -0.35326861356E+02 -0.96041263966E+01  0.15353602473E+03  0.15784022703E+03  0.00000000000E+00 0. -1.
</event>
<event>
 7    1  0.5137842E-006  0.2268995E+03  0.7561462E-02  0.1128841E+00
         -1   -1    0    0    0  501 -0.00000000000E+00  0.00000000000E+00  0.44485985438E+02  0.44485985438E+02  0.00000000000E+00 0.  1.
          1   -1    0    0  501    0  0.00000000000E+00 -0.00000000000E+00 -0.14537936540E+04  0.14537936540E+04  0.00000000000E+00 0. -1.
         23    2    1    2    0    0  0.15831182611E+02 -0.21698355891E+03 -0.90090344088E+03  0.93131049941E+03  0.91540949008E+02 0.  0.
          5    1    1    2  502    0 -0.11467054264E+02  0.80908594294E+02 -0.69309567769E+02  0.10723330895E+03  0.41800000000E+01 0.  1.
         -5    1    1    2    0  502 -0.43641283473E+01  0.13607496461E+03 -0.43909465991E+03  0.45973583107E+03  0.41800000000E+01 0.  1.
        -11    1    3    3    0    0  0.35866710802E+02 -0.21214334225E+03 -0.80872085873E+03  0.83685162720E+03  0.00000000000E+00 0.  1.
         11    1    3    3    0    0 -0.20035528190E+02 -0.48402166534E+01 -0.92182582151E+02  0.94458872209E+02  0.00000000000E+00 0. -1.
</event>
<event>
 7    1  0.5137842E-006  0.1031727E+03  0.7561462E-02  0.1273762E+00
         -3   -1    0    0    0  501 -0.00000000000E+00  0.00000000000E+00  0.19951695156E+03  0.19951695156E+03  0.00000000000E+00 0. -1.
          3   -1    0    0  501    0  0.00000000000E+00 -0.00000000000E+00 -0.82652096234E+02  0.82652096234E+02  0.00000000000E+00 0.  1.
         23    2    1    2    0    0 -0.35774019482E+02  0.34499939842E+02 -0.98506870761E+00  0.10326291121E+03  0.90510950457E+02 0.  0.
          5    1    1    2  502    0  0.58845427073E+02 -0.59343652796E+02  0.11810570822E+03  0.14474420240E+03  0.41800000000E+01 0. -1.
         -5    1    1    2    0  502 -0.23071407591E+02  0.24843712954E+02 -0.25578418437E+00  0.34161934183E+02  0.41800000000E+01 0. -1.
        -11    1    3    3    0    0 -0.37141629411E+02 -0.14217830857E+02 -0.26949791850E+02  0.48041009880E+02  0.00000000000E+00 0.  1.
         11    1    3    3    0    0  0.13676099289E+01  0.48717770699E+02  0.25964723142E+02  0.55221901331E+02  0.00000000000E+00 0. -1.
</event>
<event>
 7    1  0.5137842E-006  0.9169664E+02  0.7561462E-02  0.1298794E+00
          4   -1    0    0  501    0  0.00000000000E+00  0.00000000000E+00  0.11209603980E+03  0.11209603980E+03  0.00000000000E+00 0. -1.
         -4   -1    0    0    0  501 -0.00000000000E+00 -0.00000000000E+00 -0.44286670294E+03  0.44286670294E+03  0.00000000000E+00 0.  1.
         23    2    1    2    0    0  0.31699869292E+02 -0.46262819252E+02  0.72381419881E+02  0.12914094979E+03  0.91066924895E+02 0.  0.
          5    1    1    2  502    0 -0.30608875079E+02  0.68514036198E+02 -0.11886343019E+03  0.14063094904E+03  0.41800000000E+01 0.  1.
         -5    1    1    2    0  502 -0.10909942137E+01 -0.22251216946E+02 -0.28428865283E+03  0.28519084392E+03  0.41800000000E+01 0.  1.
        -11    1    3    3    0    0 -0.12625196436E+02  0.84223770643E+01  0.54414265291E+02  0.56491099189E+02  0.00000000000E+00 0. -1.
         11    1    3    3    0    0  0.44325065728E+02 -0.54685196317E+02  0.17967154590E+02  0.72649850599E+02  0.00000000000E+00 0.  1.
</event>
<event>
 7    1  0.5137842E-006  0.1198509E+03  0.7561462E-02  0.1243343E+00
         -2   -1    0    0    0  501 -0.00000000000E+00  0.00000000000E+00  0.22442560165E+02  0.22442560165E+02  0.00000000000E+00 0.  1.
          2   -1    0    0  501    0  0.00000000000E+00 -0.00000000000E+00 -0.70611334059E+03  0.70611334059E+03  0.00000000000E+00 0. -1.
         23    2    1    2    0    0  0.56143770246E+02 -0.27525812950E+02 -0.29483634339E+03  0.31533735260E+03  0.92732859573E+02 0.  0.
          5    1    1    2  502    0  0.51472938338E+00  0.63103029912E+02 -0.11441596462E+03  0.13073156731E+03  0.41800000000E+01 0. -1.
         -5    1    1    2    0  502 -0.56658499629E+02 -0.35577216962E+02 -0.27441847241E+03  0.28248698085E+03  0.41800000000E+01 0. -1.
        -11    1    3    3    0    0 -0.24845512850E+02 -0.47589504704E+01 -0.43814922939E+02  0.50593424380E+02  0.00000000000E+00 0.  1.
         11    1    3    3    0    0  0.80989283096E+02 -0.22766862480E+02 -0.25102142045E+03  0.26474392822E+03  0.00000000000E+00 0. -1.
</event>
<event>
 7    1  0.5137842E-006  0.1022097E+03  0.7561462E-02  0.1275717E+00
         -1   -1    0    0    0  501 -0.00000000000E+00  0.00000000000E+00  0.36561646514E+02  0.36561646514E+02  0.00000000000E+00 0. -1.
          1   -1    0    0  501    0  0.00000000000E+00 -0.00000000000E+00 -0.38938824072E+03  0.38938824072E+03  0.00000000000E+00 0.  1.
         23    2    1    2    0    0 -0.28420138131E+02  0.27394703015E+02 -0.20792760485E+03  0.23049954992E+03  0.91312538294E+02 0.  0.
          5    1    1    2  502    0 -0.43335560263E+02 -0.26396128194E+02 -0.95514727307E+02  0.10823706343E+03  0.41800000000E+01 0. -1.
         -5    1    1    2    0  502  0.71755698394E+02 -0.99857482110E+00 -0.49384262049E+02  0.87213273886E+02  0.41800000000E+01 0. -1.
        -11    1    3    3    0    0 -0.50110260563E+02  0.48619319797E+01 -0.18497792491E+03  0.19170683164E+03  0.00000000000E+00 0.  1.
         11    1    3    3    0    0  0.21690122432E+02  0.22532771036E+02 -0.22949679942E+02  0.38792718274E+02  0.00000000000E+00 0. -1.
</event>
<event>
 7    1  0.5137842E-006  0.1145740E+03  0.7561462E-02  0.1252327E+00
          1   -1    0    0  501    0  0.00000000000E+00  0.00000000000E+00  0.31434306819E+03  0.31434306819E+03  0.00000000000E+00 0. -1.
         -1   -1    0    0    0  501 -0.00000000000E+00 -0.00000000000E+00 -0.85602794643E+02  0.85602794643E+02  0.00000000000E+00 0.  1.
         23    2    1    2    0    0  0.48899747333E+02  0.19275829211E+02  0.24030158677E+03  0.26376787774E+03  0.95215008474E+02 0.  0.
          5    1    1    2  502    0 -0.77057218413E+02 -0.43881091584E+02  0.15119038780E+02  0.90052333905E+02  0.41800000000E+01 0.  1.
         -5    1    1    2    0  502  0.28157471080E+02  0.24605262372E+02 -0.26680352011E+02  0.46125651187E+02  0.41800000000E+01 0.  1.
        -11    1    3    3    0    0 -0.15259569756E+02 -0.21767546302E+02  0.29918583581E+02  0.40022520968E+02  0.00000000000E+00 0.  1.
         11    1    3    3    0    0  0.64159317089E+02  0.41043375514E+02  0.21038300319E+03  0.22374535677E+03  0.00000000000E+00 0. -1.
</event>
<event>
 7    1  0.5137842E-006  0.1370685E+03  0.7561462E-02  0.1217329E+00
         -2   -1    0    0    0  501 -0.00000000000E+00  0.00000000000E+00  0.49662480075E+03  0.49662480075E+03  0.00000000000E+00 0.  1.
          2   -1    0    0  501    0  0.00000000000E+00 -0.00000000000E+00 -0.57621760871E+02  0.57621760871E+02  0.00000000000E+00 0. -1.
         23    2    1    2    0    0  0.44165692167E+02  0.44494244812E+02  0.67177729401E+02  0.12570756280E+03  0.85785767073E+02 0.  0.
          5    1    1    2  502    0 -0.56707018188E+02 -0.10153681252E+03  0.10961296884E+03  0.15986833816E+03  0.41800000000E+01 0. -1.
         -5    1    1    2    0  502  0.12541326021E+02  0.57042567712E+02  0.26221234163E+03  0.26867066065E+03  0.41800000000E+01 0.  1.
        -11    1    3    3    0    0 -0.33056273210E+01  0.51164384518E+02  0.57065426770E+02  0.76714955175E+02  0.00000000000E+00 0.  1.
         11    1    3    3    0    0  0.47471319488E+02 -0.66701397059E+01  0.10112302631E+02  0.48992607628E+02  0.00000000000E+00 0. -1.
</event>
<event>
 7    1  0.5137842E-006  0.1668353E+03  0.7561462E-02  0.1181189E+00
         -1   -1    0    0    0  501 -0.00000000000E+00  0.00000000000E+00  0.17443786151E+03  0.17443786151E+03  0.00000000000E+00 0.  1.
          1   -1    0    0  501    0  0.00000000000E+00 -0.00000000000E+00 -0.26868259636E+03  0.26868259636E+03  0.00000000000E+00 0. -1.
         23    2    1    2    0    0  0.13671898549E+03  0.48274465928E+02 -0.16535591365E+03  0.23884831411E+03  0.93184944684E+02 0.  0.
          5    1    1    2  502    0 -0.42419351564E+01  0.20222847356E+02 -0.20327006690E+02  0.29285101503E+02  0.41800000000E+01 0. -1.
         -5    1    1    2    0  502 -0.13247705034E+03 -0.68497313284E+02  0.91438185497E+02  0.17498704226E+03  0.41800000000E+01 0. -1.
        -11    1    3    3    0    0  0.76248891711E+02  0.65497507928E+02 -0.13688571091E+03  0.16982789784E+03  0.00000000000E+00 0. -1.
         11    1    3    3    0    0  0.60470093782E+02 -0.17223042000E+02 -0.28470202743E+02  0.69020416269E+02  0.00000000000E+00 0.  1.
</event>
<event>
 7    1  0.5137842E-006  0.1345560E+03  0.7561462E-02  0.1220848E+00
          2   -1    0    0  501    0  0.00000000000E+00  0.00000000000E+00  0.20783863746E+03  0.20783863746E+03  0.00000000000E+00 0. -1.
         -2   -1    0    0    0  501 -0.00000000000E+00 -0.00000000000E+00 -0.93068781665E+02  0.93068781665E+02  0.00000000000E+00 0.  1.
         23    2    1    2    0    0  0.49120701685E+02 -0.76083651118E+02  0.24353384269E+02  0.12808028366E+03  0.87234777675E+02 0.  0.
          5    1    1    2  502    0  0.36146184619E+02  0.35987727324E+02  0.44989242199E+02  0.68140791704E+02  0.41800000000E+01 0. -1.
         -5    1    1    2    0  502 -0.85266886304E+02  0.40095923795E+02  0.45427229322E+02  0.10468634376E+03  0.41800000000E+01 0.  1.
        -11    1    3    3    0    0 -0.65120540807E+01 -0.66919422675E+02  0.15282923450E+01  0.67252893298E+02  0.00000000000E+00 0.  1.
         11    1    3    3    0    0  0.55632755766E+02 -0.91642284435E+01  0.22825091924E+02  0.60827390363E+02  0.00000000000E+00 0. -1.
</event>
<event>
 7    1  0.5137842E-006  0.1427271E+03  0.7561462E-02  0.1209706E+00
          2   -1    0    0  501    0  0.00000000000E+00  0.00000000000E+00  0.17446358631E+03  0.17446358631E+03  0.00000000000E+00 0.  1.
         -2   -1    0    0    0  501 -0.00000000000E+00 -0.00000000000E+00 -0.12595927622E+03  0.12595927622E+03  0.00000000000E+00 0. -1.
         23    2    1    2    0    0  0.67650127672E+02 -0.72590044748E+02  0.41007038906E+01  0.13469995472E+03  0.91002239858E+02 0.  0.
          5    1    1    2  502    0  0.28376065628E+02 -0.34345443642E+01 -0.11414679663E+02  0.31060658514E+02  0.41800000000E+01 0. -1.
         -5    1    1    2    0  502 -0.96026193301E+02  0.76024589112E+02  0.55818285855E+02  0.13466224929E+03  0.41800000000E+01 0. -1.
        -11    1    3    3    0    0 -0.36870207776E+01 -0.61752434598E+02  0.83285000462E+01  0.62420519174E+02  0.00000000000E+00 0.  1.
         11    1    3    3    0    0  0.71337148450E+02 -0.10837610150E+02 -0.42277961556E+01  0.72279435547E+02  0.00000000000E+00 0. -1.
</event>
<event>
 7    1  0.5137842E-006  0.1086373E+03  0.7561462E-02  0.1263114E+00
         -1   -1    0    0    0  501 -0.00000000000E+00  0.00000000000E+00  0.45847814819E+03  0.45847814819E+03  0.00000000000E+00 0.  1.
          1   -1    0    0  501    0  0.00000000000E+00 -0.00000000000E+00 -0.31497023408E+02  0.31497023408E+02  0.00000000000E+00 0. -1.
         23    2    1    2    0    0  0.37444131214E+02  0.57060934474E+02  0.14957967673E+03  0.17811601798E+03  0.68507101569E+02 0.  0.
          5    1    1    2  502    0 -0.72734616348E+02 -0.67591703640E+02  0.15635809895E+03  0.18526815788E+03  0.41800000000E+01 0.  1.
         -5    1    1    2    0  502  0.35290485134E+02  0.10530769167E+02  0.12104334910E+03  0.12659099573E+03  0.41800000000E+01 0.  1.
        -11    1    3    3    0    0  0.21201693657E+02 -0.30989528562E+00  0.94814093262E+02  0.97156163623E+02  0.00000000000E+00 0.  1.
         11    1    3    3    0    0  0.16242437557E+02  0.57370829759E+02  0.54765583472E+02  0.80959854361E+02  0.00000000000E+00 0. -1.
</event>
<event>
 7    1  0.5137842E-006  0.2536335E+03  0.7561462E-02  0.1111030E+00
          2   -1    0    0  501    0  0.00000000000E+00  0.00000000000E+00  0.54854364943E+03  0.54854364943E+03  0.00000000000E+00 0. -1.
         -2   -1    0    0    0  501 -0.00000000000E+00 -0.00000000000E+00 -0.13863828381E+03  0.13863828381E+03  0.00000000000E+00 0.  1.
         23    2    1    2    0    0  0.19904828021E+03  0.14330669717E+03  0.28156336510E+03  0.38340940664E+03  0.86993202160E+02 0.  0.
          5    1    1    2  502    0 -0.76509125073E+02 -0.21600386426E+02  0.10141246023E+03  0.12892704295E+03  0.41800000000E+01 0.  1.
         -5    1    1    2    0  502 -0.12253915514E+03 -0.12170631074E+03  0.26929540282E+02  0.17484548366E+03  0.41800000000E+01 0.  1.
        -11    1    3    3    0    0  0.13015895219E+02 -0.78478728847E+01  0.22824186456E+01  0.15369192303E+02  0.00000000000E+00 0.  1.
         11    1    3    3    0    0  0.18603238499E+03  0.15115457005E+03  0.27928094646E+03  0.36804021433E+03  0.00000000000E+00 0. -1.
</event>
<event>
 7    1  0.5137842E-006  0.1583460E+03  0.7561462E-02  0.1190577E+00
          2   -1    0    0  501    0  0.00000000000E+00  0.00000000000E+00  0.94878310396E+02  0.94878310396E+02  0.00000000000E+00 0. -1.
         -2   -1    0    0    0  501 -0.00000000000E+00 -0.00000000000E+00 -0.36218516434E+03  0.36218516434E+03  0.00000000000E+00 0.  1.
         23    2    1    2    0    0 -0.33782668007E+02 -0.13501243328E+03 -0.57747595629E+02  0.17610392960E+03  0.91149237091E+02 0.  0.
          5    1    1    2  502    0  0.23486356314E+02  0.14117766039E+03 -0.10990280472E+03  0.18049609306E+03  0.41800000000E+01 0. -1.
         -5    1    1    2    0  502  0.10296311693E+02 -0.61652271095E+01 -0.99656453596E+02  0.10046345208E+03  0.41800000000E+01 0. -1.
        -11    1    3    3    0    0 -0.20360971654E+02 -0.14349176565E+03 -0.64770613340E+02  0.15874409699E+03  0.00000000000E+00 0.  1.
         11    1    3    3    0    0 -0.13421696353E+02  0.84793323739E+01  0.70230177111E+01  0.17359832611E+02  0.00000000000E+00 0. -1.
</event>
<event>
 7    1  0.5137842E-006  0.1792658E+03  0.7561462E-02  0.1168516E+00
          1   -1    0    0  501    0  0.00000000000E+00  0.00000000000E+00  0.10753140231E+03  0.10753140231E+03  0.00000000000E+00 0. -1.
         -1   -1    0    0    0  501 -0.00000000000E+00 -0.00000000000E+00 -0.34624548909E+03  0.34624548909E+03  0.00000000000E+00 0.  1.
         23    2    1    2    0    0 -0.15655571172E+03 -0.27295754711E+01 -0.78995129149E+02  0.19750379046E+03  0.90831576900E+02 0.  0.
          5    1    1    2  502    0  0.14054792487E+03  0.43491436445E+02 -0.15205149506E+03  0.21161841550E+03  0.41800000000E+01 0.  1.
         -5    1    1    2    0  502  0.16007786849E+02 -0.40761860974E+02 -0.76674625750E+01  0.44654685445E+02  0.41800000000E+01 0.  1.
        -11    1    3    3    0    0 -0.22832102124E+02  0.21609700674E+02 -0.49151997274E+02  0.58345547274E+02  0.00000000000E+00 0.  1.
         11    1    3    3    0    0 -0.13372360959E+03 -0.24339276145E+02 -0.29843131875E+02  0.13915824319E+03  0.00000000000E+00 0. -1.
</event>
<event>
 7    1  0.5137842E-006  0.9224180E+02  0.7561462E-02  0.1297512E+00
          1   -1    0    0  501    0  0.00000000000E+00  0.00000000000E+00  0.48422597264E+03  0.48422597264E+03  0.00000000000E+00 0. -1.
         -1   -1    0    0    0  501 -0.00000000000E+00 -0.00000000000E+00 -0.30633942040E+02  0.30633942040E+02  0.00000000000E+00 0.  1.
         23    2    1    2    0    0 -0.57840796345E+02  0.20624992816E+01  0.28569379576E+03  0.30183732721E+03  0.78326340003E+02 0.  0.
          5    1    1    2  502    0 -0.17142703664E+02  0.83347908573E+00  0.12549062377E+03  0.12672780291E+03  0.41800000000E+01 0. -1.
         -5    1    1    2    0  502  0.74983500009E+02 -0.28959783673E+01  0.42407611064E+02  0.86294784549E+02  0.41800000000E+01 0.  1.
        -11    1    3    3    0    0 -0.52541742770E+02 -0.29094148971E+02  0.13336495933E+03  0.14626454326E+03  0.00000000000E+00 0.  1.
         11    1    3    3    0    0 -0.52990535747E+01  0.31156648253E+02  0.15232883643E+03  0.15557278395E+03  0.00000000000E+00 0. -1.
</event>
<event>
 7    1  0.5137842E-006  0.1103069E+03  0.7561462E-02  0.1260003E+00
         -4   -1    0    0    0  501 -0.00000000000E+00  0.00000000000E+00  0.33962268072E+02  0.33962268072E+02  0.00000000000E+00 0.  1.
          4   -1    0    0  501    0  0.00000000000E+00 -0.00000000000E+00 -0.47944585741E+03  0.47944585741E+03  0.00000000000E+00 0. -1.
         23    2    1    2    0    0 -0.50742581287E+02 -0.31247809759E+02 -0.25532825341E+03  0.27812713927E+03  0.92795223143E+02 0.  0.
          5    1    1    2  502    0  0.56067755336E+02 -0.37524134667E+02 -0.11325325138E+03  0.13189171778E+03  0.41800000000E+01 0. -1.
         -5    1    1    2    0  502 -0.53251740493E+01  0.68771944426E+02 -0.76902084544E+02  0.10338926843E+03  0.41800000000E+01 0. -1.
        -11    1    3    3    0    0 -0.10272156058E+02  0.17661817276E+02 -0.66694516637E+01  0.21492756107E+02  0.00000000000E+00 0.  1.
         11    1    3    3    0    0 -0.40470425229E+02 -0.48909627035E+02 -0.24865880175E+03  0.25663438317E+03  0.00000000000E+00 0. -1.
</event>
<event>
 7    1  0.5137842E-006  0.1483215E+03  0.7561462E-02  0.1202551E+00
         -3   -1    0    0    0  501 -0.00000000000E+00  0.00000000000E+00  0.13162034949E+03  0.13162034949E+03  0.00000000000E+00 0.  1.
          3   -1    0    0  501    0  0.00000000000E+00 -0.00000000000E+00 -0.31267179754E+03  0.31267179754E+03  0.00000000000E+00 0. -1.
         23    2    1    2    0    0 -0.52580696180E+02 -0.12252322163E+03 -0.20353803718E+03  0.26009249736E+03  0.91889635734E+02 0.  0.
          5    1    1    2  502    0  0.34234733520E+02  0.50401886735E+02 -0.50972491586E+02  0.79548943828E+02  0.41800000000E+01 0. -1.
         -5    1    1    2    0  502  0.18345962660E+02  0.72121334893E+02  0.73459080718E+02  0.10465070584E+03  0.41800000000E+01 0. -1.
        -11    1    3    3    0    0  0.25398403253E+02 -0.20594895146E+02 -0.30993656766E+02  0.45053694118E+02  0.00000000000E+00 0.  1.
         11    1    3    3    0    0 -0.77979099433E+02 -0.10192832648E+03 -0.17254438042E+03  0.21503880325E+03  0.00000000000E+00 0. -1.
</event>
<event>
 7    1  0.5137842E-006  0.1277992E+03  0.7561462E-02  0.1230758E+00
         -4   -1    0    0    0  501 -0.00000000000E+00  0.00000000000E+00  0.10273559494E+04  0.10273559494E+04  0.00000000000E+00 0.  1.
          4   -1    0    0  501    0  0.00000000000E+00 -0.00000000000E+00 -0.25982099998E+02  0.25982099998E+02  0.00000000000E+00 0. -1.
         23    2    1    2    0    0  0.50535032071E+02 -0.54982608480E+02  0.15732385121E+03  0.19680746530E+03  0.91681555058E+02 0.  0.
          5    1    1    2  502    0 -0.61370652805E+02 -0.20119085928E+02  0.50107050992E+03  0.50523287992E+03  0.41800000000E+01 0.  1.
         -5    1    1    2    0  502  0.10835620734E+02  0.75101694407E+02  0.34297948823E+03  0.35129770413E+03  0.41800000000E+01 0.  1.
        -11    1    3    3    0    0  0.67760756417E+02 -0.65874797267E+02  0.10841507156E+03  0.14382224016E+03  0.00000000000E+00 0. -1.
         11    1    3    3    0    0 -0.17225724346E+02  0.10892188788E+02  0.48908779656E+02  0.52985225141E+02  0.00000000000E+00 0.  1.
</event>
<event>
 7    1  0.5137842E-006  0.1231233E+03  0.7561462E-02  0.1238032E+00
         -2   -1    0    0    0  501 -0.00000000000E+00  0.00000000000E+00  0.31909345994E+03  0.31909345994E+03  0.00000000000E+00 0.  1.
          2   -1    0    0  501    0  0.00000000000E+00 -0.00000000000E+00 -0.74840563079E+02  0.74840563079E+02  0.00000000000E+00 0. -1.
         23    2    1    2    0    0  0.10088279373E+03 -0.43367421423E+02  0.10614403485E+03  0.17764296719E+03  0.90732553940E+02 0.  0.
          5    1    1    2  502    0 -0.14209031205E+02  0.12692862224E+02 -0.23360464377E+02  0.30433353662E+02  0.41800000000E+01 0. -1.
         -5    1    1    2    0  502 -0.86673762526E+02  0.30674559199E+02  0.16146932639E+03  0.18585770217E+03  0.41800000000E+01 0. -1.
        -11    1    3    3    0    0  0.11381799827E+03 -0.34184008078E+02  0.10930883951E+03  0.16146673197E+03  0.00000000000E+00 0.  1.
         11    1    3    3    0    0 -0.12935204544E+02 -0.91834133443E+01 -0.31648046539E+01  0.16176235215E+02  0.00000000000E+00 0. -1.
</event>
<event>
 7    1  0.5137842E-006  0.3539405E+03  0.7561462E-02  0.1061009E+00
          1   -1    0    0  501    0  0.00000000000E+00  0.00000000000E+00  0.50466614408E+03  0.50466614408E+03  0.00000000000E+00 0. -1.
         -1   -1    0    0    0  501 -0.00000000000E+00 -0.00000000000E+00 -0.31916633217E+03  0.31916633217E+03  0.00000000000E+00 0.  1.
         23    2    1    2    0    0  0.10171402032E+03 -0.32887687229E+03  0.27179965738E+03  0.44753648477E+03  0.88927568236E+02 0.  0.
          5    1    1    2  502    0 -0.11511456545E+03  0.30619292968E+03 -0.49534591384E+02  0.33087251549E+03  0.41800000000E+01 0. -1.
         -5    1    1    2    0  502  0.13400545131E+02  0.22683942608E+02 -0.36765254085E+02  0.45423475979E+02  0.41800000000E+01 0. -1.
        -11    1    3    3    0    0  0.53285708746E+01 -0.15631385844E+03  0.14049691910E+03  0.21024224191E+03  0.00000000000E+00 0. -1.
         11    1    3    3    0    0  0.96385449448E+02 -0.17256301385E+03  0.13130273828E+03  0.23729424286E+03  0.00000000000E+00 0.  1.
</event>
<event>
 7    1  0.5137842E-006  0.1209394E+03  0.7561462E-02  0.1241555E+00
         -1   -1    0    0    0  501 -0.00000000000E+00  0.00000000000E+00  0.46158584873E+02  0.46158584873E+02  0.00000000000E+00 0.  1.
          1   -1    0    0  501    0  0.00000000000E+00 -0.00000000000E+00 -0.32434580929E+03  0.32434580929E+03  0.00000000000E+00 0. -1.
         23    2    1    2    0    0  0.52006022361E+02 -0.17075159492E+02 -0.14438417013E+03  0.17933099835E+03  0.91195564319E+02 0.  0.
          5    1    1    2  502    0 -0.92847486611E+02  0.67643743756E+01 -0.80778842880E+02  0.12332520581E+03  0.41800000000E+01 0. -1.
         -5    1    1    2    0  502  0.40841464250E+02  0.10310785117E+02 -0.53024211416E+02  0.67848190013E+02  0.41800000000E+01 0. -1.
        -11    1    3    3    0    0  0.73707770958E+02  0.68919354215E+01 -0.10048468637E+03  0.12480988130E+03  0.00000000000E+00 0.  1.
         11    1    3    3    0    0 -0.21701748596E+02 -0.23967094914E+02 -0.43899483752E+02  0.54521117051E+02  0.00000000000E+00 0. -1.
</event>
<event>
 7    1  0.5137842E-006  0.3055339E+03  0.7561462E-02  0.1082507E+00
          2   -1    0    0  501    0  0.00000000000E+00  0.00000000000E+00  0.44254189959E+03  0.44254189959E+03  0.00000000000E+00 0. -1.
         -2   -1    0    0    0  501 -0.00000000000E+00 -0.00000000000E+00 -0.22284934868E+03  0.22284934868E+03  0.00000000000E+00 0.  1.
         23    2    1    2    0    0 -0.21274099521E+03 -0.19946052943E+03  0.15119346877E+03  0.34076473153E+03  0.90652652562E+02 0.  0.
          5    1    1    2  502    0 -0.12629034966E+02  0.31873471559E+02 -0.33520991023E+01  0.34700427688E+02  0.41800000000E+01 0.  1.
         -5    1    1    2    0  502  0.22537003017E+03  0.16758705787E+03  0.71851181244E+02  0.28992608905E+03  0.41800000000E+01 0.  1.
        -11    1    3    3    0    0 -0.10048503990E+03 -0.61595414995E+02  0.10309088579E+03  0.15658534134E+03  0.00000000000E+00 0.  1.
         11    1    3    3    0    0 -0.11225595531E+03 -0.13786511443E+03  0.48102582978E+02  0.18417939019E+03  0.00000000000E+00 0. -1.
</event>
<event>
 7    1  0.5137842E-006  0.1384392E+03  0.7561462E-02  0.1215445E+00
          2   -1    0    0  501    0  0.00000000000E+00  0.00000000000E+00  0.19500282562E+03  0.19500282562E+03  0.00000000000E+00 0. -1.
         -2   -1    0    0    0  501 -0.00000000000E+00 -0.00000000000E+00 -0.10346622183E+03  0.10346622183E+03  0.00000000000E+00 0.  1.
         23    2    1    2    0    0 -0.49426789202E+02  0.75436432044E+02  0.34011212564E+02  0.13387047492E+03  0.92902522604E+02 0.  0.
          5    1    1    2  502    0  0.87845174195E+02 -0.59689524510E+02  0.19337615561E+02  0.10803254020E+03  0.41800000000E+01 0. -1.
         -5    1    1    2    0  502 -0.38418384993E+02 -0.15746907534E+02  0.38187775667E+02  0.56566032323E+02  0.41800000000E+01 0. -1.
        -11    1    3    3    0    0 -0.64849535580E+02  0.15100429233E+02  0.11042581374E+02  0.67493879955E+02  0.00000000000E+00 0. -1.
         11    1    3    3    0    0  0.15422746378E+02  0.60336002811E+02  0.22968631190E+02  0.66376594970E+02  0.00000000000E+00 0.  1.
</event>
<event>
 7    1  0.5137842E-006  0.1584704E+03  0.7561462E-02  0.1190435E+00
          2   -1    0    0  501    0  0.00000000000E+00  0.00000000000E+00  0.16569854610E+03  0.16569854610E+03  0.00000000000E+00 0. -1.
         -2   -1    0    0    0  501 -0.00000000000E+00 -0.00000000000E+00 -0.20475886184E+03  0.20475886184E+03  0.00000000000E+00 0.  1.
         23    2    1    2    0    0  0.53619959558E+02  0.12024080668E+03  0.49372623507E+02  0.16846514123E+03  0.92789526372E+02 0.  0.
          5    1    1    2  502    0 -0.58423118319E+02 -0.13225962127E+03 -0.37718866476E+02  0.14948596409E+03  0.41800000000E+01 0. -1.
         -5    1    1    2    0  502  0.48031587612E+01  0.12018814593E+02 -0.50714072768E+02  0.52506302622E+02  0.41800000000E+01 0. -1.
        -11    1    3    3    0    0  0.41646429074E+02  0.13407508486E+03  0.52527394523E+02  0.14989890130E+03  0.00000000000E+00 0.  1.
         11    1    3    3    0    0  0.11973530484E+02 -0.13834278183E+02 -0.31547710157E+01  0.18566239933E+02  0.00000000000E+00 0. -1.
</event>
<event>
 7    1  0.5137842E-006  0.1186369E+03  0.7561462E-02  0.1245363E+00
         -2   -1    0    0    0  501 -0.00000000000E+00  0.00000000000E+00  0.91664255121E+02  0.91664255121E+02  0.00000000000E+00 0.  1.
          2   -1    0    0  501    0  0.00000000000E+00 -0.00000000000E+00 -0.15543963158E+03  0.15543963158E+03  0.00000000000E+00 0. -1.
         23    2    1    2    0    0 -0.20623866143E+02  0.38397333284E+02 -0.28838368092E+02  0.11010897581E+03  0.96915612886E+02 0.  0.
          5    1    1    2  502    0  0.16009911187E+02 -0.83884863233E+02 -0.14424923374E+02  0.86709505535E+02  0.41800000000E+01 0.  1.
         -5    1    1    2    0  502  0.46139549561E+01  0.45487529949E+02 -0.20512084991E+02  0.50285405356E+02  0.41800000000E+01 0.  1.
        -11    1    3    3    0    0 -0.26253570173E+02 -0.28487240203E+02 -0.15207568033E+02  0.41617819822E+02  0.00000000000E+00 0.  1.
         11    1    3    3    0    0  0.56297040301E+01  0.66884573487E+02 -0.13630800059E+02  0.68491155985E+02  0.00000000000E+00 0. -1.
</event>
<event>
 7    1  0.5137842E-006  0.7487550E+02  0.7561462E-02  0.1344257E+00
          1   -1    0    0  501    0  0.00000000000E+00  0.00000000000E+00  0.48755627323E+02  0.48755627323E+02  0.00000000000E+00 0. -1.
         -1   -1    0    0    0  501 -0.00000000000E+00 -0.00000000000E+00 -0.27048134665E+03  0.27048134665E+03  0.00000000000E+00 0.  1.
         23    2    1    2    0    0  0.45276209234E+02 -0.15298406791E+02 -0.80044776910E+02  0.12429467274E+03  0.82207195476E+02 0.  0.
          5    1    1    2  502    0  0.82562570020E+00  0.61697513401E+01  0.22709248716E+02  0.23915055230E+02  0.41800000000E+01 0.  1.
         -5    1    1    2    0  502 -0.46101834934E+02  0.91286554507E+01 -0.16439019113E+03  0.17102724600E+03  0.41800000000E+01 0.  1.
        -11    1    3    3    0    0 -0.21208908439E+02 -0.19010535868E+02 -0.22852569957E+02  0.36516547274E+02  0.00000000000E+00 0. -1.
         11    1    3    3    0    0  0.66485117673E+02  0.37121290768E+01 -0.57192206953E+02  0.87778125467E+02  0.00000000000E+00 0.  1.
</event>
<event>
 7    1  0.5137842E-006  0.1724194E+03  0.7561462E-02  0.1175348E+00
         -1   -1    0    0    0  501 -0.00000000000E+00  0.00000000000E+00  0.45700430285E+03  0.45700430285E+03  0.00000000000E+00 0.  1.
          1   -1    0    0  501    0  0.00000000000E+00 -0.00000000000E+00 -0.67943310632E+02  0.67943310632E+02  0.00000000000E+00 0. -1.
         23    2    1    2    0    0  0.53087465348E+02  0.12707914471E+03  0.20338876332E+03  0.26209944754E+03  0.91442568622E+02 0.  0.
          5    1    1    2  502    0  0.39690022642E+02 -0.28647794330E+02  0.34972996024E+02  0.60304036914E+02  0.41800000000E+01 0.  1.
         -5    1    1    2    0  502 -0.92777487990E+02 -0.98431350383E+02  0.15069923288E+03  0.20254412903E+03  0.41800000000E+01 0.  1.
        -11    1    3    3    0    0  0.50835136583E+02  0.13912862293E+03  0.20088000628E+03  0.24958718267E+03  0.00000000000E+00 0.  1.
         11    1    3    3    0    0  0.22523287649E+01 -0.12049478217E+02  0.25087570369E+01  0.12512264865E+02  0.00000000000E+00 0. -1.
</event>
<event>
 7    1  0.5137842E-006  0.8626094E+02  0.7561462E-02  0.1312168E+00
         -1   -1    0    0    0  501 -0.00000000000E+00  0.00000000000E+00  0.14870607037E+03  0.14870607037E+03  0.00000000000E+00 0.  1.
          1   -1    0    0  501    0  0.00000000000E+00 -0.00000000000E+00 -0.10462636166E+03  0.10462636166E+03  0.00000000000E+00 0. -1.
         23    2    1    2    0    0  0.30183082866E+02 -0.49404105168E+02 -0.10649387293E+02  0.10498706862E+03  0.86931530700E+02 0.  0.
          5    1    1    2  502    0 -0.36981131168E+01 -0.16242032003E+02 -0.31999977797E+02  0.36317359805E+02  0.41800000000E+01 0.  1.
         -5    1    1    2    0  502 -0.26484969749E+02  0.65646137171E+02  0.86729073806E+02  0.11202800360E+03  0.41800000000E+01 0.  1.
        -11    1    3    3    0    0  0.49165006451E+02 -0.31833104964E+02  0.22670909540E+02  0.62805370553E+02  0.00000000000E+00 0.  1.
         11    1    3    3    0    0 -0.18981923585E+02 -0.17571000204E+02 -0.33320296833E+02  0.42181698071E+02  0.00000000000E+00 0. -1.
</event>
<event>
 7    1  0.5137842E-006  0.1664392E+03  0.7561462E-02  0.1181613E+00
         -4   -1    0    0    0  501 -0.00000000000E+00  0.00000000000E+00  0.86278039960E+03  0.86278039960E+03  0.00000000000E+00 0.  1.
          4   -1    0    0  501    0  0.00000000000E+00 -0.00000000000E+00 -0.41457220271E+02  0.41457220271E+02  0.00000000000E+00 0. -1.
         23    2    1    2    0    0 -0.41065214431E+02  0.12890749241E+03  0.21371765704E+03  0.26930826013E+03  0.92456522804E+02 0.  0.
          5    1    1    2  502    0  0.62948799397E+01 -0.13495845184E+03  0.35548486050E+03  0.38031614176E+03  0.41800000000E+01 0. -1.
         -5    1    1    2    0  502  0.34770334491E+02  0.60509594297E+01  0.25212066178E+03  0.25461321798E+03  0.41800000000E+01 0. -1.
        -11    1    3    3    0    0  0.28194749968E+02  0.47975914458E+02  0.55658826353E+02  0.78705382566E+02  0.00000000000E+00 0. -1.
         11    1    3    3    0    0 -0.69259964399E+02  0.80931577949E+02  0.15805883069E+03  0.19060287756E+03  0.00000000000E+00 0.  1.
</event>
<event>
 7    1  0.5137842E-006  0.1795405E+03  0.7561462E-02  0.1168249E+00
         -1   -1    0    0    0  501 -0.00000000000E+00  0.00000000000E+00  0.35940968215E+03  0.35940968215E+03  0.00000000000E+00 0.  1.
          1   -1    0    0  501    0  0.00000000000E+00 -0.00000000000E+00 -0.12724228045E+03  0.12724228045E+03  0.00000000000E+00 0. -1.
         23    2    1    2    0    0 -0.11817776523E+03 -0.10081491310E+03 -0.48215984090E+00  0.18020948366E+03  0.91354226080E+02 0.  0.
          5    1    1    2  502    0  0.12925654496E+03  0.49804425403E+02  0.20437550476E+03  0.24693026252E+03  0.41800000000E+01 0. -1.
         -5    1    1    2    0  502 -0.11078779729E+02  0.51010487702E+02  0.28274056788E+02  0.59512216419E+02  0.41800000000E+01 0. -1.
        -11    1    3    3    0    0 -0.66486467443E+02 -0.15326706460E+02  0.31724899459E+02  0.75245116318E+02  0.00000000000E+00 0.  1.
         11    1    3    3    0    0 -0.51691297787E+02 -0.85488206645E+02 -0.32207059300E+02  0.10496436734E+03  0.00000000000E+00 0. -1.
</event>
<event>
 7    1  0.5137842E-006  0.1149478E+03  0.7561462E-02  0.1251672E+00
          1   -1    0    0  501    0  0.00000000000E+00  0.00000000000E+00  0.32404488503E+03  0.32404488503E+03  0.00000000000E+00 0. -1.
         -1   -1    0    0    0  501 -0.00000000000E+00 -0.00000000000E+00 -0.49787245745E+02  0.49787245745E+02  0.00000000000E+00 0.  1.
         23    2    1    2    0    0 -0.65889932255E+02  0.98692580159E+01  0.16189711046E+03  0.19300335761E+03  0.81244915208E+02 0.  0.
          5    1    1    2  502    0  0.88893744111E+02  0.15833185912E+02  0.11466357661E+03  0.14600683450E+03  0.41800000000E+01 0.  1.
         -5    1    1    2    0  502 -0.23003811856E+02 -0.25702443928E+02 -0.23030477834E+01  0.34821938672E+02  0.41800000000E+01 0.  1.
        -11    1    3    3    0    0 -0.81137913881E+02 -0.76936706344E+01  0.11953102020E+03  0.14467279781E+03  0.00000000000E+00 0.  1.
         11    1    3    3    0    0  0.15247981626E+02  0.17562928650E+02  0.42366090260E+02  0.48330559798E+02  0.00000000000E+00 0. -1.
</event>
<event>
 7    1  0.5137842E-006  0.1094389E+03  0.7561462E-02  0.1261613E+00
          2   -1    0    0  501    0  0.00000000000E+00  0.00000000000E+00  0.44458432710E+03  0.44458432710E+03  0.00000000000E+00 0. -1.
         -2   -1    0    0    0  501 -0.00000000000E+00 -0.00000000000E+00 -0.28957307291E+02  0.28957307291E+02  0.00000000000E+00 0.  1.
         23    2    1    2    0    0  0.29185513949E+02  0.35991836439E+01  0.14866979850E+03  0.17727040558E+03  0.91963793764E+02 0.  0.
          5    1    1    2  502    0 -0.22463031235E+02  0.58520849442E+02  0.16575385830E+03  0.17725995468E+03  0.41800000000E+01 0.  1.
         -5    1    1    2    0  502 -0.67224827140E+01 -0.62120033086E+02  0.10120336301E+03  0.11901127413E+03  0.41800000000E+01 0.  1.
        -11    1    3    3    0    0  0.22701709140E+01 -0.41149796473E+02  0.88334340617E+02  0.97475202785E+02  0.00000000000E+00 0.  1.
         11    1    3    3    0    0  0.26915343035E+02  0.44748980117E+02  0.60335457881E+02  0.79795202800E+02  0.00000000000E+00 0. -1.
</event>
<event>
 7    1  0.5137842E-006  0.1026342E+03  0.7561462E-02  0.1274852E+00
         -1   -1    0    0    0  501 -0.00000000000E+00  0.00000000000E+00  0.20046684574E+02  0.20046684574E+02  0.00000000000E+00 0.  1.
          1   -1    0    0  501    0  0.00000000000E+00 -0.00000000000E+00 -0.93526925386E+03  0.93526925386E+03  0.00000000000E+00 0. -1.
         23    2    1    2    0    0 -0.82429256157E+02  0.58302583331E+01 -0.40371475203E+03  0.42229092258E+03  0.92279185665E+02 0.  0.
          5    1    1    2  502    0 -0.69855958678E-01  0.94011025297E+01  0.37610007813E+01  0.10954594265E+02  0.41800000000E+01 0.  1.
         -5    1    1    2    0  502  0.82499112116E+02 -0.15231360863E+02 -0.51526881804E+03  0.52207042159E+03  0.41800000000E+01 0.  1.
        -11    1    3    3    0    0 -0.28742750612E+02 -0.33714568818E+02 -0.26142800441E+03  0.26515546261E+03  0.00000000000E+00 0. -1.
         11    1    3    3    0    0 -0.53686505545E+02  0.39544827151E+02 -0.14228674761E+03  0.15713545997E+03  0.00000000000E+00 0.  1.
</event>
<event>
 7    1  0.5137842E-006  0.1049893E+03  0.7561462E-02  0.1270141E+00
         -2   -1    0    0    0  501 -0.00000000000E+00  0.00000000000E+00  0.43467067657E+03  0.43467067657E+03  0.00000000000E+00 0.  1.
          2   -1    0    0  501    0  0.00000000000E+00 -0.00000000000E+00 -0.28222639830E+02  0.28222639830E+02  0.00000000000E+00 0. -1.
         23    2    1    2    0    0 -0.74982752384E+01 -0.15679922128E+02  0.20353014491E+03  0.22388594003E+03  0.91642294634E+02 0.  0.
          5    1    1    2  502    0  0.60403010380E+02 -0.99660903509E+01  0.66965131667E+02  0.90827572240E+02  0.41800000000E+01 0. -1.
         -5    1    1    2    0  502 -0.52904735142E+02  0.25646012479E+02  0.13595276016E+03  0.14817980413E+03  0.41800000000E+01 0. -1.
        -11    1    3    3    0    0  0.40007655289E+02 -0.12557363725E+01  0.12231463713E+03  0.12869755169E+03  0.00000000000E+00 0.  1.
         11    1    3    3    0    0 -0.47505930527E+02 -0.14424185755E+02  0.81215507781E+02  0.95188388336E+02  0.00000000000E+00 0. -1.
</event>
<event>
 7    1  0.5137842E-006  0.9180487E+02  0.7561462E-02  0.1298539E+00
         -1   -1    0    0    0  501 -0.00000000000E+00  0.00000000000E+00  0.37554102888E+02  0.37554102888E+02  0.00000000000E+00 0.  1.
          1   -1    0    0  501    0  0.00000000000E+00 -0.00000000000E+00 -0.32299142230E+03  0.32299142230E+03  0.00000000000E+00 0. -1.
         23    2    1    2    0    0  0.18191834526E+02 -0.21326316106E+01 -0.10978492531E+03  0.14413029964E+03  0.91571406504E+02 0.  0.
          5    1    1    2  502    0 -0.72691087355E+00 -0.43124817793E+02 -0.15924408860E+03  0.16503463413E+03  0.41800000000E+01 0.  1.
         -5    1    1    2    0  502 -0.17464923652E+02  0.45257449404E+02 -0.16408305509E+02  0.51380591417E+02  0.41800000000E+01 0.  1.
        -11    1    3    3    0    0  0.11217543287E+02  0.43755968638E+02 -0.68249909331E+02  0.81844170181E+02  0.00000000000E+00 0. -1.
         11    1    3    3    0    0  0.69742912383E+01 -0.45888600249E+02 -0.41535015976E+02  0.62286129461E+02  0.00000000000E+00 0.  1.
</event>
<event>
 7    1  0.5137842E-006  0.1306096E+03  0.7561462E-02  0.1226554E+00
         -1   -1    0    0    0  501 -0.00000000000E+00  0.00000000000E+00  0.54206143857E+02  0.54206143857E+02  0.00000000000E+00 0.  1.
          1   -1    0    0  501    0  0.00000000000E+00 -0.00000000000E+00 -0.44853822596E+03  0.44853822596E+03  0.00000000000E+00 0. -1.
         23    2    1    2    0    0  0.30697899125E+02 -0.10798302127E+03 -0.19709103504E+03  0.24360279762E+03  0.88852422720E+02 0.  0.
          5    1    1    2  502    0 -0.36083942590E+02  0.12523919285E+03 -0.11197494632E+03  0.17188009583E+03  0.41800000000E+01 0. -1.
         -5    1    1    2    0  502  0.53860434649E+01 -0.17256171585E+02 -0.85266100739E+02  0.87261476364E+02  0.41800000000E+01 0. -1.
        -11    1    3    3    0    0  0.12524439915E+02 -0.45372688087E+02 -0.16374342542E+03  0.17037444582E+03  0.00000000000E+00 0. -1.
         11    1    3    3    0    0  0.18173459210E+02 -0.62610333179E+02 -0.33347609621E+02  0.73228351804E+02  0.00000000000E+00 0.  1.
</event>
<event>
 7    1  0.5137842E-006  0.1380840E+03  0.7561462E-02  0.1215931E+00
          2   -1    0    0  501    0  0.00000000000E+00  0.00000000000E+00  0.96200264520E+02  0.96200264520E+02  0.00000000000E+00 0.  1.
         -2   -1    0    0    0  501 -0.00000000000E+00 -0.00000000000E+00 -0.25088444712E+03  0.25088444712E+03  0.00000000000E+00 0. -1.
         23    2    1    2    0    0  0.14886920689E+02  0.88851122022E+02 -0.16095275318E+01  0.12982549028E+03  0.93466170644E+02 0.  0.
          5    1    1    2  502    0 -0.66128562052E+02 -0.28688033351E+02 -0.93864000819E+02  0.11842260353E+03  0.41800000000E+01 0. -1.
         -5    1    1    2    0  502  0.51241641363E+02 -0.60163088671E+02 -0.59210654244E+02  0.98836617829E+02  0.41800000000E+01 0. -1.
        -11    1    3    3    0    0  0.34410645624E+02  0.57378232247E+00  0.15609375736E+02  0.37789871252E+02  0.00000000000E+00 0.  1.
         11    1    3    3    0    0 -0.19523724935E+02  0.88277339700E+02 -0.17218903268E+02  0.92035619026E+02  0.00000000000E+00 0. -1.
</event>
<event>
 7    1  0.5137842E-006  0.1732333E+03  0.7561462E-02  0.1174517E+00
          1   -1    0    0  501    0  0.00000000000E+00  0.00000000000E+00  0.59169020777E+02  0.59169020777E+02  0.00000000000E+00 0. -1.
         -1   -1    0    0    0  501 -0.00000000000E+00 -0.00000000000E+00 -0.52111540773E+03  0.52111540773E+03  0.00000000000E+00 0.  1.
         23    2    1    2    0    0  0.13107441811E+03  0.37048963807E+02 -0.25045524782E+03  0.29934249506E+03  0.91241270168E+02 0.  0.
          5    1    1    2  502    0 -0.14972500229E+03 -0.52055637378E+02 -0.16728904217E+03  0.23050045927E+03  0.41800000000E+01 0.  1.
         -5    1    1    2    0  502  0.18650584178E+02  0.15006673571E+02 -0.44202096959E+02  0.50441474180E+02  0.41800000000E+01 0.  1.
        -11    1    3    3    0    0  0.84796066629E+01 -0.24851921319E+02 -0.33368993058E+02  0.42461881966E+02  0.00000000000E+00 0.  1.
         11    1    3    3    0    0  0.12259481145E+03  0.61900885126E+02 -0.21708625477E+03  0.25688061309E+03  0.00000000000E+00 0. -1.
</event>
<event>
 7    1  0.5137842E-006  0.9476045E+02  0.7561462E-02  0.1291717E+00
          2   -1    0    0  501    0  0.00000000000E+00  0.00000000000E+00  0.20547939377E+03  0.20547939377E+03  0.00000000000E+00 0. -1.
         -2   -1    0    0    0  501 -0.00000000000E+00 -0.00000000000E+00 -0.64683949812E+02  0.64683949812E+02  0.00000000000E+00 0.  1.
         23    2    1    2    0    0  0.24516913544E+01 -0.17707972904E+02  0.97474197079E+02  0.13658245827E+03  0.93989178718E+02 0.  0.
          5    1    1    2  502    0  0.36028711027E+02 -0.25875162750E+02  0.58320930035E+02  0.73392065959E+02  0.41800000000E+01 0.  1.
         -5    1    1    2    0  502 -0.38480402381E+02  0.43583135654E+02 -0.14999683152E+02  0.60188819356E+02  0.41800000000E+01 0.  1.
        -11    1    3    3    0    0 -0.57312216018E+01  0.33921926674E+02  0.12086224567E+02  0.36463966249E+02  0.00000000000E+00 0.  1.
         11    1    3    3    0    0  0.81829129562E+01 -0.51629899578E+02  0.85387972512E+02  0.10011849202E+03  0.00000000000E+00 0. -1.
</event>
<event>
 7    1  0.5137842E-006  0.1046795E+03  0.7561462E-02  0.1270752E+00
         -2   -1    0    0    0  501 -0.00000000000E+00  0.00000000000E+00  0.44902337345E+02  0.44902337345E+02  0.00000000000E+00 0.  1.
          2   -1    0    0  501    0  0.00000000000E+00 -0.00000000000E+00 -0.40030417806E+03  0.40030417806E+03  0.00000000000E+00 0. -1.
         23    2    1    2    0    0 -0.63639770902E+02  0.38704334264E+02 -0.20284503822E+03  0.23432930850E+03  0.90642536156E+02 0.  0.
          5    1    1    2  502    0  0.13353420043E+02  0.32802998268E+02 -0.77501675575E+00  0.35671046707E+02  0.41800000000E+01 0.  1.
         -5    1    1    2    0  502  0.50286350859E+02 -0.71507332532E+02 -0.15178178573E+03  0.17520616019E+03  0.41800000000E+01 0.  1.
        -11    1    3    3    0    0 -0.45154815273E+02  0.47646058271E+02 -0.20345855102E+03  0.21378607578E+03  0.00000000000E+00 0. -1.
         11    1    3    3    0    0 -0.18484955629E+02 -0.89417240075E+01  0.61351280329E+00  0.20543232725E+02  0.00000000000E+00 0.  1.
</event>
<event>
 7    1  0.5137842E-006  0.1107767E+03  0.7561462E-02  0.1259138E+00
         -3   -1    0    0    0  501 -0.00000000000E+00  0.00000000000E+00  0.16897695100E+03  0.16897695100E+03  0.00000000000E+00 0.  1.
          3   -1    0    0  501    0  0.00000000000E+00 -0.00000000000E+00 -0.79575317089E+02  0.79575317089E+02  0.00000000000E+00 0. -1.
         23    2    1    2    0    0 -0.17883990169E+02 -0.24909609560E+02  0.12043302998E+02  0.98313864669E+02  0.92629633953E+02 0.  0.
          5    1    1    2  502    0  0.11908331179E+02 -0.50231636665E+02  0.42896869288E+02  0.67250572252E+02  0.41800000000E+01 0.  1.
         -5    1    1    2    0  502  0.59756589906E+01  0.75141246225E+02  0.34461461625E+02  0.82987831168E+02  0.41800000000E+01 0.  1.
        -11    1    3    3    0    0  0.36275660875E+02 -0.52737717782E+01 -0.76211154035E+01  0.37440855234E+02  0.00000000000E+00 0. -1.
         11    1    3    3    0    0 -0.54159651044E+02 -0.19635837782E+02  0.19664418401E+02  0.60873009435E+02  0.00000000000E+00 0.  1.
</event>
<event>
 7    1  0.5137842E-006  0.1214509E+03  0.7561462E-02  0.1240723E+00
          1   -1    0    0  501    0  0.00000000000E+00  0.00000000000E+00  0.12879524831E+03  0.12879524831E+03  0.00000000000E+00 0. -1.
         -1   -1    0    0    0  501 -0.00000000000E+00 -0.00000000000E+00 -0.16924370481E+03  0.16924370481E+03  0.00000000000E+00 0.  1.
         23    2    1    2    0    0 -0.63229407701E+02 -0.77669824522E+02 -0.18639498382E+02  0.13632057307E+03  0.90583155728E+02 0.  0.
          5    1    1    2  502    0  0.40135603378E+02  0.73750568825E+02 -0.69071525079E+02  0.10880423263E+03  0.41800000000E+01 0. -1.
         -5    1    1    2    0  502  0.23093804323E+02  0.39192556961E+01  0.47262566960E+02  0.52914147437E+02  0.41800000000E+01 0. -1.
        -11    1    3    3    0    0 -0.58093393779E+02 -0.90252040882E+00 -0.77705485546E+01  0.58617730839E+02  0.00000000000E+00 0.  1.
         11    1    3    3    0    0 -0.51360139212E+01 -0.76767304113E+02 -0.10868949827E+02  0.77702842227E+02  0.00000000000E+00 0. -1.
</event>
<event>
 7    1  0.5137842E-006  0.1195082E+03  0.7561462E-02  0.1243911E+00
         -2   -1    0    0    0  501 -0.00000000000E+00  0.00000000000E+00  0.13334810863E+03  0.13334810863E+03  0.00000000000E+00 0. -1.
          2   -1    0    0  501    0  0.00000000000E+00 -0.00000000000E+00 -0.17208931912E+03  0.17208931912E+03  0.00000000000E+00 0.  1.
         23    2    1    2    0    0 -0.77959801878E+02  0.46010077563E+02 -0.77186783950E+02  0.14631873783E+03  0.85186357343E+02 0.  0.
          5    1    1    2  502    0 -0.21282381464E+02 -0.37010995138E+02  0.41012665756E+02  0.59348670366E+02  0.41800000000E+01 0. -1.
         -5    1    1    2    0  502  0.99242183342E+02 -0.89990824255E+01 -0.25670923020E+01  0.99770019555E+02  0.41800000000E+01 0. -1.
        -11    1    3    3    0    0 -0.46126485552E+02  0.80219404225E+01  0.82563605563E+01  0.47541262995E+02  0.00000000000E+00 0. -1.
         11    1    3    3    0    0 -0.31833316326E+02  0.37988137141E+02 -0.85443144506E+02  0.98777474835E+02  0.00000000000E+00 0.  1.
</event>
<event>
 7    1  0.5137842E-006  0.2543035E+03  0.7561462E-02  0.1110615E+00
         -2   -1    0    0    0  501 -0.00000000000E+00  0.00000000000E+00  0.67122789689E+03  0.67122789689E+03  0.00000000000E+00 0.  1.
          2   -1    0    0  501    0  0.00000000000E+00 -0.00000000000E+00 -0.10690926735E+03  0.10690926735E+03  0.00000000000E+00 0. -1.
         23    2    1    2    0    0  0.23291256860E+03 -0.41918966167E+02  0.17909384740E+03  0.30904188912E+03  0.86178992307E+02 0.  0.
          5    1    1    2  502    0 -0.23446965942E+03  0.10596429890E+02  0.32304720018E+03  0.39933102993E+03  0.41800000000E+01 0. -1.
         -5    1    1    2    0  502  0.15570908200E+01  0.31322536277E+02  0.62177581953E+02  0.69764245199E+02  0.41800000000E+01 0. -1.
        -11    1    3    3    0    0  0.13819873471E+02 -0.16709412738E+02 -0.44284309907E+01  0.22131524526E+02  0.00000000000E+00 0. -1.
         11    1    3    3    0    0  0.21909269513E+03 -0.25209553428E+02  0.18352227839E+03  0.28691036459E+03  0.00000000000E+00 0.  1.
</event>
<event>
 7    1  0.5137842E-006  0.1768124E+03  0.7561462E-02  0.1170924E+00
          2   -1    0    0  501    0  0.00000000000E+00  0.00000000000E+00  0.54477318925E+02  0.54477318925E+02  0.00000000000E+00 0. -1.
         -2   -1    0    0    0  501 -0.00000000000E+00 -0.00000000000E+00 -0.81712435129E+03  0.81712435129E+03  0.00000000000E+00 0.  1.
         23    2    1    2    0    0  0.13546381646E+03 -0.89187357036E+02 -0.20958792441E+03  0.28183346914E+03  0.95907121972E+02 0.  0.
          5    1    1    2  502    0 -0.67649254313E+02 -0.80757008569E+01 -0.97536069145E+02  0.11904787162E+03  0.41800000000E+01 0. -1.
         -5    1    1    2    0  502 -0.67814562150E+02  0.97263057893E+02 -0.45552303881E+03  0.47072032945E+03  0.41800000000E+01 0. -1.
        -11    1    3    3    0    0  0.92978062429E+02 -0.81304228567E+02 -0.20370388275E+03  0.23822378035E+03  0.00000000000E+00 0.  1.
         11    1    3    3    0    0  0.42485754035E+02 -0.78831284691E+01 -0.58840416561E+01  0.43609688792E+02  0.00000000000E+00 0. -1.
</event>
<event>
 7    1  0.5137842E-006  0.1864906E+03  0.7561462E-02  0.1161665E+00
         -1   -1    0    0    0  501 -0.00000000000E+00  0.00000000000E+00  0.17226545874E+03  0.17226545874E+03  0.00000000000E+00 0. -1.
          1   -1    0    0  501    0  0.00000000000E+00 -0.00000000000E+00 -0.25649615531E+03  0.25649615531E+03  0.00000000000E+00 0.  1.
         23    2    1    2    0    0  0.10828927476E+03 -0.11301181044E+03 -0.12985877799E+03  0.22326834509E+03  0.92126084097E+02 0.  0.
          5    1    1    2  502    0  0.13908437044E+02  0.65944880157E+02  0.25347469177E+01  0.67572695535E+02  0.41800000000E+01 0.  1.
         -5    1    1    2    0  502 -0.12219771180E+03  0.47066930285E+02  0.43093334508E+02  0.13792057343E+03  0.41800000000E+01 0.  1.
        -11    1    3    3    0    0  0.26722221538E+02 -0.83544186232E+02 -0.96342987685E+02  0.13029074968E+03  0.00000000000E+00 0.  1.
         11    1    3    3    0    0  0.81567053222E+02 -0.29467624209E+02 -0.33515790307E+02  0.92977595407E+02  0.00000000000E+00 0. -1.
</event>
<event>
 7    1  0.5137842E-006  0.1058124E+03  0.7561462E-02  0.1268527E+00
          2   -1    0    0  501    0  0.00000000000E+00  0.00000000000E+00  0.34840706123E+03  0.34840706123E+03  0.00000000000E+00 0. -1.
         -2   -1    0    0    0  501 -0.00000000000E+00 -0.00000000000E+00 -0.47648716815E+02  0.47648716815E+02  0.00000000000E+00 0.  1.
         23    2    1    2    0    0  0.13182327813E+02  0.11233827031E+02  0.24490537193E+03  0.26832743983E+03  0.10826357248E+03 0.  0.
          5    1    1    2  502    0  0.24763303507E+02 -0.50065762676E+02  0.10778365719E+02  0.57038998593E+02  0.41800000000E+01 0. -1.
         -5    1    1    2    0  502 -0.37945631320E+02  0.38831935645E+02  0.45074606763E+02  0.70689339628E+02  0.41800000000E+01 0.  1.
        -11    1    3    3    0    0 -0.17436265038E+02  0.49308378146E+02  0.17771366758E+03  0.18524979660E+03  0.00000000000E+00 0.  1.
         11    1    3    3    0    0  0.30618592851E+02 -0.38074551115E+02  0.67191704352E+02  0.83077643229E+02  0.00000000000E+00 0. -1.
</event>
<event>
 7    1  0.5137842E-006  0.2788758E+03  0.7561462E-02  0.1096305E+00
          1   -1    0    0  501    0  0.00000000000E+00  0.00000000000E+00  0.33994959940E+03  0.33994959940E+03  0.00000000000E+00 0. -1.
         -1   -1    0    0    0  501 -0.00000000000E+00 -0.00000000000E+00 -0.35211277718E+03  0.35211277718E+03  0.00000000000E+00 0.  1.
         23    2    1    2    0    0 -0.83322696239E+02  0.25341424368E+03  0.18516275952E+03  0.33745457824E+03  0.91809009685E+02 0.  0.
          5    1    1    2  502    0  0.27576667070E+02 -0.21423842141E+03 -0.10616702100E+03  0.24072283340E+03  0.41800000000E+01 0. -1.
         -5    1    1    2    0  502  0.55746029169E+02 -0.39175822267E+02 -0.91158916299E+02  0.11388496494E+03  0.41800000000E+01 0. -1.
        -11    1    3    3    0    0 -0.43228607653E+02  0.20976654337E+03  0.17655497825E+03  0.27756508351E+03  0.00000000000E+00 0.  1.
         11    1    3    3    0    0 -0.40094088586E+02  0.43647700303E+02  0.86077812676E+01  0.59889494735E+02  0.00000000000E+00 0. -1.
</event>
<event>
 7    1  0.5137842E-006  0.9706716E+02  0.7561462E-02  0.1286587E+00
          1   -1    0    0  501    0  0.00000000000E+00  0.00000000000E+00  0.64568875446E+02  0.64568875446E+02  0.00000000000E+00 0. -1.
         -1   -1    0    0    0  501 -0.00000000000E+00 -0.00000000000E+00 -0.25449926226E+03  0.25449926226E+03  0.00000000000E+00 0.  1.
         23    2    1    2    0    0  0.49821073985E+02  0.29130247442E+02 -0.38774042390E+02  0.11455217896E+03  0.91038808275E+02 0.  0.
          5    1    1    2  502    0 -0.75799468031E+02 -0.22131202437E+02 -0.15778730829E+03  0.17649265291E+03  0.41800000000E+01 0.  1.
         -5    1    1    2    0  502  0.25978394047E+02 -0.69990450042E+01  0.66309638632E+01  0.28023305836E+02  0.41800000000E+01 0.  1.
        -11    1    3    3    0    0  0.61468276139E+02  0.57816057633E+01  0.67225791224E+01  0.62104500696E+02  0.00000000000E+00 0. -1.
         11    1    3    3    0    0 -0.11647202154E+02  0.23348641678E+02 -0.45496621512E+02  0.52447678264E+02  0.00000000000E+00 0.  1.
</event>
<event>
 7    1  0.5137842E-006  0.6661356E+02  0.7561462E-02  0.1372003E+00
         -1   -1    0    0    0  501 -0.00000000000E+00  0.00000000000E+00  0.27230236651E+02  0.27230236651E+02  0.00000000000E+00 0.  1.
          1   -1    0    0  501    0  0.00000000000E+00 -0.00000000000E+00 -0.55679575872E+03  0.55679575872E+03  0.00000000000E+00 0. -1.
         23    2    1    2    0    0 -0.17037991077E+02  0.81710065287E+01 -0.39773618110E+03  0.40962366331E+03  0.96127089319E+02 0.  0.
          5    1    1    2  502    0 -0.73233971078E+01 -0.61965340302E+01 -0.14564276185E+03  0.14601820317E+03  0.41800000000E+01 0. -1.
         -5    1    1    2    0  502  0.24361388185E+02 -0.19744724984E+01  0.13813420883E+02  0.28384128883E+02  0.41800000000E+01 0.  1.
        -11    1    3    3    0    0 -0.26365336383E+02 -0.40546258461E+02 -0.19649996003E+03  0.20236443445E+03  0.00000000000E+00 0. -1.
         11    1    3    3    0    0  0.93273453056E+01  0.48717264989E+02 -0.20123622107E+03  0.20725922886E+03  0.00000000000E+00 0.  1.
</event>
<event>
 7    1  0.5137842E-006  0.1664214E+03  0.7561462E-02  0.1181632E+00
          2   -1    0    0  501    0  0.00000000000E+00  0.00000000000E+00  0.23313125777E+04  0.23313125777E+04  0.00000000000E+00 0. -1.
         -2   -1    0    0    0  501 -0.00000000000E+00 -0.00000000000E+00 -0.14378604669E+02  0.14378604669E+02  0.00000000000E+00 0.  1.
         23    2    1    2    0    0  0.80387950387E+02  0.11988241787E+03  0.90914335100E+03  0.92500326772E+03  0.90859209513E+02 0.  0.
          5    1    1    2  502    0 -0.79289720423E+02 -0.40976224285E+02  0.40259258063E+03  0.41238837169E+03  0.41800000000E+01 0.  1.
         -5    1    1    2    0  502 -0.10982299641E+01 -0.78906193590E+02  0.10051980414E+04  0.10082995429E+04  0.41800000000E+01 0.  1.
        -11    1    3    3    0    0 -0.47531000140E+01 -0.88979931330E+01  0.18431603159E+02  0.21011669057E+02  0.00000000000E+00 0.  1.
         11    1    3    3    0    0  0.85141050401E+02  0.12878041101E+03  0.89071174784E+03  0.90399159867E+03  0.00000000000E+00 0. -1.
</event>
<event>
 7    1  0.5137842E-006  0.2181484E+03  0.7561462E-02  0.1135271E+00
         -3   -1    0    0    0  501 -0.00000000000E+00  0.00000000000E+00  0.24316635401E+03  0.24316635401E+03  0.00000000000E+00 0.  1.
          3   -1    0    0  501    0  0.00000000000E+00 -0.00000000000E+00 -0.24280192727E+03  0.24280192727E+03  0.00000000000E+00 0. -1.
         23    2    1    2    0    0  0.51729858716E+01  0.19467402234E+03 -0.10479723769E+03  0.23612364268E+03  0.82747681842E+02 0.  0.
          5    1    1    2  502    0  0.29269361619E+02 -0.22427090842E+01  0.47293604344E+01  0.30026064073E+02  0.41800000000E+01 0. -1.
         -5    1    1    2    0  502 -0.34442347491E+02 -0.19243131325E+03  0.10043230399E+03  0.21981857453E+03  0.41800000000E+01 0.  1.
        -11    1    3    3    0    0 -0.25955909999E+02  0.17690491951E+02 -0.10077240302E+02  0.32988081809E+02  0.00000000000E+00 0.  1.
         11    1    3    3    0    0  0.31128895870E+02  0.17698353039E+03 -0.94719997387E+02  0.20313556087E+03  0.00000000000E+00 0. -1.
</event>
<event>
 7    1  0.5137842E-006  0.1764955E+03  0.7561462E-02  0.1171238E+00
         -2   -1    0    0    0  501 -0.00000000000E+00  0.00000000000E+00  0.34551011540E+03  0.34551011540E+03  0.00000000000E+00 0.  1.
          2   -1    0    0  501    0  0.00000000000E+00 -0.00000000000E+00 -0.10101233907E+03  0.10101233907E+03  0.00000000000E+00 0. -1.
         23    2    1    2    0    0  0.73121228442E+02 -0.12940546882E+03  0.15279460762E+03  0.23169797975E+03  0.90803481729E+02 0.  0.
          5    1    1    2  502    0 -0.56627862377E+01  0.12313921905E+03  0.76906545247E+02  0.14535275546E+03  0.41800000000E+01 0. -1.
         -5    1    1    2    0  502 -0.67458442204E+02  0.62662497694E+01  0.14796623462E+02  0.69471719258E+02  0.41800000000E+01 0. -1.
        -11    1    3    3    0    0  0.39668590893E+02 -0.12092067516E+03  0.77839000955E+02  0.14917880833E+03  0.00000000000E+00 0. -1.
         11    1    3    3    0    0  0.33452637548E+02 -0.84847936634E+01  0.74955606661E+02  0.82519171423E+02  0.00000000000E+00 0.  1.
</event>
<event>
 7    1  0.5137842E-006  0.1128027E+03  0.7561462E-02  0.1255466E+00
          1   -1    0    0  501    0  0.00000000000E+00  0.00000000000E+00  0.32921443577E+03  0.32921443577E+03  0.00000000000E+00 0. -1.
         -1   -1    0    0    0  501 -0.00000000000E+00 -0.00000000000E+00 -0.51362274598E+02  0.51362274598E+02  0.00000000000E+00 0.  1.
         23    2    1    2    0    0  0.31288532871E+02  0.29551693004E+00  0.21772812836E+03  0.23830250053E+03  0.91670520121E+02 0.  0.
          5    1    1    2  502    0 -0.17441572735E+02 -0.62499149948E+02  0.32520573357E+02  0.72700841090E+02  0.41800000000E+01 0. -1.
         -5    1    1    2    0  502 -0.13846960136E+02  0.62203633018E+02  0.27603459456E+02  0.69573368752E+02  0.41800000000E+01 0. -1.
        -11    1    3    3    0    0  0.47807882384E+02  0.34351527785E+02  0.13876891427E+03  0.15073961871E+03  0.00000000000E+00 0. -1.
         11    1    3    3    0    0 -0.16519349513E+02 -0.34056010855E+02  0.78959214089E+02  0.87562881824E+02  0.00000000000E+00 0.  1.
</event>
<event>
 7    1  0.5137842E-006  0.7803635E+02  0.7561462E-02  0.1334718E+00
          2   -1    0    0  501    0  0.00000000000E+00  0.00000000000E+00  0.16163435941E+03  0.16163435941E+03  0.00000000000E+00 0. -1.
         -2   -1    0    0    0  501 -0.00000000000E+00 -0.00000000000E+00 -0.93072611491E+02  0.93072611491E+02  0.00000000000E+00 0.  1.
         23    2    1    2    0    0 -0.27805699671E+02 -0.39197517937E+02  0.66000243820E+02  0.12067932553E+03  0.88869933490E+02 0.  0.
          5    1    1    2  502    0  0.13508094281E+02  0.45805423591E+02 -0.55724099270E+02  0.73506823362E+02  0.41800000000E+01 0. -1.
         -5    1    1    2    0  502  0.14297605390E+02 -0.66079056535E+01  0.58285603372E+02  0.60520822016E+02  0.41800000000E+01 0. -1.
        -11    1    3    3    0    0 -0.68942620763E+01  0.24157256693E+02  0.43568899886E+02  0.50292672804E+02  0.00000000000E+00 0. -1.
         11    1    3    3    0    0 -0.20911437595E+02 -0.63354774630E+02  0.22431343934E+02  0.70386652722E+02  0.00000000000E+00 0.  1.
</event>
<event>
 7    1  0.5137842E-006  0.1719209E+03  0.7561462E-02  0.1175859E+00
         -2   -1    0    0    0  501 -0.00000000000E+00  0.00000000000E+00  0.49722312066E+02  0.49722312066E+02  0.00000000000E+00 0.  1.
          2   -1    0    0  501    0  0.00000000000E+00 -0.00000000000E+00 -0.83611888226E+03  0.83611888226E+03  0.00000000000E+00 0. -1.
         23    2    1    2    0    0 -0.11500437088E+03 -0.86367763129E+02 -0.58126853312E+03  0.60582162691E+03  0.91985543441E+02 0.  0.
          5    1    1    2  502    0 -0.25248430396E+02  0.29822461363E+02 -0.44495968995E+02  0.59365192630E+02  0.41800000000E+01 0.  1.
         -5    1    1    2    0  502  0.14025280128E+03  0.56545301766E+02 -0.16063206808E+03  0.22065437479E+03  0.41800000000E+01 0.  1.
        -11    1    3    3    0    0 -0.36920970320E+02 -0.60742205683E+02 -0.14050798384E+03  0.15746512987E+03  0.00000000000E+00 0.  1.
         11    1    3    3    0    0 -0.78083400562E+02 -0.25625557446E+02 -0.44076054928E+03  0.44835649704E+03  0.00000000000E+00 0. -1.
</event>
<event>
 7    1  0.5137842E-006  0.1198861E+03  0.7561462E-02  0.1243285E+00
         -3   -1    0    0    0  501 -0.00000000000E+00  0.00000000000E+00  0.21313451039E+03  0.21313451039E+03  0.00000000000E+00 0.  1.
          3   -1    0    0  501    0  0.00000000000E+00 -0.00000000000E+00 -0.85279042471E+02  0.85279042471E+02  0.00000000000E+00 0. -1.
         23    2    1    2    0    0 -0.37120927755E+02 -0.67024140881E+02  0.30296329288E+02  0.12224495949E+03  0.90309267599E+02 0.  0.
          5    1    1    2  502    0  0.50507801584E+02  0.85593947962E+02  0.11119673244E+03  0.14919633928E+03  0.41800000000E+01 0.  1.
         -5    1    1    2    0  502 -0.13386873829E+02 -0.18569807080E+02 -0.13637593810E+02  0.26972254093E+02  0.41800000000E+01 0.  1.
        -11    1    3    3    0    0  0.28061011288E+02 -0.33601425264E+02  0.20505960590E+02  0.48342223304E+02  0.00000000000E+00 0.  1.
         11    1    3    3    0    0 -0.65181939043E+02 -0.33422715618E+02  0.97903686987E+01  0.73902736187E+02  0.00000000000E+00 0. -1.
</event>
<event>
 7    1  0.5137842E-006  0.9420843E+02  0.7561462E-02  0.1292969E+00
          1   -1    0    0  501    0  0.00000000000E+00  0.00000000000E+00  0.29681142160E+03  0.29681142160E+03  0.00000000000E+00 0. -1.
         -1   -1    0    0    0  501 -0.00000000000E+00 -0.00000000000E+00 -0.42532568924E+02  0.42532568924E+02  0.00000000000E+00 0.  1.
         23    2    1    2    0    0  0.10511209583E+02 -0.22922845090E+02  0.13570325533E+03  0.16547149385E+03  0.91266091263E+02 0.  0.
          5    1    1    2  502    0  0.40412322806E+02  0.18092221565E+01  0.11081921675E+03  0.11804575519E+03  0.41800000000E+01 0.  1.
         -5    1    1    2    0  502 -0.50923532389E+02  0.21113622933E+02  0.77563805965E+01  0.55826741480E+02  0.41800000000E+01 0.  1.
        -11    1    3    3    0    0  0.49990522217E+02 -0.15048821605E+02  0.93892315150E+02  0.10743037833E+03  0.00000000000E+00 0.  1.
         11    1    3    3    0    0 -0.39479312634E+02 -0.78740234843E+01  0.41810940180E+02  0.58041115518E+02  0.00000000000E+00 0. -1.
</event>
<event>
 7    1  0.5137842E-006  0.1173589E+03  0.7561462E-02  0.1247519E+00
         -4   -1    0    0    0  501 -0.00000000000E+00  0.00000000000E+00  0.49235368934E+02  0.49235368934E+02  0.00000000000E+00 0. -1.
          4   -1    0    0  501    0  0.00000000000E+00 -0.00000000000E+00 -0.36718867086E+03  0.36718867086E+03  0.00000000000E+00 0.  1.
         23    2    1    2    0    0  0.34842979132E+02  0.43535563517E+02 -0.22610074242E+03  0.25151587331E+03  0.95022683179E+02 0.  0.
          5    1    1    2  502    0  0.23236673779E+02 -0.64507689489E+02 -0.23267643577E+02  0.72526137697E+02  0.41800000000E+01 0.  1.
         -5    1    1    2    0  502 -0.58079652911E+02  0.20972125972E+02 -0.68584915933E+02  0.92382028791E+02  0.41800000000E+01 0.  1.
        -11    1    3    3    0    0  0.63920798813E+02  0.38510037712E+02 -0.11933376858E+03  0.14074601184E+03  0.00000000000E+00 0. -1.
         11    1    3    3    0    0 -0.29077819681E+02  0.50255258058E+01 -0.10676697384E+03  0.11076986147E+03  0.00000000000E+00 0.  1.
</event>
<event>
 7    1  0.5137842E-006  0.1818086E+03  0.7561462E-02  0.1166064E+00
          4   -1    0    0  501    0  0.00000000000E+00  0.00000000000E+00  0.11016722668E+03  0.11016722668E+03  0.00000000000E+00 0. -1.
         -4   -1    0    0    0  501 -0.00000000000E+00 -0.00000000000E+00 -0.41350036395E+03  0.41350036395E+03  0.00000000000E+00 0.  1.
         23    2    1    2    0    0  0.17330106579E+03  0.46889919392E+02 -0.19320570918E+03  0.27870217780E+03  0.90080707762E+02 0.  0.
          5    1    1    2  502    0 -0.17039736273E+03 -0.40096558793E+02 -0.13344258851E+03  0.22015311054E+03  0.41800000000E+01 0. -1.
         -5    1    1    2    0  502 -0.29037030572E+01 -0.67933605985E+01  0.23315160418E+02  0.24812302291E+02  0.41800000000E+01 0. -1.
        -11    1    3    3    0    0  0.38401178838E+02  0.47205663226E+01 -0.10548261840E+03  0.11235442611E+03  0.00000000000E+00 0.  1.
         11    1    3    3    0    0  0.13489988695E+03  0.42169353069E+02 -0.87723090774E+02  0.16634775169E+03  0.00000000000E+00 0. -1.
</event>
<event>
 7    1  0.5137842E-006  0.1301933E+03  0.7561462E-02  0.1227169E+00
          2   -1    0    0  501    0  0.00000000000E+00  0.00000000000E+00  0.87704944117E+02  0.87704944117E+02  0.00000000000E+00 0.  1.
         -2   -1    0    0    0  501 -0.00000000000E+00 -0.00000000000E+00 -0.24865546835E+03  0.24865546835E+03  0.00000000000E+00 0. -1.
         23    2    1    2    0    0 -0.31455398295E+02  0.89425358941E+02 -0.29734682316E+02  0.13178288743E+03  0.86580836127E+02 0.  0.
          5    1    1    2  502    0  0.29843609839E+02  0.26900192741E+02 -0.37732503008E+02  0.55276356618E+02  0.41800000000E+01 0. -1.
         -5    1    1    2    0  502  0.16117884561E+01 -0.11632555168E+03 -0.93483338910E+02  0.14930116841E+03  0.41800000000E+01 0. -1.
        -11    1    3    3    0    0 -0.13761437568E+01  0.64502788949E+02 -0.55403286113E+02  0.85041329164E+02  0.00000000000E+00 0. -1.
         11    1    3    3    0    0 -0.30079254539E+02  0.24922569993E+02  0.25668603798E+02  0.46741558271E+02  0.00000000000E+00 0.  1.
</event>
<event>
 7    1  0.5137842E-006  0.8205861E+02  0.7561462E-02  0.1323309E+00
         -1   -1    0    0    0  501 -0.00000000000E+00  0.00000000000E+00  0.48665001491E+02  0.48665001491E+02  0.00000000000E+00 0.  1.
          1   -1    0    0  501    0  0.00000000000E+00 -0.00000000000E+00 -0.25921998633E+03  0.25921998633E+03  0.00000000000E+00 0. -1.
         23    2    1    2    0    0  0.20173124499E+01 -0.26926018186E+02 -0.11824518949E+03  0.15008281854E+03  0.88395970386E+02 0.  0.
          5    1    1    2  502    0 -0.21509588119E+01 -0.48738743043E+02 -0.53981221526E+02  0.72880287971E+02  0.41800000000E+01 0. -1.
         -5    1    1    2    0  502  0.13364636202E+00  0.75664761229E+02 -0.38328573825E+02  0.84921881306E+02  0.41800000000E+01 0. -1.
        -11    1    3    3    0    0  0.10155439392E+02  0.10751774208E+01  0.12490939418E+02  0.16134203522E+02  0.00000000000E+00 0.  1.
         11    1    3    3    0    0 -0.81381269426E+01 -0.28001195606E+02 -0.13073612890E+03  0.13394861502E+03  0.00000000000E+00 0. -1.
</event>
<event>
 7    1  0.5137842E-006  0.9514242E+02  0.7561462E-02  0.1290856E+00
          2   -1    0    0  501    0  0.00000000000E+00  0.00000000000E+00  0.47300737061E+03  0.47300737061E+03  0.00000000000E+00 0. -1.
         -2   -1    0    0    0  501 -0.00000000000E+00 -0.00000000000E+00 -0.37060455892E+02  0.37060455892E+02  0.00000000000E+00 0.  1.
         23    2    1    2    0    0  0.30243945742E+02 -0.33400279512E+02  0.30624094372E+03  0.32432621081E+03  0.96817872750E+02 0.  0.
          5    1    1    2  502    0  0.18560221689E+02 -0.73639594796E+01  0.11946903491E+03  0.12119831860E+03  0.41800000000E+01 0. -1.
         -5    1    1    2    0  502 -0.48804167431E+02  0.40764238992E+02  0.10236936088E+02  0.64543297093E+02  0.41800000000E+01 0. -1.
        -11    1    3    3    0    0  0.99554456100E+01  0.34178770945E+02  0.11992754489E+03  0.12509962152E+03  0.00000000000E+00 0.  1.
         11    1    3    3    0    0  0.20288500132E+02 -0.67579050457E+02  0.18631339883E+03  0.19922658929E+03  0.00000000000E+00 0. -1.
</event>
<event>
 7    1  0.5137842E-006  0.6952039E+02  0.7561462E-02  0.1361732E+00
          2   -1    0    0  501    0  0.00000000000E+00  0.00000000000E+00  0.13411581392E+03  0.13411581392E+03  0.00000000000E+00 0. -1.
         -2   -1    0    0    0  501 -0.00000000000E+00 -0.00000000000E+00 -0.11054397316E+03  0.11054397316E+03  0.00000000000E+00 0.  1.
         23    2    1    2    0    0 -0.22961622736E+02  0.26789433307E+02  0.63703197696E+02  0.10863522989E+03  0.80613931314E+02 0.  0.
          5    1    1    2  502    0  0.42102136595E+02  0.14969471412E+02  0.28623679384E+02  0.53230277114E+02  0.41800000000E+01 0.  1.
         -5    1    1    2    0  502 -0.19140513859E+02 -0.41758904719E+02 -0.68755036318E+02  0.82794280075E+02  0.41800000000E+01 0.  1.
        -11    1    3    3    0    0 -0.55779094987E+01  0.29865077454E+02 -0.10666049717E+02  0.32199387297E+02  0.00000000000E+00 0.  1.
         11    1    3    3    0    0 -0.17383713237E+02 -0.30756441469E+01  0.74369247413E+02  0.76435842598E+02  0.00000000000E+00 0. -1.
</event>
<event>
 7    1  0.5137842E-006  0.1909759E+03  0.7561462E-02  0.1157584E+00
          1   -1    0    0  501    0  0.00000000000E+00  0.00000000000E+00  0.48766712712E+03  0.48766712712E+03  0.00000000000E+00 0. -1.
         -1   -1    0    0    0  501 -0.00000000000E+00 -0.00000000000E+00 -0.10677779010E+03  0.10677779010E+03  0.00000000000E+00 0.  1.
         23    2    1    2    0    0 -0.27490852415E+02 -0.45746507624E+02  0.22592716244E+03  0.25043858256E+03  0.93956963449E+02 0.  0.
          5    1    1    2  502    0 -0.12343293568E+03  0.35974632035E+02  0.14283779131E+03  0.19222375188E+03  0.41800000000E+01 0. -1.
         -5    1    1    2    0  502  0.15092378809E+03  0.97718755894E+01  0.12124383278E+02  0.15178258278E+03  0.41800000000E+01 0.  1.
        -11    1    3    3    0    0  0.92436844633E+01  0.22604146847E+02  0.96413936278E+02  0.99458736498E+02  0.00000000000E+00 0.  1.
         11    1    3    3    0    0 -0.36734536878E+02 -0.68350654471E+02  0.12951322616E+03  0.15097984606E+03  0.00000000000E+00 0. -1.
</event>
<event>
 7    1  0.5137842E-006  0.1091508E+03  0.7561462E-02  0.1262151E+00
          1   -1    0    0  501    0  0.00000000000E+00  0.00000000000E+00  0.49923605225E+02  0.49923605225E+02  0.00000000000E+00 0.  1.
         -1   -1    0    0    0  501 -0.00000000000E+00 -0.00000000000E+00 -0.70796204103E+03  0.70796204103E+03  0.00000000000E+00 0. -1.
         23    2    1    2    0    0 -0.33989205829E+01 -0.95796882351E+02 -0.75404754124E+02  0.15431449705E+03  0.94543596958E+02 0.  0.
          5    1    1    2  502    0 -0.13192359360E+02  0.50228346057E+02 -0.52733221097E+03  0.52989966807E+03  0.41800000000E+01 0.  1.
         -5    1    1    2    0  502  0.16591279942E+02  0.45568536294E+02 -0.55301470712E+02  0.73671481138E+02  0.41800000000E+01 0.  1.
        -11    1    3    3    0    0  0.28280278784E+02 -0.17988067859E+02  0.95354993917E+01  0.34846384347E+02  0.00000000000E+00 0.  1.
         11    1    3    3    0    0 -0.31679199367E+02 -0.77808814492E+02 -0.84940253516E+02  0.11946811270E+03  0.00000000000E+00 0. -1.
</event>
<event>
 7    1  0.5137842E-006  0.1100142E+03  0.7561462E-02  0.1260544E+00
         -4   -1    0    0    0  501 -0.00000000000E+00  0.00000000000E+00  0.29556380146E+03  0.29556380146E+03  0.00000000000E+00 0.  1.
          4   -1    0    0  501    0  0.00000000000E+00 -0.00000000000E+00 -0.79125917393E+02  0.79125917393E+02  0.00000000000E+00 0. -1.
         23    2    1    2    0    0 -0.73725983353E+02 -0.28786226152E+01  0.70392066303E+01  0.11986351816E+03  0.94201409046E+02 0.  0.
          5    1    1    2  502    0  0.89090579532E+02  0.97414838629E+01  0.21780266908E+03  0.23555785473E+03  0.41800000000E+01 0. -1.
         -5    1    1    2    0  502 -0.15364596180E+02 -0.68628612477E+01 -0.84039916453E+01  0.19268345955E+02  0.41800000000E+01 0. -1.
        -11    1    3    3    0    0 -0.55670856234E+02  0.38592488631E+02 -0.15256135701E+02  0.69436115164E+02  0.00000000000E+00 0.  1.
         11    1    3    3    0    0 -0.18055127119E+02 -0.41471111246E+02  0.22295342332E+02  0.50427402996E+02  0.00000000000E+00 0. -1.
</event>
<event>
 7    1  0.5137842E-006  0.9653155E+02  0.7561462E-02  0.1287763E+00
          1   -1    0    0  501    0  0.00000000000E+00  0.00000000000E+00  0.19388008959E+03  0.19388008959E+03  0.00000000000E+00 0. -1.
         -1   -1    0    0    0  501 -0.00000000000E+00 -0.00000000000E+00 -0.83566250818E+02  0.83566250818E+02  0.00000000000E+00 0.  1.
         23    2    1    2    0    0  0.45761864227E+02  0.12727391638E+02  0.99708063372E+02  0.14321656823E+03  0.91176492574E+02 0.  0.
          5    1    1    2  502    0 -0.19249486817E+02  0.43687918085E+02  0.42527709013E+02  0.64072266724E+02  0.41800000000E+01 0.  1.
         -5    1    1    2    0  502 -0.26512377410E+02 -0.56415309723E+02 -0.31921933609E+02  0.70157505460E+02  0.41800000000E+01 0.  1.
        -11    1    3    3    0    0  0.31645380464E+02 -0.26309951067E+02  0.92286924307E+02  0.10104711786E+03  0.00000000000E+00 0.  1.
         11    1    3    3    0    0  0.14116483764E+02  0.39037342704E+02  0.74211390652E+01  0.42169450368E+02  0.00000000000E+00 0. -1.
</event>
<event>
 7    1  0.5137842E-006  0.1126392E+03  0.7561462E-02  0.1255759E+00
         -2   -1    0    0    0  501 -0.00000000000E+00  0.00000000000E+00  0.10217218961E+03  0.10217218961E+03  0.00000000000E+00 0.  1.
          2   -1    0    0  501    0  0.00000000000E+00 -0.00000000000E+00 -0.15638975304E+03  0.15638975304E+03  0.00000000000E+00 0. -1.
         23    2    1    2    0    0 -0.42335639783E+02  0.39384172105E+02 -0.55579256592E+02  0.11693497504E+03  0.85095917744E+02 0.  0.
          5    1    1    2  502    0  0.27117582692E+02 -0.87061322690E+02  0.36277035546E+01  0.91354637718E+02  0.41800000000E+01 0. -1.
         -5    1    1    2    0  502  0.15218057091E+02  0.47677150585E+02 -0.22660103890E+01  0.50272329890E+02  0.41800000000E+01 0.  1.
        -11    1    3    3    0    0 -0.55914630893E+02  0.18560419100E+02 -0.67305576416E+02  0.89448173384E+02  0.00000000000E+00 0.  1.
         11    1    3    3    0    0  0.13578991110E+02  0.20823753004E+02  0.11726319825E+02  0.27486801658E+02  0.00000000000E+00 0. -1.
</event>
<event>
 7    1  0.5137842E-006  0.1389177E+03  0.7561462E-02  0.1214793E+00
         -2   -1    0    0    0  501 -0.00000000000E+00  0.00000000000E+00  0.23406404387E+03  0.23406404387E+03  0.00000000000E+00 0.  1.
          2   -1    0    0  501    0  0.00000000000E+00 -0.00000000000E+00 -0.18179887040E+03  0.18179887040E+03  0.00000000000E+00 0. -1.
         23    2    1    2    0    0  0.82319969438E+02 -0.90542612450E+02 -0.98970217649E+02  0.18457382292E+03  0.96425360198E+02 0.  0.
          5    1    1    2  502    0 -0.72805692426E+02  0.42014416103E+02  0.16010123384E+03  0.18087497750E+03  0.41800000000E+01 0. -1.
         -5    1    1    2    0  502 -0.95142770125E+01  0.48528196347E+02 -0.88658427133E+01  0.50414113845E+02  0.41800000000E+01 0. -1.
        -11    1    3    3    0    0  0.94640087927E+02 -0.62501382605E+02 -0.44010001595E+02  0.12165545327E+03  0.00000000000E+00 0.  1.
         11    1    3    3    0    0 -0.12320118489E+02 -0.28041229845E+02 -0.54960216054E+02  0.62918369651E+02  0.00000000000E+00 0. -1.
</event>
<event>
 7    1  0.5137842E-006  0.3206096E+03  0.7561462E-02  0.1075369E+00
          2   -1    0    0  501    0  0.00000000000E+00  0.00000000000E+00  0.87717549691E+03  0.87717549691E+03  0.00000000000E+00 0. -1.
         -2   -1    0    0    0  501 -0.00000000000E+00 -0.00000000000E+00 -0.17413857318E+03  0.17413857318E+03  0.00000000000E+00 0.  1.
         23    2    1    2    0    0  0.89441299278E+02  0.66654350169E+02  0.21864077077E+03  0.25790136896E+03  0.79163003075E+02 0.  0.
          5    1    1    2  502    0 -0.21088802858E+03  0.14860182778E+03  0.48142283162E+03  0.54620662668E+03  0.41800000000E+01 0. -1.
         -5    1    1    2    0  502  0.12144672930E+03 -0.21525617795E+03  0.29733213389E+01  0.24720607445E+03  0.41800000000E+01 0.  1.
        -11    1    3    3    0    0  0.10296517348E+03  0.49722355732E+02  0.17292128986E+03  0.20730632430E+03  0.00000000000E+00 0. -1.
         11    1    3    3    0    0 -0.13523874204E+02  0.16931994437E+02  0.45719480915E+02  0.50595044660E+02  0.00000000000E+00 0.  1.
</event>
<event>
 7    1  0.5137842E-006  0.7146855E+02  0.7561462E-02  0.1355169E+00
         -3   -1    0    0    0  501 -0.00000000000E+00  0.00000000000E+00  0.12820023043E+03  0.12820023043E+03  0.00000000000E+00 0.  1.
          3   -1    0    0  501    0  0.00000000000E+00 -0.00000000000E+00 -0.10467031091E+03  0.10467031091E+03  0.00000000000E+00 0. -1.
         23    2    1    2    0    0 -0.10829797623E+02  0.96178002042E+01 -0.27982942984E+02  0.96852828135E+02  0.91584052227E+02 0.  0.
          5    1    1    2  502    0  0.68520166520E+01 -0.35826393786E+02  0.85302300617E+02  0.92867838967E+02  0.41800000000E+01 0. -1.
         -5    1    1    2    0  502  0.39777809710E+01  0.26208593582E+02 -0.33789438110E+02  0.43149874238E+02  0.41800000000E+01 0. -1.
        -11    1    3    3    0    0 -0.33039705029E+02  0.33306542904E+02  0.88587081375E+01  0.47743320145E+02  0.00000000000E+00 0.  1.
         11    1    3    3    0    0  0.22209907406E+02 -0.23688742700E+02 -0.36841651121E+02  0.49109507990E+02  0.00000000000E+00 0. -1.
</event>
<event>
 7    1  0.5137842E-006  0.1193818E+03  0.7561462E-02  0.1244120E+00
          2   -1    0    0  501    0  0.00000000000E+00  0.00000000000E+00  0.15981823022E+03  0.15981823022E+03  0.00000000000E+00 0. -1.
         -2   -1    0    0    0  501 -0.00000000000E+00 -0.00000000000E+00 -0.22236708843E+03  0.22236708843E+03  0.00000000000E+00 0.  1.
         23    2    1    2    0    0 -0.65268913351E+02 -0.54956976821E+02 -0.21592123840E+02  0.12796563688E+03  0.92890710299E+02 0.  0.
          5    1    1    2  502    0  0.58545387906E+02 -0.37885537709E+01  0.91688602368E+02  0.10893203289E+03  0.41800000000E+01 0. -1.
         -5    1    1    2    0  502  0.67235254445E+01  0.58745530591E+02 -0.13264533673E+03  0.14528764888E+03  0.41800000000E+01 0.  1.
        -11    1    3    3    0    0  0.15469236958E+02 -0.33852578649E+02 -0.24336347463E+02  0.44469677097E+02  0.00000000000E+00 0.  1.
         11    1    3    3    0    0 -0.80738150308E+02 -0.21104398171E+02  0.27442236232E+01  0.83495959787E+02  0.00000000000E+00 0. -1.
</event>
<event>
 7    1  0.5137842E-006  0.1191723E+03  0.7561462E-02  0.1244469E+00
          1   -1    0    0  501    0  0.00000000000E+00  0.00000000000E+00  0.25131978633E+03  0.25131978633E+03  0.00000000000E+00 0. -1.
         -1   -1    0    0    0  501 -0.00000000000E+00 -0.00000000000E+00 -0.73946061362E+02  0.73946061362E+02  0.00000000000E+00 0.  1.
         23    2    1    2    0    0 -0.51061987353E+02 -0.50751617095E+02  0.13053335114E+03  0.17352624635E+03  0.88822008665E+02 0.  0.
          5    1    1    2  502    0 -0.24906327970E+02  0.60973674366E+02  0.32804311727E+02  0.73700131659E+02  0.41800000000E+01 0.  1.
         -5    1    1    2    0  502  0.75968315324E+02 -0.10222057271E+02  0.14036062098E+02  0.78039469675E+02  0.41800000000E+01 0.  1.
        -11    1    3    3    0    0 -0.10698056139E+01 -0.45277155360E+02  0.15312780235E+02  0.47808435658E+02  0.00000000000E+00 0.  1.
         11    1    3    3    0    0 -0.49992181740E+02 -0.54744617358E+01  0.11522057090E+03  0.12571781069E+03  0.00000000000E+00 0. -1.
</event>
<event>
 7    1  0.5137842E-006  0.8912997E+02  0.7561462E-02  0.1304972E+00
         -1   -1    0    0    0  501 -0.00000000000E+00  0.00000000000E+00  0.85443024020E+02  0.85443024020E+02  0.00000000000E+00 0.  1.
          1   -1    0    0  501    0  0.00000000000E+00 -0.00000000000E+00 -0.16126463868E+03  0.16126463868E+03  0.00000000000E+00 0. -1.
         23    2    1    2    0    0  0.42331539120E+02 -0.95884613587E+01 -0.50438127191E+02  0.11188960525E+03  0.89952105552E+02 0.  0.
          5    1    1    2  502    0  0.25845117417E+02  0.46312720930E+02  0.56519015065E-01  0.53200693686E+02  0.41800000000E+01 0. -1.
         -5    1    1    2    0  502 -0.68176656538E+02 -0.36724259572E+02 -0.25440006485E+02  0.81617363763E+02  0.41800000000E+01 0. -1.
        -11    1    3    3    0    0  0.25903472123E+02  0.39719476139E+01  0.23342937256E+02  0.35094999011E+02  0.00000000000E+00 0.  1.
         11    1    3    3    0    0  0.16428066998E+02 -0.13560408973E+02 -0.73781064447E+02  0.76794606241E+02  0.00000000000E+00 0. -1.
</event>
<event>
 7    1  0.5137842E-006  0.1059482E+03  0.7561462E-02  0.1268263E+00
          1   -1    0    0  501    0  0.00000000000E+00  0.00000000000E+00  0.34786433942E+03  0.34786433942E+03  0.00000000000E+00 0. -1.
         -1   -1    0    0    0  501 -0.00000000000E+00 -0.00000000000E+00 -0.50197460892E+02  0.50197460892E+02  0.00000000000E+00 0.  1.
         23    2    1    2    0    0 -0.48028603842E+02 -0.55419041889E+02  0.15741057810E+03  0.19632625968E+03  0.91585441813E+02 0.  0.
          5    1    1    2  502    0  0.85282257818E+02  0.46710034482E+02  0.12907932595E+03  0.16165962887E+03  0.41800000000E+01 0. -1.
         -5    1    1    2    0  502 -0.37253653976E+02  0.87090074069E+01  0.11176974475E+02  0.40075911755E+02  0.41800000000E+01 0. -1.
        -11    1    3    3    0    0 -0.26785087613E+01 -0.15309250587E+02 -0.98807075690E+01  0.18416730025E+02  0.00000000000E+00 0.  1.
         11    1    3    3    0    0 -0.45350095081E+02 -0.40109791301E+02  0.16729128567E+03  0.17790952966E+03  0.00000000000E+00 0. -1.
</event>
<event>
 7    1  0.5137842E-006  0.9888201E+02  0.7561462E-02  0.1282665E+00
          1   -1    0    0  501    0  0.00000000000E+00  0.00000000000E+00  0.59706509302E+02  0.59706509302E+02  0.00000000000E+00 0. -1.
         -1   -1    0    0    0  501 -0.00000000000E+00 -0.00000000000E+00 -0.20543672872E+03  0.20543672872E+03  0.00000000000E+00 0.  1.
         23    2    1    2    0    0  0.44931986448E+01  0.16750258475E+02 -0.49888028011E+02  0.10660911853E+03  0.92606310918E+02 0.  0.
          5    1    1    2  502    0 -0.60541069678E+01  0.43156308775E+02  0.18857022284E+01  0.43819487345E+02  0.41800000000E+01 0. -1.
         -5    1    1    2    0  502  0.15609083230E+01 -0.59906567250E+02 -0.97727893633E+02  0.11471463215E+03  0.41800000000E+01 0. -1.
        -11    1    3    3    0    0 -0.22083412714E+02 -0.31710713202E+02 -0.16347658660E+02  0.41958221990E+02  0.00000000000E+00 0.  1.
         11    1    3    3    0    0  0.26576611359E+02  0.48460971677E+02 -0.33540369352E+02  0.64650896540E+02  0.00000000000E+00 0. -1.
</event>
<event>
 7    1  0.5137842E-006  0.1197955E+03  0.7561462E-02  0.1243435E+00
         -1   -1    0    0    0  501 -0.00000000000E+00  0.00000000000E+00  0.13402274230E+03  0.13402274230E+03  0.00000000000E+00 0.  1.
          1   -1    0    0  501    0  0.00000000000E+00 -0.00000000000E+00 -0.19722370894E+03  0.19722370894E+03  0.00000000000E+00 0. -1.
         23    2    1    2    0    0 -0.81681739250E+02 -0.75094888525E+01 -0.12014195048E+03  0.17119174443E+03  0.90245366350E+02 0.  0.
          5    1    1    2  502    0  0.58547492679E+02 -0.48983896384E+02 -0.28020497410E-01  0.76450665066E+02  0.41800000000E+01 0. -1.
         -5    1    1    2    0  502  0.23134246572E+02  0.56493385237E+02  0.56969004343E+02  0.83604041743E+02  0.41800000000E+01 0. -1.
        -11    1    3    3    0    0 -0.27510942843E+00  0.16947507557E+02 -0.71026453527E+02  0.73020892889E+02  0.00000000000E+00 0. -1.
         11    1    3    3    0    0 -0.81406629822E+02 -0.24456996410E+02 -0.49115496952E+02  0.98170851546E+02  0.00000000000E+00 0.  1.
</event>
<event>
 7    1  0.5137842E-006  0.1552721E+03  0.7561462E-02  0.1194140E+00
          1   -1    0    0  501    0  0.00000000000E+00  0.00000000000E+00  0.36017670935E+03  0.36017670935E+03  0.00000000000E+00 0. -1.
         -1   -1    0    0    0  501 -0.00000000000E+00 -0.00000000000E+00 -0.10959607612E+03  0.10959607612E+03  0.00000000000E+00 0.  1.
         23    2    1    2    0    0  0.14877576797E+03  0.70251359816E+01  0.20460708460E+03  0.26990686653E+03  0.93819378921E+02 0.  0.
          5    1    1    2  502    0 -0.51630805606E+02 -0.11006865425E+02 -0.42840100365E+02  0.68114886577E+02  0.41800000000E+01 0.  1.
         -5    1    1    2    0  502 -0.97144962363E+02  0.39817294429E+01  0.88813648992E+02  0.13175103236E+03  0.41800000000E+01 0.  1.
        -11    1    3    3    0    0  0.85150644660E+02 -0.25402906609E+02  0.16706774843E+03  0.18922888922E+03  0.00000000000E+00 0. -1.
         11    1    3    3    0    0  0.63625123309E+02  0.32428042591E+02  0.37539336167E+02  0.80677977307E+02  0.00000000000E+00 0.  1.
</event>
<event>
 7    1  0.5137842E-006  0.1049649E+03  0.7561462E-02  0.1270189E+00
          1   -1    0    0  501    0  0.00000000000E+00  0.00000000000E+00  0.26833879248E+03  0.26833879248E+03  0.00000000000E+00 0. -1.
         -1   -1    0    0    0  501 -0.00000000000E+00 -0.00000000000E+00 -0.63327345625E+02  0.63327345625E+02  0.00000000000E+00 0.  1.
         23    2    1    2    0    0 -0.58669950081E+02  0.24176104311E+02  0.14204669791E+03  0.17793012284E+03  0.86343599429E+02 0.  0.
          5    1    1    2  502    0  0.56649633293E+02  0.42385683945E+02  0.47268898433E+02  0.85191245529E+02  0.41800000000E+01 0. -1.
         -5    1    1    2    0  502  0.20203167879E+01 -0.66561788256E+02  0.15695850512E+02  0.68544769743E+02  0.41800000000E+01 0. -1.
        -11    1    3    3    0    0 -0.28458654066E+02  0.30231998738E+02  0.14112306839E+03  0.14710400800E+03  0.00000000000E+00 0.  1.
         11    1    3    3    0    0 -0.30211296015E+02 -0.60558944267E+01  0.92362952354E+00  0.30826114833E+02  0.00000000000E+00 0. -1.
</event>
<event>
 7    1  0.5137842E-006  0.1143489E+03  0.7561462E-02  0.1252722E+00
          1   -1    0    0  501    0  0.00000000000E+00  0.00000000000E+00  0.52265246624E+03  0.52265246624E+03  0.00000000000E+00 0. -1.
         -1   -1    0    0    0  501 -0.00000000000E+00 -0.00000000000E+00 -0.46311844509E+02  0.46311844509E+02  0.00000000000E+00 0.  1.
         23    2    1    2    0    0  0.79636627814E+02 -0.46367105805E+02  0.35852871319E+03  0.38124644414E+03  0.91181752557E+02 0.  0.
          5    1    1    2  502    0 -0.22671795838E+02  0.60741228900E+02  0.11074622588E+03  0.12839667504E+03  0.41800000000E+01 0. -1.
         -5    1    1    2    0  502 -0.56964831977E+02 -0.14374123095E+02  0.70656826576E+01  0.59321191562E+02  0.41800000000E+01 0.  1.
        -11    1    3    3    0    0  0.56329135370E+02 -0.39953473067E+01  0.30026058354E+03  0.30552471638E+03  0.00000000000E+00 0. -1.
         11    1    3    3    0    0  0.23307492445E+02 -0.42371758499E+02  0.58268129648E+02  0.75721727760E+02  0.00000000000E+00 0.  1.
</event>
<event>
 7    1  0.5137842E-006  0.1195040E+03  0.7561462E-02  0.1243918E+00
          1   -1    0    0  501    0  0.00000000000E+00  0.00000000000E+00  0.18861634944E+03  0.18861634944E+03  0.00000000000E+00 0. -1.
         -1   -1    0    0    0  501 -0.00000000000E+00 -0.00000000000E+00 -0.17408824043E+03  0.17408824043E+03  0.00000000000E+00 0.  1.
         23    2    1    2    0    0 -0.79027243995E+02  0.51782495068E+02  0.11662678625E+03  0.17562681774E+03  0.91193419442E+02 0.  0.
          5    1    1    2  502    0  0.62049275907E+02 -0.81051239075E+02 -0.11198122731E+03  0.15158061771E+03  0.41800000000E+01 0.  1.
         -5    1    1    2    0  502  0.16977968088E+02  0.29268744007E+02  0.98825500791E+01  0.35497154424E+02  0.41800000000E+01 0.  1.
        -11    1    3    3    0    0 -0.26140610447E+02 -0.33514614711E+01 -0.96265267376E+01  0.28057687460E+02  0.00000000000E+00 0.  1.
         11    1    3    3    0    0 -0.52886633548E+02  0.55133956540E+02  0.12625331298E+03  0.14756913028E+03  0.00000000000E+00 0. -1.
</event>
<event>
 7    1  0.5137842E-006  0.1078820E+03  0.7561462E-02  0.1264543E+00
         -1   -1    0    0    0  501 -0.00000000000E+00  0.00000000000E+00  0.10741871231E+03  0.10741871231E+03  0.00000000000E+00 0.  1.
          1   -1    0    0  501    0  0.00000000000E+00 -0.00000000000E+00 -0.13525405311E+03  0.13525405311E+03  0.00000000000E+00 0. -1.
         23    2    1    2    0    0 -0.35117700550E+02 -0.26605898876E+02 -0.43420758360E+02  0.10912451853E+03  0.89898117557E+02 0.  0.
          5    1    1    2  502    0 -0.25368202893E+02 -0.34054929413E+02 -0.10424657601E+02  0.43925275428E+02  0.41800000000E+01 0. -1.
         -5    1    1    2    0  502  0.60485903443E+02  0.60660828289E+02  0.26010075158E+02  0.89622971463E+02  0.41800000000E+01 0. -1.
        -11    1    3    3    0    0 -0.29957712020E+02 -0.52758839396E+02 -0.53238061403E+02  0.80717103676E+02  0.00000000000E+00 0.  1.
         11    1    3    3    0    0 -0.51599885296E+01  0.26152940520E+02  0.98173030430E+01  0.28407414851E+02  0.00000000000E+00 0. -1.
</event>
<event>
 7    1  0.5137842E-006  0.9394030E+02  0.7561462E-02  0.1293581E+00
          3   -1    0    0  501    0  0.00000000000E+00  0.00000000000E+00  0.40243346667E+02  0.40243346667E+02  0.00000000000E+00 0.  1.
         -3   -1    0    0    0  501 -0.00000000000E+00 -0.00000000000E+00 -0.64545468632E+03  0.64545468632E+03  0.00000000000E+00 0. -1.
         23    2    1    2    0    0 -0.78347588453E+02 -0.99423316709E+00 -0.92209954477E+02  0.15189030588E+03  0.91807713184E+02 0.  0.
          5    1    1    2  502    0 -0.59853871221E+01  0.29320976483E+01  0.47651637806E+01  0.91978933173E+01  0.41800000000E+01 0. -1.
         -5    1    1    2    0  502  0.84332975575E+02 -0.19378644812E+01 -0.51776654895E+03  0.52460983378E+03  0.41800000000E+01 0. -1.
        -11    1    3    3    0    0 -0.17965182478E+02 -0.24821710560E+02 -0.80227921365E+02  0.85880058588E+02  0.00000000000E+00 0. -1.
         11    1    3    3    0    0 -0.60382405975E+02  0.23827477392E+02 -0.11982033112E+02  0.66010247293E+02  0.00000000000E+00 0.  1.
</event>
<event>
 7    1  0.5137842E-006  0.1901191E+03  0.7561462E-02  0.1158354E+00
         -1   -1    0    0    0  501 -0.00000000000E+00  0.00000000000E+00  0.36890779706E+02  0.36890779706E+02  0.00000000000E+00 0. -1.
          1   -1    0    0  501    0  0.00000000000E+00 -0.00000000000E+00 -0.12479365740E+04  0.12479365740E+04  0.00000000000E+00 0.  1.
         23    2    1    2    0    0 -0.80805051142E+02  0.16298738369E+03 -0.48755751008E+03  0.52840364913E+03  0.91671954555E+02 0.  0.
          5    1    1    2  502    0  0.44348497847E+02 -0.19711880022E+02 -0.63309087928E+02  0.79880288492E+02  0.41800000000E+01 0.  1.
         -5    1    1    2    0  502  0.36456553295E+02 -0.14327550367E+03 -0.66017919626E+03  0.67654341605E+03  0.41800000000E+01 0.  1.
        -11    1    3    3    0    0 -0.58774823332E+02  0.13974848884E+03 -0.46538199440E+03  0.48945328755E+03  0.00000000000E+00 0.  1.
         11    1    3    3    0    0 -0.22030227810E+02  0.23238894851E+02 -0.22175515679E+02  0.38950361576E+02  0.00000000000E+00 0. -1.
</event>
<event>
 7    1  0.5137842E-006  0.9612112E+02  0.7561462E-02  0.1288671E+00
          1   -1    0    0  501    0  0.00000000000E+00  0.00000000000E+00  0.29006524074E+03  0.29006524074E+03  0.00000000000E+00 0. -1.
         -1   -1    0    0    0  501 -0.00000000000E+00 -0.00000000000E+00 -0.67009210333E+02  0.67009210333E+02  0.00000000000E+00 0.  1.
         23    2    1    2    0    0  0.86618832707E+02  0.33585999628E+01  0.10042770981E+03  0.16163748768E+03  0.92340945154E+02 0.  0.
          5    1    1    2  502    0 -0.20733488798E+02  0.79805189706E+00 -0.25541726330E+02  0.33171774576E+02  0.41800000000E+01 0. -1.
         -5    1    1    2    0  502 -0.65885343909E+02 -0.41566518599E+01  0.14817004692E+03  0.16226518882E+03  0.41800000000E+01 0. -1.
        -11    1    3    3    0    0  0.52554599217E+02 -0.27190545444E+02  0.99627090195E+02  0.11587436628E+03  0.00000000000E+00 0. -1.
         11    1    3    3    0    0  0.34064233490E+02  0.30549145407E+02  0.80061961796E+00  0.45763121398E+02  0.00000000000E+00 0.  1.
</event>
<event>
 7    1  0.5137842E-006  0.1072024E+03  0.7561462E-02  0.1265840E+00
          1   -1    0    0  501    0  0.00000000000E+00  0.00000000000E+00  0.68981871085E+02  0.68981871085E+02  0.00000000000E+00 0. -1.
         -1   -1    0    0    0  501 -0.00000000000E+00 -0.00000000000E+00 -0.37470081108E+03  0.37470081108E+03  0.00000000000E+00 0.  1.
         23    2    1    2    0    0 -0.90761457255E+02 -0.48884282101E+02 -0.60286062964E+02  0.14954469677E+03  0.90010509300E+02 0.  0.
          5    1    1    2  502    0  0.84476268514E+02  0.51920525373E+02 -0.77268953576E+02  0.12577736078E+03  0.41800000000E+01 0.  1.
         -5    1    1    2    0  502  0.62851887409E+01 -0.30362432727E+01 -0.16816392346E+03  0.16836062462E+03  0.41800000000E+01 0.  1.
        -11    1    3    3    0    0 -0.29166979454E+02 -0.13099999790E+01  0.21793303485E+02  0.36433183599E+02  0.00000000000E+00 0. -1.
         11    1    3    3    0    0 -0.61594477801E+02 -0.47574282122E+02 -0.82079366448E+02  0.11311151317E+03  0.00000000000E+00 0.  1.
</event>
<event>
 7    1  0.5137842E-006  0.1315248E+03  0.7561462E-02  0.1225211E+00
         -1   -1    0    0    0  501 -0.00000000000E+00  0.00000000000E+00  0.67562000464E+02  0.67562000464E+02  0.00000000000E+00 0.  1.
          1   -1    0    0  501    0  0.00000000000E+00 -0.00000000000E+00 -0.29543816639E+03  0.29543816639E+03  0.00000000000E+00 0. -1.
         23    2    1    2    0    0  0.59907737013E+02 -0.64955255566E+02 -0.12591998878E+03  0.17901535269E+03  0.91556161689E+02 0.  0.
          5    1    1    2  502    0  0.39082012304E+02  0.18483922373E+02 -0.24013045843E+02  0.49630210988E+02  0.41800000000E+01 0.  1.
         -5    1    1    2    0  502 -0.98989749317E+02  0.46471333193E+02 -0.77943131305E+02  0.13435460318E+03  0.41800000000E+01 0.  1.
        -11    1    3    3    0    0  0.66802404813E+02 -0.27742143652E+02 -0.34640102481E+02  0.80200526950E+02  0.00000000000E+00 0.  1.
         11    1    3    3    0    0 -0.68946678003E+01 -0.37213111914E+02 -0.91279886299E+02  0.98814825735E+02  0.00000000000E+00 0. -1.
</event>
<event>
 7    1  0.5137842E-006  0.9684777E+02  0.7561462E-02  0.1287068E+00
          3   -1    0    0  501    0  0.00000000000E+00  0.00000000000E+00  0.13621232667E+03  0.13621232667E+03  0.00000000000E+00 0. -1.
         -3   -1    0    0    0  501 -0.00000000000E+00 -0.00000000000E+00 -0.12842009070E+03  0.12842009070E+03  0.00000000000E+00 0.  1.
         23    2    1    2    0    0  0.14785468640E+02  0.74510232995E+02  0.34814937067E+01  0.11821982168E+03  0.90517515075E+02 0.  0.
          5    1    1    2  502    0  0.21526929886E+02 -0.77531122266E+02 -0.39119643097E+02  0.89567307129E+02  0.41800000000E+01 0. -1.
         -5    1    1    2    0  502 -0.36312398526E+02  0.30208892715E+01  0.43430385361E+02  0.56845288559E+02  0.41800000000E+01 0. -1.
        -11    1    3    3    0    0  0.91197193433E+01  0.24976979055E+02 -0.42673188156E+02  0.50279416772E+02  0.00000000000E+00 0.  1.
         11    1    3    3    0    0  0.56657492971E+01  0.49533253940E+02  0.46154681862E+02  0.67940404906E+02  0.00000000000E+00 0. -1.
</event>
<event>
 7    1  0.5137842E-006  0.1425980E+03  0.7561462E-02  0.1209875E+00
         -2   -1    0    0    0  501 -0.00000000000E+00  0.00000000000E+00  0.20761603770E+02  0.20761603770E+02  0.00000000000E+00 0. -1.
          2   -1    0    0  501    0  0.00000000000E+00 -0.00000000000E+00 -0.11693830329E+04  0.11693830329E+04  0.00000000000E+00 0.  1.
         23    2    1    2    0    0 -0.24387077784E+02  0.11105993704E+03 -0.47387048519E+03  0.49452049009E+03  0.84072820872E+02 0.  0.
          5    1    1    2  502    0  0.14531676218E+02 -0.12903804546E+03 -0.41102870927E+03  0.43107314813E+03  0.41800000000E+01 0.  1.
         -5    1    1    2    0  502  0.98554015659E+01  0.17978108416E+02 -0.26372223468E+03  0.26455099846E+03  0.41800000000E+01 0.  1.
        -11    1    3    3    0    0  0.20526818660E+02  0.71867643373E+02 -0.18431226698E+03  0.19889022150E+03  0.00000000000E+00 0. -1.
         11    1    3    3    0    0 -0.44913896444E+02  0.39192293670E+02 -0.28955821821E+03  0.29563026859E+03  0.00000000000E+00 0.  1.
</event>
<event>
 7    1  0.5137842E-006  0.9516155E+02  0.7561462E-02  0.1290813E+00
         -4   -1    0    0    0  501 -0.00000000000E+00  0.00000000000E+00  0.88630280036E+02  0.88630280036E+02  0.00000000000E+00 0.  1.
          4   -1    0    0  501    0  0.00000000000E+00 -0.00000000000E+00 -0.14225702618E+03  0.14225702618E+03  0.00000000000E+00 0. -1.
         23    2    1    2    0    0  0.20581232724E+02 -0.31701035375E+01 -0.46776051909E+02  0.10387654058E+03  0.90380860556E+02 0.  0.
          5    1    1    2  502    0  0.27912819709E+02  0.38179208041E+02 -0.36724039062E+02  0.60024202417E+02  0.41800000000E+01 0. -1.
         -5    1    1    2    0  502 -0.48494052433E+02 -0.35009104503E+02  0.29873344830E+02  0.66986563211E+02  0.41800000000E+01 0. -1.
        -11    1    3    3    0    0  0.20907396358E+02 -0.40488437487E+02 -0.48459490377E+02  0.66518831921E+02  0.00000000000E+00 0. -1.
         11    1    3    3    0    0 -0.32616363401E+00  0.37318333950E+02  0.16834384681E+01  0.37357708663E+02  0.00000000000E+00 0.  1.
</event>
<event>
 7    1  0.5137842E-006  0.1523906E+03  0.7561462E-02  0.1197566E+00
          1   -1    0    0  501    0  0.00000000000E+00  0.00000000000E+00  0.39916394486E+03  0.39916394486E+03  0.00000000000E+00 0. -1.
         -1   -1    0    0    0  501 -0.00000000000E+00 -0.00000000000E+00 -0.61231636437E+02  0.61231636437E+02  0.00000000000E+00 0.  1.
         23    2    1    2    0    0  0.40907069608E+02 -0.10423052091E+03  0.16708066221E+03  0.22086426455E+03  0.91256155060E+02 0.  0.
          5    1    1    2  502    0 -0.39537153646E+02 -0.15445938735E+02  0.74416497441E+02  0.85773253601E+02  0.41800000000E+01 0. -1.
         -5    1    1    2    0  502 -0.13699159614E+01  0.11967645965E+03  0.96435148767E+02  0.15375806314E+03  0.41800000000E+01 0. -1.
        -11    1    3    3    0    0  0.50905513247E+02 -0.15690759327E+02  0.45041344865E+02  0.69758827072E+02  0.00000000000E+00 0.  1.
         11    1    3    3    0    0 -0.99984436392E+01 -0.88539761587E+02  0.12203931735E+03  0.15110543748E+03  0.00000000000E+00 0. -1.
</event>
<event>
 7    1  0.5137842E-006  0.1145198E+03  0.7561462E-02  0.1252422E+00
          1   -1    0    0  501    0  0.00000000000E+00  0.00000000000E+00  0.30613716729E+02  0.30613716729E+02  0.00000000000E+00 0. -1.
         -1   -1    0    0    0  501 -0.00000000000E+00 -0.00000000000E+00 -0.85747451467E+03  0.85747451467E+03  0.00000000000E+00 0.  1.
         23    2    1    2    0    0 -0.52675093792E+02 -0.74546837235E+02 -0.17126332987E+03  0.21445043572E+03  0.91246724736E+02 0.  0.
          5    1    1    2  502    0  0.50897815397E+02  0.55794165922E+01 -0.50875552926E+03  0.51134272113E+03  0.41800000000E+01 0.  1.
         -5    1    1    2    0  502  0.17772783950E+01  0.68967420643E+02 -0.14684193881E+03  0.16229507455E+03  0.41800000000E+01 0.  1.
        -11    1    3    3    0    0 -0.36139475525E+02 -0.43133760776E+01 -0.99438524188E+01  0.37729923208E+02  0.00000000000E+00 0.  1.
         11    1    3    3    0    0 -0.16535618267E+02 -0.70233461157E+02 -0.16131947745E+03  0.17672051251E+03  0.00000000000E+00 0. -1.
</event>
<event>
 7    1  0.5137842E-006  0.9439844E+02  0.7561462E-02  0.1292537E+00
         -2   -1    0    0    0  501 -0.00000000000E+00  0.00000000000E+00  0.46933476565E+02  0.46933476565E+02  0.00000000000E+00 0. -1.
          2   -1    0    0  501    0  0.00000000000E+00 -0.00000000000E+00 -0.37321777272E+03  0.37321777272E+03  0.00000000000E+00 0.  1.
         23    2    1    2    0    0 -0.13138050925E+01 -0.42833288500E+02 -0.24514456933E+03  0.26501426589E+03  0.91105897543E+02 0.  0.
          5    1    1    2  502    0  0.13374288606E+01 -0.22461413133E+02 -0.86512410663E+02  0.89488398100E+02  0.41800000000E+01 0. -1.
         -5    1    1    2    0  502 -0.23623768034E-01  0.65294701633E+02  0.53726838355E+01  0.65648585293E+02  0.41800000000E+01 0. -1.
        -11    1    3    3    0    0  0.43650919459E+02 -0.99337934650E+01 -0.10099569386E+03  0.11047268079E+03  0.00000000000E+00 0.  1.
         11    1    3    3    0    0 -0.44964724551E+02 -0.32899495035E+02 -0.14414887546E+03  0.15454158510E+03  0.00000000000E+00 0. -1.
</event>
<event>
 7    1  0.5176539E-006  0.7046430E+02  0.7561462E-02  0.1358521E+00
         -2   -1    0    0    0  501 -0.00000000000E+00  0.00000000000E+00  0.25736625687E+02  0.25736625687E+02  0.00000000000E+00 0.  1.
          2   -1    0    0  501    0  0.00000000000E+00 -0.00000000000E+00 -0.59814875328E+03  0.59814875328E+03  0.00000000000E+00 0. -1.
         23    2    1    2    0    0  0.32122624605E+02  0.49370359663E+02 -0.31626748427E+03  0.33280611621E+03  0.85237866946E+02 0.  0.
          5    1    1    2  502    0 -0.13385048440E+01  0.17208269823E+01  0.13804329811E+02  0.14587143732E+02  0.41800000000E+01 0.  1.
         -5    1    1    2    0  502 -0.30784119761E+02 -0.51091186645E+02 -0.26994897314E+03  0.27649211902E+03  0.41800000000E+01 0.  1.
        -11    1    3    3    0    0 -0.10692639618E+02  0.24913486637E+02 -0.23388698684E+02  0.35805664140E+02  0.00000000000E+00 0.  1.
         11    1    3    3    0    0  0.42815264222E+02  0.24456873026E+02 -0.29287878558E+03  0.29700045207E+03  0.00000000000E+00 0. -1.
</event>
<event>
 7    1  0.5137842E-006  0.1373115E+03  0.7561462E-02  0.1216993E+00
          3   -1    0    0  501    0  0.00000000000E+00  0.00000000000E+00  0.19757520641E+03  0.19757520641E+03  0.00000000000E+00 0. -1.
         -3   -1    0    0    0  501 -0.00000000000E+00 -0.00000000000E+00 -0.13410371929E+03  0.13410371929E+03  0.00000000000E+00 0.  1.
         23    2    1    2    0    0  0.30778423953E+02 -0.83635676390E+02  0.11747088621E+03  0.16887096659E+03  0.82314983483E+02 0.  0.
          5    1    1    2  502    0 -0.70570568393E+01 -0.33193371774E+02 -0.14663075663E+02  0.37203227936E+02  0.41800000000E+01 0.  1.
         -5    1    1    2    0  502 -0.23721367114E+02  0.11682904816E+03 -0.39336323420E+02  0.12560473117E+03  0.41800000000E+01 0.  1.
        -11    1    3    3    0    0  0.59205882773E+02 -0.57319764541E+02  0.75645781172E+02  0.11186230898E+03  0.00000000000E+00 0.  1.
         11    1    3    3    0    0 -0.28427458820E+02 -0.26315911849E+02  0.41825105036E+02  0.57008657611E+02  0.00000000000E+00 0. -1.
</event>
<event>
 7    1  0.5137842E-006  0.2199480E+03  0.7561462E-02  0.1133922E+00
         -1   -1    0    0    0  501 -0.00000000000E+00  0.00000000000E+00  0.16586831642E+03  0.16586831642E+03  0.00000000000E+00 0.  1.
          1   -1    0    0  501    0  0.00000000000E+00 -0.00000000000E+00 -0.37246866915E+03  0.37246866915E+03  0.00000000000E+00 0. -1.
         23    2    1    2    0    0 -0.17893088191E+03  0.10137049322E+03 -0.19569227172E+03  0.29738323647E+03  0.88595071657E+02 0.  0.
          5    1    1    2  502    0  0.10184835666E+03  0.57205164996E+01  0.23003283657E+02  0.10465388441E+03  0.41800000000E+01 0. -1.
         -5    1    1    2    0  502  0.77082525254E+02 -0.10709100972E+03 -0.33911364669E+02  0.13629986470E+03  0.41800000000E+01 0. -1.
        -11    1    3    3    0    0 -0.43842874497E+02  0.21174327522E+02 -0.30204408449E+01  0.48781890626E+02  0.00000000000E+00 0.  1.
         11    1    3    3    0    0 -0.13508800742E+03  0.80196165702E+02 -0.19267183088E+03  0.24860134584E+03  0.00000000000E+00 0. -1.
</event>
<event>
 7    1  0.5137842E-006  0.5153554E+02  0.7561462E-02  0.1437231E+00
          2   -1    0    0  501    0  0.00000000000E+00  0.00000000000E+00  0.66346175660E+02  0.66346175660E+02  0.00000000000E+00 0. -1.
         -2   -1    0    0    0  501 -0.00000000000E+00 -0.00000000000E+00 -0.28332106803E+03  0.28332106803E+03  0.00000000000E+00 0.  1.
         23    2    1    2    0    0  0.41990193569E+02  0.27392614462E+02 -0.10942256396E+02  0.10347500715E+03  0.89854395816E+02 0.  0.
          5    1    1    2  502    0 -0.10958225595E+02 -0.53033958343E+01  0.16193774109E+02  0.20686213657E+02  0.41800000000E+01 0.  1.
         -5    1    1    2    0  502 -0.31031967974E+02 -0.22089218628E+02 -0.22222641009E+03  0.22550602288E+03  0.41800000000E+01 0.  1.
        -11    1    3    3    0    0  0.35831632166E+02  0.16681481562E+02 -0.49293592710E+02  0.63182560672E+02  0.00000000000E+00 0.  1.
         11    1    3    3    0    0  0.61585614028E+01  0.10711132900E+02  0.38351336313E+02  0.40292446483E+02  0.00000000000E+00 0. -1.
</event>
<event>
 7    1  0.5137842E-006  0.1092273E+03  0.7561462E-02  0.1262007E+00
         -4   -1    0    0    0  501 -0.00000000000E+00  0.00000000000E+00  0.46069219631E+03  0.46069219631E+03  0.00000000000E+00 0.  1.
          4   -1    0    0  501    0  0.00000000000E+00 -0.00000000000E+00 -0.37551040218E+02  0.37551040218E+02  0.00000000000E+00 0. -1.
         23    2    1    2    0    0  0.66680177094E+02 -0.34583496266E+02  0.18671210978E+03  0.22041437532E+03  0.89882260079E+02 0.  0.
          5    1    1    2  502    0 -0.81294178830E+02  0.65435601688E+02  0.20970391742E+03  0.23427284704E+03  0.41800000000E+01 0.  1.
         -5    1    1    2    0  502  0.14614001736E+02 -0.30852105423E+02  0.26725128886E+02  0.43556014163E+02  0.41800000000E+01 0.  1.
        -11    1    3    3    0    0  0.32168242304E+02 -0.21184841487E+01  0.49963288236E+01  0.32622800151E+02  0.00000000000E+00 0. -1.
         11    1    3    3    0    0  0.34511934790E+02 -0.32465012117E+02  0.18171578096E+03  0.18779157517E+03  0.00000000000E+00 0.  1.
</event>
<event>
 7    1  0.5137842E-006  0.1054439E+03  0.7561462E-02  0.1269247E+00
         -1   -1    0    0    0  501 -0.00000000000E+00  0.00000000000E+00  0.48323462039E+02  0.48323462039E+02  0.00000000000E+00 0.  1.
          1   -1    0    0  501    0  0.00000000000E+00 -0.00000000000E+00 -0.24330818946E+03  0.24330818946E+03  0.00000000000E+00 0. -1.
         23    2    1    2    0    0 -0.16591159275E+01 -0.45604728937E+01 -0.74923946567E+02  0.11818021637E+03  0.91265629859E+02 0.  0.
          5    1    1    2  502    0 -0.51907936522E+02 -0.30968916111E+02 -0.62844006932E+02  0.87294611783E+02  0.41800000000E+01 0. -1.
         -5    1    1    2    0  502  0.53567052449E+02  0.35529389005E+02 -0.57216773922E+02  0.86156823347E+02  0.41800000000E+01 0. -1.
        -11    1    3    3    0    0  0.19050549096E+02  0.35781828667E+02 -0.15430404049E+02  0.43374647580E+02  0.00000000000E+00 0.  1.
         11    1    3    3    0    0 -0.20709665024E+02 -0.40342301561E+02 -0.59493542519E+02  0.74805568790E+02  0.00000000000E+00 0. -1.
</event>
<event>
 7    1  0.5137842E-006  0.1105776E+03  0.7561462E-02  0.1259504E+00
          2   -1    0    0  501    0  0.00000000000E+00  0.00000000000E+00  0.60868088024E+02  0.60868088024E+02  0.00000000000E+00 0.  1.
         -2   -1    0    0    0  501 -0.00000000000E+00 -0.00000000000E+00 -0.25682083924E+03  0.25682083924E+03  0.00000000000E+00 0. -1.
         23    2    1    2    0    0  0.16012909096E+01 -0.57558125008E+02 -0.58990679487E+02  0.12346952769E+03  0.91920194270E+02 0.  0.
          5    1    1    2  502    0 -0.36689426220E+01 -0.39310843846E+02 -0.29472681210E+02  0.49446080952E+02  0.41800000000E+01 0.  1.
         -5    1    1    2    0  502  0.20676517124E+01  0.96868968854E+02 -0.10748939052E+03  0.14477331862E+03  0.41800000000E+01 0.  1.
        -11    1    3    3    0    0  0.17663670797E+02  0.62009529998E+01  0.15360487193E+02  0.24215731477E+02  0.00000000000E+00 0. -1.
         11    1    3    3    0    0 -0.16062379888E+02 -0.63759078007E+02 -0.74351166680E+02  0.99253796213E+02  0.00000000000E+00 0.  1.
</event>
<event>
 7    1  0.5137842E-006  0.1516064E+03  0.7561462E-02  0.1198513E+00
         -3   -1    0    0    0  501 -0.00000000000E+00  0.00000000000E+00  0.23610740406E+03  0.23610740406E+03  0.00000000000E+00 0.  1.
          3   -1    0    0  501    0  0.00000000000E+00 -0.00000000000E+00 -0.10060459912E+03  0.10060459912E+03  0.00000000000E+00 0. -1.
         23    2    1    2    0    0 -0.13434643218E+02 -0.61322892414E+02  0.23801831357E+02  0.11172410343E+03  0.89301519236E+02 0.  0.
          5    1    1    2  502    0 -0.47486468383E+02  0.10803470394E+03  0.61180524040E+02  0.13299244662E+03  0.41800000000E+01 0. -1.
         -5    1    1    2    0  502  0.60921111601E+02 -0.46711811528E+02  0.50520449546E+02  0.91995453133E+02  0.41800000000E+01 0.  1.
        -11    1    3    3    0    0  0.36340876311E+02 -0.40151772000E+02  0.46984971574E+01  0.54358991541E+02  0.00000000000E+00 0.  1.
         11    1    3    3    0    0 -0.49775519529E+02 -0.21171120414E+02  0.19103334199E+02  0.57365111884E+02  0.00000000000E+00 0. -1.
</event>
<event>
 7    1  0.5137842E-006  0.1074272E+03  0.7561462E-02  0.1265410E+00
          4   -1    0    0  501    0  0.00000000000E+00  0.00000000000E+00  0.67973890721E+03  0.67973890721E+03  0.00000000000E+00 0. -1.
         -4   -1    0    0    0  501 -0.00000000000E+00 -0.00000000000E+00 -0.17181697108E+02  0.17181697108E+02  0.00000000000E+00 0.  1.
         23    2    1    2    0    0  0.22294314089E+02  0.64964831886E+00  0.32337928295E+03  0.33698148554E+03  0.92113530339E+02 0.  0.
          5    1    1    2  502    0  0.44217435756E+02 -0.23214965724E+02  0.14046285583E+03  0.14913551732E+03  0.41800000000E+01 0. -1.
         -5    1    1    2    0  502 -0.66511749845E+02  0.22565317405E+02  0.19871507132E+03  0.21080360145E+03  0.41800000000E+01 0.  1.
        -11    1    3    3    0    0 -0.35708172837E+02 -0.51894674422E+01  0.10898841255E+03  0.11480626398E+03  0.00000000000E+00 0.  1.
         11    1    3    3    0    0  0.58002486926E+02  0.58391157610E+01  0.21439087041E+03  0.22217522156E+03  0.00000000000E+00 0. -1.
</event>
<event>
 7    1  0.5137842E-006  0.7426731E+02  0.7561462E-02  0.1346155E+00
          3   -1    0    0  501    0  0.00000000000E+00  0.00000000000E+00  0.51023066497E+02  0.51023066497E+02  0.00000000000E+00 0. -1.
         -3   -1    0    0    0  501 -0.00000000000E+00 -0.00000000000E+00 -0.25239698682E+03  0.25239698682E+03  0.00000000000E+00 0.  1.
         23    2    1    2    0    0  0.17363365371E+02 -0.30215584134E+02 -0.69078815180E+02  0.11804897445E+03  0.89158340500E+02 0.  0.
          5    1    1    2  502    0 -0.57433778176E+02  0.31745854262E+02 -0.12915662920E+03  0.14493220969E+03  0.41800000000E+01 0. -1.
         -5    1    1    2    0  502  0.40070412805E+02 -0.15302701280E+01 -0.31384759414E+01  0.40438869177E+02  0.41800000000E+01 0. -1.
        -11    1    3    3    0    0  0.30891962114E+01 -0.27815763657E+02 -0.89072514801E+02  0.93365800666E+02  0.00000000000E+00 0.  1.
         11    1    3    3    0    0  0.14274169160E+02 -0.23998204775E+01  0.19993699622E+02  0.24683173785E+02  0.00000000000E+00 0. -1.
</event>
<event>
 7    1  0.5137842E-006  0.1338351E+03  0.7561462E-02  0.1221874E+00
         -1   -1    0    0    0  501 -0.00000000000E+00  0.00000000000E+00  0.27130687231E+02  0.27130687231E+02  0.00000000000E+00 0.  1.
          1   -1    0    0  501    0  0.00000000000E+00 -0.00000000000E+00 -0.83416614826E+03  0.83416614826E+03  0.00000000000E+00 0. -1.
         23    2    1    2    0    0  0.52837743772E+01 -0.99991349312E+02 -0.45143740819E+03  0.47126566087E+03  0.90936249024E+02 0.  0.
          5    1    1    2  502    0 -0.20304076838E+02  0.11565147481E+03 -0.34694366861E+03  0.36629892267E+03  0.41800000000E+01 0.  1.
         -5    1    1    2    0  502  0.15020302461E+02 -0.15660125494E+02 -0.86543842249E+01  0.23732251954E+02  0.41800000000E+01 0.  1.
        -11    1    3    3    0    0  0.37574415058E+02 -0.84049710922E+02 -0.24533690890E+03  0.26204272446E+03  0.00000000000E+00 0.  1.
         11    1    3    3    0    0 -0.32290640681E+02 -0.15941638390E+02 -0.20610049929E+03  0.20922293641E+03  0.00000000000E+00 0. -1.
</event>
<event>
 7    1  0.5137842E-006  0.2607672E+03  0.7561462E-02  0.1106683E+00
         -1   -1    0    0    0  501 -0.00000000000E+00  0.00000000000E+00  0.77994773127E+02  0.77994773127E+02  0.00000000000E+00 0.  1.
          1   -1    0    0  501    0  0.00000000000E+00 -0.00000000000E+00 -0.10629222166E+04  0.10629222166E+04  0.00000000000E+00 0. -1.
         23    2    1    2    0    0  0.14770497242E+03  0.76060688033E+02 -0.51890048172E+03  0.55238452100E+03  0.90933832901E+02 0.  0.
          5    1    1    2  502    0  0.89206726778E+02 -0.27514140370E+02 -0.46740777492E+02  0.10448464339E+03  0.41800000000E+01 0. -1.
         -5    1    1    2    0  502 -0.23691169920E+03 -0.48546547663E+02 -0.41928618427E+03  0.48404782535E+03  0.41800000000E+01 0.  1.
        -11    1    3    3    0    0  0.71422520511E+02  0.83140810917E+02 -0.25426739749E+03  0.27688531977E+03  0.00000000000E+00 0.  1.
         11    1    3    3    0    0  0.76282451912E+02 -0.70801228842E+01 -0.26463308423E+03  0.27549920123E+03  0.00000000000E+00 0. -1.
</event>
<event>
 7    1  0.5137842E-006  0.1071277E+03  0.7561462E-02  0.1265983E+00
         -1   -1    0    0    0  501 -0.00000000000E+00  0.00000000000E+00  0.11809255232E+03  0.11809255232E+03  0.00000000000E+00 0.  1.
          1   -1    0    0  501    0  0.00000000000E+00 -0.00000000000E+00 -0.10428224350E+03  0.10428224350E+03  0.00000000000E+00 0. -1.
         23    2    1    2    0    0  0.11613773011E+02  0.97176652351E+01 -0.14977032997E+02  0.93428646624E+02  0.90968608604E+02 0.  0.
          5    1    1    2  502    0 -0.64270590077E+02 -0.22722748158E+02  0.29851195262E+02  0.74535885929E+02  0.41800000000E+01 0. -1.
         -5    1    1    2    0  502  0.52656817066E+02  0.13005082923E+02 -0.10638534440E+01  0.54410263274E+02  0.41800000000E+01 0. -1.
        -11    1    3    3    0    0 -0.31224911482E+01  0.49260277983E+02 -0.13636193930E+02  0.51208111885E+02  0.00000000000E+00 0.  1.
         11    1    3    3    0    0  0.14736264159E+02 -0.39542612748E+02 -0.13408390671E+01  0.42220534739E+02  0.00000000000E+00 0. -1.
</event>
<event>
 7    1  0.5137842E-006  0.1169690E+03  0.7561462E-02  0.1248183E+00
          1   -1    0    0  501    0  0.00000000000E+00  0.00000000000E+00  0.89817978191E+02  0.89817978191E+02  0.00000000000E+00 0.  1.
         -1   -1    0    0    0  501 -0.00000000000E+00 -0.00000000000E+00 -0.18557295454E+03  0.18557295454E+03  0.00000000000E+00 0. -1.
         23    2    1    2    0    0  0.28172211267E+02 -0.62180796968E+02 -0.28233984637E+02  0.11769680145E+03  0.91625619696E+02 0.  0.
          5    1    1    2  502    0 -0.58444505211E+02 -0.13918737474E+02 -0.33465107657E+02  0.68897585391E+02  0.41800000000E+01 0.  1.
         -5    1    1    2    0  502  0.30272293945E+02  0.76099534442E+02 -0.34055884059E+02  0.88796545890E+02  0.41800000000E+01 0.  1.
        -11    1    3    3    0    0 -0.12794581473E+02 -0.45856443477E+02 -0.49550935567E+02  0.68715427227E+02  0.00000000000E+00 0. -1.
         11    1    3    3    0    0  0.40966792739E+02 -0.16324353491E+02  0.21316950929E+02  0.48981374227E+02  0.00000000000E+00 0.  1.
</event>
<event>
 7    1  0.5137842E-006  0.9203387E+02  0.7561462E-02  0.1298000E+00
          2   -1    0    0  501    0  0.00000000000E+00  0.00000000000E+00  0.75691600619E+03  0.75691600619E+03  0.00000000000E+00 0. -1.
         -2   -1    0    0    0  501 -0.00000000000E+00 -0.00000000000E+00 -0.31139411437E+02  0.31139411437E+02  0.00000000000E+00 0.  1.
         23    2    1    2    0    0 -0.84950066936E+01  0.61962451615E+02  0.57893531096E+03  0.58916371956E+03  0.89645321216E+02 0.  0.
          5    1    1    2  502    0  0.23603574593E+02 -0.22657532801E+02  0.15265560482E+03  0.15617841916E+03  0.41800000000E+01 0. -1.
         -5    1    1    2    0  502 -0.15108567900E+02 -0.39304918813E+02 -0.58143210278E+01  0.42713278918E+02  0.41800000000E+01 0.  1.
        -11    1    3    3    0    0 -0.40005212646E+01 -0.23171962349E+02  0.10268117407E+03  0.10533929712E+03  0.00000000000E+00 0.  1.
         11    1    3    3    0    0 -0.44944854290E+01  0.85134413963E+02  0.47625413689E+03  0.48382442244E+03  0.00000000000E+00 0. -1.
</event>
<event>
 7    1  0.5137842E-006  0.1285412E+03  0.7561462E-02  0.1229636E+00
         -1   -1    0    0    0  501 -0.00000000000E+00  0.00000000000E+00  0.50528606890E+02  0.50528606890E+02  0.00000000000E+00 0.  1.
          1   -1    0    0  501    0  0.00000000000E+00 -0.00000000000E+00 -0.48729782706E+03  0.48729782706E+03  0.00000000000E+00 0. -1.
         23    2    1    2    0    0  0.57173527725E+02 -0.99795539903E+02 -0.19675389421E+03  0.24374670516E+03  0.86443040962E+02 0.  0.
          5    1    1    2  502    0 -0.58341569140E+02  0.10226118252E+03 -0.10157882208E+03  0.15555326302E+03  0.41800000000E+01 0. -1.
         -5    1    1    2    0  502  0.11680414146E+01 -0.24656426186E+01 -0.13843650387E+03  0.13852646577E+03  0.41800000000E+01 0. -1.
        -11    1    3    3    0    0  0.52805749486E+02 -0.23391445994E+02 -0.43014068912E+02  0.72012617290E+02  0.00000000000E+00 0.  1.
         11    1    3    3    0    0  0.43677782386E+01 -0.76404093909E+02 -0.15373982530E+03  0.17173408787E+03  0.00000000000E+00 0. -1.
</event>
<event>
 7    1  0.5137842E-006  0.1414252E+03  0.7561462E-02  0.1211424E+00
         -2   -1    0    0    0  501 -0.00000000000E+00  0.00000000000E+00  0.10945150006E+03  0.10945150006E+03  0.00000000000E+00 0.  1.
          2   -1    0    0  501    0  0.00000000000E+00 -0.00000000000E+00 -0.24377951377E+03  0.24377951377E+03  0.00000000000E+00 0. -1.
         23    2    1    2    0    0 -0.76982568399E+02 -0.58023652918E+02 -0.14192559081E+03  0.19512371425E+03  0.92937239042E+02 0.  0.
          5    1    1    2  502    0  0.89149726671E+02 -0.43542037378E+01  0.23638293829E+02  0.92427670050E+02  0.41800000000E+01 0.  1.
         -5    1    1    2    0  502 -0.12167158272E+02  0.62377856655E+02 -0.16040716723E+02  0.65679629523E+02  0.41800000000E+01 0.  1.
        -11    1    3    3    0    0  0.17854715443E+01 -0.50663237924E+02 -0.79771958520E+02  0.94517283878E+02  0.00000000000E+00 0.  1.
         11    1    3    3    0    0 -0.78768039943E+02 -0.73604149938E+01 -0.62153632294E+02  0.10060643037E+03  0.00000000000E+00 0. -1.
</event>
<event>
 7    1  0.5137842E-006  0.1595864E+03  0.7561462E-02  0.1189165E+00
         -1   -1    0    0    0  501 -0.00000000000E+00  0.00000000000E+00  0.76772561356E+02  0.76772561356E+02  0.00000000000E+00 0.  1.
          1   -1    0    0  501    0  0.00000000000E+00 -0.00000000000E+00 -0.47920014089E+03  0.47920014089E+03  0.00000000000E+00 0. -1.
         23    2    1    2    0    0  0.91428093052E+02  0.10639367226E+03 -0.29284163790E+03  0.33842488486E+03  0.95375406192E+02 0.  0.
          5    1    1    2  502    0 -0.53350712880E+02  0.11344392880E+02 -0.40387401324E+01  0.54852325716E+02  0.41800000000E+01 0.  1.
         -5    1    1    2    0  502 -0.38077380172E+02 -0.11773806514E+03 -0.10554720150E+03  0.16269549167E+03  0.41800000000E+01 0.  1.
        -11    1    3    3    0    0  0.42797094615E+02  0.57682211334E+02 -0.24313424287E+03  0.25352137753E+03  0.00000000000E+00 0. -1.
         11    1    3    3    0    0  0.48630998438E+02  0.48711460930E+02 -0.49707395031E+02  0.84903507323E+02  0.00000000000E+00 0.  1.
</event>
<event>
 7    1  0.5137842E-006  0.1511534E+03  0.7561462E-02  0.1199063E+00
          2   -1    0    0  501    0  0.00000000000E+00  0.00000000000E+00  0.21583806464E+03  0.21583806464E+03  0.00000000000E+00 0. -1.
         -2   -1    0    0    0  501 -0.00000000000E+00 -0.00000000000E+00 -0.12122853964E+03  0.12122853964E+03  0.00000000000E+00 0.  1.
         23    2    1    2    0    0 -0.42398510044E+01 -0.11706126961E+03  0.31019653218E+02  0.15427500308E+03  0.95484242214E+02 0.  0.
          5    1    1    2  502    0 -0.33628208748E+02  0.64757963626E+01 -0.19208499484E+02  0.39487101876E+02  0.41800000000E+01 0. -1.
         -5    1    1    2    0  502  0.37868059753E+02  0.11058547325E+03  0.82798371267E+02  0.14330449933E+03  0.41800000000E+01 0. -1.
        -11    1    3    3    0    0  0.41070613193E+02 -0.87727987163E+02  0.24418153671E+02  0.99896152220E+02  0.00000000000E+00 0. -1.
         11    1    3    3    0    0 -0.45310464197E+02 -0.29333282448E+02  0.66014995465E+01  0.54378850863E+02  0.00000000000E+00 0.  1.
</event>
<event>
 7    1  0.5137842E-006  0.1674875E+03  0.7561462E-02  0.1180494E+00
         -1   -1    0    0    0  501 -0.00000000000E+00  0.00000000000E+00  0.70622795534E+02  0.70622795534E+02  0.00000000000E+00 0.  1.
          1   -1    0    0  501    0  0.00000000000E+00 -0.00000000000E+00 -0.63267911930E+03  0.63267911930E+03  0.00000000000E+00 0. -1.
         23    2    1    2    0    0  0.15853025692E+03  0.20517651829E+02 -0.40753533200E+03  0.44819943909E+03  0.96150267689E+02 0.  0.
          5    1    1    2  502    0 -0.16451169049E+02 -0.13001328690E+02 -0.10067271783E+03  0.10291814236E+03  0.41800000000E+01 0.  1.
         -5    1    1    2    0  502 -0.14207908787E+03 -0.75163231391E+01 -0.53848273939E+02  0.15218433339E+03  0.41800000000E+01 0.  1.
        -11    1    3    3    0    0  0.13640357799E+03  0.39600646535E+02 -0.38766027149E+03  0.41286151842E+03  0.00000000000E+00 0. -1.
         11    1    3    3    0    0  0.22126678927E+02 -0.19082994707E+02 -0.19875060505E+02  0.35337920671E+02  0.00000000000E+00 0.  1.
</event>
<event>
 7    1  0.5137842E-006  0.2261393E+03  0.7561462E-02  0.1129387E+00
         -2   -1    0    0    0  501 -0.00000000000E+00  0.00000000000E+00  0.59503895700E+03  0.59503895700E+03  0.00000000000E+00 0. -1.
          2   -1    0    0  501    0  0.00000000000E+00 -0.00000000000E+00 -0.10238263731E+03  0.10238263731E+03  0.00000000000E+00 0.  1.
         23    2    1    2    0    0  0.20520861295E+03  0.77719486507E+02  0.27827846042E+03  0.36612511793E+03  0.91966336419E+02 0.  0.
          5    1    1    2  502    0 -0.10835515237E+03 -0.15540482887E+02  0.18068578155E+03  0.21129876883E+03  0.41800000000E+01 0. -1.
         -5    1    1    2    0  502 -0.96853460579E+02 -0.62179003620E+02  0.33692077722E+02  0.11999770755E+03  0.41800000000E+01 0. -1.
        -11    1    3    3    0    0  0.57290622881E+01  0.18668487047E+02  0.66302902982E+02  0.69118807189E+02  0.00000000000E+00 0. -1.
         11    1    3    3    0    0  0.19947955066E+03  0.59050999460E+02  0.21197555743E+03  0.29700631074E+03  0.00000000000E+00 0.  1.
</event>
<event>
 7    1  0.5137842E-006  0.1279000E+03  0.7561462E-02  0.1230605E+00
          2   -1    0    0  501    0  0.00000000000E+00  0.00000000000E+00  0.17791997417E+03  0.17791997417E+03  0.00000000000E+00 0.  1.
         -2   -1    0    0    0  501 -0.00000000000E+00 -0.00000000000E+00 -0.14859494058E+03  0.14859494058E+03  0.00000000000E+00 0. -1.
         23    2    1    2    0    0  0.71982880335E+02  0.38436021964E+02  0.97409961394E+02  0.16237674487E+03  0.10108730805E+03 0.  0.
          5    1    1    2  502    0 -0.10728228123E+03 -0.25528533554E+02 -0.41457043431E+02  0.11788703382E+03  0.41800000000E+01 0.  1.
         -5    1    1    2    0  502  0.35299400897E+02 -0.12907488410E+02 -0.26627884381E+02  0.46251136066E+02  0.41800000000E+01 0.  1.
        -11    1    3    3    0    0  0.78400055699E+02  0.10663746605E+02  0.10630408213E+03  0.13251732756E+03  0.00000000000E+00 0.  1.
         11    1    3    3    0    0 -0.64171753647E+01  0.27772275359E+02 -0.88941207388E+01  0.29859417308E+02  0.00000000000E+00 0. -1.
</event>
<event>
 7    1  0.5137842E-006  0.1087803E+03  0.7561462E-02  0.1262845E+00
         -1   -1    0    0    0  501 -0.00000000000E+00  0.00000000000E+00  0.40800901634E+03  0.40800901634E+03  0.00000000000E+00 0.  1.
          1   -1    0    0  501    0  0.00000000000E+00 -0.00000000000E+00 -0.34947653757E+02  0.34947653757E+02  0.00000000000E+00 0. -1.
         23    2    1    2    0    0  0.12127209620E+02  0.50960690996E+02  0.15048426410E+03  0.18231912715E+03  0.88604114709E+02 0.  0.
          5    1    1    2  502    0  0.29146220313E+02  0.25204407124E+02  0.28644853272E+02  0.48195065266E+02  0.41800000000E+01 0.  1.
         -5    1    1    2    0  502 -0.41273429933E+02 -0.76165098120E+02  0.19393224521E+03  0.21244247768E+03  0.41800000000E+01 0.  1.
        -11    1    3    3    0    0 -0.15218315657E+02  0.61054832329E+02  0.13582367564E+03  0.14969088331E+03  0.00000000000E+00 0.  1.
         11    1    3    3    0    0  0.27345525277E+02 -0.10094141333E+02  0.14660588455E+02  0.32628243835E+02  0.00000000000E+00 0. -1.
</event>
<event>
 7    1  0.5137842E-006  0.1330112E+03  0.7561462E-02  0.1223055E+00
          2   -1    0    0  501    0  0.00000000000E+00  0.00000000000E+00  0.77625706231E+02  0.77625706231E+02  0.00000000000E+00 0. -1.
         -2   -1    0    0    0  501 -0.00000000000E+00 -0.00000000000E+00 -0.24578196584E+03  0.24578196584E+03  0.00000000000E+00 0.  1.
         23    2    1    2    0    0  0.33820334699E+02  0.78224585141E+02 -0.60802504539E+02  0.13783852004E+03  0.89663885085E+02 0.  0.
          5    1    1    2  502    0 -0.74516424091E+02 -0.16552541410E+02 -0.64692518693E+02  0.10014628531E+03  0.41800000000E+01 0.  1.
         -5    1    1    2    0  502  0.40696089392E+02 -0.61672043731E+02 -0.42661236375E+02  0.85422866721E+02  0.41800000000E+01 0.  1.
        -11    1    3    3    0    0  0.57248066681E+02  0.37038792638E+02 -0.59408047663E+02  0.90435222264E+02  0.00000000000E+00 0.  1.
         11    1    3    3    0    0 -0.23427731982E+02  0.41185792504E+02 -0.13944568761E+01  0.47403297775E+02  0.00000000000E+00 0. -1.
</event>
<event>
 7    1  0.5137842E-006  0.1442546E+03  0.7561462E-02  0.1207716E+00
         -2   -1    0    0    0  501 -0.00000000000E+00  0.00000000000E+00  0.44927377703E+02  0.44927377703E+02  0.00000000000E+00 0. -1.
          2   -1    0    0  501    0  0.00000000000E+00 -0.00000000000E+00 -0.54343953072E+03  0.54343953072E+03  0.00000000000E+00 0.  1.
         23    2    1    2    0    0 -0.79358023641E+02 -0.50784358296E+02 -0.34372781791E+03  0.36818102558E+03  0.92367244328E+02 0.  0.
          5    1    1    2  502    0 -0.19863278683E+02  0.53509474343E+02 -0.54747251155E+02  0.79199416624E+02  0.41800000000E+01 0.  1.
         -5    1    1    2    0  502  0.99221302324E+02 -0.27251160474E+01 -0.10003708395E+03  0.14098646622E+03  0.41800000000E+01 0.  1.
        -11    1    3    3    0    0 -0.87480693095E+02 -0.73987264233E+01 -0.22673382880E+03  0.24313749595E+03  0.00000000000E+00 0. -1.
         11    1    3    3    0    0  0.81226694534E+01 -0.43385631872E+02 -0.11699398911E+03  0.12504352962E+03  0.00000000000E+00 0.  1.
</event>
<event>
 7    1  0.5137842E-006  0.1237015E+03  0.7561462E-02  0.1237113E+00
          1   -1    0    0  501    0  0.00000000000E+00  0.00000000000E+00  0.10386279502E+03  0.10386279502E+03  0.00000000000E+00 0. -1.
         -1   -1    0    0    0  501 -0.00000000000E+00 -0.00000000000E+00 -0.17380207756E+03  0.17380207756E+03  0.00000000000E+00 0.  1.
         23    2    1    2    0    0  0.26788113088E+02  0.71592685865E+02 -0.50870739379E+02  0.12982908274E+03  0.91785853633E+02 0.  0.
          5    1    1    2  502    0  0.48890780912E+02 -0.18726726492E+02  0.37355900001E+01  0.52653829642E+02  0.41800000000E+01 0.  1.
         -5    1    1    2    0  502 -0.75678894001E+02 -0.52865959373E+02 -0.22804133160E+02  0.95181960196E+02  0.41800000000E+01 0.  1.
        -11    1    3    3    0    0  0.35180902464E+02  0.52143450546E+01  0.12477484846E+02  0.37690488463E+02  0.00000000000E+00 0. -1.
         11    1    3    3    0    0 -0.83927893752E+01  0.66378340811E+02 -0.63348224225E+02  0.92138594274E+02  0.00000000000E+00 0.  1.
</event>
<event>
 7    1  0.5137842E-006  0.1239072E+03  0.7561462E-02  0.1236787E+00
         -1   -1    0    0    0  501 -0.00000000000E+00  0.00000000000E+00  0.44074766011E+02  0.44074766011E+02  0.00000000000E+00 0.  1.
          1   -1    0    0  501    0  0.00000000000E+00 -0.00000000000E+00 -0.42291413292E+03  0.42291413292E+03  0.00000000000E+00 0. -1.
         23    2    1    2    0    0  0.42970792857E+02 -0.64677076899E+02 -0.21930066955E+03  0.24989453709E+03  0.91240795096E+02 0.  0.
          5    1    1    2  502    0 -0.36266665673E+02  0.10199866802E+03 -0.10799164703E+03  0.15296623008E+03  0.41800000000E+01 0. -1.
         -5    1    1    2    0  502 -0.67041271848E+01 -0.37321591120E+02 -0.51547050331E+02  0.64128131759E+02  0.41800000000E+01 0. -1.
        -11    1    3    3    0    0  0.20032844451E+02 -0.73930603679E+02 -0.20989149122E+03  0.22343116860E+03  0.00000000000E+00 0. -1.
         11    1    3    3    0    0  0.22937948407E+02  0.92535267798E+01 -0.94091783275E+01  0.26463368489E+02  0.00000000000E+00 0.  1.
</event>
<event>
 7    1  0.5137842E-006  0.1113409E+03  0.7561462E-02  0.1258107E+00
         -2   -1    0    0    0  501 -0.00000000000E+00  0.00000000000E+00  0.53270925102E+02  0.53270925102E+02  0.00000000000E+00 0.  1.
          2   -1    0    0  501    0  0.00000000000E+00 -0.00000000000E+00 -0.31637039063E+03  0.31637039063E+03  0.00000000000E+00 0. -1.
         23    2    1    2    0    0  0.54566283627E+02 -0.43993597019E+02 -0.14716653508E+03  0.18524784564E+03  0.88010564014E+02 0.  0.
          5    1    1    2  502    0 -0.22330208370E+02  0.72386123152E+02 -0.18887135845E+02  0.78183024572E+02  0.41800000000E+01 0. -1.
         -5    1    1    2    0  502 -0.32236075257E+02 -0.28392526133E+02 -0.97045794601E+02  0.10621044552E+03  0.41800000000E+01 0. -1.
        -11    1    3    3    0    0  0.64400909405E+02 -0.63106812714E+01 -0.12417090042E+03  0.14002040688E+03  0.00000000000E+00 0. -1.
         11    1    3    3    0    0 -0.98346257777E+01 -0.37682915747E+02 -0.22995634656E+02  0.45227438758E+02  0.00000000000E+00 0.  1.
</event>
<event>
 7    1  0.5137842E-006  0.1286256E+03  0.7561462E-02  0.1229509E+00
         -2   -1    0    0    0  501 -0.00000000000E+00  0.00000000000E+00  0.48753432790E+02  0.48753432790E+02  0.00000000000E+00 0. -1.
          2   -1    0    0  501    0  0.00000000000E+00 -0.00000000000E+00 -0.39083793644E+03  0.39083793644E+03  0.00000000000E+00 0.  1.
         23    2    1    2    0    0 -0.79170957332E+02  0.30336718385E+02 -0.17347946756E+03  0.21317714014E+03  0.90338311060E+02 0.  0.
          5    1    1    2  502    0  0.99455781501E+02 -0.53891491584E+02 -0.15569850907E+03  0.19249738561E+03  0.41800000000E+01 0. -1.
         -5    1    1    2    0  502 -0.20284824169E+02  0.23554773200E+02 -0.12906527014E+02  0.33916843480E+02  0.41800000000E+01 0. -1.
        -11    1    3    3    0    0  0.12997865031E+02  0.13966969022E+02 -0.38972881568E+01  0.19473304137E+02  0.00000000000E+00 0. -1.
         11    1    3    3    0    0 -0.92168822363E+02  0.16369749362E+02 -0.16958217941E+03  0.19370383600E+03  0.00000000000E+00 0.  1.
</event>
<event>
 7    1  0.5137842E-006  0.8884691E+02  0.7561462E-02  0.1305668E+00
         -1   -1    0    0    0  501 -0.00000000000E+00  0.00000000000E+00  0.29788915042E+03  0.29788915042E+03  0.00000000000E+00 0.  1.
          1   -1    0    0  501    0  0.00000000000E+00 -0.00000000000E+00 -0.21728085977E+03  0.21728085977E+03  0.00000000000E+00 0. -1.
         23    2    1    2    0    0 -0.43275980625E+02 -0.10279838309E+02 -0.17458049617E+03  0.20136569792E+03  0.89951704160E+02 0.  0.
          5    1    1    2  502    0  0.10195689276E+02 -0.29545512809E+02 -0.17601363977E+02  0.36113291470E+02  0.41800000000E+01 0. -1.
         -5    1    1    2    0  502  0.33080291350E+02  0.39825351118E+02  0.27279015079E+03  0.27769102080E+03  0.41800000000E+01 0.  1.
        -11    1    3    3    0    0 -0.63452869844E+02 -0.26068946668E+02 -0.15370149410E+03  0.16831519825E+03  0.00000000000E+00 0. -1.
         11    1    3    3    0    0  0.20176889218E+02  0.15789108359E+02 -0.20879002067E+02  0.33050499673E+02  0.00000000000E+00 0.  1.
</event>
<event>
 7    1  0.5137842E-006  0.1966012E+03  0.7561462E-02  0.1152639E+00
         -2   -1    0    0    0  501 -0.00000000000E+00  0.00000000000E+00  0.61389394286E+02  0.61389394286E+02  0.00000000000E+00 0.  1.
          2   -1    0    0  501    0  0.00000000000E+00 -0.00000000000E+00 -0.10806984245E+04  0.10806984245E+04  0.00000000000E+00 0. -1.
         23    2    1    2    0    0 -0.15094455085E+03 -0.85619318414E+02 -0.85136142598E+03  0.87377719975E+03  0.92495362268E+02 0.  0.
          5    1    1    2  502    0 -0.17098317391E+02 -0.43902919754E+01 -0.19732024185E+02  0.26803960522E+02  0.41800000000E+01 0. -1.
         -5    1    1    2    0  502  0.16804286824E+03  0.90009610389E+02 -0.14821558001E+03  0.24150665847E+03  0.41800000000E+01 0.  1.
        -11    1    3    3    0    0  0.31978517222E+00 -0.19162758284E+02 -0.27545375585E+02  0.33556836617E+02  0.00000000000E+00 0.  1.
         11    1    3    3    0    0 -0.15126433602E+03 -0.66456560130E+02 -0.82381605040E+03  0.84022036314E+03  0.00000000000E+00 0. -1.
</event>
<event>
 7    1  0.5137842E-006  0.1276255E+03  0.7561462E-02  0.1231022E+00
         -2   -1    0    0    0  501 -0.00000000000E+00  0.00000000000E+00  0.80261035889E+02  0.80261035889E+02  0.00000000000E+00 0.  1.
          2   -1    0    0  501    0  0.00000000000E+00 -0.00000000000E+00 -0.26712547514E+03  0.26712547514E+03  0.00000000000E+00 0. -1.
         23    2    1    2    0    0 -0.24320001216E+02  0.93255221231E+02 -0.10786545630E+03  0.17081905634E+03  0.90863604369E+02 0.  0.
          5    1    1    2  502    0  0.46209980631E+02  0.13315857877E+02 -0.16418560079E+02  0.50987409190E+02  0.41800000000E+01 0. -1.
         -5    1    1    2    0  502 -0.21889979414E+02 -0.10657107911E+03 -0.62580422866E+02  0.12558004550E+03  0.41800000000E+01 0. -1.
        -11    1    3    3    0    0 -0.11335221267E+02  0.74098065046E+02 -0.16747707672E+02  0.76808177930E+02  0.00000000000E+00 0.  1.
         11    1    3    3    0    0 -0.12984779949E+02  0.19157156186E+02 -0.91117748633E+02  0.94010878410E+02  0.00000000000E+00 0. -1.
</event>
<event>
 7    1  0.5137842E-006  0.8537692E+02  0.7561462E-02  0.1314450E+00
          1   -1    0    0  501    0  0.00000000000E+00  0.00000000000E+00  0.10145124469E+03  0.10145124469E+03  0.00000000000E+00 0. -1.
         -1   -1    0    0    0  501 -0.00000000000E+00 -0.00000000000E+00 -0.11639787083E+03  0.11639787083E+03  0.00000000000E+00 0.  1.
         23    2    1    2    0    0  0.48830576794E+01 -0.84105414408E+01  0.10475012312E+01  0.91366107324E+02  0.90840997623E+02 0.  0.
          5    1    1    2  502    0  0.47633054411E+02 -0.23310593165E+02 -0.33100384617E+02  0.62653008611E+02  0.41800000000E+01 0.  1.
         -5    1    1    2    0  502 -0.52516112090E+02  0.31721134606E+02  0.17106257250E+02  0.63829999584E+02  0.41800000000E+01 0.  1.
        -11    1    3    3    0    0 -0.14887339010E+02 -0.25764772846E+02  0.36580460242E+02  0.47154919724E+02  0.00000000000E+00 0. -1.
         11    1    3    3    0    0  0.19770396690E+02  0.17354231405E+02 -0.35532959011E+02  0.44211187600E+02  0.00000000000E+00 0.  1.
</event>
<event>
 7    1  0.5137842E-006  0.1060635E+03  0.7561462E-02  0.1268038E+00
          2   -1    0    0  501    0  0.00000000000E+00  0.00000000000E+00  0.18759376102E+02  0.18759376102E+02  0.00000000000E+00 0. -1.
         -2   -1    0    0    0  501 -0.00000000000E+00 -0.00000000000E+00 -0.65973386475E+03  0.65973386475E+03  0.00000000000E+00 0.  1.
         23    2    1    2    0    0  0.20838418692E+02  0.80663981511E+01 -0.23541570008E+03  0.25349090172E+03  0.91311439260E+02 0.  0.
          5    1    1    2  502    0  0.46982363843E+02  0.18571087370E+02 -0.21624790111E+03  0.22211000638E+03  0.41800000000E+01 0. -1.
         -5    1    1    2    0  502 -0.67820782535E+02 -0.26637485521E+02 -0.18931088745E+03  0.20289233274E+03  0.41800000000E+01 0. -1.
        -11    1    3    3    0    0 -0.15243879064E+02  0.38397965303E+02 -0.15368819082E+03  0.15914408436E+03  0.00000000000E+00 0.  1.
         11    1    3    3    0    0  0.36082297757E+02 -0.30331567152E+02 -0.81727509258E+02  0.94346817364E+02  0.00000000000E+00 0. -1.
</event>
<event>
 7    1  0.5137842E-006  0.1253825E+03  0.7561462E-02  0.1234473E+00
          1   -1    0    0  501    0  0.00000000000E+00  0.00000000000E+00  0.73846404218E+03  0.73846404218E+03  0.00000000000E+00 0. -1.
         -1   -1    0    0    0  501 -0.00000000000E+00 -0.00000000000E+00 -0.26743256262E+02  0.26743256262E+02  0.00000000000E+00 0.  1.
         23    2    1    2    0    0  0.71808460401E+02 -0.21988180933E+02  0.46134979599E+03  0.47542872731E+03  0.86884437080E+02 0.  0.
          5    1    1    2  502    0 -0.24337986687E+02 -0.48577600693E+02  0.58980824666E+02  0.80301500381E+02  0.41800000000E+01 0. -1.
         -5    1    1    2    0  502 -0.47470473714E+02  0.70565781627E+02  0.19139016526E+03  0.20947707075E+03  0.41800000000E+01 0. -1.
        -11    1    3    3    0    0  0.40631992278E+01  0.27136897012E+02  0.69033797223E+02  0.74287185479E+02  0.00000000000E+00 0.  1.
         11    1    3    3    0    0  0.67745261173E+02 -0.49125077946E+02  0.39231599877E+03  0.40114154183E+03  0.00000000000E+00 0. -1.
</event>
<event>
 7    1  0.5137842E-006  0.1038291E+03  0.7561462E-02  0.1272444E+00
         -2   -1    0    0    0  501 -0.00000000000E+00  0.00000000000E+00  0.58148805434E+02  0.58148805434E+02  0.00000000000E+00 0.  1.
          2   -1    0    0  501    0  0.00000000000E+00 -0.00000000000E+00 -0.41066210220E+03  0.41066210220E+03  0.00000000000E+00 0. -1.
         23    2    1    2    0    0 -0.52835487267E+02  0.39624236108E+02 -0.29575129457E+03  0.31639549159E+03  0.90970380105E+02 0.  0.
          5    1    1    2  502    0 -0.12928615710E+01 -0.41912511873E+02  0.28811249829E+02  0.51047925122E+02  0.41800000000E+01 0. -1.
         -5    1    1    2    0  502  0.54128348838E+02  0.22882757651E+01 -0.85573252025E+02  0.10136749092E+03  0.41800000000E+01 0. -1.
        -11    1    3    3    0    0 -0.62457749720E+02 -0.76610554710E+01 -0.14377401228E+03  0.15694148234E+03  0.00000000000E+00 0.  1.
         11    1    3    3    0    0  0.96222624533E+01  0.47285291579E+02 -0.15197728230E+03  0.15945400926E+03  0.00000000000E+00 0. -1.
</event>
<event>
 7    1  0.5137842E-006  0.1685033E+03  0.7561462E-02  0.1179418E+00
         -2   -1    0    0    0  501 -0.00000000000E+00  0.00000000000E+00  0.18675113652E+03  0.18675113652E+03  0.00000000000E+00 0.  1.
          2   -1    0    0  501    0  0.00000000000E+00 -0.00000000000E+00 -0.18562977021E+03  0.18562977021E+03  0.00000000000E+00 0. -1.
         23    2    1    2    0    0 -0.38383651871E+02  0.13095296889E+03 -0.63800855705E+02  0.17620682580E+03  0.91412862744E+02 0.  0.
          5    1    1    2  502    0 -0.32296943743E+02 -0.72609863947E+01  0.38977895070E+02  0.51308510041E+02  0.41800000000E+01 0. -1.
         -5    1    1    2    0  502  0.70680595613E+02 -0.12369198250E+03  0.25944326948E+02  0.14486557090E+03  0.41800000000E+01 0. -1.
        -11    1    3    3    0    0  0.25344312854E+02  0.16882809143E+02  0.76116558682E+00  0.30462153760E+02  0.00000000000E+00 0.  1.
         11    1    3    3    0    0 -0.63727964725E+02  0.11407015975E+03 -0.64562021292E+02  0.14574467204E+03  0.00000000000E+00 0. -1.
</event>
<event>
 7    1  0.5137842E-006  0.8905599E+02  0.7561462E-02  0.1305154E+00
          3   -1    0    0  501    0  0.00000000000E+00  0.00000000000E+00  0.42308889012E+02  0.42308889012E+02  0.00000000000E+00 0. -1.
         -3   -1    0    0    0  501 -0.00000000000E+00 -0.00000000000E+00 -0.25967853633E+03  0.25967853633E+03  0.00000000000E+00 0.  1.
         23    2    1    2    0    0  0.23684676919E+02 -0.10752689334E+02 -0.99723053733E+02  0.12831294753E+03  0.76439131405E+02 0.  0.
          5    1    1    2  502    0  0.13226269812E+02  0.62111301261E+02 -0.49657709564E+02  0.80722416197E+02  0.41800000000E+01 0.  1.
         -5    1    1    2    0  502 -0.36910946731E+02 -0.51358611927E+02 -0.67988884018E+02  0.92952061611E+02  0.41800000000E+01 0.  1.
        -11    1    3    3    0    0  0.34428287174E+02  0.19082908823E+01 -0.10529577899E+03  0.11079778701E+03  0.00000000000E+00 0.  1.
         11    1    3    3    0    0 -0.10743610255E+02 -0.12660980217E+02  0.55727252615E+01  0.17515160524E+02  0.00000000000E+00 0. -1.
</event>
<event>
 7    1  0.5137842E-006  0.7998694E+02  0.7561462E-02  0.1329088E+00
         -1   -1    0    0    0  501 -0.00000000000E+00  0.00000000000E+00  0.20846821938E+03  0.20846821938E+03  0.00000000000E+00 0.  1.
          1   -1    0    0  501    0  0.00000000000E+00 -0.00000000000E+00 -0.65191907132E+02  0.65191907132E+02  0.00000000000E+00 0. -1.
         23    2    1    2    0    0 -0.33635158006E+02  0.26452732589E+02  0.63743133403E+02  0.11937519197E+03  0.91412135339E+02 0.  0.
          5    1    1    2  502    0  0.53149396083E+02 -0.58179128156E+02  0.85479189670E+02  0.11633500558E+03  0.41800000000E+01 0.  1.
         -5    1    1    2    0  502 -0.19514238077E+02  0.31726395566E+02 -0.59460108224E+01  0.37949928960E+02  0.41800000000E+01 0.  1.
        -11    1    3    3    0    0 -0.17286521275E+02  0.83809804327E+01  0.84934845987E+02  0.87080380762E+02  0.00000000000E+00 0.  1.
         11    1    3    3    0    0 -0.16348636730E+02  0.18071752157E+02 -0.21191712584E+02  0.32294811212E+02  0.00000000000E+00 0. -1.
</event>
<event>
 7    1  0.5137842E-006  0.8111832E+02  0.7561462E-02  0.1325907E+00
         -2   -1    0    0    0  501 -0.00000000000E+00  0.00000000000E+00  0.89724771299E+02  0.89724771299E+02  0.00000000000E+00 0.  1.
          2   -1    0    0  501    0  0.00000000000E+00 -0.00000000000E+00 -0.13242156476E+03  0.13242156476E+03  0.00000000000E+00 0. -1.
         23    2    1    2    0    0  0.10866745718E+02  0.69919556280E+01 -0.21852757089E+02  0.94673938141E+02  0.91206567553E+02 0.  0.
          5    1    1    2  502    0 -0.45016723269E+02 -0.33697938755E+02  0.27217475878E+02  0.62612457574E+02  0.41800000000E+01 0.  1.
         -5    1    1    2    0  502  0.34149977552E+02  0.26705983127E+02 -0.48061512250E+02  0.64859940344E+02  0.41800000000E+01 0.  1.
        -11    1    3    3    0    0 -0.20578036001E+02  0.19599084699E+02  0.24321405954E+02  0.37404685192E+02  0.00000000000E+00 0.  1.
         11    1    3    3    0    0  0.31444781718E+02 -0.12607129071E+02 -0.46174163043E+02  0.57269252950E+02  0.00000000000E+00 0. -1.
</event>
<event>
 7    1  0.5137842E-006  0.2605764E+03  0.7561462E-02  0.1106797E+00
         -1   -1    0    0    0  501 -0.00000000000E+00  0.00000000000E+00  0.32397720155E+03  0.32397720155E+03  0.00000000000E+00 0.  1.
          1   -1    0    0  501    0  0.00000000000E+00 -0.00000000000E+00 -0.31368412573E+03  0.31368412573E+03  0.00000000000E+00 0. -1.
         23    2    1    2    0    0  0.23266366532E+03 -0.54534261817E+02 -0.17262921397E+03  0.31175441226E+03  0.10140809225E+03 0.  0.
          5    1    1    2  502    0 -0.14820587615E+03 -0.19111439712E+02  0.64484872612E+02  0.16280663393E+03  0.41800000000E+01 0. -1.
         -5    1    1    2    0  502 -0.84457789164E+02  0.73645701529E+02  0.11843741719E+03  0.16310028110E+03  0.41800000000E+01 0. -1.
        -11    1    3    3    0    0  0.10780234791E+03 -0.77239895720E+02 -0.84606764542E+02  0.15730750876E+03  0.00000000000E+00 0.  1.
         11    1    3    3    0    0  0.12486131741E+03  0.22705633903E+02 -0.88022449432E+02  0.15444690350E+03  0.00000000000E+00 0. -1.
</event>
<event>
 7    1  0.5137842E-006  0.1096226E+03  0.7561462E-02  0.1261270E+00
          2   -1    0    0  501    0  0.00000000000E+00  0.00000000000E+00  0.59098283456E+03  0.59098283456E+03  0.00000000000E+00 0. -1.
         -2   -1    0    0    0  501 -0.00000000000E+00 -0.00000000000E+00 -0.20989359306E+02  0.20989359306E+02  0.00000000000E+00 0.  1.
         23    2    1    2    0    0 -0.22916049437E+02 -0.59264344218E+01  0.27497204260E+03  0.29065714231E+03  0.91168427768E+02 0.  0.
          5    1    1    2  502    0  0.25505175029E+02 -0.57176812953E+02  0.12433246923E+03  0.13926857936E+03  0.41800000000E+01 0.  1.
         -5    1    1    2    0  502 -0.25891255917E+01  0.63103247375E+02  0.17068896343E+03  0.18204647219E+03  0.41800000000E+01 0.  1.
        -11    1    3    3    0    0 -0.57856258881E+02 -0.67865687386E+01  0.15080809967E+03  0.16166782961E+03  0.00000000000E+00 0. -1.
         11    1    3    3    0    0  0.34940209444E+02  0.86013431681E+00  0.12416394293E+03  0.12898931270E+03  0.00000000000E+00 0.  1.
</event>
<event>
 7    1  0.5137842E-006  0.1177522E+03  0.7561462E-02  0.1246852E+00
          1   -1    0    0  501    0  0.00000000000E+00  0.00000000000E+00  0.30742378235E+03  0.30742378235E+03  0.00000000000E+00 0. -1.
         -1   -1    0    0    0  501 -0.00000000000E+00 -0.00000000000E+00 -0.54272224115E+02  0.54272224115E+02  0.00000000000E+00 0.  1.
         23    2    1    2    0    0 -0.48649867767E+02  0.39428509449E+02  0.12015297596E+03  0.16867418915E+03  0.10046306517E+03 0.  0.
          5    1    1    2  502    0  0.26663898687E+01 -0.64823094594E+02  0.12337280497E+03  0.13945416678E+03  0.41800000000E+01 0. -1.
         -5    1    1    2    0  502  0.45983477898E+02  0.25394585144E+02  0.96257773066E+01  0.53567650527E+02  0.41800000000E+01 0. -1.
        -11    1    3    3    0    0 -0.47975249964E+02  0.71288906157E+02  0.79922225833E+02  0.11735116076E+03  0.00000000000E+00 0.  1.
         11    1    3    3    0    0 -0.67461780331E+00 -0.31860396708E+02  0.40230750128E+02  0.51323028392E+02  0.00000000000E+00 0. -1.
</event>
<event>
 7    1  0.5137842E-006  0.8129049E+02  0.7561462E-02  0.1325429E+00
         -2   -1    0    0    0  501 -0.00000000000E+00  0.00000000000E+00  0.24607553834E+03  0.24607553834E+03  0.00000000000E+00 0.  1.
          2   -1    0    0  501    0  0.00000000000E+00 -0.00000000000E+00 -0.19263701016E+03  0.19263701016E+03  0.00000000000E+00 0. -1.
         23    2    1    2    0    0  0.48360032925E+02  0.14890848629E+02 -0.15148845814E+03  0.18081525326E+03  0.84764218304E+02 0.  0.
          5    1    1    2  502    0 -0.41444180629E+02 -0.27399578432E+02 -0.25149778849E+01  0.49921483552E+02  0.41800000000E+01 0. -1.
         -5    1    1    2    0  502 -0.69158522958E+01  0.12508729804E+02  0.20744196421E+03  0.20797581169E+03  0.41800000000E+01 0.  1.
        -11    1    3    3    0    0  0.53612702796E+02 -0.23891011040E+02 -0.10247451130E+03  0.11809372454E+03  0.00000000000E+00 0. -1.
         11    1    3    3    0    0 -0.52526698715E+01  0.38781859669E+02 -0.49013946841E+02  0.62721528721E+02  0.00000000000E+00 0.  1.
</event>
<event>
 7    1  0.5137842E-006  0.1274097E+03  0.7561462E-02  0.1231351E+00
          1   -1    0    0  501    0  0.00000000000E+00  0.00000000000E+00  0.28491126228E+03  0.28491126228E+03  0.00000000000E+00 0. -1.
         -1   -1    0    0    0  501 -0.00000000000E+00 -0.00000000000E+00 -0.79593771184E+02  0.79593771184E+02  0.00000000000E+00 0.  1.
         23    2    1    2    0    0 -0.17042188299E+02 -0.11192427318E+03  0.11870920319E+03  0.17485853882E+03  0.60548778405E+02 0.  0.
          5    1    1    2  502    0  0.24631688539E+02  0.11625691522E+03  0.11145457842E+03  0.16297848284E+03  0.41800000000E+01 0.  1.
         -5    1    1    2    0  502 -0.75895002394E+01 -0.43326420426E+01 -0.24846290523E+02  0.26668011806E+02  0.41800000000E+01 0.  1.
        -11    1    3    3    0    0  0.12792615646E+02 -0.85237735137E+02  0.65407965978E+02  0.10820039057E+03  0.00000000000E+00 0.  1.
         11    1    3    3    0    0 -0.29834803945E+02 -0.26686538040E+02  0.53301237213E+02  0.66658148245E+02  0.00000000000E+00 0. -1.
</event>
<event>
 7    1  0.5137842E-006  0.9511284E+02  0.7561462E-02  0.1290922E+00
          2   -1    0    0  501    0  0.00000000000E+00  0.00000000000E+00  0.28894539026E+03  0.28894539026E+03  0.00000000000E+00 0. -1.
         -2   -1    0    0    0  501 -0.00000000000E+00 -0.00000000000E+00 -0.52299470995E+02  0.52299470995E+02  0.00000000000E+00 0.  1.
         23    2    1    2    0    0 -0.16832773450E+02 -0.40633352844E+02  0.15072145402E+03  0.18324360088E+03  0.94482003243E+02 0.  0.
          5    1    1    2  502    0  0.44222812377E+01  0.63880807603E+02 -0.39090631300E+01  0.64288936263E+02  0.41800000000E+01 0.  1.
         -5    1    1    2    0  502  0.12410492213E+02 -0.23247454759E+02  0.89833528385E+02  0.93712324119E+02  0.41800000000E+01 0.  1.
        -11    1    3    3    0    0  0.36847579284E+02 -0.19437842517E+02  0.37013769659E+02  0.55727847304E+02  0.00000000000E+00 0.  1.
         11    1    3    3    0    0 -0.53680352734E+02 -0.21195510327E+02  0.11370768436E+03  0.12751575357E+03  0.00000000000E+00 0. -1.
</event>
<event>
 7    1  0.5137842E-006  0.1031147E+03  0.7561462E-02  0.1273879E+00
          2   -1    0    0  501    0  0.00000000000E+00  0.00000000000E+00  0.10311050600E+04  0.10311050600E+04  0.00000000000E+00 0. -1.
         -2   -1    0    0    0  501 -0.00000000000E+00 -0.00000000000E+00 -0.14251473268E+02  0.14251473268E+02  0.00000000000E+00 0.  1.
         23    2    1    2    0    0 -0.24698680167E+02 -0.48102460161E+02  0.44196455002E+03  0.45453610957E+03  0.91359399891E+02 0.  0.
          5    1    1    2  502    0  0.52879954852E+02  0.48131561704E+02  0.16417693900E+03  0.17912140173E+03  0.41800000000E+01 0.  1.
         -5    1    1    2    0  502 -0.28181274685E+02 -0.29101542076E-01  0.41071209774E+03  0.41169902201E+03  0.41800000000E+01 0.  1.
        -11    1    3    3    0    0  0.41880746284E+01  0.26127098105E+02  0.10431537650E+03  0.10761906429E+03  0.00000000000E+00 0.  1.
         11    1    3    3    0    0 -0.28886754796E+02 -0.74229558266E+02  0.33764917352E+03  0.34691704528E+03  0.00000000000E+00 0. -1.
</event>
<event>
 7    1  0.5137842E-006  0.9040152E+02  0.7561462E-02  0.1301882E+00
          2   -1    0    0  501    0  0.00000000000E+00  0.00000000000E+00  0.33970315127E+02  0.33970315127E+02  0.00000000000E+00 0. -1.
         -2   -1    0    0    0  501 -0.00000000000E+00 -0.00000000000E+00 -0.42303582251E+03  0.42303582251E+03  0.00000000000E+00 0.  1.
         23    2    1    2    0    0  0.27934236350E+02  0.35010081697E+02 -0.12046767607E+03  0.15734261328E+03  0.90764583376E+02 0.  0.
          5    1    1    2  502    0  0.32850668511E+02 -0.36000440316E+02 -0.40314545585E+02  0.63387168341E+02  0.41800000000E+01 0. -1.
         -5    1    1    2    0  502 -0.60784904861E+02  0.99035861888E+00 -0.22828328573E+03  0.23627635602E+03  0.41800000000E+01 0. -1.
        -11    1    3    3    0    0  0.29553284909E+02 -0.57935974635E+01  0.27522987080E-01  0.30115829359E+02  0.00000000000E+00 0. -1.
         11    1    3    3    0    0 -0.16190485584E+01  0.40803679160E+02 -0.12049519906E+03  0.12722678392E+03  0.00000000000E+00 0.  1.
</event>
<event>
 7    1  0.5137842E-006  0.1141682E+03  0.7561462E-02  0.1253040E+00
          3   -1    0    0  501    0  0.00000000000E+00  0.00000000000E+00  0.44771590860E+03  0.44771590860E+03  0.00000000000E+00 0. -1.
         -3   -1    0    0    0  501 -0.00000000000E+00 -0.00000000000E+00 -0.51569924504E+02  0.51569924504E+02  0.00000000000E+00 0.  1.
         23    2    1    2    0    0  0.45949094353E+02 -0.87861934816E+02  0.24229916480E+03  0.27759404862E+03  0.92295892128E+02 0.  0.
          5    1    1    2  502    0 -0.22500069002E+02  0.14727971091E+01  0.12568252908E+03  0.12775755458E+03  0.41800000000E+01 0.  1.
         -5    1    1    2    0  502 -0.23449025351E+02  0.86389137707E+02  0.28164290207E+02  0.93934229898E+02  0.41800000000E+01 0.  1.
        -11    1    3    3    0    0  0.31249250197E+02 -0.50133566087E+01  0.14616699131E+02  0.34861114094E+02  0.00000000000E+00 0.  1.
         11    1    3    3    0    0  0.14699844156E+02 -0.82848578207E+02  0.22768246567E+03  0.24273293453E+03  0.00000000000E+00 0. -1.
</event>
<event>
 7    1  0.5137842E-006  0.1100637E+03  0.7561462E-02  0.1260452E+00
          2   -1    0    0  501    0  0.00000000000E+00  0.00000000000E+00  0.46680778696E+03  0.46680778696E+03  0.00000000000E+00 0. -1.
         -2   -1    0    0    0  501 -0.00000000000E+00 -0.00000000000E+00 -0.31704721254E+02  0.31704721254E+02  0.00000000000E+00 0.  1.
         23    2    1    2    0    0 -0.30627340910E+02  0.22368138468E+02  0.26968306443E+03  0.28768559612E+03  0.92712886619E+02 0.  0.
          5    1    1    2  502    0  0.73752204670E+02 -0.29652725281E+02  0.13717068192E+03  0.15859363225E+03  0.41800000000E+01 0.  1.
         -5    1    1    2    0  502 -0.43124863760E+02  0.72845868132E+01  0.28249319351E+02  0.52233279843E+02  0.41800000000E+01 0.  1.
        -11    1    3    3    0    0 -0.44373309690E-01 -0.33180940323E+02  0.13192385403E+03  0.13603264326E+03  0.00000000000E+00 0. -1.
         11    1    3    3    0    0 -0.30582967600E+02  0.55549078791E+02  0.13775921040E+03  0.15165295286E+03  0.00000000000E+00 0.  1.
</event>
<event>
 7    1  0.5137842E-006  0.9230724E+02  0.7561462E-02  0.1297359E+00
         -1   -1    0    0    0  501 -0.00000000000E+00  0.00000000000E+00  0.30573379265E+02  0.30573379265E+02  0.00000000000E+00 0.  1.
          1   -1    0    0  501    0  0.00000000000E+00 -0.00000000000E+00 -0.41993564065E+03  0.41993564065E+03  0.00000000000E+00 0. -1.
         23    2    1    2    0    0  0.19588813049E+02 -0.25106685167E+02 -0.18214113408E+03  0.20637125324E+03  0.91649518276E+02 0.  0.
          5    1    1    2  502    0  0.49225078192E+02  0.19428155769E+02 -0.13023933719E+03  0.14064252171E+03  0.41800000000E+01 0.  1.
         -5    1    1    2    0  502 -0.68813891241E+02  0.56785293977E+01 -0.76981790111E+02  0.10349524498E+03  0.41800000000E+01 0.  1.
        -11    1    3    3    0    0 -0.11779413921E+01  0.16136136352E+02  0.22061177106E+01  0.16328790452E+02  0.00000000000E+00 0.  1.
         11    1    3    3    0    0  0.20766754441E+02 -0.41242821519E+02 -0.18434725179E+03  0.19004246278E+03  0.00000000000E+00 0. -1.
</event>
<event>
 7    1  0.5137842E-006  0.7005962E+02  0.7561462E-02  0.1359890E+00
         -2   -1    0    0    0  501 -0.00000000000E+00  0.00000000000E+00  0.12824449505E+03  0.12824449505E+03  0.00000000000E+00 0.  1.
          2   -1    0    0  501    0  0.00000000000E+00 -0.00000000000E+00 -0.14301578652E+03  0.14301578652E+03  0.00000000000E+00 0. -1.
         23    2    1    2    0    0 -0.40656126755E+02  0.36099046183E+02 -0.64840169168E+02  0.12595862772E+03  0.93302018096E+02 0.  0.
          5    1    1    2  502    0  0.11936594251E+02 -0.61874365585E+01 -0.41968694279E+02  0.44267486409E+02  0.41800000000E+01 0.  1.
         -5    1    1    2    0  502  0.28719532504E+02 -0.29911609624E+02  0.92037571973E+02  0.10103416745E+03  0.41800000000E+01 0.  1.
        -11    1    3    3    0    0 -0.87079536900E+01  0.49102879813E+02  0.28881841850E+01  0.49952606251E+02  0.00000000000E+00 0.  1.
         11    1    3    3    0    0 -0.31948173065E+02 -0.13003833631E+02 -0.67728353353E+02  0.76006021466E+02  0.00000000000E+00 0. -1.
</event>
<event>
 7    1  0.5137842E-006  0.1311342E+03  0.7561462E-02  0.1225782E+00
         -2   -1    0    0    0  501 -0.00000000000E+00  0.00000000000E+00  0.21943012317E+03  0.21943012317E+03  0.00000000000E+00 0.  1.
          2   -1    0    0  501    0  0.00000000000E+00 -0.00000000000E+00 -0.10866647811E+03  0.10866647811E+03  0.00000000000E+00 0. -1.
         23    2    1    2    0    0  0.58814236746E+02 -0.90546040178E+02  0.27119393641E+02  0.14287264901E+03  0.89551284115E+02 0.  0.
          5    1    1    2  502    0  0.12249435191E+02  0.13768635393E+01  0.68966970322E+02  0.70184469871E+02  0.41800000000E+01 0. -1.
         -5    1    1    2    0  502 -0.71063671937E+02  0.89169176639E+02  0.14677281097E+02  0.11503948240E+03  0.41800000000E+01 0. -1.
        -11    1    3    3    0    0  0.18827822827E+01 -0.76488430560E+02  0.34196353960E+02  0.83805820220E+02  0.00000000000E+00 0.  1.
         11    1    3    3    0    0  0.56931454463E+02 -0.14057609619E+02 -0.70769603186E+01  0.59066828786E+02  0.00000000000E+00 0. -1.
</event>
<event>
 7    1  0.5137842E-006  0.2368066E+03  0.7561462E-02  0.1121939E+00
         -1   -1    0    0    0  501 -0.00000000000E+00  0.00000000000E+00  0.49593524924E+03  0.49593524924E+03  0.00000000000E+00 0.  1.
          1   -1    0    0  501    0  0.00000000000E+00 -0.00000000000E+00 -0.12180908120E+03  0.12180908120E+03  0.00000000000E+00 0. -1.
         23    2    1    2    0    0 -0.94906446378E+02 -0.19927059784E+03  0.16240399376E+03  0.28730787138E+03  0.86340900171E+02 0.  0.
          5    1    1    2  502    0  0.18879672108E+02 -0.42649725681E+01  0.65707315669E+02  0.68626203030E+02  0.41800000000E+01 0. -1.
         -5    1    1    2    0  502  0.76026774270E+02  0.20353557040E+03  0.14601485861E+03  0.26181025603E+03  0.41800000000E+01 0. -1.
        -11    1    3    3    0    0 -0.39220889632E+02 -0.16824215347E+03  0.12678208283E+03  0.21428344993E+03  0.00000000000E+00 0. -1.
         11    1    3    3    0    0 -0.55685556745E+02 -0.31028444368E+02  0.35621910926E+02  0.73024421449E+02  0.00000000000E+00 0.  1.
</event>
<event>
 7    1  0.5137842E-006  0.1020034E+03  0.7561462E-02  0.1276139E+00
          1   -1    0    0  501    0  0.00000000000E+00  0.00000000000E+00  0.37877755420E+02  0.37877755420E+02  0.00000000000E+00 0. -1.
         -1   -1    0    0    0  501 -0.00000000000E+00 -0.00000000000E+00 -0.48533711898E+03  0.48533711898E+03  0.00000000000E+00 0.  1.
         23    2    1    2    0    0  0.71801273206E+02 -0.96317607873E+01 -0.12753255533E+03  0.17214480136E+03  0.90117070056E+02 0.  0.
          5    1    1    2  502    0 -0.85872768402E+02  0.13712829708E+01 -0.32273560845E+03  0.33399364983E+03  0.41800000000E+01 0.  1.
         -5    1    1    2    0  502  0.14071495195E+02  0.82604778165E+01  0.28088002213E+01  0.17076423205E+02  0.41800000000E+01 0.  1.
        -11    1    3    3    0    0  0.31170876561E+02  0.30826217778E+02 -0.98629790243E+02  0.10793384442E+03  0.00000000000E+00 0.  1.
         11    1    3    3    0    0  0.40630396646E+02 -0.40457978565E+02 -0.28902765089E+02  0.64210956938E+02  0.00000000000E+00 0. -1.
</event>
<event>
 6    1  0.1379604E-005  0.6655492E+02  0.7561462E-02  0.1372216E+00
         -1   -1    0    0    0  501 -0.00000000000E+00  0.00000000000E+00  0.29353109934E+03  0.29353109934E+03  0.00000000000E+00 0.  1.
          1   -1    0    0  501    0  0.00000000000E+00 -0.00000000000E+00 -0.25463284671E+02  0.25463284671E+02  0.00000000000E+00 0. -1.
          5    1    1    2  502    0 -0.14304031301E+02  0.58925629722E+02  0.29679038406E+02  0.67639876333E+02  0.41800000000E+01 0. -1.
         -5    1    1    2    0  502  0.20016149227E+02 -0.43902049625E+02  0.20260695263E+03  0.20831487188E+03  0.41800000000E+01 0.  1.
        -11    1    1    2    0    0 -0.11522138987E+02 -0.55592385943E+01  0.18286835699E+02  0.22317553192E+02  0.00000000000E+00 0.  1.
         11    1    1    2    0    0  0.58100210614E+01 -0.94643415027E+01  0.17494987936E+02  0.20722082610E+02  0.00000000000E+00 0. -1.
</event>
<event>
 7    1  0.5137842E-006  0.7927739E+02  0.7561462E-02  0.1331115E+00
         -2   -1    0    0    0  501 -0.00000000000E+00  0.00000000000E+00  0.62254010397E+02  0.62254010397E+02  0.00000000000E+00 0.  1.
          2   -1    0    0  501    0  0.00000000000E+00 -0.00000000000E+00 -0.26729747958E+03  0.26729747958E+03  0.00000000000E+00 0. -1.
         23    2    1    2    0    0 -0.50067666098E+02 -0.11823160738E+02 -0.15054230548E+03  0.18373170971E+03  0.91911898547E+02 0.  0.
          5    1    1    2  502    0  0.28344926677E+02  0.17009035070E+02  0.38017280918E+02  0.50552232302E+02  0.41800000000E+01 0.  1.
         -5    1    1    2    0  502  0.21722739421E+02 -0.51858743314E+01 -0.92518444621E+02  0.95267547967E+02  0.41800000000E+01 0.  1.
        -11    1    3    3    0    0 -0.20519126401E+02 -0.50111365900E+02 -0.58227205254E+02  0.79514721733E+02  0.00000000000E+00 0.  1.
         11    1    3    3    0    0 -0.29548539697E+02  0.38288205162E+02 -0.92315100225E+02  0.10421698797E+03  0.00000000000E+00 0. -1.
</event>
<event>
 7    1  0.5137842E-006  0.9777887E+02  0.7561462E-02  0.1285037E+00
         -2   -1    0    0    0  501 -0.00000000000E+00  0.00000000000E+00  0.18473773643E+03  0.18473773643E+03  0.00000000000E+00 0.  1.
          2   -1    0    0  501    0  0.00000000000E+00 -0.00000000000E+00 -0.79451389735E+02  0.79451389735E+02  0.00000000000E+00 0. -1.
         23    2    1    2    0    0  0.36062041606E+02  0.74334516452E+01  0.11488335195E+01  0.97312923761E+02  0.90070851358E+02 0.  0.
          5    1    1    2  502    0 -0.67505384385E+02 -0.28087905456E+02  0.10616012215E+03  0.12897035042E+03  0.41800000000E+01 0.  1.
         -5    1    1    2    0  502  0.31443342779E+02  0.20654453811E+02 -0.20226089722E+01  0.37905851981E+02  0.41800000000E+01 0.  1.
        -11    1    3    3    0    0 -0.87628860043E+01  0.32122535714E+02 -0.23259173624E+02  0.40615694374E+02  0.00000000000E+00 0. -1.
         11    1    3    3    0    0  0.44824927611E+02 -0.24689084069E+02  0.24408007143E+02  0.56697229387E+02  0.00000000000E+00 0.  1.
</event>
<event>
 7    1  0.5137842E-006  0.1087671E+03  0.7561462E-02  0.1262870E+00
          2   -1    0    0  501    0  0.00000000000E+00  0.00000000000E+00  0.29852053321E+03  0.29852053321E+03  0.00000000000E+00 0. -1.
         -2   -1    0    0    0  501 -0.00000000000E+00 -0.00000000000E+00 -0.63562468391E+02  0.63562468391E+02  0.00000000000E+00 0.  1.
         23    2    1    2    0    0 -0.40367865517E+02 -0.10915283642E+02  0.20219049500E+03  0.22617857661E+03  0.92341996230E+02 0.  0.
          5    1    1    2  502    0  0.57217624638E+02 -0.36832664792E+02  0.47398480207E+02  0.83033668417E+02  0.41800000000E+01 0.  1.
         -5    1    1    2    0  502 -0.16849759121E+02  0.47747948434E+02 -0.14630910383E+02  0.52870756574E+02  0.41800000000E+01 0.  1.
        -11    1    3    3    0    0 -0.15535021722E+02  0.39449424934E+02  0.61526042852E+02  0.74719796416E+02  0.00000000000E+00 0. -1.
         11    1    3    3    0    0 -0.24832843796E+02 -0.50364708577E+02  0.14066445215E+03  0.15145878020E+03  0.00000000000E+00 0.  1.
</event>
<event>
 7    1  0.5137842E-006  0.9092209E+02  0.7561462E-02  0.1300634E+00
          1   -1    0    0  501    0  0.00000000000E+00  0.00000000000E+00  0.42229699868E+03  0.42229699868E+03  0.00000000000E+00 0. -1.
         -1   -1    0    0    0  501 -0.00000000000E+00 -0.00000000000E+00 -0.36525798295E+02  0.36525798295E+02  0.00000000000E+00 0.  1.
         23    2    1    2    0    0  0.44346172812E+02  0.25618320936E+02  0.20651379447E+03  0.23431334379E+03  0.98142316867E+02 0.  0.
          5    1    1    2  502    0 -0.19839113221E+02  0.24076814448E+02  0.16385017076E+03  0.16684613950E+03  0.41800000000E+01 0.  1.
         -5    1    1    2    0  502 -0.24507059591E+02 -0.49695135385E+02  0.15407235156E+02  0.57663313691E+02  0.41800000000E+01 0.  1.
        -11    1    3    3    0    0 -0.16245954363E+02  0.29930852893E+02  0.23226418392E+02  0.41222002612E+02  0.00000000000E+00 0.  1.
         11    1    3    3    0    0  0.60592127175E+02 -0.43125319563E+01  0.18328737608E+03  0.19309134118E+03  0.00000000000E+00 0. -1.
</event>
<event>
 7    1  0.5137842E-006  0.1104709E+03  0.7561462E-02  0.1259700E+00
          3   -1    0    0  501    0  0.00000000000E+00  0.00000000000E+00  0.19672316030E+03  0.19672316030E+03  0.00000000000E+00 0. -1.
         -3   -1    0    0    0  501 -0.00000000000E+00 -0.00000000000E+00 -0.72658561091E+02  0.72658561091E+02  0.00000000000E+00 0.  1.
         23    2    1    2    0    0  0.24391531994E+02  0.23873409856E+02  0.97429861429E+02  0.13701097525E+03  0.90080757704E+02 0.  0.
          5    1    1    2  502    0 -0.68952594730E+02  0.10676899005E+02  0.29242285628E+02  0.75769651980E+02  0.41800000000E+01 0. -1.
         -5    1    1    2    0  502  0.44561062736E+02 -0.34550308861E+02 -0.26075478509E+01  0.56601094162E+02  0.41800000000E+01 0. -1.
        -11    1    3    3    0    0  0.88969969527E+01  0.57126701669E+02  0.72157960813E+02  0.92462900166E+02  0.00000000000E+00 0. -1.
         11    1    3    3    0    0  0.15494535041E+02 -0.33253291813E+02  0.25271900615E+02  0.44548075079E+02  0.00000000000E+00 0.  1.
</event>
<event>
 7    1  0.5137842E-006  0.1566792E+03  0.7561462E-02  0.1192498E+00
         -1   -1    0    0    0  501 -0.00000000000E+00  0.00000000000E+00  0.68549158674E+02  0.68549158674E+02  0.00000000000E+00 0.  1.
          1   -1    0    0  501    0  0.00000000000E+00 -0.00000000000E+00 -0.55101458663E+03  0.55101458663E+03  0.00000000000E+00 0. -1.
         23    2    1    2    0    0  0.34525586090E+02 -0.10644586058E+03 -0.40133582606E+03  0.42907055902E+03  0.10251030193E+03 0.  0.
          5    1    1    2  502    0 -0.35763940468E+01 -0.30910714927E+02 -0.12377483237E+02  0.33748146363E+02  0.41800000000E+01 0. -1.
         -5    1    1    2    0  502 -0.30949192043E+02  0.13735657550E+03 -0.68752118655E+02  0.15674503993E+03  0.41800000000E+01 0.  1.
        -11    1    3    3    0    0  0.36431127959E+02 -0.18410229312E+01 -0.18746762989E+03  0.19098358229E+03  0.00000000000E+00 0.  1.
         11    1    3    3    0    0 -0.19055418695E+01 -0.10460483765E+03 -0.21386819618E+03  0.23808697672E+03  0.00000000000E+00 0. -1.
</event>
<event>
 7    1  0.5137842E-006  0.1140085E+03  0.7561462E-02  0.1253322E+00
         -1   -1    0    0    0  501 -0.00000000000E+00  0.00000000000E+00  0.42021476951E+02  0.42021476951E+02  0.00000000000E+00 0.  1.
          1   -1    0    0  501    0  0.00000000000E+00 -0.00000000000E+00 -0.38281105848E+03  0.38281105848E+03  0.00000000000E+00 0. -1.
         23    2    1    2    0    0 -0.43763416964E+02  0.12813198797E+02 -0.22839289330E+03  0.25059139515E+03  0.92484154771E+02 0.  0.
          5    1    1    2  502    0  0.80105065030E+02  0.21149149920E+02 -0.64732330692E+02  0.10522288260E+03  0.41800000000E+01 0.  1.
         -5    1    1    2    0  502 -0.36341648066E+02 -0.33962348717E+02 -0.47664357536E+02  0.69018257685E+02  0.41800000000E+01 0.  1.
        -11    1    3    3    0    0 -0.68930991922E+02  0.11979255874E+02 -0.20346611547E+03  0.21515911406E+03  0.00000000000E+00 0. -1.
         11    1    3    3    0    0  0.25167574958E+02  0.83394292282E+00 -0.24926777834E+02  0.35432281090E+02  0.00000000000E+00 0.  1.
</event>
<event>
 7    1  0.5137842E-006  0.1227286E+03  0.7561462E-02  0.1238662E+00
          3   -1    0    0  501    0  0.00000000000E+00  0.00000000000E+00  0.41193769171E+02  0.41193769171E+02  0.00000000000E+00 0. -1.
         -3   -1    0    0    0  501 -0.00000000000E+00 -0.00000000000E+00 -0.40408381224E+03  0.40408381224E+03  0.00000000000E+00 0.  1.
         23    2    1    2    0    0 -0.81252867350E+00 -0.66623024206E+02 -0.12656561829E+03  0.16971226161E+03  0.91346091604E+02 0.  0.
          5    1    1    2  502    0  0.61315800979E+02  0.31611849132E+02 -0.14362811354E+03  0.15939085248E+03  0.41800000000E+01 0. -1.
         -5    1    1    2    0  502 -0.60503272306E+02  0.35011175074E+02 -0.92696311238E+02  0.11617446732E+03  0.41800000000E+01 0. -1.
        -11    1    3    3    0    0 -0.18567372162E+02 -0.81230895648E+02 -0.70619645984E+02  0.10922609631E+03  0.00000000000E+00 0. -1.
         11    1    3    3    0    0  0.17754843489E+02  0.14607871442E+02 -0.55945972309E+02  0.60486165302E+02  0.00000000000E+00 0.  1.
</event>
<event>
 7    1  0.5137842E-006  0.1112046E+03  0.7561462E-02  0.1258355E+00
         -2   -1    0    0    0  501 -0.00000000000E+00  0.00000000000E+00  0.28069713391E+02  0.28069713391E+02  0.00000000000E+00 0.  1.
          2   -1    0    0  501    0  0.00000000000E+00 -0.00000000000E+00 -0.74291455932E+03  0.74291455932E+03  0.00000000000E+00 0. -1.
         23    2    1    2    0    0 -0.68461344858E+02 -0.42296942423E+02 -0.44572219906E+03  0.46349179860E+03  0.98388930050E+02 0.  0.
          5    1    1    2  502    0  0.30924082120E+02 -0.14289413763E+02 -0.49215494823E+01  0.34672471068E+02  0.41800000000E+01 0. -1.
         -5    1    1    2    0  502  0.37537262738E+02  0.56586356186E+02 -0.26420109739E+03  0.27282000304E+03  0.41800000000E+01 0. -1.
        -11    1    3    3    0    0 -0.89651919387E+02 -0.26073085586E+02 -0.39809216052E+03  0.40889441267E+03  0.00000000000E+00 0. -1.
         11    1    3    3    0    0  0.21190574529E+02 -0.16223856838E+02 -0.47630038543E+02  0.54597385938E+02  0.00000000000E+00 0.  1.
</event>
<event>
 7    1  0.5137842E-006  0.1436196E+03  0.7561462E-02  0.1208540E+00
          2   -1    0    0  501    0  0.00000000000E+00  0.00000000000E+00  0.53819666192E+02  0.53819666192E+02  0.00000000000E+00 0. -1.
         -2   -1    0    0    0  501 -0.00000000000E+00 -0.00000000000E+00 -0.56610703075E+03  0.56610703075E+03  0.00000000000E+00 0.  1.
         23    2    1    2    0    0  0.12542094803E+03 -0.32396888665E+02 -0.16547520647E+03  0.22915183081E+03  0.91370372695E+02 0.  0.
          5    1    1    2  502    0 -0.44970889800E+02 -0.29075506993E+02 -0.22975043991E+03  0.23594597491E+03  0.41800000000E+01 0. -1.
         -5    1    1    2    0  502 -0.80450058226E+02  0.61472395659E+02 -0.11706171818E+03  0.15482889123E+03  0.41800000000E+01 0. -1.
        -11    1    3    3    0    0  0.51941007947E+02 -0.13671132779E+00 -0.13263467682E+03  0.14244242518E+03  0.00000000000E+00 0.  1.
         11    1    3    3    0    0  0.73479940079E+02 -0.32260177338E+02 -0.32840529650E+02  0.86709405624E+02  0.00000000000E+00 0. -1.
</event>
<event>
 7    1  0.5137842E-006  0.1206664E+03  0.7561462E-02  0.1242002E+00
         -1   -1    0    0    0  501 -0.00000000000E+00  0.00000000000E+00  0.24398179421E+02  0.24398179421E+02  0.00000000000E+00 0.  1.
          1   -1    0    0  501    0  0.00000000000E+00 -0.00000000000E+00 -0.75155187568E+03  0.75155187568E+03  0.00000000000E+00 0. -1.
         23    2    1    2    0    0  0.66723579902E+02  0.16539133717E+02 -0.50374006092E+03  0.51660164251E+03  0.91638578186E+02 0.  0.
          5    1    1    2  502    0 -0.97556967419E+02 -0.10167914447E+02 -0.18560188837E+03  0.20996733494E+03  0.41800000000E+01 0. -1.
         -5    1    1    2    0  502  0.30833387518E+02 -0.63712192696E+01 -0.37811746974E+02  0.49381077652E+02  0.41800000000E+01 0.  1.
        -11    1    3    3    0    0  0.35450041937E+02 -0.35828469611E+02 -0.28920747153E+03  0.29356659601E+03  0.00000000000E+00 0.  1.
         11    1    3    3    0    0  0.31273537964E+02  0.52367603328E+02 -0.21453258939E+03  0.22303504650E+03  0.00000000000E+00 0. -1.
</event>
<event>
 7    1  0.5137842E-006  0.2259668E+03  0.7561462E-02  0.1129511E+00
          1   -1    0    0  501    0  0.00000000000E+00  0.00000000000E+00  0.14370781720E+03  0.14370781720E+03  0.00000000000E+00 0. -1.
         -1   -1    0    0    0  501 -0.00000000000E+00 -0.00000000000E+00 -0.39152793244E+03  0.39152793244E+03  0.00000000000E+00 0.  1.
         23    2    1    2    0    0  0.20187453730E+03  0.82783201192E+01 -0.88427064643E+02  0.23872711987E+03  0.91375229708E+02 0.  0.
          5    1    1    2  502    0 -0.46373225796E+02 -0.59212042692E+02 -0.12064973718E+02  0.76286159041E+02  0.41800000000E+01 0. -1.
         -5    1    1    2    0  502 -0.15550131151E+03  0.50933722572E+02 -0.14732807688E+03  0.22022247073E+03  0.41800000000E+01 0.  1.
        -11    1    3    3    0    0  0.15323087252E+03 -0.23208966686E+02 -0.32818255902E+02  0.15841525921E+03  0.00000000000E+00 0. -1.
         11    1    3    3    0    0  0.48643664781E+02  0.31487286805E+02 -0.55608808741E+02  0.80311860663E+02  0.00000000000E+00 0.  1.
</event>
<event>
 7    1  0.5137842E-006  0.9862047E+02  0.7561462E-02  0.1283224E+00
         -2   -1    0    0    0  501 -0.00000000000E+00  0.00000000000E+00  0.38701320171E+02  0.38701320171E+02  0.00000000000E+00 0.  1.
          2   -1    0    0  501    0  0.00000000000E+00 -0.00000000000E+00 -0.40565448405E+03  0.40565448405E+03  0.00000000000E+00 0. -1.
         23    2    1    2    0    0  0.56156835989E+02 -0.85987702432E+01 -0.22472824278E+03  0.24661117296E+03  0.84182886919E+02 0.  0.
          5    1    1    2  502    0  0.16974022880E+02 -0.18766568484E+02 -0.11036899742E+03  0.11330970628E+03  0.41800000000E+01 0.  1.
         -5    1    1    2    0  502 -0.73130858869E+02  0.27365338727E+02 -0.31855923678E+02  0.84434924978E+02  0.41800000000E+01 0.  1.
        -11    1    3    3    0    0  0.46452970970E+02  0.28870402249E+02 -0.80808424987E+02  0.97577559853E+02  0.00000000000E+00 0.  1.
         11    1    3    3    0    0  0.97038650190E+01 -0.37469172492E+02 -0.14391981779E+03  0.14903361311E+03  0.00000000000E+00 0. -1.
</event>
<event>
 7    1  0.5137842E-006  0.9170438E+02  0.7561462E-02  0.1298776E+00
          2   -1    0    0  501    0  0.00000000000E+00  0.00000000000E+00  0.63406476565E+03  0.63406476565E+03  0.00000000000E+00 0. -1.
         -2   -1    0    0    0  501 -0.00000000000E+00 -0.00000000000E+00 -0.27355180410E+02  0.27355180410E+02  0.00000000000E+00 0.  1.
         23    2    1    2    0    0 -0.67868573711E+02  0.27281864330E+02  0.29119167723E+03  0.31420960467E+03  0.92653328906E+02 0.  0.
          5    1    1    2  502    0 -0.16497588527E+02  0.73614610017E+01 -0.21344938760E+00  0.18543988134E+02  0.41800000000E+01 0.  1.
         -5    1    1    2    0  502  0.84366162238E+02 -0.34643325332E+02  0.31573135739E+03  0.32866635326E+03  0.41800000000E+01 0.  1.
        -11    1    3    3    0    0 -0.18894249313E+02  0.11476702035E+02  0.40273053098E+01  0.22470570415E+02  0.00000000000E+00 0.  1.
         11    1    3    3    0    0 -0.48974324398E+02  0.15805162295E+02  0.28716437192E+03  0.29173903425E+03  0.00000000000E+00 0. -1.
</event>
<event>
 7    1  0.5137842E-006  0.1377425E+03  0.7561462E-02  0.1216399E+00
          4   -1    0    0  501    0  0.00000000000E+00  0.00000000000E+00  0.63766028761E+03  0.63766028761E+03  0.00000000000E+00 0. -1.
         -4   -1    0    0    0  501 -0.00000000000E+00 -0.00000000000E+00 -0.34459892462E+02  0.34459892462E+02  0.00000000000E+00 0.  1.
         23    2    1    2    0    0 -0.42880245646E+02  0.88784343337E+02  0.24465913931E+03  0.27979374771E+03  0.93300973845E+02 0.  0.
          5    1    1    2  502    0  0.80961951611E+02 -0.70203216777E+02  0.30857412216E+03  0.32667842065E+03  0.41800000000E+01 0. -1.
         -5    1    1    2    0  502 -0.38081705964E+02 -0.18581126560E+02  0.49967133676E+02  0.65648011707E+02  0.41800000000E+01 0. -1.
        -11    1    3    3    0    0  0.45058726455E+01  0.76606190098E+02  0.93753607818E+02  0.12115506687E+03  0.00000000000E+00 0.  1.
         11    1    3    3    0    0 -0.47386118292E+02  0.12178153239E+02  0.15090553149E+03  0.15863868084E+03  0.00000000000E+00 0. -1.
</event>
<event>
 7    1  0.5137842E-006  0.1130741E+03  0.7561462E-02  0.1254981E+00
          1   -1    0    0  501    0  0.00000000000E+00  0.00000000000E+00  0.16342422735E+03  0.16342422735E+03  0.00000000000E+00 0. -1.
         -1   -1    0    0    0  501 -0.00000000000E+00 -0.00000000000E+00 -0.15250782364E+03  0.15250782364E+03  0.00000000000E+00 0.  1.
         23    2    1    2    0    0 -0.57785864715E+02  0.57249185967E+02  0.84534964178E+02  0.14954855828E+03  0.92746620749E+02 0.  0.
          5    1    1    2  502    0  0.67574293124E+02 -0.30385700828E+02  0.12761401772E+02  0.75298749533E+02  0.41800000000E+01 0. -1.
         -5    1    1    2    0  502 -0.97884284092E+01 -0.26863485139E+02 -0.86379962233E+02  0.91084743179E+02  0.41800000000E+01 0. -1.
        -11    1    3    3    0    0  0.11224204542E+02 -0.17828738154E+02  0.10554172737E+02  0.23563472450E+02  0.00000000000E+00 0. -1.
         11    1    3    3    0    0 -0.69010069257E+02  0.75077924121E+02  0.73980791441E+02  0.12598508583E+03  0.00000000000E+00 0.  1.
</event>
<event>
 7    1  0.5137842E-006  0.8328382E+02  0.7561462E-02  0.1319983E+00
         -1   -1    0    0    0  501 -0.00000000000E+00  0.00000000000E+00  0.12679421891E+03  0.12679421891E+03  0.00000000000E+00 0.  1.
          1   -1    0    0  501    0  0.00000000000E+00 -0.00000000000E+00 -0.14438943107E+03  0.14438943107E+03  0.00000000000E+00 0. -1.
         23    2    1    2    0    0 -0.41069381723E+02  0.54622445743E+02 -0.51976597688E+02  0.12455537097E+03  0.90233962768E+02 0.  0.
          5    1    1    2  502    0  0.10838524950E+02 -0.59557685401E+02 -0.35438276543E+02  0.70270444411E+02  0.41800000000E+01 0. -1.
         -5    1    1    2    0  502  0.30230856774E+02  0.49352396578E+01  0.69819662072E+02  0.76357834592E+02  0.41800000000E+01 0. -1.
        -11    1    3    3    0    0 -0.56116635708E+01  0.32932150100E+02 -0.71284367320E+02  0.78724064316E+02  0.00000000000E+00 0. -1.
         11    1    3    3    0    0 -0.35457718152E+02  0.21690295643E+02  0.19307769632E+02  0.45831306657E+02  0.00000000000E+00 0.  1.
</event>
<event>
 7    1  0.5137842E-006  0.1023701E+03  0.7561462E-02  0.1275389E+00
          4   -1    0    0  501    0  0.00000000000E+00  0.00000000000E+00  0.18798580454E+03  0.18798580454E+03  0.00000000000E+00 0. -1.
         -4   -1    0    0    0  501 -0.00000000000E+00 -0.00000000000E+00 -0.94215597670E+02  0.94215597670E+02  0.00000000000E+00 0.  1.
         23    2    1    2    0    0 -0.30391641959E+02 -0.69735962992E+02  0.53471216982E+02  0.13035153913E+03  0.91354235104E+02 0.  0.
          5    1    1    2  502    0  0.15767495179E+01  0.71136460943E+02  0.77036560952E+02  0.10495230506E+03  0.41800000000E+01 0. -1.
         -5    1    1    2    0  502  0.28814892441E+02 -0.14004979505E+01 -0.36737571063E+02  0.46897558023E+02  0.41800000000E+01 0. -1.
        -11    1    3    3    0    0  0.21014606970E+02 -0.49131079398E+01 -0.12139230582E+02  0.24761123861E+02  0.00000000000E+00 0.  1.
         11    1    3    3    0    0 -0.51406248930E+02 -0.64822855052E+02  0.65610447564E+02  0.10559041526E+03  0.00000000000E+00 0. -1.
</event>
<event>
 7    1  0.5137842E-006  0.1069952E+03  0.7561462E-02  0.1266238E+00
          1   -1    0    0  501    0  0.00000000000E+00  0.00000000000E+00  0.60783268438E+03  0.60783268438E+03  0.00000000000E+00 0. -1.
         -1   -1    0    0    0  501 -0.00000000000E+00 -0.00000000000E+00 -0.20324869398E+02  0.20324869398E+02  0.00000000000E+00 0.  1.
         23    2    1    2    0    0  0.89372390803E+01  0.15502730930E+02  0.19780632807E+03  0.21848274529E+03  0.91033826984E+02 0.  0.
          5    1    1    2  502    0  0.47263844653E+02 -0.42624538745E+02  0.19214994650E+03  0.20245937038E+03  0.41800000000E+01 0. -1.
         -5    1    1    2    0  502 -0.56201083733E+02  0.27121807814E+02  0.19755154041E+03  0.20721543811E+03  0.41800000000E+01 0. -1.
        -11    1    3    3    0    0  0.31459515373E+02  0.42264222045E+02  0.15184264750E+03  0.16072384755E+03  0.00000000000E+00 0. -1.
         11    1    3    3    0    0 -0.22522276292E+02 -0.26761491115E+02  0.45963680577E+02  0.57758897741E+02  0.00000000000E+00 0.  1.
</event>
<event>
 7    1  0.5137842E-006  0.5534591E+02  0.7561462E-02  0.1418470E+00
         -2   -1    0    0    0  501 -0.00000000000E+00  0.00000000000E+00  0.12756027356E+03  0.12756027356E+03  0.00000000000E+00 0.  1.
          2   -1    0    0  501    0  0.00000000000E+00 -0.00000000000E+00 -0.10628229264E+03  0.10628229264E+03  0.00000000000E+00 0. -1.
         23    2    1    2    0    0  0.33083587642E+02  0.27618711459E+02  0.27199633237E+00  0.99886190726E+02  0.90110266462E+02 0.  0.
          5    1    1    2  502    0  0.86808425227E+01  0.38929784149E+00 -0.47726057463E+02  0.48690425555E+02  0.41800000000E+01 0.  1.
         -5    1    1    2    0  502 -0.41764430164E+02 -0.28008009300E+02  0.68732042051E+02  0.85265949924E+02  0.41800000000E+01 0.  1.
        -11    1    3    3    0    0  0.34972201888E+02  0.15378100311E+02  0.41754098495E+02  0.56594572312E+02  0.00000000000E+00 0.  1.
         11    1    3    3    0    0 -0.18886142468E+01  0.12240611148E+02 -0.41482102162E+02  0.43291618413E+02  0.00000000000E+00 0. -1.
</event>
<event>
 7    1  0.5137842E-006  0.1083282E+03  0.7561462E-02  0.1263697E+00
          4   -1    0    0  501    0  0.00000000000E+00  0.00000000000E+00  0.44738964094E+02  0.44738964094E+02  0.00000000000E+00 0. -1.
         -4   -1    0    0    0  501 -0.00000000000E+00 -0.00000000000E+00 -0.30872202652E+03  0.30872202652E+03  0.00000000000E+00 0.  1.
         23    2    1    2    0    0  0.31967598756E+02  0.24754963111E+02 -0.88579011826E+02  0.13425816165E+03  0.92435258780E+02 0.  0.
          5    1    1    2  502    0  0.30769608493E+02  0.32837524099E+02 -0.74058439165E+02  0.86759417975E+02  0.41800000000E+01 0. -1.
         -5    1    1    2    0  502 -0.62737207249E+02 -0.57592487211E+02 -0.10134561144E+03  0.13244341099E+03  0.41800000000E+01 0. -1.
        -11    1    3    3    0    0  0.42963232595E+02 -0.14566759979E+02 -0.80842734940E+02  0.92701551465E+02  0.00000000000E+00 0. -1.
         11    1    3    3    0    0 -0.10995633839E+02  0.39321723091E+02 -0.77362768856E+01  0.41556610189E+02  0.00000000000E+00 0.  1.
</event>
<event>
 7    1  0.5137842E-006  0.1334680E+03  0.7561462E-02  0.1222399E+00
          1   -1    0    0  501    0  0.00000000000E+00  0.00000000000E+00  0.71382653227E+03  0.71382653227E+03  0.00000000000E+00 0. -1.
         -1   -1    0    0    0  501 -0.00000000000E+00 -0.00000000000E+00 -0.27270427976E+02  0.27270427976E+02  0.00000000000E+00 0.  1.
         23    2    1    2    0    0  0.66592471230E+02 -0.43138359456E+02  0.41431924578E+03  0.43116831513E+03  0.89163912346E+02 0.  0.
          5    1    1    2  502    0 -0.82291359301E+01  0.78729859610E+02  0.15698965406E+03  0.17586737433E+03  0.41800000000E+01 0.  1.
         -5    1    1    2    0  502 -0.58363335300E+02 -0.35591500154E+02  0.11524720445E+03  0.13406127078E+03  0.41800000000E+01 0.  1.
        -11    1    3    3    0    0  0.28100315364E+02 -0.67849361592E+02  0.24378814033E+03  0.25460915332E+03  0.00000000000E+00 0.  1.
         11    1    3    3    0    0  0.38492155866E+02  0.24711002136E+02  0.17053110545E+03  0.17655916181E+03  0.00000000000E+00 0. -1.
</event>
<event>
 7    1  0.5137842E-006  0.1218500E+03  0.7561462E-02  0.1240076E+00
         -1   -1    0    0    0  501 -0.00000000000E+00  0.00000000000E+00  0.15853819822E+03  0.15853819822E+03  0.00000000000E+00 0.  1.
          1   -1    0    0  501    0  0.00000000000E+00 -0.00000000000E+00 -0.12199841382E+03  0.12199841382E+03  0.00000000000E+00 0. -1.
         23    2    1    2    0    0 -0.34939348457E+02 -0.25126726912E+02 -0.41180430196E+02  0.12711009157E+03  0.11228996870E+03 0.  0.
          5    1    1    2  502    0  0.22925305240E+02 -0.47027987486E+02  0.95433438748E+01  0.53345562512E+02  0.41800000000E+01 0. -1.
         -5    1    1    2    0  502  0.12014043216E+02  0.72154714399E+02  0.68176870719E+02  0.10008095796E+03  0.41800000000E+01 0. -1.
        -11    1    3    3    0    0  0.38624077478E+02  0.39938261882E+01 -0.21512351188E+01  0.38889559282E+02  0.00000000000E+00 0.  1.
         11    1    3    3    0    0 -0.73563425934E+02 -0.29120553101E+02 -0.39029195077E+02  0.88220532284E+02  0.00000000000E+00 0. -1.
</event>
<event>
 7    1  0.5137842E-006  0.1091142E+03  0.7561462E-02  0.1262219E+00
          2   -1    0    0  501    0  0.00000000000E+00  0.00000000000E+00  0.18725459791E+03  0.18725459791E+03  0.00000000000E+00 0. -1.
         -2   -1    0    0    0  501 -0.00000000000E+00 -0.00000000000E+00 -0.11307528620E+03  0.11307528620E+03  0.00000000000E+00 0.  1.
         23    2    1    2    0    0  0.75458045957E+02 -0.59643809140E+02  0.41040661852E+02  0.13909510776E+03  0.91715933228E+02 0.  0.
          5    1    1    2  502    0 -0.36271602873E+02  0.18381368029E+02  0.78391916302E+02  0.88409664670E+02  0.41800000000E+01 0.  1.
         -5    1    1    2    0  502 -0.39186443084E+02  0.41262441111E+02 -0.45253266438E+02  0.72825111681E+02  0.41800000000E+01 0.  1.
        -11    1    3    3    0    0 -0.10766103168E+02 -0.25272815122E+02 -0.14359666093E+02  0.30997163934E+02  0.00000000000E+00 0. -1.
         11    1    3    3    0    0  0.86224149126E+02 -0.34370994018E+02  0.55400327945E+02  0.10809794382E+03  0.00000000000E+00 0.  1.
</event>
<event>
 7    1  0.5137842E-006  0.9697183E+02  0.7561462E-02  0.1286796E+00
         -1   -1    0    0    0  501 -0.00000000000E+00  0.00000000000E+00  0.15751020633E+03  0.15751020633E+03  0.00000000000E+00 0.  1.
          1   -1    0    0  501    0  0.00000000000E+00 -0.00000000000E+00 -0.13378504382E+03  0.13378504382E+03  0.00000000000E+00 0. -1.
         23    2    1    2    0    0  0.46089342485E+02  0.17673791885E+02 -0.63356697616E+02  0.12381676972E+03  0.94233385379E+02 0.  0.
          5    1    1    2  502    0  0.16005254241E+02  0.31001391618E+02 -0.15157018687E+02  0.38268290542E+02  0.41800000000E+01 0. -1.
         -5    1    1    2    0  502 -0.62094596725E+02 -0.48675183503E+02  0.10223887881E+03  0.12921018989E+03  0.41800000000E+01 0.  1.
        -11    1    3    3    0    0 -0.42711750324E+01  0.28053285347E+02  0.13437831620E+02  0.31397532922E+02  0.00000000000E+00 0.  1.
         11    1    3    3    0    0  0.50360517517E+02 -0.10379493462E+02 -0.76794529236E+02  0.92419236795E+02  0.00000000000E+00 0. -1.
</event>
<event>
 7    1  0.5137842E-006  0.1533724E+03  0.7561462E-02  0.1196389E+00
          2   -1    0    0  501    0  0.00000000000E+00  0.00000000000E+00  0.63747230505E+03  0.63747230505E+03  0.00000000000E+00 0. -1.
         -2   -1    0    0    0  501 -0.00000000000E+00 -0.00000000000E+00 -0.95722675029E+02  0.95722675029E+02  0.00000000000E+00 0.  1.
         23    2    1    2    0    0  0.11704489030E+03 -0.16436677111E+02  0.54079818227E+03  0.56110474676E+03  0.91685288871E+02 0.  0.
          5    1    1    2  502    0  0.19153183001E+02 -0.63076553745E+01  0.24440712272E+02  0.31960158819E+02  0.41800000000E+01 0. -1.
         -5    1    1    2    0  502 -0.13619807330E+03  0.22744332486E+02 -0.23489264522E+02  0.14013007449E+03  0.41800000000E+01 0. -1.
        -11    1    3    3    0    0 -0.16739418379E+01  0.22882063532E+02  0.11749468342E+03  0.11971379012E+03  0.00000000000E+00 0.  1.
         11    1    3    3    0    0  0.11871883213E+03 -0.39318740643E+02  0.42330349885E+03  0.44139095664E+03  0.00000000000E+00 0. -1.
</event>
<event>
 7    1  0.5137842E-006  0.1093520E+03  0.7561462E-02  0.1261775E+00
          2   -1    0    0  501    0  0.00000000000E+00  0.00000000000E+00  0.16078811864E+03  0.16078811864E+03  0.00000000000E+00 0. -1.
         -2   -1    0    0    0  501 -0.00000000000E+00 -0.00000000000E+00 -0.85457237885E+02  0.85457237885E+02  0.00000000000E+00 0.  1.
         23    2    1    2    0    0  0.40788731928E+02 -0.10223763861E+02  0.50677282650E+02  0.11199422633E+03  0.90588485777E+02 0.  0.
          5    1    1    2  502    0  0.23291844460E+02  0.50075640847E+02  0.22839196536E+01  0.55432558245E+02  0.41800000000E+01 0.  1.
         -5    1    1    2    0  502 -0.64080576388E+02 -0.39851876986E+02  0.22369678450E+02  0.78818571945E+02  0.41800000000E+01 0.  1.
        -11    1    3    3    0    0  0.52476999891E+02  0.19358162409E+02  0.56673096464E+02  0.79626715568E+02  0.00000000000E+00 0. -1.
         11    1    3    3    0    0 -0.11688267963E+02 -0.29581926270E+02 -0.59958138140E+01  0.32367510765E+02  0.00000000000E+00 0.  1.
</event>
<event>
 7    1  0.5137842E-006  0.1439384E+03  0.7561462E-02  0.1208126E+00
          3   -1    0    0  501    0  0.00000000000E+00  0.00000000000E+00  0.39784527773E+03  0.39784527773E+03  0.00000000000E+00 0. -1.
         -3   -1    0    0    0  501 -0.00000000000E+00 -0.00000000000E+00 -0.69337783027E+02  0.69337783027E+02  0.00000000000E+00 0.  1.
         23    2    1    2    0    0 -0.62451812320E+01 -0.11222892682E+03  0.23140663508E+03  0.27299142675E+03  0.91328823593E+02 0.  0.
          5    1    1    2  502    0  0.99898448281E+00 -0.27171530095E+02  0.81421825734E+01  0.28688979675E+02  0.41800000000E+01 0. -1.
         -5    1    1    2    0  502  0.52461967492E+01  0.13940045691E+03  0.88958677058E+02  0.16550265434E+03  0.41800000000E+01 0. -1.
        -11    1    3    3    0    0 -0.21937021608E+02 -0.30415581347E+02  0.13758238841E+02  0.39945333166E+02  0.00000000000E+00 0.  1.
         11    1    3    3    0    0  0.15691840376E+02 -0.81813345472E+02  0.21764839624E+03  0.23304609359E+03  0.00000000000E+00 0. -1.
</event>
<event>
 7    1  0.8726215E-006  0.1593008E+03  0.7561462E-02  0.1189488E+00
         -1   -1    0    0    0  501 -0.00000000000E+00  0.00000000000E+00  0.33891738844E+02  0.33891738844E+02  0.00000000000E+00 0.  1.
          1   -1    0    0  501    0  0.00000000000E+00 -0.00000000000E+00 -0.83394335572E+03  0.83394335572E+03  0.00000000000E+00 0. -1.
         23    2    1    2    0    0 -0.11083893153E+03 -0.43639062307E+02 -0.49475137608E+03  0.51705704415E+03  0.91539206196E+02 0.  0.
          5    1    1    2  502    0  0.11248852206E+03  0.75953654048E+02 -0.21030443307E+03  0.25033587863E+03  0.41800000000E+01 0. -1.
         -5    1    1    2    0  502 -0.16495905283E+01 -0.32314591741E+02 -0.94995807724E+02  0.10044217179E+03  0.41800000000E+01 0. -1.
        -11    1    3    3    0    0 -0.41648891376E+02 -0.65500129627E+02 -0.26225746253E+03  0.27350296851E+03  0.00000000000E+00 0.  1.
         11    1    3    3    0    0 -0.69190040153E+02  0.21861067320E+02 -0.23249391355E+03  0.24355407563E+03  0.00000000000E+00 0. -1.
</event>
<event>
 7    1  0.5137842E-006  0.1191110E+03  0.7561462E-02  0.1244571E+00
         -1   -1    0    0    0  501 -0.00000000000E+00  0.00000000000E+00  0.18203342366E+03  0.18203342366E+03  0.00000000000E+00 0.  1.
          1   -1    0    0  501    0  0.00000000000E+00 -0.00000000000E+00 -0.12580793765E+03  0.12580793765E+03  0.00000000000E+00 0. -1.
         23    2    1    2    0    0 -0.45797626111E+02  0.40810840297E+02 -0.58678293634E+02  0.12724902758E+03  0.94795704722E+02 0.  0.
          5    1    1    2  502    0  0.75023753552E+02 -0.60286556679E+02  0.10769830771E+03  0.14449716398E+03  0.41800000000E+01 0.  1.
         -5    1    1    2    0  502 -0.29226127441E+02  0.19475716382E+02  0.72054719223E+01  0.36095169752E+02  0.41800000000E+01 0.  1.
        -11    1    3    3    0    0 -0.68677552638E+02  0.46503109528E+02 -0.25936119471E+02  0.86901252727E+02  0.00000000000E+00 0.  1.
         11    1    3    3    0    0  0.22879926528E+02 -0.56922692316E+01 -0.32742174162E+02  0.40347774856E+02  0.00000000000E+00 0. -1.
</event>
<event>
 7    1  0.5137842E-006  0.1263105E+03  0.7561462E-02  0.1233035E+00
          3   -1    0    0  501    0  0.00000000000E+00  0.00000000000E+00  0.14208411631E+03  0.14208411631E+03  0.00000000000E+00 0. -1.
         -3   -1    0    0    0  501 -0.00000000000E+00 -0.00000000000E+00 -0.16804459949E+03  0.16804459949E+03  0.00000000000E+00 0.  1.
         23    2    1    2    0    0  0.71777342641E+02  0.77222863991E+00  0.70211958034E+02  0.13677865495E+03  0.92876790131E+02 0.  0.
          5    1    1    2  502    0 -0.96522442340E+02  0.26645089911E+02 -0.44393969183E+02  0.10961222373E+03  0.41800000000E+01 0. -1.
         -5    1    1    2    0  502  0.24745099699E+02 -0.27417318551E+02 -0.51778472024E+02  0.63737837120E+02  0.41800000000E+01 0. -1.
        -11    1    3    3    0    0 -0.19000102800E+02 -0.13543887377E+02  0.43998561068E+01  0.23744463048E+02  0.00000000000E+00 0.  1.
         11    1    3    3    0    0  0.90777445441E+02  0.14316116017E+02  0.65812101927E+02  0.11303419190E+03  0.00000000000E+00 0. -1.
</event>
<event>
 7    1  0.5137842E-006  0.1035295E+03  0.7561462E-02  0.1273044E+00
          2   -1    0    0  501    0  0.00000000000E+00  0.00000000000E+00  0.39775723160E+02  0.39775723160E+02  0.00000000000E+00 0. -1.
         -2   -1    0    0    0  501 -0.00000000000E+00 -0.00000000000E+00 -0.36258527905E+03  0.36258527905E+03  0.00000000000E+00 0.  1.
         23    2    1    2    0    0 -0.19797728108E+02  0.22015753212E+02 -0.68259488346E+02  0.11719391788E+03  0.90545089379E+02 0.  0.
          5    1    1    2  502    0 -0.45253082673E+02 -0.87360086549E+01 -0.17720902775E+03  0.18315204409E+03  0.41800000000E+01 0. -1.
         -5    1    1    2    0  502  0.65050810781E+02 -0.13279744557E+02 -0.77341039795E+02  0.10201504024E+03  0.41800000000E+01 0. -1.
        -11    1    3    3    0    0  0.24424272062E+02  0.39715443472E+02 -0.42264479707E+02  0.62929704916E+02  0.00000000000E+00 0.  1.
         11    1    3    3    0    0 -0.44222000170E+02 -0.17699690259E+02 -0.25995008638E+02  0.54264212962E+02  0.00000000000E+00 0. -1.
</event>
<event>
 7    1  0.5137842E-006  0.1048255E+03  0.7561462E-02  0.1270464E+00
         -1   -1    0    0    0  501 -0.00000000000E+00  0.00000000000E+00  0.76235244994E+02  0.76235244994E+02  0.00000000000E+00 0. -1.
          1   -1    0    0  501    0  0.00000000000E+00 -0.00000000000E+00 -0.14653752547E+03  0.14653752547E+03  0.00000000000E+00 0.  1.
         23    2    1    2    0    0 -0.30834577773E+01  0.34801240142E+02 -0.34864027321E+02  0.88145224221E+02  0.73030446560E+02 0.  0.
          5    1    1    2  502    0 -0.49925312705E+02 -0.53692653029E+02 -0.21006766632E+02  0.76381898918E+02  0.41800000000E+01 0. -1.
         -5    1    1    2    0  502  0.53008770482E+02  0.18891412888E+02 -0.14431486523E+02  0.58245647324E+02  0.41800000000E+01 0. -1.
        -11    1    3    3    0    0 -0.62270937003E+01 -0.22016608673E+02 -0.34310106544E+01  0.23136110034E+02  0.00000000000E+00 0.  1.
         11    1    3    3    0    0  0.31436359230E+01  0.56817848814E+02 -0.31433016667E+02  0.65009114187E+02  0.00000000000E+00 0. -1.
</event>
<event>
 7    1  0.5137842E-006  0.1628496E+03  0.7561462E-02  0.1185517E+00
         -2   -1    0    0    0  501 -0.00000000000E+00  0.00000000000E+00  0.56459489123E+02  0.56459489123E+02  0.00000000000E+00 0.  1.
          2   -1    0    0  501    0  0.00000000000E+00 -0.00000000000E+00 -0.60070848419E+03  0.60070848419E+03  0.00000000000E+00 0. -1.
         23    2    1    2    0    0 -0.32281103354E+02 -0.13864489403E+03 -0.33245274165E+03  0.37294234936E+03  0.91086191299E+02 0.  0.
          5    1    1    2  502    0  0.74012273703E+02  0.10170865590E+03 -0.10588327812E+03  0.16447251543E+03  0.41800000000E+01 0.  1.
         -5    1    1    2    0  502 -0.41731170349E+02  0.36936238122E+02 -0.10591297530E+03  0.11975310853E+03  0.41800000000E+01 0.  1.
        -11    1    3    3    0    0 -0.49353019616E+01 -0.68378495624E+02 -0.62889713526E+02  0.93032746582E+02  0.00000000000E+00 0.  1.
         11    1    3    3    0    0 -0.27345801392E+02 -0.70266398402E+02 -0.26956302812E+03  0.27990960278E+03  0.00000000000E+00 0. -1.
</event>
<event>
 7    1  0.5137842E-006  0.9799370E+02  0.7561462E-02  0.1284572E+00
          2   -1    0    0  501    0  0.00000000000E+00  0.00000000000E+00  0.19771400583E+03  0.19771400583E+03  0.00000000000E+00 0. -1.
         -2   -1    0    0    0  501 -0.00000000000E+00 -0.00000000000E+00 -0.72100780839E+02  0.72100780839E+02  0.00000000000E+00 0.  1.
         23    2    1    2    0    0  0.45510195876E+02  0.77603145509E+01  0.71023326552E+02  0.12570427258E+03  0.92875458646E+02 0.  0.
          5    1    1    2  502    0 -0.57952297680E+02 -0.46027085074E+02 -0.24686229708E+01  0.74165543659E+02  0.41800000000E+01 0.  1.
         -5    1    1    2    0  502  0.12442101805E+02  0.38266770523E+02  0.57058521408E+02  0.69944970433E+02  0.41800000000E+01 0.  1.
        -11    1    3    3    0    0 -0.15330952518E+02  0.13325317077E+02  0.60359173702E+02  0.63685414581E+02  0.00000000000E+00 0. -1.
         11    1    3    3    0    0  0.60841148394E+02 -0.55650025263E+01  0.10664152850E+02  0.62018857995E+02  0.00000000000E+00 0.  1.
</event>
<event>
 7    1  0.5137842E-006  0.1041574E+03  0.7561462E-02  0.1271789E+00
          1   -1    0    0  501    0  0.00000000000E+00  0.00000000000E+00  0.34214065003E+03  0.34214065003E+03  0.00000000000E+00 0. -1.
         -1   -1    0    0    0  501 -0.00000000000E+00 -0.00000000000E+00 -0.38485788152E+02  0.38485788152E+02  0.00000000000E+00 0.  1.
         23    2    1    2    0    0 -0.27336076543E+02  0.10497855259E+02  0.21607411154E+03  0.23637796817E+03  0.91263662624E+02 0.  0.
          5    1    1    2  502    0  0.46549585910E+02 -0.50104334591E+02  0.65637254147E+02  0.94884297042E+02  0.41800000000E+01 0. -1.
         -5    1    1    2    0  502 -0.19213509367E+02  0.39606479332E+02  0.21943496192E+02  0.49364172964E+02  0.41800000000E+01 0.  1.
        -11    1    3    3    0    0  0.95959724652E+01 -0.35393247818E+02  0.74438759750E+02  0.82981284828E+02  0.00000000000E+00 0. -1.
         11    1    3    3    0    0 -0.36932049008E+02  0.45891103076E+02  0.14163535179E+03  0.15339668335E+03  0.00000000000E+00 0.  1.
</event>
<event>
 7    1  0.5137842E-006  0.1389644E+03  0.7561462E-02  0.1214729E+00
         -2   -1    0    0    0  501 -0.00000000000E+00  0.00000000000E+00  0.18023220581E+03  0.18023220581E+03  0.00000000000E+00 0.  1.
          2   -1    0    0  501    0  0.00000000000E+00 -0.00000000000E+00 -0.17207424480E+03  0.17207424480E+03  0.00000000000E+00 0. -1.
         23    2    1    2    0    0 -0.11404179693E+03  0.17806481275E+02 -0.69756986441E+02  0.16511549660E+03  0.95260106230E+02 0.  0.
          5    1    1    2  502    0  0.10977567096E+03 -0.38475804384E+00  0.28427449979E+01  0.10989267297E+03  0.41800000000E+01 0. -1.
         -5    1    1    2    0  502  0.42661259737E+01 -0.17421723231E+02  0.75072202452E+02  0.77298281043E+02  0.41800000000E+01 0. -1.
        -11    1    3    3    0    0 -0.64903570782E+02  0.57327742224E+02 -0.40608681351E+02  0.95645222201E+02  0.00000000000E+00 0.  1.
         11    1    3    3    0    0 -0.49138226149E+02 -0.39521260949E+02 -0.29148305090E+02  0.69470274403E+02  0.00000000000E+00 0. -1.
</event>
<event>
 7    1  0.5137842E-006  0.1443634E+03  0.7561462E-02  0.1207575E+00
         -2   -1    0    0    0  501 -0.00000000000E+00  0.00000000000E+00  0.26962277069E+02  0.26962277069E+02  0.00000000000E+00 0.  1.
          2   -1    0    0  501    0  0.00000000000E+00 -0.00000000000E+00 -0.91188812749E+03  0.91188812749E+03  0.00000000000E+00 0. -1.
         23    2    1    2    0    0  0.93456177106E+02 -0.38892459017E+02 -0.54742120481E+03  0.56499189139E+03  0.96432263566E+02 0.  0.
          5    1    1    2  502    0  0.30202771211E+02  0.33920434086E+01 -0.86367592749E+02  0.91654497023E+02  0.41800000000E+01 0. -1.
         -5    1    1    2    0  502 -0.12365894832E+03  0.35500415608E+02 -0.25113705287E+03  0.28220401615E+03  0.41800000000E+01 0. -1.
        -11    1    3    3    0    0  0.72304315788E+02  0.12841081829E+02 -0.41194980192E+03  0.41844407842E+03  0.00000000000E+00 0. -1.
         11    1    3    3    0    0  0.21151861318E+02 -0.51733540846E+02 -0.13547140289E+03  0.14654781297E+03  0.00000000000E+00 0.  1.
</event>
<event>
 7    1  0.5137842E-006  0.1199800E+03  0.7561462E-02  0.1243130E+00
          2   -1    0    0  501    0  0.00000000000E+00  0.00000000000E+00  0.47936759087E+03  0.47936759087E+03  0.00000000000E+00 0.  1.
         -2   -1    0    0    0  501 -0.00000000000E+00 -0.00000000000E+00 -0.37408859019E+02  0.37408859019E+02  0.00000000000E+00 0. -1.
         23    2    1    2    0    0 -0.32634015539E+02  0.43886189645E+02  0.30825825534E+03  0.32571170634E+03  0.89855367364E+02 0.  0.
          5    1    1    2  502    0 -0.47663135247E+02 -0.85955527698E+01  0.50587626454E+02  0.70158665461E+02  0.41800000000E+01 0. -1.
         -5    1    1    2    0  502  0.80297150786E+02 -0.35290636876E+02  0.83112850048E+02  0.12090607809E+03  0.41800000000E+01 0. -1.
        -11    1    3    3    0    0 -0.20019177507E+02 -0.25835842931E+02  0.12586782040E+03  0.13004217186E+03  0.00000000000E+00 0. -1.
         11    1    3    3    0    0 -0.12614838032E+02  0.69722032577E+02  0.18239043494E+03  0.19566953448E+03  0.00000000000E+00 0.  1.
</event>
<event>
 7    1  0.5137842E-006  0.1254188E+03  0.7561462E-02  0.1234416E+00
         -2   -1    0    0    0  501 -0.00000000000E+00  0.00000000000E+00  0.21051823722E+03  0.21051823722E+03  0.00000000000E+00 0.  1.
          2   -1    0    0  501    0  0.00000000000E+00 -0.00000000000E+00 -0.10578991077E+03  0.10578991077E+03  0.00000000000E+00 0. -1.
         23    2    1    2    0    0 -0.42955199380E+02  0.64107810220E+02 -0.22825296750E+02  0.12169843772E+03  0.91293784495E+02 0.  0.
          5    1    1    2  502    0 -0.14141851417E+01 -0.89654941708E+02  0.53544862031E+02  0.10452049149E+03  0.41800000000E+01 0. -1.
         -5    1    1    2    0  502  0.44369384521E+02  0.25547131487E+02  0.74008761168E+02  0.90089218776E+02  0.41800000000E+01 0. -1.
        -11    1    3    3    0    0 -0.65016526900E+02  0.57174623328E+02 -0.37454914451E+02  0.94334282948E+02  0.00000000000E+00 0. -1.
         11    1    3    3    0    0  0.22061327521E+02  0.69331868929E+01  0.14629617701E+02  0.27364154775E+02  0.00000000000E+00 0.  1.
</event>
<event>
 7    1  0.5137842E-006  0.1023177E+03  0.7561462E-02  0.1275496E+00
          2   -1    0    0  501    0  0.00000000000E+00  0.00000000000E+00  0.18814644247E+03  0.18814644247E+03  0.00000000000E+00 0. -1.
         -2   -1    0    0    0  501 -0.00000000000E+00 -0.00000000000E+00 -0.10009097764E+03  0.10009097764E+03  0.00000000000E+00 0.  1.
         23    2    1    2    0    0  0.52829089928E-02 -0.27454801231E+02  0.12023050364E+03  0.15618425015E+03  0.95835170212E+02 0.  0.
          5    1    1    2  502    0  0.22388498081E+02 -0.33163220378E+02 -0.50677139418E+02  0.64704628056E+02  0.41800000000E+01 0.  1.
         -5    1    1    2    0  502 -0.22393780990E+02  0.60618021609E+02  0.18502100605E+02  0.67348541912E+02  0.41800000000E+01 0.  1.
        -11    1    3    3    0    0  0.17227386977E+02 -0.60217829461E+02  0.77771596038E+02  0.99856852531E+02  0.00000000000E+00 0.  1.
         11    1    3    3    0    0 -0.17222104068E+02  0.32763028230E+02  0.42458907605E+02  0.56327397617E+02  0.00000000000E+00 0. -1.
</event>
<event>
 7    1  0.5137842E-006  0.1538639E+03  0.7561462E-02  0.1195804E+00
          2   -1    0    0  501    0  0.00000000000E+00  0.00000000000E+00  0.12404275595E+03  0.12404275595E+03  0.00000000000E+00 0. -1.
         -2   -1    0    0    0  501 -0.00000000000E+00 -0.00000000000E+00 -0.27457471290E+03  0.27457471290E+03  0.00000000000E+00 0.  1.
         23    2    1    2    0    0 -0.12827702949E+03  0.61303451303E+02 -0.25141094738E+02  0.17149737092E+03  0.92553574499E+02 0.  0.
          5    1    1    2  502    0  0.26512139873E+02 -0.29180861070E+02 -0.11282361477E+03  0.11958702548E+03  0.41800000000E+01 0.  1.
         -5    1    1    2    0  502  0.10176488961E+03 -0.32122590233E+02 -0.12567247434E+02  0.10753307245E+03  0.41800000000E+01 0.  1.
        -11    1    3    3    0    0 -0.95705586538E+02  0.45072079180E+01 -0.40865403990E+02  0.10416263947E+03  0.00000000000E+00 0. -1.
         11    1    3    3    0    0 -0.32571442950E+02  0.56796243385E+02  0.15724309252E+02  0.67334731453E+02  0.00000000000E+00 0.  1.
</event>
<event>
 7    1  0.5137842E-006  0.2047729E+03  0.7561462E-02  0.1145773E+00
         -2   -1    0    0    0  501 -0.00000000000E+00  0.00000000000E+00  0.52679550048E+02  0.52679550048E+02  0.00000000000E+00 0.  1.
          2   -1    0    0  501    0  0.00000000000E+00 -0.00000000000E+00 -0.10921245465E+04  0.10921245465E+04  0.00000000000E+00 0. -1.
         23    2    1    2    0    0  0.13291268902E+03 -0.13281431672E+03 -0.74401973005E+03  0.77300919772E+03  0.93125911702E+02 0.  0.
          5    1    1    2  502    0 -0.38843696945E+02  0.10212327413E+03 -0.82531000385E+02  0.13699209589E+03  0.41800000000E+01 0.  1.
         -5    1    1    2    0  502 -0.94068992070E+02  0.30691042591E+02 -0.21289426603E+03  0.23480280295E+03  0.41800000000E+01 0.  1.
        -11    1    3    3    0    0  0.17476953660E+02 -0.64951219441E+02 -0.36212668356E+03  0.36832029508E+03  0.00000000000E+00 0.  1.
         11    1    3    3    0    0  0.11543573536E+03 -0.67863097282E+02 -0.38189304648E+03  0.40468890264E+03  0.00000000000E+00 0. -1.
</event>
<event>
 7    1  0.5137842E-006  0.1909889E+03  0.7561462E-02  0.1157572E+00
         -1   -1    0    0    0  501 -0.00000000000E+00  0.00000000000E+00  0.41958103555E+03  0.41958103555E+03  0.00000000000E+00 0.  1.
          1   -1    0    0  501    0  0.00000000000E+00 -0.00000000000E+00 -0.11285771275E+03  0.11285771275E+03  0.00000000000E+00 0. -1.
         23    2    1    2    0    0 -0.10966990684E+03  0.11200389519E+03  0.30592057215E+02  0.18422293798E+03  0.91814246777E+02 0.  0.
          5    1    1    2  502    0 -0.25668116195E+02 -0.38289914370E+02  0.22644305857E+02  0.51528698016E+02  0.41800000000E+01 0. -1.
         -5    1    1    2    0  502  0.13533802304E+03 -0.73713980815E+02  0.25348695973E+03  0.29668711230E+03  0.41800000000E+01 0.  1.
        -11    1    3    3    0    0  0.12698904199E+02 -0.35838035728E+01  0.35442708484E+00  0.13199675543E+02  0.00000000000E+00 0.  1.
         11    1    3    3    0    0 -0.12236881104E+03  0.11558769876E+03  0.30237630130E+02  0.17102326244E+03  0.00000000000E+00 0. -1.
</event>
<event>
 7    1  0.5137842E-006  0.1130916E+03  0.7561462E-02  0.1254950E+00
         -2   -1    0    0    0  501 -0.00000000000E+00  0.00000000000E+00  0.32968849409E+02  0.32968849409E+02  0.00000000000E+00 0.  1.
          2   -1    0    0  501    0  0.00000000000E+00 -0.00000000000E+00 -0.42947848802E+03  0.42947848802E+03  0.00000000000E+00 0. -1.
         23    2    1    2    0    0  0.13058522618E+01 -0.49533631908E+02 -0.17384407532E+03  0.20228841276E+03  0.90794016730E+02 0.  0.
          5    1    1    2  502    0 -0.14400641706E+01  0.90083097364E+02 -0.17890276671E+03  0.20035146755E+03  0.41800000000E+01 0. -1.
         -5    1    1    2    0  502  0.13421190879E+00 -0.40549465456E+02 -0.43762796585E+02  0.59807457115E+02  0.41800000000E+01 0. -1.
        -11    1    3    3    0    0  0.40995956213E+02 -0.31141447185E+02 -0.13228501120E+03  0.14194992902E+03  0.00000000000E+00 0.  1.
         11    1    3    3    0    0 -0.39690103952E+02 -0.18392184723E+02 -0.41559064119E+02  0.60338483748E+02  0.00000000000E+00 0. -1.
</event>
<event>
 7    1  0.5137842E-006  0.2691894E+03  0.7561462E-02  0.1101744E+00
          2   -1    0    0  501    0  0.00000000000E+00  0.00000000000E+00  0.38055713349E+03  0.38055713349E+03  0.00000000000E+00 0. -1.
         -2   -1    0    0    0  501 -0.00000000000E+00 -0.00000000000E+00 -0.19837734388E+03  0.19837734388E+03  0.00000000000E+00 0.  1.
         23    2    1    2    0    0 -0.24787083666E+03  0.34821856867E+02  0.56030331099E+02  0.27199224545E+03  0.90486850958E+02 0.  0.
          5    1    1    2  502    0  0.87397279934E+02  0.38680746403E+02  0.79344479003E+02  0.12428798587E+03  0.41800000000E+01 0. -1.
         -5    1    1    2    0  502  0.16047355673E+03 -0.73502603270E+02  0.46804979514E+02  0.18265424606E+03  0.41800000000E+01 0. -1.
        -11    1    3    3    0    0 -0.54996847619E+02  0.47773574140E+02  0.14961363496E+02  0.74369415971E+02  0.00000000000E+00 0.  1.
         11    1    3    3    0    0 -0.19287398904E+03 -0.12951717273E+02  0.41068967603E+02  0.19762282948E+03  0.00000000000E+00 0. -1.
</event>
<event>
 7    1  0.5137842E-006  0.1089605E+03  0.7561462E-02  0.1262507E+00
         -2   -1    0    0    0  501 -0.00000000000E+00  0.00000000000E+00  0.25966874005E+03  0.25966874005E+03  0.00000000000E+00 0. -1.
          2   -1    0    0  501    0  0.00000000000E+00 -0.00000000000E+00 -0.76495499332E+02  0.76495499332E+02  0.00000000000E+00 0.  1.
         23    2    1    2    0    0  0.58275681771E+02 -0.65611521989E+02  0.60017190695E+02  0.13991050354E+03  0.90950310167E+02 0.  0.
          5    1    1    2  502    0 -0.89126933793E+01 -0.19683888783E+02  0.89292271687E+02  0.91964524486E+02  0.41800000000E+01 0.  1.
         -5    1    1    2    0  502 -0.49362988392E+02  0.85295410773E+02  0.33863778339E+02  0.10428921136E+03  0.41800000000E+01 0.  1.
        -11    1    3    3    0    0  0.50017233063E+01 -0.35957224236E+02  0.69303368723E+02  0.78236156137E+02  0.00000000000E+00 0. -1.
         11    1    3    3    0    0  0.53273958465E+02 -0.29654297753E+02 -0.92861780272E+01  0.61674347407E+02  0.00000000000E+00 0.  1.
</event>
<event>
 7    1  0.5137842E-006  0.1099414E+03  0.7561462E-02  0.1260678E+00
          2   -1    0    0  501    0  0.00000000000E+00  0.00000000000E+00  0.45843792758E+03  0.45843792758E+03  0.00000000000E+00 0.  1.
         -2   -1    0    0    0  501 -0.00000000000E+00 -0.00000000000E+00 -0.29820316223E+02  0.29820316223E+02  0.00000000000E+00 0. -1.
         23    2    1    2    0    0 -0.35760089312E+01  0.39171817956E+02  0.21742786226E+03  0.23966924572E+03  0.92839931571E+02 0.  0.
          5    1    1    2  502    0  0.29300283717E+02  0.38390489909E+02  0.92435353615E+02  0.10437482139E+03  0.41800000000E+01 0.  1.
         -5    1    1    2    0  502 -0.25724274786E+02 -0.77562307866E+02  0.11875439548E+03  0.14421417670E+03  0.41800000000E+01 0.  1.
        -11    1    3    3    0    0  0.38156655787E+02  0.12935873890E+02  0.45313049990E+02  0.60634476278E+02  0.00000000000E+00 0. -1.
         11    1    3    3    0    0 -0.41732664718E+02  0.26235944066E+02  0.17211481228E+03  0.17903476944E+03  0.00000000000E+00 0.  1.
</event>
<event>
 7    1  0.5137842E-006  0.1176521E+03  0.7561462E-02  0.1247021E+00
          2   -1    0    0  501    0  0.00000000000E+00  0.00000000000E+00  0.10435902766E+03  0.10435902766E+03  0.00000000000E+00 0.  1.
         -2   -1    0    0    0  501 -0.00000000000E+00 -0.00000000000E+00 -0.21732968879E+03  0.21732968879E+03  0.00000000000E+00 0. -1.
         23    2    1    2    0    0 -0.81761691912E+02  0.22531723045E+02  0.11591368558E+02  0.12584353561E+03  0.92247400089E+02 0.  0.
          5    1    1    2  502    0  0.75709668107E+02 -0.69555567271E+02 -0.76614795702E+02  0.12828573617E+03  0.41800000000E+01 0.  1.
         -5    1    1    2    0  502  0.60520238051E+01  0.47023844226E+02 -0.47947233984E+02  0.67559444674E+02  0.41800000000E+01 0.  1.
        -11    1    3    3    0    0 -0.97310231426E+01  0.24050938748E+01 -0.35884132460E+02  0.37257861591E+02  0.00000000000E+00 0. -1.
         11    1    3    3    0    0 -0.72030668769E+02  0.20126629170E+02  0.47475501018E+02  0.88585674023E+02  0.00000000000E+00 0.  1.
</event>
<event>
 7    1  0.5137842E-006  0.8034726E+02  0.7561462E-02  0.1328069E+00
          1   -1    0    0  501    0  0.00000000000E+00  0.00000000000E+00  0.34200672237E+03  0.34200672237E+03  0.00000000000E+00 0. -1.
         -1   -1    0    0    0  501 -0.00000000000E+00 -0.00000000000E+00 -0.30682641549E+02  0.30682641549E+02  0.00000000000E+00 0.  1.
         23    2    1    2    0    0 -0.19036872082E+02 -0.11432825499E+02  0.15754349429E+03  0.17321926669E+03  0.68497078497E+02 0.  0.
          5    1    1    2  502    0 -0.36635202772E+02  0.13254326580E+02  0.13494956265E+03  0.14052285264E+03  0.41800000000E+01 0.  1.
         -5    1    1    2    0  502  0.55672074854E+02 -0.18215010808E+01  0.18831023893E+02  0.58947244597E+02  0.41800000000E+01 0.  1.
        -11    1    3    3    0    0 -0.24854175036E+02 -0.34131008564E+02  0.13185204178E+03  0.13844716206E+03  0.00000000000E+00 0. -1.
         11    1    3    3    0    0  0.58173029538E+01  0.22698183065E+02  0.25691452508E+02  0.34772104625E+02  0.00000000000E+00 0.  1.
</event>
<event>
 7    1  0.5137842E-006  0.1248855E+03  0.7561462E-02  0.1235248E+00
          3   -1    0    0  501    0  0.00000000000E+00  0.00000000000E+00  0.32810136030E+02  0.32810136030E+02  0.00000000000E+00 0. -1.
         -3   -1    0    0    0  501 -0.00000000000E+00 -0.00000000000E+00 -0.55906027640E+03  0.55906027640E+03  0.00000000000E+00 0.  1.
         23    2    1    2    0    0  0.42520739387E+02 -0.61164737373E+02 -0.16435029437E+03  0.20179257270E+03  0.90333187470E+02 0.  0.
          5    1    1    2  502    0  0.42019684833E+02  0.13408767953E+02 -0.15974304877E+03  0.16577322764E+03  0.41800000000E+01 0.  1.
         -5    1    1    2    0  502 -0.84540424220E+02  0.47755969420E+02 -0.20215679722E+03  0.22430461209E+03  0.41800000000E+01 0.  1.
        -11    1    3    3    0    0  0.18303697780E+02  0.17892754805E+02 -0.11605391014E+02  0.28104468106E+02  0.00000000000E+00 0. -1.
         11    1    3    3    0    0  0.24217041607E+02 -0.79057492178E+02 -0.15274490336E+03  0.17368810459E+03  0.00000000000E+00 0.  1.
</event>
<event>
 7    1  0.5137842E-006  0.1331818E+03  0.7561462E-02  0.1222809E+00
         -1   -1    0    0    0  501 -0.00000000000E+00  0.00000000000E+00  0.95623761498E+02  0.95623761498E+02  0.00000000000E+00 0.  1.
          1   -1    0    0  501    0  0.00000000000E+00 -0.00000000000E+00 -0.49724885340E+03  0.49724885340E+03  0.00000000000E+00 0. -1.
         23    2    1    2    0    0 -0.26191231813E+02  0.11527194894E+03 -0.39501994121E+03  0.42063950149E+03  0.83205969904E+02 0.  0.
          5    1    1    2  502    0  0.32312360861E+02 -0.84438595055E+02 -0.61087990778E+02  0.10919331489E+03  0.41800000000E+01 0. -1.
         -5    1    1    2    0  502 -0.61211290478E+01 -0.30833353882E+02  0.54482840088E+02  0.63039798512E+02  0.41800000000E+01 0. -1.
        -11    1    3    3    0    0  0.29091099952E+02  0.25335785769E+02 -0.12030197035E+03  0.12633589438E+03  0.00000000000E+00 0. -1.
         11    1    3    3    0    0 -0.55282331765E+02  0.89936163169E+02 -0.27471797085E+03  0.29430360711E+03  0.00000000000E+00 0.  1.
</event>
<event>
 7    1  0.5137842E-006  0.1509634E+03  0.7561462E-02  0.1199294E+00
         -1   -1    0    0    0  501 -0.00000000000E+00  0.00000000000E+00  0.56964104806E+02  0.56964104806E+02  0.00000000000E+00 0.  1.
          1   -1    0    0  501    0  0.00000000000E+00 -0.00000000000E+00 -0.52067564245E+03  0.52067564245E+03  0.00000000000E+00 0. -1.
         23    2    1    2    0    0  0.75012700395E+01 -0.10835623266E+03 -0.34792649042E+03  0.37552269847E+03  0.90372075994E+02 0.  0.
          5    1    1    2  502    0 -0.58365429877E+02  0.25923090697E+02 -0.23249645590E+02  0.68092205546E+02  0.41800000000E+01 0. -1.
         -5    1    1    2    0  502  0.50864159838E+02  0.82433141967E+02 -0.92535401636E+02  0.13402484324E+03  0.41800000000E+01 0. -1.
        -11    1    3    3    0    0 -0.20332138984E+02 -0.11115575377E+03 -0.28852414326E+03  0.30986316128E+03  0.00000000000E+00 0. -1.
         11    1    3    3    0    0  0.27833409024E+02  0.27995211039E+01 -0.59402347154E+02  0.65659537188E+02  0.00000000000E+00 0.  1.
</event>
<event>
 7    1  0.5137842E-006  0.1071958E+03  0.7561462E-02  0.1265853E+00
          1   -1    0    0  501    0  0.00000000000E+00  0.00000000000E+00  0.59186441685E+03  0.59186441685E+03  0.00000000000E+00 0. -1.
         -1   -1    0    0    0  501 -0.00000000000E+00 -0.00000000000E+00 -0.22283041004E+02  0.22283041004E+02  0.00000000000E+00 0.  1.
         23    2    1    2    0    0 -0.15770586115E+02  0.34430945622E+02  0.28170971771E+03  0.29799586126E+03  0.89481656619E+02 0.  0.
          5    1    1    2  502    0  0.44448746112E+02  0.29196338812E+02  0.74586535171E+02  0.91699186800E+02  0.41800000000E+01 0.  1.
         -5    1    1    2    0  502 -0.28678159996E+02 -0.63627284435E+02  0.21328512297E+03  0.22445240980E+03  0.41800000000E+01 0.  1.
        -11    1    3    3    0    0 -0.32703564508E+02  0.55305920737E+02  0.14395093826E+03  0.15763927374E+03  0.00000000000E+00 0.  1.
         11    1    3    3    0    0  0.16932978392E+02 -0.20874975114E+02  0.13775877945E+03  0.14035658752E+03  0.00000000000E+00 0. -1.
</event>
<event>
 7    1  0.5137842E-006  0.8929145E+02  0.7561462E-02  0.1304577E+00
         -1   -1    0    0    0  501 -0.00000000000E+00  0.00000000000E+00  0.10116680662E+03  0.10116680662E+03  0.00000000000E+00 0.  1.
          1   -1    0    0  501    0  0.00000000000E+00 -0.00000000000E+00 -0.19045592302E+03  0.19045592302E+03  0.00000000000E+00 0. -1.
         23    2    1    2    0    0 -0.41750190040E+02 -0.17168705472E+02 -0.11818131003E+03  0.15552111006E+03  0.90455242073E+02 0.  0.
          5    1    1    2  502    0  0.56805923237E+00  0.33352572595E+02 -0.41157099144E+02  0.53142224266E+02  0.41800000000E+01 0. -1.
         -5    1    1    2    0  502  0.41182130808E+02 -0.16183867123E+02  0.70049292776E+02  0.82959395317E+02  0.41800000000E+01 0. -1.
        -11    1    3    3    0    0 -0.35732968038E+02 -0.53146486287E+02 -0.83074609618E+02  0.10489415986E+03  0.00000000000E+00 0.  1.
         11    1    3    3    0    0 -0.60172220017E+01  0.35977780815E+02 -0.35106700412E+02  0.50626950202E+02  0.00000000000E+00 0. -1.
</event>
<event>
 7    1  0.5137842E-006  0.1060091E+03  0.7561462E-02  0.1268144E+00
          2   -1    0    0  501    0  0.00000000000E+00  0.00000000000E+00  0.14977255338E+03  0.14977255338E+03  0.00000000000E+00 0.  1.
         -2   -1    0    0    0  501 -0.00000000000E+00 -0.00000000000E+00 -0.80116869453E+02  0.80116869453E+02  0.00000000000E+00 0. -1.
         23    2    1    2    0    0  0.89011800264E+01  0.76800238011E+01  0.36055056640E+02  0.99834130114E+02  0.92350812962E+02 0.  0.
          5    1    1    2  502    0  0.52631002631E+02  0.21720441298E+02  0.11413131556E+02  0.58219687221E+02  0.41800000000E+01 0. -1.
         -5    1    1    2    0  502 -0.61532182658E+02 -0.29400465099E+02  0.22187495733E+02  0.71835605500E+02  0.41800000000E+01 0. -1.
        -11    1    3    3    0    0  0.93255761728E+01 -0.38910511679E+02  0.35109232462E+02  0.53232062651E+02  0.00000000000E+00 0.  1.
         11    1    3    3    0    0 -0.42439614642E+00  0.46590535480E+02  0.94582417796E+00  0.46602067462E+02  0.00000000000E+00 0. -1.
</event>
<event>
 7    1  0.5137842E-006  0.1414618E+03  0.7561462E-02  0.1211375E+00
         -1   -1    0    0    0  501 -0.00000000000E+00  0.00000000000E+00  0.30973147061E+03  0.30973147061E+03  0.00000000000E+00 0.  1.
          1   -1    0    0  501    0  0.00000000000E+00 -0.00000000000E+00 -0.10387681084E+03  0.10387681084E+03  0.00000000000E+00 0. -1.
         23    2    1    2    0    0 -0.17906184596E+02  0.93370147535E+02 -0.25260558947E+02  0.13414409290E+03  0.91202664019E+02 0.  0.
          5    1    1    2  502    0  0.70332408223E+02 -0.59521076143E+02  0.16066669022E+03  0.18525837065E+03  0.41800000000E+01 0.  1.
         -5    1    1    2    0  502 -0.52426223628E+02 -0.33849071392E+02  0.70448528497E+02  0.94205817895E+02  0.41800000000E+01 0.  1.
        -11    1    3    3    0    0  0.24883951652E+02  0.79285030680E+02 -0.31081560148E+02  0.88720857305E+02  0.00000000000E+00 0. -1.
         11    1    3    3    0    0 -0.42790136248E+02  0.14085116855E+02  0.58210012015E+01  0.45423235595E+02  0.00000000000E+00 0.  1.
</event>
<event>
 7    1  0.5137842E-006  0.1672809E+03  0.7561462E-02  0.1180713E+00
          4   -1    0    0  501    0  0.00000000000E+00  0.00000000000E+00  0.18087654997E+03  0.18087654997E+03  0.00000000000E+00 0. -1.
         -4   -1    0    0    0  501 -0.00000000000E+00 -0.00000000000E+00 -0.19075070478E+03  0.19075070478E+03  0.00000000000E+00 0.  1.
         23    2    1    2    0    0  0.14332058417E+03  0.14560212735E+02  0.39038036420E+02  0.17466266765E+03  0.90720943233E+02 0.  0.
          5    1    1    2  502    0 -0.12239570047E+03  0.25528563302E+02  0.65626799173E+01  0.12527152991E+03  0.41800000000E+01 0.  1.
         -5    1    1    2    0  502 -0.20924883702E+02 -0.40088776037E+02 -0.55474871149E+02  0.71693057203E+02  0.41800000000E+01 0.  1.
        -11    1    3    3    0    0 -0.86463494907E+01 -0.62422136129E+01 -0.89762944883E+01  0.13939098000E+02  0.00000000000E+00 0.  1.
         11    1    3    3    0    0  0.15196693366E+03  0.20802426348E+02  0.48014330909E+02  0.16072356965E+03  0.00000000000E+00 0. -1.
</event>
<event>
 7    1  0.5137842E-006  0.1196340E+03  0.7561462E-02  0.1243702E+00
         -1   -1    0    0    0  501 -0.00000000000E+00  0.00000000000E+00  0.22329619423E+03  0.22329619423E+03  0.00000000000E+00 0.  1.
          1   -1    0    0  501    0  0.00000000000E+00 -0.00000000000E+00 -0.93123646633E+02  0.93123646633E+02  0.00000000000E+00 0. -1.
         23    2    1    2    0    0  0.70168466317E+02 -0.38949328175E+02  0.18472865470E+02  0.13050336298E+03  0.10123841742E+03 0.  0.
          5    1    1    2  502    0  0.91025052476E+01  0.45263482470E+02 -0.28058987766E+01  0.46443340912E+02  0.41800000000E+01 0.  1.
         -5    1    1    2    0  502 -0.79270971564E+02 -0.63141542952E+01  0.11450558091E+03  0.13947313697E+03  0.41800000000E+01 0.  1.
        -11    1    3    3    0    0  0.38883289432E+02  0.22066814887E+02  0.38573324823E+02  0.59048758702E+02  0.00000000000E+00 0.  1.
         11    1    3    3    0    0  0.31285176885E+02 -0.61016143062E+02 -0.20100459354E+02  0.71454604282E+02  0.00000000000E+00 0. -1.
</event>
<event>
 7    1  0.5137842E-006  0.1376728E+03  0.7561462E-02  0.1216495E+00
          1   -1    0    0  501    0  0.00000000000E+00  0.00000000000E+00  0.68545331032E+03  0.68545331032E+03  0.00000000000E+00 0. -1.
         -1   -1    0    0    0  501 -0.00000000000E+00 -0.00000000000E+00 -0.37439818538E+02  0.37439818538E+02  0.00000000000E+00 0.  1.
         23    2    1    2    0    0  0.10211425981E+03  0.36030569947E+02  0.41141419992E+03  0.43418288666E+03  0.86761806964E+02 0.  0.
          5    1    1    2  502    0 -0.44918307646E+01  0.30126701504E+02  0.11591499126E+03  0.11992310989E+03  0.41800000000E+01 0. -1.
         -5    1    1    2    0  502 -0.97622429050E+02 -0.66157271451E+02  0.12068430060E+03  0.16878713230E+03  0.41800000000E+01 0. -1.
        -11    1    3    3    0    0  0.34973695767E+02 -0.18987244093E+02  0.58515702680E+02  0.70765544540E+02  0.00000000000E+00 0.  1.
         11    1    3    3    0    0  0.67140564048E+02  0.55017814040E+02  0.35289849724E+03  0.36341734212E+03  0.00000000000E+00 0. -1.
</event>
<event>
 7    1  0.5137842E-006  0.1738115E+03  0.7561462E-02  0.1173930E+00
          2   -1    0    0  501    0  0.00000000000E+00  0.00000000000E+00  0.44610286187E+03  0.44610286187E+03  0.00000000000E+00 0. -1.
         -2   -1    0    0    0  501 -0.00000000000E+00 -0.00000000000E+00 -0.72181783356E+02  0.72181783356E+02  0.00000000000E+00 0.  1.
         23    2    1    2    0    0  0.10655848187E+03  0.92855307981E+02  0.17170352881E+03  0.24166911947E+03  0.94578238620E+02 0.  0.
          5    1    1    2  502    0  0.21507476175E+02  0.30914542188E+00  0.59428445499E+02  0.63339400351E+02  0.41800000000E+01 0.  1.
         -5    1    1    2    0  502 -0.12806595805E+03 -0.93164453403E+02  0.14278910420E+03  0.21327612541E+03  0.41800000000E+01 0.  1.
        -11    1    3    3    0    0  0.37985733370E+02  0.91089040712E+02  0.79394053102E+02  0.12666311596E+03  0.00000000000E+00 0. -1.
         11    1    3    3    0    0  0.68572748503E+02  0.17662672696E+01  0.92309475711E+02  0.11500600351E+03  0.00000000000E+00 0.  1.
</event>
<event>
 7    1  0.5137842E-006  0.2074913E+03  0.7561462E-02  0.1143568E+00
          1   -1    0    0  501    0  0.00000000000E+00  0.00000000000E+00  0.90288770803E+03  0.90288770803E+03  0.00000000000E+00 0. -1.
         -1   -1    0    0    0  501 -0.00000000000E+00 -0.00000000000E+00 -0.54474704607E+02  0.54474704607E+02  0.00000000000E+00 0.  1.
         23    2    1    2    0    0  0.69270748487E+02  0.16474737336E+03  0.56897026517E+03  0.60285448344E+03  0.88126227240E+02 0.  0.
          5    1    1    2  502    0 -0.21505657799E+02 -0.16823112797E+03  0.22657176853E+03  0.28304848424E+03  0.41800000000E+01 0. -1.
         -5    1    1    2    0  502 -0.47765090687E+02  0.34837546166E+01  0.52870969720E+02  0.71459444958E+02  0.41800000000E+01 0. -1.
        -11    1    3    3    0    0  0.55587360018E+02  0.17270327513E+03  0.49478850648E+03  0.52700288612E+03  0.00000000000E+00 0.  1.
         11    1    3    3    0    0  0.13683388469E+02 -0.79559017730E+01  0.74181758696E+02  0.75851597322E+02  0.00000000000E+00 0. -1.
</event>
<event>
 7    1  0.5137842E-006  0.9123632E+02  0.7561462E-02  0.1299885E+00
         -2   -1    0    0    0  501 -0.00000000000E+00  0.00000000000E+00  0.91223056506E+02  0.91223056506E+02  0.00000000000E+00 0.  1.
          2   -1    0    0  501    0  0.00000000000E+00 -0.00000000000E+00 -0.23484105174E+03  0.23484105174E+03  0.00000000000E+00 0. -1.
         23    2    1    2    0    0 -0.12758496306E+02 -0.62655319476E+02 -0.14782781667E+03  0.18551508604E+03  0.92056045327E+02 0.  0.
          5    1    1    2  502    0 -0.26697110627E+01  0.77477032308E+02  0.48251107719E+02  0.91408203617E+02  0.41800000000E+01 0.  1.
         -5    1    1    2    0  502  0.15428207369E+02 -0.14821712832E+02 -0.44041286279E+02  0.49140818583E+02  0.41800000000E+01 0.  1.
        -11    1    3    3    0    0 -0.33344451396E+02 -0.32792729322E+02 -0.17014574424E+02  0.49766567875E+02  0.00000000000E+00 0.  1.
         11    1    3    3    0    0  0.20585955089E+02 -0.29862590154E+02 -0.13081324225E+03  0.13574851817E+03  0.00000000000E+00 0. -1.
</event>
<event>
 7    1  0.5137842E-006  0.1172760E+03  0.7561462E-02  0.1247660E+00
          1   -1    0    0  501    0  0.00000000000E+00  0.00000000000E+00  0.42225353455E+03  0.42225353455E+03  0.00000000000E+00 0.  1.
         -1   -1    0    0    0  501 -0.00000000000E+00 -0.00000000000E+00 -0.39961971636E+02  0.39961971636E+02  0.00000000000E+00 0. -1.
         23    2    1    2    0    0 -0.50843805372E+02 -0.40548505175E+02  0.22227248051E+03  0.24897321913E+03  0.91396577826E+02 0.  0.
          5    1    1    2  502    0  0.40924763568E+02 -0.37106577523E+02  0.34540111049E+02  0.65285726156E+02  0.41800000000E+01 0.  1.
         -5    1    1    2    0  502  0.99190418046E+01  0.77655082698E+02  0.12547897136E+03  0.14795656090E+03  0.41800000000E+01 0.  1.
        -11    1    3    3    0    0 -0.70003843325E+02 -0.20323432882E+02  0.10109612440E+03  0.12463549403E+03  0.00000000000E+00 0. -1.
         11    1    3    3    0    0  0.19160037953E+02 -0.20225072294E+02  0.12117635611E+03  0.12433772510E+03  0.00000000000E+00 0.  1.
</event>
<event>
 7    1  0.5137842E-006  0.1417180E+03  0.7561462E-02  0.1211036E+00
          1   -1    0    0  501    0  0.00000000000E+00  0.00000000000E+00  0.45466464798E+03  0.45466464798E+03  0.00000000000E+00 0. -1.
         -1   -1    0    0    0  501 -0.00000000000E+00 -0.00000000000E+00 -0.53528443921E+02  0.53528443921E+02  0.00000000000E+00 0.  1.
         23    2    1    2    0    0  0.94423732501E+02  0.23552338098E+01  0.24746351423E+03  0.28869002724E+03  0.11481442667E+03 0.  0.
          5    1    1    2  502    0 -0.69522799984E+02  0.44533753790E+02  0.14301932816E+03  0.16519284358E+03  0.41800000000E+01 0. -1.
         -5    1    1    2    0  502 -0.24900932517E+02 -0.46888987600E+02  0.10653361676E+02  0.54310221076E+02  0.41800000000E+01 0. -1.
        -11    1    3    3    0    0  0.11272194167E+03 -0.24173405613E+02  0.20724959779E+03  0.23715603609E+03  0.00000000000E+00 0.  1.
         11    1    3    3    0    0 -0.18298209169E+02  0.26528639423E+02  0.40213916440E+02  0.51533991150E+02  0.00000000000E+00 0. -1.
</event>
<event>
 7    1  0.5137842E-006  0.9207922E+02  0.7561462E-02  0.1297893E+00
          1   -1    0    0  501    0  0.00000000000E+00  0.00000000000E+00  0.14637120411E+03  0.14637120411E+03  0.00000000000E+00 0. -1.
         -1   -1    0    0    0  501 -0.00000000000E+00 -0.00000000000E+00 -0.14254832236E+03  0.14254832236E+03  0.00000000000E+00 0.  1.
         23    2    1    2    0    0  0.17928391843E+01  0.50319858128E+02  0.82004705415E+02  0.13304832529E+03  0.91879174772E+02 0.  0.
          5    1    1    2  502    0 -0.31598045842E+02 -0.22319532120E+02  0.24009119222E+02  0.45722075859E+02  0.41800000000E+01 0.  1.
         -5    1    1    2    0  502  0.29805206657E+02 -0.28000326008E+02 -0.10219094289E+03  0.11014912532E+03  0.41800000000E+01 0.  1.
        -11    1    3    3    0    0  0.46412479350E+02  0.22734446414E+02  0.33405226270E+02  0.61537650550E+02  0.00000000000E+00 0.  1.
         11    1    3    3    0    0 -0.44619640165E+02  0.27585411714E+02  0.48599479145E+02  0.71510674735E+02  0.00000000000E+00 0. -1.
</event>
<event>
 7    1  0.5137842E-006  0.1359769E+03  0.7561462E-02  0.1218847E+00
         -2   -1    0    0    0  501 -0.00000000000E+00  0.00000000000E+00  0.86007133707E+02  0.86007133707E+02  0.00000000000E+00 0.  1.
          2   -1    0    0  501    0  0.00000000000E+00 -0.00000000000E+00 -0.31255702170E+03  0.31255702170E+03  0.00000000000E+00 0. -1.
         23    2    1    2    0    0 -0.24562355959E+02 -0.85510226380E+02 -0.20789820303E+03  0.24385270454E+03  0.91253331681E+02 0.  0.
          5    1    1    2  502    0  0.27091455171E+02 -0.23172705808E+02  0.17680451903E+02  0.40012398294E+02  0.41800000000E+01 0. -1.
         -5    1    1    2    0  502 -0.25290992115E+01  0.10868293219E+03 -0.36332136866E+02  0.11469905257E+03  0.41800000000E+01 0. -1.
        -11    1    3    3    0    0  0.17560668445E+02 -0.83251520684E+02 -0.13280765258E+03  0.15772465044E+03  0.00000000000E+00 0.  1.
         11    1    3    3    0    0 -0.42123024404E+02 -0.22587056955E+01 -0.75090550445E+02  0.86128054097E+02  0.00000000000E+00 0. -1.
</event>
<event>
 7    1  0.5137842E-006  0.8639656E+02  0.7561462E-02  0.1311820E+00
          1   -1    0    0  501    0  0.00000000000E+00  0.00000000000E+00  0.13127190641E+03  0.13127190641E+03  0.00000000000E+00 0. -1.
         -1   -1    0    0    0  501 -0.00000000000E+00 -0.00000000000E+00 -0.11702612966E+03  0.11702612966E+03  0.00000000000E+00 0.  1.
         23    2    1    2    0    0  0.62119846422E+00 -0.41378922275E+02  0.49766593116E+02  0.11183648697E+03  0.91203535741E+02 0.  0.
          5    1    1    2  502    0 -0.43424296378E+02  0.22604581615E+02  0.28716332683E+02  0.56909900621E+02  0.41800000000E+01 0.  1.
         -5    1    1    2    0  502  0.42803097914E+02  0.18774340660E+02 -0.64237149051E+02  0.79551648483E+02  0.41800000000E+01 0.  1.
        -11    1    3    3    0    0 -0.24206174284E+02 -0.45526916683E+02 -0.47589946773E+01  0.51781145666E+02  0.00000000000E+00 0.  1.
         11    1    3    3    0    0  0.24827372749E+02  0.41479944080E+01  0.54525587793E+02  0.60055341306E+02  0.00000000000E+00 0. -1.
</event>
<event>
 7    1  0.5137842E-006  0.8298171E+02  0.7561462E-02  0.1320797E+00
         -2   -1    0    0    0  501 -0.00000000000E+00  0.00000000000E+00  0.86135058657E+02  0.86135058657E+02  0.00000000000E+00 0. -1.
          2   -1    0    0  501    0  0.00000000000E+00 -0.00000000000E+00 -0.19210121772E+03  0.19210121772E+03  0.00000000000E+00 0.  1.
         23    2    1    2    0    0 -0.34085254115E+02 -0.25845242227E+02 -0.11532946090E+03  0.14570351750E+03  0.78095130243E+02 0.  0.
          5    1    1    2  502    0  0.29292937298E+02 -0.34389896592E+02  0.43629098980E+02  0.62942130890E+02  0.41800000000E+01 0. -1.
         -5    1    1    2    0  502  0.47923168174E+01  0.60235138819E+02 -0.34265797139E+02  0.69590627980E+02  0.41800000000E+01 0. -1.
        -11    1    3    3    0    0 -0.33743932914E+02  0.43183456697E+00 -0.73047234157E+01  0.34528227202E+02  0.00000000000E+00 0. -1.
         11    1    3    3    0    0 -0.34132120159E+00 -0.26277076794E+02 -0.10802473749E+03  0.11117529030E+03  0.00000000000E+00 0.  1.
</event>
<event>
 7    1  0.5137842E-006  0.1006791E+03  0.7561462E-02  0.1278874E+00
         -2   -1    0    0    0  501 -0.00000000000E+00  0.00000000000E+00  0.27010708077E+03  0.27010708077E+03  0.00000000000E+00 0. -1.
          2   -1    0    0  501    0  0.00000000000E+00 -0.00000000000E+00 -0.59953610455E+02  0.59953610455E+02  0.00000000000E+00 0.  1.
         23    2    1    2    0    0  0.40993598620E+02 -0.53266789149E+02  0.11098236745E+03  0.15685233210E+03  0.88134795879E+02 0.  0.
          5    1    1    2  502    0  0.11939988208E+02  0.30385608899E+02 -0.21559967138E+02  0.39346577100E+02  0.41800000000E+01 0. -1.
         -5    1    1    2    0  502 -0.52933586828E+02  0.22881180251E+02  0.12073107000E+03  0.13386178203E+03  0.41800000000E+01 0. -1.
        -11    1    3    3    0    0  0.66731277315E+02 -0.52447376327E+02  0.80909840875E+02  0.11726121697E+03  0.00000000000E+00 0. -1.
         11    1    3    3    0    0 -0.25737678695E+02 -0.81941282214E+00  0.30072526576E+02  0.39591115122E+02  0.00000000000E+00 0.  1.
</event>
<event>
 7    1  0.5137842E-006  0.1221946E+03  0.7561462E-02  0.1239520E+00
         -2   -1    0    0    0  501 -0.00000000000E+00  0.00000000000E+00  0.11254644148E+04  0.11254644148E+04  0.00000000000E+00 0.  1.
          2   -1    0    0  501    0  0.00000000000E+00 -0.00000000000E+00 -0.22087713461E+02  0.22087713461E+02  0.00000000000E+00 0. -1.
         23    2    1    2    0    0 -0.10003286169E+03 -0.38083526155E+02  0.35404711516E+03  0.38035004553E+03  0.88655902214E+02 0.  0.
          5    1    1    2  502    0  0.13656194406E+02 -0.71185943162E+01  0.48781208108E+03  0.48807301183E+03  0.41800000000E+01 0.  1.
         -5    1    1    2    0  502  0.86376667289E+02  0.45202120471E+02  0.26151750506E+03  0.27912907086E+03  0.41800000000E+01 0.  1.
        -11    1    3    3    0    0 -0.39017508381E+02 -0.55093866052E+02  0.24609037958E+03  0.25518263060E+03  0.00000000000E+00 0.  1.
         11    1    3    3    0    0 -0.61015353314E+02  0.17010339897E+02  0.10795673558E+03  0.12516741493E+03  0.00000000000E+00 0. -1.
</event>
<event>
 7    1  0.5137842E-006  0.1484551E+03  0.7561462E-02  0.1202384E+00
         -1   -1    0    0    0  501 -0.00000000000E+00  0.00000000000E+00  0.27351082003E+03  0.27351082003E+03  0.00000000000E+00 0.  1.
          1   -1    0    0  501    0  0.00000000000E+00 -0.00000000000E+00 -0.86644832353E+02  0.86644832353E+02  0.00000000000E+00 0. -1.
         23    2    1    2    0    0 -0.94669685559E+02 -0.46392562158E+02  0.54993516661E+02  0.15003173670E+03  0.91491070364E+02 0.  0.
          5    1    1    2  502    0 -0.29178645056E+02  0.22851997065E+02  0.34039052464E+02  0.50494916475E+02  0.41800000000E+01 0.  1.
         -5    1    1    2    0  502  0.12384833062E+03  0.23540565093E+02  0.97833418552E+02  0.15962899920E+03  0.41800000000E+01 0.  1.
        -11    1    3    3    0    0 -0.90826560409E+02 -0.66778268113E+02  0.61335997165E+02  0.12833902647E+03  0.00000000000E+00 0.  1.
         11    1    3    3    0    0 -0.38431251499E+01  0.20385705955E+02 -0.63424805043E+01  0.21692710231E+02  0.00000000000E+00 0. -1.
</event>
<event>
 7    1  0.5137842E-006  0.1386607E+03  0.7561462E-02  0.1215142E+00
          1   -1    0    0  501    0  0.00000000000E+00  0.00000000000E+00  0.55098782530E+03  0.55098782530E+03  0.00000000000E+00 0. -1.
         -1   -1    0    0    0  501 -0.00000000000E+00 -0.00000000000E+00 -0.53418876521E+02  0.53418876521E+02  0.00000000000E+00 0.  1.
         23    2    1    2    0    0 -0.12943150105E+02 -0.12205680038E+03  0.32247633404E+03  0.35667926821E+03  0.90353343620E+02 0.  0.
          5    1    1    2  502    0 -0.13206390555E+02 -0.58730339830E+01 -0.12201634938E+02  0.19371462898E+02  0.41800000000E+01 0.  1.
         -5    1    1    2    0  502  0.26149540660E+02  0.12792983436E+03  0.18729424968E+03  0.22835597072E+03  0.41800000000E+01 0.  1.
        -11    1    3    3    0    0 -0.26397827516E+02 -0.36612667631E+02  0.36929237983E+02  0.58318962154E+02  0.00000000000E+00 0.  1.
         11    1    3    3    0    0  0.13454677411E+02 -0.85444132749E+02  0.28554709605E+03  0.29836030606E+03  0.00000000000E+00 0. -1.
</event>
<event>
 7    1  0.5137842E-006  0.9114189E+02  0.7561462E-02  0.1300110E+00
          4   -1    0    0  501    0  0.00000000000E+00  0.00000000000E+00  0.66655505267E+03  0.66655505267E+03  0.00000000000E+00 0. -1.
         -4   -1    0    0    0  501 -0.00000000000E+00 -0.00000000000E+00 -0.18231108428E+02  0.18231108428E+02  0.00000000000E+00 0.  1.
         23    2    1    2    0    0 -0.10370069383E+02 -0.70916156041E+00  0.33791468787E+03  0.34995808164E+03  0.90422792365E+02 0.  0.
          5    1    1    2  502    0  0.23062100303E+02  0.43166775541E+02  0.27088332015E+03  0.27530070199E+03  0.41800000000E+01 0. -1.
         -5    1    1    2    0  502 -0.12692030920E+02 -0.42457613980E+02  0.39525936224E+02  0.59527377468E+02  0.41800000000E+01 0. -1.
        -11    1    3    3    0    0 -0.33465312860E+02 -0.34279474299E+02  0.22140330096E+03  0.22652688847E+03  0.00000000000E+00 0. -1.
         11    1    3    3    0    0  0.23095243477E+02  0.33570312738E+02  0.11651138691E+03  0.12343119317E+03  0.00000000000E+00 0.  1.
</event>
<event>
 7    1  0.5137842E-006  0.7485441E+02  0.7561462E-02  0.1344322E+00
         -1   -1    0    0    0  501 -0.00000000000E+00  0.00000000000E+00  0.60662814792E+03  0.60662814792E+03  0.00000000000E+00 0.  1.
          1   -1    0    0  501    0  0.00000000000E+00 -0.00000000000E+00 -0.25014315357E+02  0.25014315357E+02  0.00000000000E+00 0. -1.
         23    2    1    2    0    0 -0.81155287709E+01  0.19178918810E+02  0.99953389865E+02  0.13681297978E+03  0.91068208267E+02 0.  0.
          5    1    1    2  502    0  0.21584690945E+02  0.16905119190E+02  0.27626372090E+02  0.39145507697E+02  0.41800000000E+01 0. -1.
         -5    1    1    2    0  502 -0.13469162174E+02 -0.36084037999E+02  0.45403407061E+03  0.45568397580E+03  0.41800000000E+01 0.  1.
        -11    1    3    3    0    0 -0.31524040374E+02  0.40668942858E+02  0.28992154880E+02  0.59061604104E+02  0.00000000000E+00 0. -1.
         11    1    3    3    0    0  0.23408511603E+02 -0.21490024048E+02  0.70961234985E+02  0.77751375677E+02  0.00000000000E+00 0.  1.
</event>
<event>
 7    1  0.5137842E-006  0.1471674E+03  0.7561462E-02  0.1203997E+00
          1   -1    0    0  501    0  0.00000000000E+00  0.00000000000E+00  0.15044357896E+03  0.15044357896E+03  0.00000000000E+00 0. -1.
         -1   -1    0    0    0  501 -0.00000000000E+00 -0.00000000000E+00 -0.24391628703E+03  0.24391628703E+03  0.00000000000E+00 0.  1.
         23    2    1    2    0    0  0.95272832356E+02 -0.64208039332E+02  0.66514045803E+02  0.16102964038E+03  0.91141877814E+02 0.  0.
          5    1    1    2  502    0  0.21507765221E+02  0.69680279953E+01 -0.73689756600E+02  0.77193199226E+02  0.41800000000E+01 0. -1.
         -5    1    1    2    0  502 -0.11678059758E+03  0.57240011337E+02 -0.86296997281E+02  0.15613702638E+03  0.41800000000E+01 0. -1.
        -11    1    3    3    0    0 -0.92889648316E+01 -0.29690947287E+02 -0.22812686645E+01  0.31193611608E+02  0.00000000000E+00 0.  1.
         11    1    3    3    0    0  0.10456179719E+03 -0.34517092045E+02  0.68795314467E+02  0.12983602877E+03  0.00000000000E+00 0. -1.
</event>
<event>
 7    1  0.5137842E-006  0.2298196E+03  0.7561462E-02  0.1126767E+00
         -1   -1    0    0    0  501 -0.00000000000E+00  0.00000000000E+00  0.50419057280E+02  0.50419057280E+02  0.00000000000E+00 0.  1.
          1   -1    0    0  501    0  0.00000000000E+00 -0.00000000000E+00 -0.12019505788E+04  0.12019505788E+04  0.00000000000E+00 0. -1.
         23    2    1    2    0    0  0.63793513153E+02  0.21089136826E+03 -0.55708987515E+03  0.60618605829E+03  0.92561475512E+02 0.  0.
          5    1    1    2  502    0 -0.84721761450E+02 -0.16980513087E+03 -0.35754852743E+03  0.40480857353E+03  0.41800000000E+01 0. -1.
         -5    1    1    2    0  502  0.20928248297E+02 -0.41086237385E+02 -0.23689311898E+03  0.24137500430E+03  0.41800000000E+01 0. -1.
        -11    1    3    3    0    0  0.50990131020E+02  0.10353093718E+03 -0.17931171097E+03  0.21324009498E+03  0.00000000000E+00 0.  1.
         11    1    3    3    0    0  0.12803382133E+02  0.10736043108E+03 -0.37777816418E+03  0.39294596332E+03  0.00000000000E+00 0. -1.
</event>
<event>
 7    1  0.5137842E-006  0.1531085E+03  0.7561462E-02  0.1196704E+00
         -2   -1    0    0    0  501 -0.00000000000E+00  0.00000000000E+00  0.28365234986E+02  0.28365234986E+02  0.00000000000E+00 0. -1.
          2   -1    0    0  501    0  0.00000000000E+00 -0.00000000000E+00 -0.10740872682E+04  0.10740872682E+04  0.00000000000E+00 0.  1.
         23    2    1    2    0    0  0.47149369414E+02  0.10401108090E+03 -0.72664810105E+03  0.74120201620E+03  0.91222793633E+02 0.  0.
          5    1    1    2  502    0  0.31946659154E+02 -0.66122193603E+02 -0.20153316073E+03  0.21453629248E+03  0.41800000000E+01 0. -1.
         -5    1    1    2    0  502 -0.79096028568E+02 -0.37888887296E+02 -0.11754077139E+03  0.14671419445E+03  0.41800000000E+01 0. -1.
        -11    1    3    3    0    0  0.72611502181E+02  0.60796928188E+02 -0.42609835793E+03  0.43649571288E+03  0.00000000000E+00 0.  1.
         11    1    3    3    0    0 -0.25462132767E+02  0.43214152711E+02 -0.30054974312E+03  0.30470630333E+03  0.00000000000E+00 0. -1.
</event>
<event>
 7    1  0.5137842E-006  0.9316171E+02  0.7561462E-02  0.1295371E+00
         -1   -1    0    0    0  501 -0.00000000000E+00  0.00000000000E+00  0.13982202958E+03  0.13982202958E+03  0.00000000000E+00 0.  1.
          1   -1    0    0  501    0  0.00000000000E+00 -0.00000000000E+00 -0.11877982083E+03  0.11877982083E+03  0.00000000000E+00 0. -1.
         23    2    1    2    0    0  0.65058486803E+02 -0.20228020075E+02  0.22617345737E+02  0.11620079367E+03  0.91374507491E+02 0.  0.
          5    1    1    2  502    0 -0.99732858710E+01  0.49836775616E+02  0.41998929883E+02  0.66064764785E+02  0.41800000000E+01 0. -1.
         -5    1    1    2    0  502 -0.55085200932E+02 -0.29608755540E+02 -0.43574066866E+02  0.76336291956E+02  0.41800000000E+01 0. -1.
        -11    1    3    3    0    0  0.22452784915E+02 -0.19960389487E+02  0.55009945449E+02  0.62678854467E+02  0.00000000000E+00 0.  1.
         11    1    3    3    0    0  0.42605701888E+02 -0.26763058879E+00 -0.32392599713E+02  0.53521939199E+02  0.00000000000E+00 0. -1.
</event>
<event>
 7    1  0.5137842E-006  0.9353184E+02  0.7561462E-02  0.1294517E+00
          1   -1    0    0  501    0  0.00000000000E+00  0.00000000000E+00  0.10395351882E+03  0.10395351882E+03  0.00000000000E+00 0. -1.
         -1   -1    0    0    0  501 -0.00000000000E+00 -0.00000000000E+00 -0.16065689843E+03  0.16065689843E+03  0.00000000000E+00 0.  1.
         23    2    1    2    0    0 -0.62969055947E+02  0.12874284655E+02  0.76670552693E+01  0.10993765614E+03  0.88863126709E+02 0.  0.
          5    1    1    2  502    0  0.60187289799E+02 -0.25501161963E+02 -0.98299830413E+02  0.11812344464E+03  0.41800000000E+01 0. -1.
         -5    1    1    2    0  502  0.27817661480E+01  0.12626877308E+02  0.33929395534E+02  0.36549316474E+02  0.41800000000E+01 0. -1.
        -11    1    3    3    0    0 -0.28834082800E+02 -0.37389255542E+02 -0.61862673961E+01  0.47619645791E+02  0.00000000000E+00 0.  1.
         11    1    3    3    0    0 -0.34134973147E+02  0.50263540197E+02  0.13853322665E+02  0.62318010348E+02  0.00000000000E+00 0. -1.
</event>
<event>
 7    1  0.5137842E-006  0.9142782E+02  0.7561462E-02  0.1299430E+00
         -2   -1    0    0    0  501 -0.00000000000E+00  0.00000000000E+00  0.33576877045E+03  0.33576877045E+03  0.00000000000E+00 0.  1.
          2   -1    0    0  501    0  0.00000000000E+00 -0.00000000000E+00 -0.42875416231E+02  0.42875416231E+02  0.00000000000E+00 0. -1.
         23    2    1    2    0    0  0.22635358947E+02  0.43391415893E+02  0.13315993425E+03  0.16993762585E+03  0.93552413878E+02 0.  0.
          5    1    1    2  502    0 -0.57102543082E+02  0.18495661659E+02  0.51044170520E+02  0.78903546630E+02  0.41800000000E+01 0. -1.
         -5    1    1    2    0  502  0.34467184135E+02 -0.61887077552E+02  0.10868924946E+03  0.12980301421E+03  0.41800000000E+01 0. -1.
        -11    1    3    3    0    0  0.70728712446E+01  0.31102299210E+02  0.14389563731E+03  0.14738837458E+03  0.00000000000E+00 0.  1.
         11    1    3    3    0    0  0.15562487703E+02  0.12289116683E+02 -0.10735703067E+02  0.22549251267E+02  0.00000000000E+00 0. -1.
</event>
<event>
 7    1  0.5137842E-006  0.2148079E+03  0.7561462E-02  0.1137814E+00
          1   -1    0    0  501    0  0.00000000000E+00  0.00000000000E+00  0.51559339386E+03  0.51559339386E+03  0.00000000000E+00 0. -1.
         -1   -1    0    0    0  501 -0.00000000000E+00 -0.00000000000E+00 -0.10804525900E+03  0.10804525900E+03  0.00000000000E+00 0.  1.
         23    2    1    2    0    0 -0.92038046497E+02  0.16363086984E+03  0.31967245756E+03  0.38156550883E+03  0.90308880168E+02 0.  0.
          5    1    1    2  502    0  0.86228710508E+02 -0.35879750166E+02  0.14591515013E+02  0.94620989734E+02  0.41800000000E+01 0.  1.
         -5    1    1    2    0  502  0.58093359887E+01 -0.12775111968E+03  0.73284162293E+02  0.14745215430E+03  0.41800000000E+01 0.  1.
        -11    1    3    3    0    0 -0.66945509463E+02  0.16964136856E+03  0.27500816577E+03  0.32998391840E+03  0.00000000000E+00 0.  1.
         11    1    3    3    0    0 -0.25092537034E+02 -0.60104987200E+01  0.44664291788E+02  0.51581590423E+02  0.00000000000E+00 0. -1.
</event>
<event>
 7    1  0.5137842E-006  0.9463811E+02  0.7561462E-02  0.1291993E+00
         -1   -1    0    0    0  501 -0.00000000000E+00  0.00000000000E+00  0.32307137855E+03  0.32307137855E+03  0.00000000000E+00 0.  1.
          1   -1    0    0  501    0  0.00000000000E+00 -0.00000000000E+00 -0.58568961627E+02  0.58568961627E+02  0.00000000000E+00 0. -1.
         23    2    1    2    0    0 -0.24376070282E+02  0.25253243433E+02 -0.68496257051E+01  0.80791229130E+02  0.72445746775E+02 0.  0.
          5    1    1    2  502    0  0.51640990010E+01  0.50376442500E+02  0.12518965765E+03  0.13510875863E+03  0.41800000000E+01 0.  1.
         -5    1    1    2    0  502  0.19211971281E+02 -0.75629685933E+02  0.14616238498E+03  0.16574035241E+03  0.41800000000E+01 0.  1.
        -11    1    3    3    0    0 -0.10893293435E+02 -0.14618167436E+02  0.22884483974E+02  0.29258405080E+02  0.00000000000E+00 0.  1.
         11    1    3    3    0    0 -0.13482776847E+02  0.39871410868E+02 -0.29734109680E+02  0.51532824050E+02  0.00000000000E+00 0. -1.
</event>
<event>
 7    1  0.5137842E-006  0.7477120E+02  0.7561462E-02  0.1344581E+00
          1   -1    0    0  501    0  0.00000000000E+00  0.00000000000E+00  0.64497243885E+02  0.64497243885E+02  0.00000000000E+00 0. -1.
         -1   -1    0    0    0  501 -0.00000000000E+00 -0.00000000000E+00 -0.27519767033E+03  0.27519767033E+03  0.00000000000E+00 0.  1.
         23    2    1    2    0    0 -0.22949950328E+02  0.64233224612E+02 -0.45757186106E+02  0.12174836540E+03  0.89868442922E+02 0.  0.
          5    1    1    2  502    0 -0.46051937139E+01 -0.12171144161E+02 -0.15788275846E+03  0.15847328601E+03  0.41800000000E+01 0.  1.
         -5    1    1    2    0  502  0.27555144042E+02 -0.52062080451E+02 -0.70604818774E+01  0.59473262803E+02  0.41800000000E+01 0.  1.
        -11    1    3    3    0    0 -0.47288161392E+01  0.57034201235E+02  0.13952917061E+02  0.58906245060E+02  0.00000000000E+00 0. -1.
         11    1    3    3    0    0 -0.18221134189E+02  0.71990233771E+01 -0.59710103166E+02  0.62842120340E+02  0.00000000000E+00 0.  1.
</event>
<event>
 7    1  0.5137842E-006  0.1173696E+03  0.7561462E-02  0.1247500E+00
          2   -1    0    0  501    0  0.00000000000E+00  0.00000000000E+00  0.47958605123E+03  0.47958605123E+03  0.00000000000E+00 0. -1.
         -2   -1    0    0    0  501 -0.00000000000E+00 -0.00000000000E+00 -0.32433790968E+02  0.32433790968E+02  0.00000000000E+00 0.  1.
         23    2    1    2    0    0  0.89630614426E+01  0.60371961003E+02  0.24223927913E+03  0.26430639416E+03  0.86330130868E+02 0.  0.
          5    1    1    2  502    0  0.10835045358E+02 -0.92944773899E+02  0.10506881011E+03  0.14075885927E+03  0.41800000000E+01 0. -1.
         -5    1    1    2    0  502 -0.19798106801E+02  0.32572812896E+02  0.99844171020E+02  0.10695458877E+03  0.41800000000E+01 0. -1.
        -11    1    3    3    0    0 -0.77248179541E+01  0.78040627104E+02  0.20821235289E+03  0.22249133958E+03  0.00000000000E+00 0.  1.
         11    1    3    3    0    0  0.16687879397E+02 -0.17668666101E+02  0.34026926243E+02  0.41815054587E+02  0.00000000000E+00 0. -1.
</event>
<event>
 7    1  0.5137842E-006  0.8617636E+02  0.7561462E-02  0.1312385E+00
          1   -1    0    0  501    0  0.00000000000E+00  0.00000000000E+00  0.33181834031E+03  0.33181834031E+03  0.00000000000E+00 0. -1.
         -1   -1    0    0    0  501 -0.00000000000E+00 -0.00000000000E+00 -0.45121031062E+02  0.45121031062E+02  0.00000000000E+00 0.  1.
         23    2    1    2    0    0  0.13816826534E+02  0.51718868278E+02  0.11501186558E+03  0.15787452747E+03  0.93972821441E+02 0.  0.
          5    1    1    2  502    0  0.42221320142E+01 -0.57604986552E+02  0.13204016176E+02  0.59396795516E+02  0.41800000000E+01 0.  1.
         -5    1    1    2    0  502 -0.18038958548E+02  0.58861182746E+01  0.15848142750E+03  0.15966804839E+03  0.41800000000E+01 0.  1.
        -11    1    3    3    0    0  0.35929488055E+02  0.61188287192E+02  0.11339404165E+03  0.13376525439E+03  0.00000000000E+00 0. -1.
         11    1    3    3    0    0 -0.22112661521E+02 -0.94694189142E+01  0.16178239289E+01  0.24109273079E+02  0.00000000000E+00 0.  1.
</event>
<event>
 7    1  0.5137842E-006  0.1651692E+03  0.7561462E-02  0.1182981E+00
         -2   -1    0    0    0  501 -0.00000000000E+00  0.00000000000E+00  0.49367757640E+02  0.49367757640E+02  0.00000000000E+00 0.  1.
          2   -1    0    0  501    0  0.00000000000E+00 -0.00000000000E+00 -0.68759230174E+03  0.68759230174E+03  0.00000000000E+00 0. -1.
         23    2    1    2    0    0 -0.12948383657E+03 -0.17715288999E+02 -0.43759524271E+03  0.46680166213E+03  0.96614180774E+02 0.  0.
          5    1    1    2  502    0  0.70355700349E+01 -0.42359698855E+02 -0.62939171357E+02  0.76306323617E+02  0.41800000000E+01 0.  1.
         -5    1    1    2    0  502  0.12244826654E+03  0.60074987854E+02 -0.13769013004E+03  0.19385207364E+03  0.41800000000E+01 0.  1.
        -11    1    3    3    0    0 -0.32128940443E+02  0.28522722926E+02 -0.21788484803E+03  0.22208021420E+03  0.00000000000E+00 0.  1.
         11    1    3    3    0    0 -0.97354896131E+02 -0.46238011926E+02 -0.21971039468E+03  0.24472144793E+03  0.00000000000E+00 0. -1.
</event>
<event>
 7    1  0.5137842E-006  0.8766941E+02  0.7561462E-02  0.1308596E+00
          2   -1    0    0  501    0  0.00000000000E+00  0.00000000000E+00  0.79360654201E+02  0.79360654201E+02  0.00000000000E+00 0. -1.
         -2   -1    0    0    0  501 -0.00000000000E+00 -0.00000000000E+00 -0.17845582105E+03  0.17845582105E+03  0.00000000000E+00 0.  1.
         23    2    1    2    0    0 -0.24365265276E+02  0.41615779166E+02 -0.32314928599E+02  0.10803951452E+03  0.91119387952E+02 0.  0.
          5    1    1    2  502    0 -0.44572327119E+01  0.26642287619E+02  0.21262186077E+02  0.34629920153E+02  0.41800000000E+01 0. -1.
         -5    1    1    2    0  502  0.28822497988E+02 -0.68258066785E+02 -0.88042424326E+02  0.11514704057E+03  0.41800000000E+01 0. -1.
        -11    1    3    3    0    0  0.16225644769E+02  0.25278267174E+02 -0.52006103487E+02  0.60057448658E+02  0.00000000000E+00 0.  1.
         11    1    3    3    0    0 -0.40590910045E+02  0.16337511993E+02  0.19691174887E+02  0.47982065866E+02  0.00000000000E+00 0. -1.
</event>
<event>
 7    1  0.5137842E-006  0.1477408E+03  0.7561462E-02  0.1203277E+00
         -2   -1    0    0    0  501 -0.00000000000E+00  0.00000000000E+00  0.10678925580E+03  0.10678925580E+03  0.00000000000E+00 0.  1.
          2   -1    0    0  501    0  0.00000000000E+00 -0.00000000000E+00 -0.21262037726E+03  0.21262037726E+03  0.00000000000E+00 0. -1.
         23    2    1    2    0    0  0.43194869418E+02  0.93843908951E+02 -0.57667364831E+02  0.15017713121E+03  0.92494160787E+02 0.  0.
          5    1    1    2  502    0  0.17572140349E+02 -0.99355215457E+02 -0.32735767093E+02  0.10615715615E+03  0.41800000000E+01 0.  1.
         -5    1    1    2    0  502 -0.60767009767E+02  0.55113065058E+01 -0.15427989535E+02  0.63075345711E+02  0.41800000000E+01 0.  1.
        -11    1    3    3    0    0 -0.16062253364E+02  0.65888612967E+02 -0.86863307148E+01  0.68372199344E+02  0.00000000000E+00 0. -1.
         11    1    3    3    0    0  0.59257122782E+02  0.27955295984E+02 -0.48981034116E+02  0.81804931863E+02  0.00000000000E+00 0.  1.
</event>
<event>
 7    1  0.5137842E-006  0.1461214E+03  0.7561462E-02  0.1205322E+00
          1   -1    0    0  501    0  0.00000000000E+00  0.00000000000E+00  0.99047589664E+03  0.99047589664E+03  0.00000000000E+00 0. -1.
         -1   -1    0    0    0  501 -0.00000000000E+00 -0.00000000000E+00 -0.26537731318E+02  0.26537731318E+02  0.00000000000E+00 0.  1.
         23    2    1    2    0    0  0.11151802861E+03  0.28466365807E+02  0.46520067189E+03  0.49010466949E+03  0.10268552595E+03 0.  0.
          5    1    1    2  502    0 -0.46032314355E+02 -0.73572334578E+02  0.20689955863E+03  0.22440312418E+03  0.41800000000E+01 0.  1.
         -5    1    1    2    0  502 -0.65485714254E+02  0.45105968771E+02  0.29183793480E+03  0.30250583429E+03  0.41800000000E+01 0.  1.
        -11    1    3    3    0    0  0.85772797925E+02 -0.20579318550E+01  0.42450990748E+03  0.43309337272E+03  0.00000000000E+00 0. -1.
         11    1    3    3    0    0  0.25745230684E+02  0.30524297662E+02  0.40690764416E+02  0.57011296771E+02  0.00000000000E+00 0.  1.
</event>
<event>
 7    1  0.5137842E-006  0.1479315E+03  0.7561462E-02  0.1203038E+00
         -1   -1    0    0    0  501 -0.00000000000E+00  0.00000000000E+00  0.40439424510E+03  0.40439424510E+03  0.00000000000E+00 0.  1.
          1   -1    0    0  501    0  0.00000000000E+00 -0.00000000000E+00 -0.62363412429E+02  0.62363412429E+02  0.00000000000E+00 0. -1.
         23    2    1    2    0    0 -0.47602716456E+02 -0.93107566671E+02  0.85140278695E+02  0.16250040344E+03  0.90677872027E+02 0.  0.
          5    1    1    2  502    0  0.75849370183E+02  0.10701856137E+03  0.20917849965E+03  0.24693970225E+03  0.41800000000E+01 0.  1.
         -5    1    1    2    0  502 -0.28246653727E+02 -0.13910994700E+02  0.47712054325E+02  0.57317551834E+02  0.41800000000E+01 0.  1.
        -11    1    3    3    0    0  0.10266067922E+02  0.10186522750E+02  0.26924356565E+02  0.30562695771E+02  0.00000000000E+00 0.  1.
         11    1    3    3    0    0 -0.57868784378E+02 -0.10329408942E+03  0.58215922129E+02  0.13193770767E+03  0.00000000000E+00 0. -1.
</event>
<event>
 7    1  0.5137842E-006  0.1408396E+03  0.7561462E-02  0.1212204E+00
         -1   -1    0    0    0  501 -0.00000000000E+00  0.00000000000E+00  0.82564823630E+03  0.82564823630E+03  0.00000000000E+00 0.  1.
          1   -1    0    0  501    0  0.00000000000E+00 -0.00000000000E+00 -0.26954427056E+02  0.26954427056E+02  0.00000000000E+00 0. -1.
         23    2    1    2    0    0  0.89094952524E+02  0.11535464805E+02  0.24170368354E+03  0.27471309953E+03  0.94739848546E+02 0.  0.
          5    1    1    2  502    0 -0.46370769671E+02  0.55222877994E+02  0.31662298533E+03  0.32475745068E+03  0.41800000000E+01 0.  1.
         -5    1    1    2    0  502 -0.42724182853E+02 -0.66758342799E+02  0.24036714038E+03  0.25313211315E+03  0.41800000000E+01 0.  1.
        -11    1    3    3    0    0  0.79573189378E+02 -0.31813179363E+02  0.17015698134E+03  0.19051868451E+03  0.00000000000E+00 0.  1.
         11    1    3    3    0    0  0.95217631459E+01  0.43348644168E+02  0.71546702198E+02  0.84194415017E+02  0.00000000000E+00 0. -1.
</event>
<event>
 7    1  0.5137842E-006  0.8959201E+02  0.7561462E-02  0.1303843E+00
          1   -1    0    0  501    0  0.00000000000E+00  0.00000000000E+00  0.87853798506E+02  0.87853798506E+02  0.00000000000E+00 0. -1.
         -1   -1    0    0    0  501 -0.00000000000E+00 -0.00000000000E+00 -0.14813490647E+03  0.14813490647E+03  0.00000000000E+00 0.  1.
         23    2    1    2    0    0  0.34496914542E+02  0.58949931494E+01 -0.10236148176E+02  0.96787786628E+02  0.89656616341E+02 0.  0.
          5    1    1    2  502    0 -0.65074497613E+02  0.36601263630E+02 -0.42862414977E+02  0.86191657117E+02  0.41800000000E+01 0.  1.
         -5    1    1    2    0  502  0.30577583071E+02 -0.42496256779E+02 -0.71825448152E+01  0.53009261235E+02  0.41800000000E+01 0.  1.
        -11    1    3    3    0    0 -0.22525422228E+01 -0.11149992055E+02 -0.43129992076E+02  0.44604848232E+02  0.00000000000E+00 0.  1.
         11    1    3    3    0    0  0.36749456765E+02  0.17044985205E+02  0.32893843900E+02  0.52182938396E+02  0.00000000000E+00 0. -1.
</event>
<event>
 7    1  0.5137842E-006  0.2281064E+03  0.7561462E-02  0.1127980E+00
         -1   -1    0    0    0  501 -0.00000000000E+00  0.00000000000E+00  0.15522933198E+03  0.15522933198E+03  0.00000000000E+00 0.  1.
          1   -1    0    0  501    0  0.00000000000E+00 -0.00000000000E+00 -0.41492740112E+03  0.41492740112E+03  0.00000000000E+00 0. -1.
         23    2    1    2    0    0  0.99602637096E+02  0.18006380679E+03 -0.24024665664E+03  0.32855481781E+03  0.88804011441E+02 0.  0.
          5    1    1    2  502    0 -0.90944261093E+02 -0.52470442476E+02  0.21495963784E+02  0.10725462609E+03  0.41800000000E+01 0. -1.
         -5    1    1    2    0  502 -0.86583760029E+01 -0.12759336431E+03 -0.40947376283E+02  0.13434728920E+03  0.41800000000E+01 0. -1.
        -11    1    3    3    0    0  0.91955973288E+02  0.77295668529E+02 -0.14422900901E+03  0.18770329895E+03  0.00000000000E+00 0. -1.
         11    1    3    3    0    0  0.76466638074E+01  0.10276813826E+03 -0.96017647630E+02  0.14085151886E+03  0.00000000000E+00 0.  1.
</event>
<event>
 7    1  0.5137842E-006  0.9452357E+02  0.7561462E-02  0.1292253E+00
          1   -1    0    0  501    0  0.00000000000E+00  0.00000000000E+00  0.74740096789E+02  0.74740096789E+02  0.00000000000E+00 0. -1.
         -1   -1    0    0    0  501 -0.00000000000E+00 -0.00000000000E+00 -0.16139004621E+03  0.16139004621E+03  0.00000000000E+00 0.  1.
         23    2    1    2    0    0  0.69650238765E+01 -0.25365545853E+02 -0.36093890772E+02  0.98667094178E+02  0.87980134396E+02 0.  0.
          5    1    1    2  502    0 -0.25315958699E+02  0.64848677682E+02 -0.60820018560E+02  0.92535376043E+02  0.41800000000E+01 0.  1.
         -5    1    1    2    0  502  0.18350934822E+02 -0.39483131829E+02  0.10263959914E+02  0.44927672775E+02  0.41800000000E+01 0.  1.
        -11    1    3    3    0    0  0.37966751564E+02 -0.45791845048E+01  0.98326899851E+01  0.39485756260E+02  0.00000000000E+00 0. -1.
         11    1    3    3    0    0 -0.31001727688E+02 -0.20786361348E+02 -0.45926580757E+02  0.59181337918E+02  0.00000000000E+00 0.  1.
</event>
<event>
 7    1  0.5137842E-006  0.3067789E+03  0.7561462E-02  0.1081900E+00
          2   -1    0    0  501    0  0.00000000000E+00  0.00000000000E+00  0.10649807600E+04  0.10649807600E+04  0.00000000000E+00 0. -1.
         -2   -1    0    0    0  501 -0.00000000000E+00 -0.00000000000E+00 -0.90877266830E+02  0.90877266830E+02  0.00000000000E+00 0.  1.
         23    2    1    2    0    0  0.28259226563E+03  0.59848054986E+02  0.54540838602E+03  0.62400662510E+03  0.92053149538E+02 0.  0.
          5    1    1    2  502    0 -0.23001315095E+03  0.24433738370E+01  0.34722823998E+03  0.41652964207E+03  0.41800000000E+01 0.  1.
         -5    1    1    2    0  502 -0.52579114679E+02 -0.62291428823E+02  0.81466867176E+02  0.11532175967E+03  0.41800000000E+01 0.  1.
        -11    1    3    3    0    0  0.21947441758E+03  0.70592374000E+01  0.36992622578E+03  0.43019096379E+03  0.00000000000E+00 0.  1.
         11    1    3    3    0    0  0.63117848048E+02  0.52788817586E+02  0.17548216025E+03  0.19381566131E+03  0.00000000000E+00 0. -1.
</event>
<event>
 7    1  0.5137842E-006  0.1035929E+03  0.7561462E-02  0.1272917E+00
          3   -1    0    0  501    0  0.00000000000E+00  0.00000000000E+00  0.27610101707E+03  0.27610101707E+03  0.00000000000E+00 0. -1.
         -3   -1    0    0    0  501 -0.00000000000E+00 -0.00000000000E+00 -0.50155465099E+02  0.50155465099E+02  0.00000000000E+00 0.  1.
         23    2    1    2    0    0 -0.18276612391E+02  0.11323136841E+02  0.15100201058E+03  0.17885863628E+03  0.93416040281E+02 0.  0.
          5    1    1    2  502    0  0.14609629211E+02 -0.64321720884E+02  0.16128613718E+02  0.68031828020E+02  0.41800000000E+01 0.  1.
         -5    1    1    2    0  502  0.36669831803E+01  0.52998584043E+02  0.58814927665E+02  0.79366017869E+02  0.41800000000E+01 0.  1.
        -11    1    3    3    0    0 -0.52306426023E+02  0.12758062560E+01  0.52326651136E+02  0.73997758777E+02  0.00000000000E+00 0.  1.
         11    1    3    3    0    0  0.34029813632E+02  0.10047330585E+02  0.98675359449E+02  0.10486087750E+03  0.00000000000E+00 0. -1.
</event>
<event>
 7    1  0.5137842E-006  0.1346849E+03  0.7561462E-02  0.1220665E+00
          2   -1    0    0  501    0  0.00000000000E+00  0.00000000000E+00  0.25695274711E+03  0.25695274711E+03  0.00000000000E+00 0. -1.
         -2   -1    0    0    0  501 -0.00000000000E+00 -0.00000000000E+00 -0.87862291342E+02  0.87862291342E+02  0.00000000000E+00 0.  1.
         23    2    1    2    0    0  0.10162153449E+03 -0.97328667447E+00  0.10166064461E+03  0.17010963702E+03  0.90964379753E+02 0.  0.
          5    1    1    2  502    0 -0.91293538726E+02 -0.43620243444E+02  0.10905144304E+02  0.10185102073E+03  0.41800000000E+01 0. -1.
         -5    1    1    2    0  502 -0.10327995768E+02  0.44593530119E+02  0.56524666852E+02  0.72854380704E+02  0.41800000000E+01 0. -1.
        -11    1    3    3    0    0  0.94894867597E+02 -0.24222113195E+02  0.10728258343E+03  0.14526286302E+03  0.00000000000E+00 0. -1.
         11    1    3    3    0    0  0.67266668965E+01  0.23248826520E+02 -0.56219388219E+01  0.24846774000E+02  0.00000000000E+00 0.  1.
</event>
<event>
 7    1  0.5137842E-006  0.1141403E+03  0.7561462E-02  0.1253089E+00
          1   -1    0    0  501    0  0.00000000000E+00  0.00000000000E+00  0.16308136454E+03  0.16308136454E+03  0.00000000000E+00 0. -1.
         -1   -1    0    0    0  501 -0.00000000000E+00 -0.00000000000E+00 -0.82132546927E+02  0.82132546927E+02  0.00000000000E+00 0.  1.
         23    2    1    2    0    0  0.31882600995E+02  0.24780843670E+02  0.45814676084E+02  0.10915361133E+03  0.90470635360E+02 0.  0.
          5    1    1    2  502    0  0.15712776837E+02 -0.64890387392E+02  0.58657191982E+01  0.67153054983E+02  0.41800000000E+01 0.  1.
         -5    1    1    2    0  502 -0.47595377833E+02  0.40109543723E+02  0.29268422329E+02  0.68907245151E+02  0.41800000000E+01 0.  1.
        -11    1    3    3    0    0 -0.18888922600E+02  0.41460496629E+02  0.23154720541E+02  0.51106802493E+02  0.00000000000E+00 0.  1.
         11    1    3    3    0    0  0.50771523595E+02 -0.16679652959E+02  0.22659955542E+02  0.58046808837E+02  0.00000000000E+00 0. -1.
</event>
<event>
 7    1  0.5137842E-006  0.1214609E+03  0.7561462E-02  0.1240706E+00
          1   -1    0    0  501    0  0.00000000000E+00  0.00000000000E+00  0.15914302812E+03  0.15914302812E+03  0.00000000000E+00 0. -1.
         -1   -1    0    0    0  501 -0.00000000000E+00 -0.00000000000E+00 -0.17277977392E+03  0.17277977392E+03  0.00000000000E+00 0.  1.
         23    2    1    2    0    0 -0.51674029720E+02 -0.39074022553E+02  0.10467578329E+03  0.15348603920E+03  0.91673115124E+02 0.  0.
          5    1    1    2  502    0  0.80708990717E+02  0.55145990413E+02 -0.72786929898E+02  0.12194437669E+03  0.41800000000E+01 0. -1.
         -5    1    1    2    0  502 -0.29034960997E+02 -0.16071967859E+02 -0.45525599191E+02  0.56492386148E+02  0.41800000000E+01 0.  1.
        -11    1    3    3    0    0 -0.78038886157E+02 -0.31930488464E+02  0.85706667936E+02  0.12023001611E+03  0.00000000000E+00 0.  1.
         11    1    3    3    0    0  0.26364856437E+02 -0.71435340892E+01  0.18969115350E+02  0.33256023085E+02  0.00000000000E+00 0. -1.
</event>
<event>
 7    1  0.5137842E-006  0.1612814E+03  0.7561462E-02  0.1187258E+00
          1   -1    0    0  501    0  0.00000000000E+00  0.00000000000E+00  0.43364394010E+03  0.43364394010E+03  0.00000000000E+00 0. -1.
         -1   -1    0    0    0  501 -0.00000000000E+00 -0.00000000000E+00 -0.95871165786E+02  0.95871165786E+02  0.00000000000E+00 0.  1.
         23    2    1    2    0    0 -0.11563537485E+03 -0.10661773561E+03  0.25377378453E+03  0.31170436464E+03  0.89552195722E+02 0.  0.
          5    1    1    2  502    0  0.22673292886E+02  0.27894179134E+02 -0.32912489437E+02  0.48916947991E+02  0.41800000000E+01 0. -1.
         -5    1    1    2    0  502  0.92962081961E+02  0.78723556475E+02  0.11691147922E+03  0.16889379326E+03  0.41800000000E+01 0. -1.
        -11    1    3    3    0    0 -0.91482266539E+02 -0.10641389252E+03  0.25076941485E+03  0.28736426542E+03  0.00000000000E+00 0. -1.
         11    1    3    3    0    0 -0.24153108307E+02 -0.20384308827E+00  0.30043696726E+01  0.24340099220E+02  0.00000000000E+00 0.  1.
</event>
<event>
 7    1  0.5137842E-006  0.1501589E+03  0.7561462E-02  0.1200278E+00
         -1   -1    0    0    0  501 -0.00000000000E+00  0.00000000000E+00  0.29023093857E+03  0.29023093857E+03  0.00000000000E+00 0. -1.
          1   -1    0    0  501    0  0.00000000000E+00 -0.00000000000E+00 -0.98086230390E+02  0.98086230390E+02  0.00000000000E+00 0.  1.
         23    2    1    2    0    0  0.95381187051E+02  0.69491717091E+02  0.29846179085E+02  0.15185381398E+03  0.90786104811E+02 0.  0.
          5    1    1    2  502    0 -0.24399244641E+02 -0.78833091780E+02  0.13780745914E+03  0.16068088777E+03  0.41800000000E+01 0.  1.
         -5    1    1    2    0  502 -0.70981942410E+02  0.93413746899E+01  0.24491069952E+02  0.75782467212E+02  0.41800000000E+01 0.  1.
        -11    1    3    3    0    0  0.13032819372E+02 -0.20309388455E+02  0.16609000610E+02  0.29294786933E+02  0.00000000000E+00 0. -1.
         11    1    3    3    0    0  0.82348367679E+02  0.89801105545E+02  0.13237178475E+02  0.12255902705E+03  0.00000000000E+00 0.  1.
</event>
<event>
 7    1  0.5137842E-006  0.1080994E+03  0.7561462E-02  0.1264131E+00
          4   -1    0    0  501    0  0.00000000000E+00  0.00000000000E+00  0.46006602907E+03  0.46006602907E+03  0.00000000000E+00 0. -1.
         -4   -1    0    0    0  501 -0.00000000000E+00 -0.00000000000E+00 -0.50695814286E+02  0.50695814286E+02  0.00000000000E+00 0.  1.
         23    2    1    2    0    0 -0.79346883659E+02 -0.21798833395E+02  0.31463912583E+03  0.33843393207E+03  0.93640962168E+02 0.  0.
          5    1    1    2  502    0  0.31596018837E+02  0.45946334553E+02  0.10379147512E+03  0.11789621186E+03  0.41800000000E+01 0. -1.
         -5    1    1    2    0  502  0.47750864822E+02 -0.24147501158E+02 -0.90603861619E+01  0.54431699412E+02  0.41800000000E+01 0.  1.
        -11    1    3    3    0    0 -0.85320690400E+02 -0.34920780505E+02  0.30979942038E+03  0.32322555899E+03  0.00000000000E+00 0.  1.
         11    1    3    3    0    0  0.59738067413E+01  0.13121947110E+02  0.48397054497E+01  0.15208373081E+02  0.00000000000E+00 0. -1.
</event>
<event>
 7    1  0.5137842E-006  0.7773353E+02  0.7561462E-02  0.1335609E+00
         -2   -1    0    0    0  501 -0.00000000000E+00  0.00000000000E+00  0.26189051392E+02  0.26189051392E+02  0.00000000000E+00 0.  1.
          2   -1    0    0  501    0  0.00000000000E+00 -0.00000000000E+00 -0.46506056625E+03  0.46506056625E+03  0.00000000000E+00 0. -1.
         23    2    1    2    0    0 -0.17576138388E+02 -0.56178991465E+01 -0.21263613032E+03  0.23207628785E+03  0.91130664607E+02 0.  0.
          5    1    1    2  502    0  0.83712179890E+01  0.35813333322E+02 -0.70423631349E+01  0.37679429571E+02  0.41800000000E+01 0.  1.
         -5    1    1    2    0  502  0.92049203994E+01 -0.30195434175E+02 -0.21919302141E+03  0.22149390023E+03  0.41800000000E+01 0.  1.
        -11    1    3    3    0    0 -0.51986914768E+02 -0.22881925855E+01 -0.16638398137E+03  0.17433159321E+03  0.00000000000E+00 0.  1.
         11    1    3    3    0    0  0.34410776379E+02 -0.33297065610E+01 -0.46252148944E+02  0.57744694637E+02  0.00000000000E+00 0. -1.
</event>
<event>
 7    1  0.5137842E-006  0.1133860E+03  0.7561462E-02  0.1254425E+00
          2   -1    0    0  501    0  0.00000000000E+00  0.00000000000E+00  0.13781786765E+03  0.13781786765E+03  0.00000000000E+00 0. -1.
         -2   -1    0    0    0  501 -0.00000000000E+00 -0.00000000000E+00 -0.15282525389E+03  0.15282525389E+03  0.00000000000E+00 0.  1.
         23    2    1    2    0    0 -0.56568728137E+02 -0.44851515212E+02  0.57183803836E+02  0.12931233843E+03  0.90774523015E+02 0.  0.
          5    1    1    2  502    0  0.10532620450E+02  0.66176923496E+02  0.66647636756E+01  0.67470087978E+02  0.41800000000E+01 0.  1.
         -5    1    1    2    0  502  0.46036107687E+02 -0.21325408283E+02 -0.78855953750E+02  0.93860695135E+02  0.41800000000E+01 0.  1.
        -11    1    3    3    0    0 -0.77805272838E+02 -0.35337950413E+02  0.23959862685E+02  0.88749683046E+02  0.00000000000E+00 0.  1.
         11    1    3    3    0    0  0.21236544702E+02 -0.95135647990E+01  0.33223941150E+02  0.40562655382E+02  0.00000000000E+00 0. -1.
</event>
<event>
 7    1  0.5137842E-006  0.9245683E+02  0.7561462E-02  0.1297009E+00
          1   -1    0    0  501    0  0.00000000000E+00  0.00000000000E+00  0.13128311226E+03  0.13128311226E+03  0.00000000000E+00 0. -1.
         -1   -1    0    0    0  501 -0.00000000000E+00 -0.00000000000E+00 -0.91217497757E+02  0.91217497757E+02  0.00000000000E+00 0.  1.
         23    2    1    2    0    0 -0.13248149928E+02 -0.11565582449E+01  0.35770863355E+02  0.10157321609E+03  0.94131357469E+02 0.  0.
          5    1    1    2  502    0 -0.34693781738E+02  0.17728681643E+02 -0.38124414593E+02  0.54670906633E+02  0.41800000000E+01 0.  1.
         -5    1    1    2    0  502  0.47941931666E+02 -0.16572123398E+02  0.42419165739E+02  0.66256487288E+02  0.41800000000E+01 0. -1.
        -11    1    3    3    0    0 -0.12583498267E+02 -0.47166868649E+02  0.14848415907E+02  0.51024831030E+02  0.00000000000E+00 0. -1.
         11    1    3    3    0    0 -0.66465166131E+00  0.46010310404E+02  0.20922447448E+02  0.50548385063E+02  0.00000000000E+00 0.  1.
</event>
<event>
 7    1  0.5137842E-006  0.1222051E+03  0.7561462E-02  0.1239503E+00
         -1   -1    0    0    0  501 -0.00000000000E+00  0.00000000000E+00  0.15422432985E+02  0.15422432985E+02  0.00000000000E+00 0.  1.
          1   -1    0    0  501    0  0.00000000000E+00 -0.00000000000E+00 -0.10473497576E+04  0.10473497576E+04  0.00000000000E+00 0. -1.
         23    2    1    2    0    0  0.34327816737E+02  0.47140419767E+02 -0.58717940278E+03  0.59710184993E+03  0.91380249261E+02 0.  0.
          5    1    1    2  502    0  0.32510384727E+02  0.22227419667E+02 -0.96232158827E+02  0.10406288528E+03  0.41800000000E+01 0.  1.
         -5    1    1    2    0  502 -0.66838201465E+02 -0.69367839434E+02 -0.34851576303E+03  0.36160745540E+03  0.41800000000E+01 0.  1.
        -11    1    3    3    0    0  0.21828852129E+02 -0.26135716096E+02 -0.17991655080E+03  0.18311073068E+03  0.00000000000E+00 0.  1.
         11    1    3    3    0    0  0.12498964608E+02  0.73276135863E+02 -0.40726285198E+03  0.41399111924E+03  0.00000000000E+00 0. -1.
</event>
<event>
 7    1  0.5137842E-006  0.1402830E+03  0.7561462E-02  0.1212949E+00
         -2   -1    0    0    0  501 -0.00000000000E+00  0.00000000000E+00  0.70476428269E+02  0.70476428269E+02  0.00000000000E+00 0.  1.
          2   -1    0    0  501    0  0.00000000000E+00 -0.00000000000E+00 -0.48416991335E+03  0.48416991335E+03  0.00000000000E+00 0. -1.
         23    2    1    2    0    0  0.70239817559E+02 -0.10554195351E+03 -0.31415665462E+03  0.35061289779E+03  0.90345251859E+02 0.  0.
          5    1    1    2  502    0 -0.24854654219E+02  0.11915221864E+02  0.27914778640E+02  0.39451661752E+02  0.41800000000E+01 0. -1.
         -5    1    1    2    0  502 -0.45385163339E+02  0.93626731643E+02 -0.12745160910E+03  0.16458178208E+03  0.41800000000E+01 0. -1.
        -11    1    3    3    0    0  0.33474470334E+02 -0.10664458900E+03 -0.18336019104E+03  0.21474302826E+03  0.00000000000E+00 0.  1.
         11    1    3    3    0    0  0.36765347225E+02  0.11026354925E+01 -0.13079646358E+03  0.13586986953E+03  0.00000000000E+00 0. -1.
</event>
<event>
 7    1  0.5137842E-006  0.2188664E+03  0.7561462E-02  0.1134731E+00
          2   -1    0    0  501    0  0.00000000000E+00  0.00000000000E+00  0.24067460080E+03  0.24067460080E+03  0.00000000000E+00 0. -1.
         -2   -1    0    0    0  501 -0.00000000000E+00 -0.00000000000E+00 -0.25659391407E+03  0.25659391407E+03  0.00000000000E+00 0.  1.
         23    2    1    2    0    0 -0.83989739561E+02 -0.19828567526E+03  0.51755739125E+02  0.23920291644E+03  0.90376398109E+02 0.  0.
          5    1    1    2  502    0  0.85438876175E+02  0.18948009476E+03 -0.19402662214E+02  0.20879761390E+03  0.41800000000E+01 0.  1.
         -5    1    1    2    0  502 -0.14491366142E+01  0.88055805049E+01 -0.48272390183E+02  0.49267984522E+02  0.41800000000E+01 0.  1.
        -11    1    3    3    0    0 -0.23054755540E+02 -0.16756906277E+02  0.37622130828E+02  0.47198944787E+02  0.00000000000E+00 0. -1.
         11    1    3    3    0    0 -0.60934984021E+02 -0.18152876898E+03  0.14133608297E+02  0.19200397165E+03  0.00000000000E+00 0.  1.
</event>
<event>
 7    1  0.5137842E-006  0.1250235E+03  0.7561462E-02  0.1235033E+00
         -2   -1    0    0    0  501 -0.00000000000E+00  0.00000000000E+00  0.27653329752E+02  0.27653329752E+02  0.00000000000E+00 0.  1.
          2   -1    0    0  501    0  0.00000000000E+00 -0.00000000000E+00 -0.87598194490E+03  0.87598194490E+03  0.00000000000E+00 0. -1.
         23    2    1    2    0    0 -0.36888634169E+02 -0.10002914270E+03 -0.48763725773E+03  0.50725851660E+03  0.90302307955E+02 0.  0.
          5    1    1    2  502    0  0.28946033770E+02  0.11581320508E+03 -0.18802766971E+03  0.22276096677E+03  0.41800000000E+01 0. -1.
         -5    1    1    2    0  502  0.79426003992E+01 -0.15784062383E+02 -0.17266368771E+03  0.17361579127E+03  0.41800000000E+01 0. -1.
        -11    1    3    3    0    0 -0.41833714107E+02 -0.66607012963E+02 -0.44940856147E+03  0.45623963981E+03  0.00000000000E+00 0. -1.
         11    1    3    3    0    0  0.49450799379E+01 -0.33422129734E+02 -0.38228696257E+02  0.51018876791E+02  0.00000000000E+00 0.  1.
</event>
<event>
 7    1  0.5137842E-006  0.1751992E+03  0.7561462E-02  0.1172532E+00
          2   -1    0    0  501    0  0.00000000000E+00  0.00000000000E+00  0.60432315663E+03  0.60432315663E+03  0.00000000000E+00 0. -1.
         -2   -1    0    0    0  501 -0.00000000000E+00 -0.00000000000E+00 -0.66880781279E+02  0.66880781279E+02  0.00000000000E+00 0.  1.
         23    2    1    2    0    0  0.14879128294E+03 -0.59313063316E+02  0.34296978424E+03  0.38990587639E+03  0.93495637235E+02 0.  0.
          5    1    1    2  502    0 -0.14414342814E+03  0.82214723729E+02  0.12475177095E+03  0.20764649149E+03  0.41800000000E+01 0. -1.
         -5    1    1    2    0  502 -0.46478548035E+01 -0.22901660413E+02  0.69720820152E+02  0.73651570021E+02  0.41800000000E+01 0. -1.
        -11    1    3    3    0    0  0.11466223210E+03 -0.51259639039E+02  0.15899407094E+03  0.20261809559E+03  0.00000000000E+00 0.  1.
         11    1    3    3    0    0  0.34129050838E+02 -0.80534242775E+01  0.18397571330E+03  0.18728778080E+03  0.00000000000E+00 0. -1.
</event>
<event>
 7    1  0.5137842E-006  0.1022547E+03  0.7561462E-02  0.1275625E+00
          3   -1    0    0  501    0  0.00000000000E+00  0.00000000000E+00  0.33664794796E+02  0.33664794796E+02  0.00000000000E+00 0. -1.
         -3   -1    0    0    0  501 -0.00000000000E+00 -0.00000000000E+00 -0.49608082524E+03  0.49608082524E+03  0.00000000000E+00 0.  1.
         23    2    1    2    0    0  0.38304435798E+02  0.70041845555E+01 -0.12422897620E+03  0.15758047658E+03  0.88783329912E+02 0.  0.
          5    1    1    2  502    0  0.51967969568E+02 -0.30024215855E+01 -0.59509659910E+02  0.79174215620E+02  0.41800000000E+01 0. -1.
         -5    1    1    2    0  502 -0.90272405367E+02 -0.40017629699E+01 -0.27867739434E+03  0.29299092783E+03  0.41800000000E+01 0.  1.
        -11    1    3    3    0    0  0.23301666357E+02 -0.20150474079E+02 -0.13390398922E+01  0.30835082105E+02  0.00000000000E+00 0. -1.
         11    1    3    3    0    0  0.15002769442E+02  0.27154658635E+02 -0.12288993630E+03  0.12674539448E+03  0.00000000000E+00 0.  1.
</event>
<event>
 7    1  0.5137842E-006  0.1494482E+03  0.7561462E-02  0.1201153E+00
          2   -1    0    0  501    0  0.00000000000E+00  0.00000000000E+00  0.70717328710E+02  0.70717328710E+02  0.00000000000E+00 0. -1.
         -2   -1    0    0    0  501 -0.00000000000E+00 -0.00000000000E+00 -0.66330849785E+03  0.66330849785E+03  0.00000000000E+00 0.  1.
         23    2    1    2    0    0 -0.11288493519E+03 -0.75130784090E+02 -0.66916338920E+02  0.17700674855E+03  0.92010593456E+02 0.  0.
          5    1    1    2  502    0  0.64168571284E+02  0.45522456054E+02 -0.98960919303E+02  0.12649361840E+03  0.41800000000E+01 0. -1.
         -5    1    1    2    0  502  0.48716363907E+02  0.29608328035E+02 -0.42671391092E+03  0.43052545961E+03  0.41800000000E+01 0.  1.
        -11    1    3    3    0    0 -0.12536137076E+03 -0.50140765471E+02 -0.62297033838E+02  0.14869596519E+03  0.00000000000E+00 0. -1.
         11    1    3    3    0    0  0.12476435566E+02 -0.24990018619E+02 -0.46193050820E+01  0.28310783360E+02  0.00000000000E+00 0.  1.
</event>
<event>
 7    1  0.5137842E-006  0.9347435E+02  0.7561462E-02  0.1294650E+00
         -2   -1    0    0    0  501 -0.00000000000E+00  0.00000000000E+00  0.29046636155E+02  0.29046636155E+02  0.00000000000E+00 0.  1.
          2   -1    0    0  501    0  0.00000000000E+00 -0.00000000000E+00 -0.46787496521E+03  0.46787496521E+03  0.00000000000E+00 0. -1.
         23    2    1    2    0    0 -0.20290877571E+02 -0.37444699773E+02 -0.21275819708E+03  0.23506706097E+03  0.90424816697E+02 0.  0.
          5    1    1    2  502    0 -0.37398843551E+02  0.45984068939E+02 -0.17290140662E+03  0.18282663074E+03  0.41800000000E+01 0. -1.
         -5    1    1    2    0  502  0.57689721122E+02 -0.85393691659E+01 -0.53168725345E+02  0.79027909650E+02  0.41800000000E+01 0. -1.
        -11    1    3    3    0    0  0.33615762666E+01  0.12956844902E+02  0.17058668416E+01  0.13494073014E+02  0.00000000000E+00 0.  1.
         11    1    3    3    0    0 -0.23652453837E+02 -0.50401544675E+02 -0.21446406392E+03  0.22157298796E+03  0.00000000000E+00 0. -1.
</event>
<event>
 7    1  0.5137842E-006  0.9255109E+02  0.7561462E-02  0.1296789E+00
          1   -1    0    0  501    0  0.00000000000E+00  0.00000000000E+00  0.34219870308E+03  0.34219870308E+03  0.00000000000E+00 0. -1.
         -1   -1    0    0    0  501 -0.00000000000E+00 -0.00000000000E+00 -0.61300685680E+02  0.61300685680E+02  0.00000000000E+00 0.  1.
         23    2    1    2    0    0  0.40527091224E+01 -0.55084331284E+00  0.26196024924E+03  0.27717281199E+03  0.90470258356E+02 0.  0.
          5    1    1    2  502    0  0.25403774231E+02  0.40072881108E+02  0.49084728853E+02  0.68395691034E+02  0.41800000000E+01 0.  1.
         -5    1    1    2    0  502 -0.29456483354E+02 -0.39522037795E+02 -0.30146960692E+02  0.57930885734E+02  0.41800000000E+01 0.  1.
        -11    1    3    3    0    0 -0.13004791831E+02  0.41039486958E+02  0.16101600802E+03  0.16667189007E+03  0.00000000000E+00 0. -1.
         11    1    3    3    0    0  0.17057500954E+02 -0.41590330270E+02  0.10094424122E+03  0.11050092192E+03  0.00000000000E+00 0.  1.
</event>
<event>
 7    1  0.5137842E-006  0.9993092E+02  0.7561462E-02  0.1280441E+00
         -3   -1    0    0    0  501 -0.00000000000E+00  0.00000000000E+00  0.22914382897E+03  0.22914382897E+03  0.00000000000E+00 0.  1.
          3   -1    0    0  501    0  0.00000000000E+00 -0.00000000000E+00 -0.54969152961E+02  0.54969152961E+02  0.00000000000E+00 0. -1.
         23    2    1    2    0    0  0.27470849990E+02 -0.36331328038E+00  0.64038370715E+02  0.11518104192E+03  0.91711394590E+02 0.  0.
          5    1    1    2  502    0 -0.53544289678E+02  0.39949241495E+02  0.25100315641E+02  0.71487279277E+02  0.41800000000E+01 0.  1.
         -5    1    1    2    0  502  0.26073439689E+02 -0.39585928215E+02  0.85035989648E+02  0.97444660733E+02  0.41800000000E+01 0.  1.
        -11    1    3    3    0    0 -0.15739307482E+02 -0.29353381695E+02  0.52032857918E+02  0.61779973455E+02  0.00000000000E+00 0.  1.
         11    1    3    3    0    0  0.43210157472E+02  0.28990068415E+02  0.12005512798E+02  0.53401068463E+02  0.00000000000E+00 0. -1.
</event>
<event>
 7    1  0.5137842E-006  0.1342494E+03  0.7561462E-02  0.1221283E+00
         -2   -1    0    0    0  501 -0.00000000000E+00  0.00000000000E+00  0.16584233698E+03  0.16584233698E+03  0.00000000000E+00 0.  1.
          2   -1    0    0  501    0  0.00000000000E+00 -0.00000000000E+00 -0.11033299756E+03  0.11033299756E+03  0.00000000000E+00 0. -1.
         23    2    1    2    0    0 -0.18546118082E+02  0.77189616880E+02  0.41381338046E+02  0.12735223158E+03  0.90575826244E+02 0.  0.
          5    1    1    2  502    0  0.66859608985E+02 -0.73553153196E+02  0.10973267977E+02  0.10009075216E+03  0.41800000000E+01 0. -1.
         -5    1    1    2    0  502 -0.48313490904E+02 -0.36364636841E+01  0.31547333972E+01  0.48732350797E+02  0.41800000000E+01 0. -1.
        -11    1    3    3    0    0 -0.49630410357E+02  0.74043339079E+02  0.28863173263E+02  0.93694591439E+02  0.00000000000E+00 0. -1.
         11    1    3    3    0    0  0.31084292275E+02  0.31462778005E+01  0.12518164782E+02  0.33657640140E+02  0.00000000000E+00 0.  1.
</event>
<event>
 7    1  0.5137842E-006  0.1017374E+03  0.7561462E-02  0.1276684E+00
         -1   -1    0    0    0  501 -0.00000000000E+00  0.00000000000E+00  0.41015156908E+02  0.41015156908E+02  0.00000000000E+00 0.  1.
          1   -1    0    0  501    0  0.00000000000E+00 -0.00000000000E+00 -0.73087858152E+03  0.73087858152E+03  0.00000000000E+00 0. -1.
         23    2    1    2    0    0 -0.33298042482E+02 -0.74586898712E+02 -0.57186252114E+03  0.58151709962E+03  0.66808898945E+02 0.  0.
          5    1    1    2  502    0  0.48050854505E+02  0.54841384451E+02 -0.13946228739E+03  0.15742828231E+03  0.41800000000E+01 0.  1.
         -5    1    1    2    0  502 -0.14752812023E+02  0.19745514260E+02  0.21461383917E+02  0.32948356493E+02  0.41800000000E+01 0.  1.
        -11    1    3    3    0    0 -0.49083795201E+02 -0.28573175034E+02 -0.29646938938E+03  0.30186047128E+03  0.00000000000E+00 0. -1.
         11    1    3    3    0    0  0.15785752718E+02 -0.46013723678E+02 -0.27539313176E+03  0.27965662834E+03  0.00000000000E+00 0.  1.
</event>
<event>
 7    1  0.5137842E-006  0.1339487E+03  0.7561462E-02  0.1221712E+00
         -2   -1    0    0    0  501 -0.00000000000E+00  0.00000000000E+00  0.10054992280E+03  0.10054992280E+03  0.00000000000E+00 0.  1.
          2   -1    0    0  501    0  0.00000000000E+00 -0.00000000000E+00 -0.25302021317E+03  0.25302021317E+03  0.00000000000E+00 0. -1.
         23    2    1    2    0    0 -0.10795648806E+03 -0.36434337250E+02 -0.97731675593E+02  0.17573517688E+03  0.91374546417E+02 0.  0.
          5    1    1    2  502    0  0.10873146518E+02  0.21947823131E+02  0.36235502079E+02  0.43936502664E+02  0.41800000000E+01 0. -1.
         -5    1    1    2    0  502  0.97083341543E+02  0.14486514119E+02 -0.90974116856E+02  0.13389845643E+03  0.41800000000E+01 0. -1.
        -11    1    3    3    0    0 -0.54673520982E+02 -0.64520826001E+02 -0.45627713037E+02  0.96093803553E+02  0.00000000000E+00 0.  1.
         11    1    3    3    0    0 -0.53282967079E+02  0.28086488750E+02 -0.52103962557E+02  0.79641373326E+02  0.00000000000E+00 0. -1.
</event>
<event>
 7    1  0.5137842E-006  0.1264245E+03  0.7561462E-02  0.1232860E+00
          1   -1    0    0  501    0  0.00000000000E+00  0.00000000000E+00  0.21843270836E+02  0.21843270836E+02  0.00000000000E+00 0. -1.
         -1   -1    0    0    0  501 -0.00000000000E+00 -0.00000000000E+00 -0.11286284597E+04  0.11286284597E+04  0.00000000000E+00 0.  1.
         23    2    1    2    0    0  0.99464574912E+02  0.32336883751E+02 -0.34979857580E+03  0.37612328544E+03  0.90392513574E+02 0.  0.
          5    1    1    2  502    0  0.13265975272E+01  0.23651890119E+02 -0.30933702122E+02  0.39185942559E+02  0.41800000000E+01 0.  1.
         -5    1    1    2    0  502 -0.10079117244E+03 -0.55988773870E+02 -0.72605291093E+03  0.73516250252E+03  0.41800000000E+01 0.  1.
        -11    1    3    3    0    0  0.53509233727E+02 -0.56374635691E+01 -0.27628565487E+03  0.28147607745E+03  0.00000000000E+00 0.  1.
         11    1    3    3    0    0  0.45955341185E+02  0.37974347320E+02 -0.73512920927E+02  0.94647207994E+02  0.00000000000E+00 0. -1.
</event>
<event>
 7    1  0.5137842E-006  0.9947002E+02  0.7561462E-02  0.1281414E+00
         -1   -1    0    0    0  501 -0.00000000000E+00  0.00000000000E+00  0.70195938924E+02  0.70195938924E+02  0.00000000000E+00 0.  1.
          1   -1    0    0  501    0  0.00000000000E+00 -0.00000000000E+00 -0.24241932443E+03  0.24241932443E+03  0.00000000000E+00 0. -1.
         23    2    1    2    0    0  0.49299364381E+02 -0.23542230812E+02 -0.13629436783E+03  0.17146545955E+03  0.88541431873E+02 0.  0.
          5    1    1    2  502    0 -0.54985722630E+02 -0.39499482057E+02 -0.37865639559E+02  0.77684733604E+02  0.41800000000E+01 0. -1.
         -5    1    1    2    0  502  0.56863582490E+01  0.63041712869E+02  0.19366218742E+01  0.63465070203E+02  0.41800000000E+01 0. -1.
        -11    1    3    3    0    0  0.50878639841E+02 -0.73533263619E+01 -0.14441023977E+03  0.15328739267E+03  0.00000000000E+00 0. -1.
         11    1    3    3    0    0 -0.15792754599E+01 -0.16188904450E+02  0.81158719428E+01  0.18178066884E+02  0.00000000000E+00 0.  1.
</event>
<event>
 7    1  0.5577087E-006  0.1211586E+03  0.7561462E-02  0.1241198E+00
         -2   -1    0    0    0  501 -0.00000000000E+00  0.00000000000E+00  0.29694531541E+02  0.29694531541E+02  0.00000000000E+00 0.  1.
          2   -1    0    0  501    0  0.00000000000E+00 -0.00000000000E+00 -0.86308279825E+03  0.86308279825E+03  0.00000000000E+00 0. -1.
         23    2    1    2    0    0  0.80404752975E+02 -0.79805074758E+02 -0.47596666817E+03  0.49751556768E+03  0.90242432494E+02 0.  0.
          5    1    1    2  502    0 -0.74307050183E+02  0.37370652646E+02 -0.83347288651E+02  0.11782336912E+03  0.41800000000E+01 0.  1.
         -5    1    1    2    0  502 -0.60977027917E+01  0.42434422113E+02 -0.27407430989E+03  0.27743839298E+03  0.41800000000E+01 0.  1.
        -11    1    3    3    0    0  0.42807740584E+01 -0.16225775701E+02 -0.70117274511E+01  0.18186949867E+02  0.00000000000E+00 0.  1.
         11    1    3    3    0    0  0.76123978916E+02 -0.63579299058E+02 -0.46895494072E+03  0.47932861782E+03  0.00000000000E+00 0. -1.
</event>
<event>
 7    1  0.5137842E-006  0.1030551E+03  0.7561462E-02  0.1274000E+00
          1   -1    0    0  501    0  0.00000000000E+00  0.00000000000E+00  0.11530768884E+03  0.11530768884E+03  0.00000000000E+00 0. -1.
         -1   -1    0    0    0  501 -0.00000000000E+00 -0.00000000000E+00 -0.14677516131E+03  0.14677516131E+03  0.00000000000E+00 0.  1.
         23    2    1    2    0    0 -0.77111718455E+01  0.41026940720E+02  0.45624581713E+02  0.10932932114E+03  0.90158892901E+02 0.  0.
          5    1    1    2  502    0 -0.45444768002E+02 -0.19498501878E+02  0.77827818221E+01  0.50234078145E+02  0.41800000000E+01 0. -1.
         -5    1    1    2    0  502  0.53155939847E+02 -0.21528438841E+02 -0.84874836001E+02  0.10251945087E+03  0.41800000000E+01 0. -1.
        -11    1    3    3    0    0 -0.15792090416E+02 -0.26566428345E+02  0.99159090661E+01  0.32457518194E+02  0.00000000000E+00 0. -1.
         11    1    3    3    0    0  0.80809185709E+01  0.67593369064E+02  0.35708672647E+02  0.76871802949E+02  0.00000000000E+00 0.  1.
</event>
<event>
 7    1  0.5137842E-006  0.1154910E+03  0.7561462E-02  0.1250726E+00
          1   -1    0    0  501    0  0.00000000000E+00  0.00000000000E+00  0.64140091959E+02  0.64140091959E+02  0.00000000000E+00 0. -1.
         -1   -1    0    0    0  501 -0.00000000000E+00 -0.00000000000E+00 -0.45643528814E+03  0.45643528814E+03  0.00000000000E+00 0.  1.
         23    2    1    2    0    0 -0.20651174181E+02  0.81577845118E+02 -0.29336233994E+02  0.12755288098E+03  0.91256271089E+02 0.  0.
          5    1    1    2  502    0  0.42792189822E+02 -0.80554650005E+02 -0.35860902416E+03  0.37005152041E+03  0.41800000000E+01 0. -1.
         -5    1    1    2    0  502 -0.22141015641E+02 -0.10231951130E+01 -0.43499380230E+01  0.22970978705E+02  0.41800000000E+01 0. -1.
        -11    1    3    3    0    0 -0.61198290179E-01  0.93381988819E+02 -0.39931761671E+02  0.10156153391E+03  0.00000000000E+00 0. -1.
         11    1    3    3    0    0 -0.20589975891E+02 -0.11804143701E+02  0.10595527677E+02  0.25991347069E+02  0.00000000000E+00 0.  1.
</event>
<event>
 7    1  0.5137842E-006  0.8615279E+02  0.7561462E-02  0.1312445E+00
         -1   -1    0    0    0  501 -0.00000000000E+00  0.00000000000E+00  0.18534147358E+02  0.18534147358E+02  0.00000000000E+00 0.  1.
          1   -1    0    0  501    0  0.00000000000E+00 -0.00000000000E+00 -0.68472180973E+03  0.68472180973E+03  0.00000000000E+00 0. -1.
         23    2    1    2    0    0  0.13341839975E+01  0.29514671029E+02 -0.32899169749E+03  0.34239116382E+03  0.90129219429E+02 0.  0.
          5    1    1    2  502    0 -0.33041139366E+02  0.10275053479E+01 -0.16587502831E+02  0.37220831641E+02  0.41800000000E+01 0. -1.
         -5    1    1    2    0  502  0.31706955369E+02 -0.30542176377E+02 -0.32060846205E+03  0.32364396162E+03  0.41800000000E+01 0. -1.
        -11    1    3    3    0    0 -0.18190619093E+02  0.57686362383E+02 -0.20293101206E+03  0.21175365565E+03  0.00000000000E+00 0.  1.
         11    1    3    3    0    0  0.19524803090E+02 -0.28171691354E+02 -0.12606068543E+03  0.13063750817E+03  0.00000000000E+00 0. -1.
</event>
<event>
 7    1  0.5137842E-006  0.8769407E+02  0.7561462E-02  0.1308534E+00
         -1   -1    0    0    0  501 -0.00000000000E+00  0.00000000000E+00  0.69225435279E+03  0.69225435279E+03  0.00000000000E+00 0.  1.
          1   -1    0    0  501    0  0.00000000000E+00 -0.00000000000E+00 -0.20282463298E+02  0.20282463298E+02  0.00000000000E+00 0. -1.
         23    2    1    2    0    0  0.97317505242E+01  0.20756999615E+02  0.17006901326E+03  0.19477300689E+03  0.92127601388E+02 0.  0.
          5    1    1    2  502    0 -0.15813856143E+02 -0.66946738892E+02  0.39654835390E+03  0.40249225244E+03  0.41800000000E+01 0.  1.
         -5    1    1    2    0  502  0.60821056184E+01  0.46189739277E+02  0.10535452233E+03  0.11527155677E+03  0.41800000000E+01 0.  1.
        -11    1    3    3    0    0  0.16451064987E+02  0.37882307710E+02  0.17142198572E+03  0.17632698025E+03  0.00000000000E+00 0.  1.
         11    1    3    3    0    0 -0.67193144627E+01 -0.17125308095E+02 -0.13529724543E+01  0.18446026636E+02  0.00000000000E+00 0. -1.
</event>
<event>
 7    1  0.5137842E-006  0.9223125E+02  0.7561462E-02  0.1297537E+00
         -4   -1    0    0    0  501 -0.00000000000E+00  0.00000000000E+00  0.11574553000E+03  0.11574553000E+03  0.00000000000E+00 0.  1.
          4   -1    0    0  501    0  0.00000000000E+00 -0.00000000000E+00 -0.11790454710E+03  0.11790454710E+03  0.00000000000E+00 0. -1.
         23    2    1    2    0    0 -0.17244260431E+02 -0.75532342050E+01 -0.36101493129E+02  0.10268050040E+03  0.94263203275E+02 0.  0.
          5    1    1    2  502    0 -0.16675009491E+02  0.59766033503E+02  0.28256978301E+02  0.68307861370E+02  0.41800000000E+01 0.  1.
         -5    1    1    2    0  502  0.33919269923E+02 -0.52212799298E+02  0.56854977268E+01  0.62661715321E+02  0.41800000000E+01 0.  1.
        -11    1    3    3    0    0 -0.26354500835E+02  0.18546277991E+02  0.21533810536E+02  0.38758600823E+02  0.00000000000E+00 0.  1.
         11    1    3    3    0    0  0.91102404033E+01 -0.26099512196E+02 -0.57635303665E+02  0.63921899578E+02  0.00000000000E+00 0. -1.
</event>
<event>
 7    1  0.5137842E-006  0.9700162E+02  0.7561462E-02  0.1286731E+00
         -1   -1    0    0    0  501 -0.00000000000E+00  0.00000000000E+00  0.55503552943E+02  0.55503552943E+02  0.00000000000E+00 0.  1.
          1   -1    0    0  501    0  0.00000000000E+00 -0.00000000000E+00 -0.29352808933E+03  0.29352808933E+03  0.00000000000E+00 0. -1.
         23    2    1    2    0    0  0.20474632555E+02 -0.65182284657E+02 -0.11051702699E+03  0.15779014466E+03  0.89530864431E+02 0.  0.
          5    1    1    2  502    0 -0.38746742588E+02  0.49177529244E+02 -0.14155353838E+01  0.62763170603E+02  0.41800000000E+01 0.  1.
         -5    1    1    2    0  502  0.18272110033E+02  0.16004755413E+02 -0.12609197402E+03  0.12847832701E+03  0.41800000000E+01 0.  1.
        -11    1    3    3    0    0  0.44155655240E+02 -0.69691347367E+02 -0.10412972699E+03  0.13285181907E+03  0.00000000000E+00 0. -1.
         11    1    3    3    0    0 -0.23681022684E+02  0.45090627096E+01 -0.63873000001E+01  0.24938325589E+02  0.00000000000E+00 0.  1.
</event>
<event>
 7    1  0.5137842E-006  0.1271123E+03  0.7561462E-02  0.1231805E+00
          2   -1    0    0  501    0  0.00000000000E+00  0.00000000000E+00  0.32499641464E+03  0.32499641464E+03  0.00000000000E+00 0. -1.
         -2   -1    0    0    0  501 -0.00000000000E+00 -0.00000000000E+00 -0.52513927480E+02  0.52513927480E+02  0.00000000000E+00 0.  1.
         23    2    1    2    0    0 -0.26349393491E+01  0.68837694294E+02  0.87756103145E+02  0.14401768066E+03  0.91073528764E+02 0.  0.
          5    1    1    2  502    0  0.25240250658E+02 -0.99647786965E+02  0.11859296969E+03  0.15699846038E+03  0.41800000000E+01 0.  1.
         -5    1    1    2    0  502 -0.22605311309E+02  0.30810092671E+02  0.66133414326E+02  0.76494201089E+02  0.41800000000E+01 0.  1.
        -11    1    3    3    0    0 -0.45922531879E+02  0.30964259191E+02  0.32281249812E+02  0.64107280171E+02  0.00000000000E+00 0.  1.
         11    1    3    3    0    0  0.43287592530E+02  0.37873435103E+02  0.55474853333E+02  0.79910400486E+02  0.00000000000E+00 0. -1.
</event>
<event>
 7    1  0.5137842E-006  0.1272091E+03  0.7561462E-02  0.1231657E+00
          2   -1    0    0  501    0  0.00000000000E+00  0.00000000000E+00  0.18745182186E+03  0.18745182186E+03  0.00000000000E+00 0. -1.
         -2   -1    0    0    0  501 -0.00000000000E+00 -0.00000000000E+00 -0.95897314087E+02  0.95897314087E+02  0.00000000000E+00 0.  1.
         23    2    1    2    0    0  0.47670777602E+02 -0.63122491607E+02  0.43878814697E+02  0.12785850959E+03  0.90363134686E+02 0.  0.
          5    1    1    2  502    0  0.35522647107E+02  0.19563533892E+02 -0.13951988672E+02  0.43089682103E+02  0.41800000000E+01 0. -1.
         -5    1    1    2    0  502 -0.83193424710E+02  0.43558957715E+02  0.61627681745E+02  0.11240094425E+03  0.41800000000E+01 0. -1.
        -11    1    3    3    0    0  0.74506748416E+02 -0.50387866617E+02  0.28153883522E+02  0.94248786831E+02  0.00000000000E+00 0.  1.
         11    1    3    3    0    0 -0.26835970814E+02 -0.12734624989E+02  0.15724931176E+02  0.33609722754E+02  0.00000000000E+00 0. -1.
</event>
<event>
 7    1  0.5137842E-006  0.9189670E+02  0.7561462E-02  0.1298323E+00
          2   -1    0    0  501    0  0.00000000000E+00  0.00000000000E+00  0.43432482346E+02  0.43432482346E+02  0.00000000000E+00 0. -1.
         -2   -1    0    0    0  501 -0.00000000000E+00 -0.00000000000E+00 -0.33769511640E+03  0.33769511640E+03  0.00000000000E+00 0.  1.
         23    2    1    2    0    0 -0.81068896527E+01  0.30392897709E+02 -0.58028323328E+02  0.11197367354E+03  0.90450911365E+02 0.  0.
          5    1    1    2  502    0 -0.54670876188E+02 -0.12869210094E+02 -0.65672632340E+02  0.86515249003E+02  0.41800000000E+01 0. -1.
         -5    1    1    2    0  502  0.62777765841E+02 -0.17523687615E+02 -0.17056167838E+03  0.18263867620E+03  0.41800000000E+01 0. -1.
        -11    1    3    3    0    0 -0.26554452424E+02 -0.62568338823E-01 -0.69632204640E+02  0.74523733007E+02  0.00000000000E+00 0.  1.
         11    1    3    3    0    0  0.18447562771E+02  0.30455466048E+02  0.11603881312E+02  0.37449940532E+02  0.00000000000E+00 0. -1.
</event>
<event>
 7    1  0.5137842E-006  0.1100102E+03  0.7561462E-02  0.1260551E+00
          1   -1    0    0  501    0  0.00000000000E+00  0.00000000000E+00  0.95551092599E+03  0.95551092599E+03  0.00000000000E+00 0. -1.
         -1   -1    0    0    0  501 -0.00000000000E+00 -0.00000000000E+00 -0.17272972708E+02  0.17272972708E+02  0.00000000000E+00 0.  1.
         23    2    1    2    0    0 -0.46183506259E+02 -0.49541426360E+02  0.42000586408E+03  0.43538262385E+03  0.92551791526E+02 0.  0.
          5    1    1    2  502    0  0.74102025449E+02  0.16402365474E+02  0.45062614039E+03  0.45699183644E+03  0.41800000000E+01 0.  1.
         -5    1    1    2    0  502 -0.27918519190E+02  0.33139060887E+02  0.67605948807E+02  0.80409438403E+02  0.41800000000E+01 0.  1.
        -11    1    3    3    0    0 -0.32276126920E+02 -0.69222778254E+02  0.38728724775E+03  0.39474669557E+03  0.00000000000E+00 0.  1.
         11    1    3    3    0    0 -0.13907379339E+02  0.19681351893E+02  0.32718616336E+02  0.40635928282E+02  0.00000000000E+00 0. -1.
</event>
<event>
 7    1  0.5137842E-006  0.1162654E+03  0.7561462E-02  0.1249388E+00
         -1   -1    0    0    0  501 -0.00000000000E+00  0.00000000000E+00  0.10654482119E+03  0.10654482119E+03  0.00000000000E+00 0.  1.
          1   -1    0    0  501    0  0.00000000000E+00 -0.00000000000E+00 -0.13389908398E+03  0.13389908398E+03  0.00000000000E+00 0. -1.
         23    2    1    2    0    0 -0.52893797919E+01 -0.10677802878E+02 -0.28632664205E+02  0.11893814662E+03  0.11482360493E+03 0.  0.
          5    1    1    2  502    0 -0.33687465233E+02 -0.42842259504E+02  0.60472828506E+01  0.54994059162E+02  0.41800000000E+01 0. -1.
         -5    1    1    2    0  502  0.38976845025E+02  0.53520062382E+02 -0.47688814400E+01  0.66511699390E+02  0.41800000000E+01 0.  1.
        -11    1    3    3    0    0  0.24560532229E+02 -0.53767174163E+02  0.20335133174E+00  0.59111505755E+02  0.00000000000E+00 0.  1.
         11    1    3    3    0    0 -0.29849912021E+02  0.43089371285E+02 -0.28836015537E+02  0.59826640867E+02  0.00000000000E+00 0. -1.
</event>
<event>
 7    1  0.5137842E-006  0.1163255E+03  0.7561462E-02  0.1249285E+00
          2   -1    0    0  501    0  0.00000000000E+00  0.00000000000E+00  0.86985661611E+02  0.86985661611E+02  0.00000000000E+00 0. -1.
         -2   -1    0    0    0  501 -0.00000000000E+00 -0.00000000000E+00 -0.23295046646E+03  0.23295046646E+03  0.00000000000E+00 0.  1.
         23    2    1    2    0    0 -0.88942944996E+02 -0.20938357292E+02 -0.51293694742E+02  0.13839967393E+03  0.90411085340E+02 0.  0.
          5    1    1    2  502    0  0.98155229360E+02 -0.10532003819E+02 -0.21320373395E+02  0.10108116974E+03  0.41800000000E+01 0.  1.
         -5    1    1    2    0  502 -0.92122843639E+01  0.31470361111E+02 -0.73350736713E+02  0.80455284400E+02  0.41800000000E+01 0.  1.
        -11    1    3    3    0    0 -0.51576060971E+02  0.96822326187E+01  0.16628935024E+02  0.55048680037E+02  0.00000000000E+00 0. -1.
         11    1    3    3    0    0 -0.37366884025E+02 -0.30620589911E+02 -0.67922629767E+02  0.83350993891E+02  0.00000000000E+00 0.  1.
</event>
<event>
 7    1  0.5137842E-006  0.1757999E+03  0.7561462E-02  0.1171931E+00
          2   -1    0    0  501    0  0.00000000000E+00  0.00000000000E+00  0.13652479227E+04  0.13652479227E+04  0.00000000000E+00 0. -1.
         -2   -1    0    0    0  501 -0.00000000000E+00 -0.00000000000E+00 -0.40135306074E+02  0.40135306074E+02  0.00000000000E+00 0.  1.
         23    2    1    2    0    0  0.12373703897E+03 -0.11121360526E+03  0.10083095943E+04  0.10263171104E+04  0.94653327166E+02 0.  0.
          5    1    1    2  502    0 -0.95018147706E+02  0.60429000883E+02  0.29643408255E+03  0.31712891738E+03  0.41800000000E+01 0.  1.
         -5    1    1    2    0  502 -0.28718891264E+02  0.50784604374E+02  0.20368939752E+02  0.61937200966E+02  0.41800000000E+01 0.  1.
        -11    1    3    3    0    0 -0.78428665267E+01 -0.16599492000E+02  0.34183004528E+02  0.38801178959E+02  0.00000000000E+00 0.  1.
         11    1    3    3    0    0  0.13157990550E+03 -0.94614113257E+02  0.97412658977E+03  0.98751593144E+03  0.00000000000E+00 0. -1.
</event>
<event>
 7    1  0.5137842E-006  0.1375922E+03  0.7561462E-02  0.1216606E+00
          1   -1    0    0  501    0  0.00000000000E+00  0.00000000000E+00  0.11045972530E+03  0.11045972530E+03  0.00000000000E+00 0. -1.
         -1   -1    0    0    0  501 -0.00000000000E+00 -0.00000000000E+00 -0.35676329359E+03  0.35676329359E+03  0.00000000000E+00 0.  1.
         23    2    1    2    0    0  0.41254105135E+00  0.62612560695E+01  0.49833972423E+02  0.10558987312E+03  0.92878538852E+02 0.  0.
          5    1    1    2  502    0  0.82377014864E+02 -0.41709323629E+02 -0.63508244665E+02  0.11214459325E+03  0.41800000000E+01 0. -1.
         -5    1    1    2    0  502 -0.82789555916E+02  0.35448067559E+02 -0.23262929605E+03  0.24948855253E+03  0.41800000000E+01 0.  1.
        -11    1    3    3    0    0  0.14062801679E+02  0.47301893435E+02  0.31944123723E+02  0.58784849698E+02  0.00000000000E+00 0.  1.
         11    1    3    3    0    0 -0.13650260628E+02 -0.41040637366E+02  0.17889848700E+02  0.46805023417E+02  0.00000000000E+00 0. -1.
</event>
<event>
 7    1  0.5137842E-006  0.8690050E+02  0.7561462E-02  0.1310536E+00
         -1   -1    0    0    0  501 -0.00000000000E+00  0.00000000000E+00  0.62144302936E+03  0.62144302936E+03  0.00000000000E+00 0.  1.
          1   -1    0    0  501    0  0.00000000000E+00 -0.00000000000E+00 -0.27926371121E+02  0.27926371121E+02  0.00000000000E+00 0. -1.
         23    2    1    2    0    0  0.65078439642E+01 -0.69737004200E+02  0.22380924262E+03  0.25283847505E+03  0.94504579774E+02 0.  0.
          5    1    1    2  502    0  0.26674003035E+02  0.49764921867E+02  0.53378220026E+02  0.77812316888E+02  0.41800000000E+01 0.  1.
         -5    1    1    2    0  502 -0.33181846999E+02  0.19972082333E+02  0.31632919559E+03  0.31871860853E+03  0.41800000000E+01 0.  1.
        -11    1    3    3    0    0  0.10734917211E+02 -0.27125303846E+01 -0.65668945729E+01  0.12873242519E+02  0.00000000000E+00 0. -1.
         11    1    3    3    0    0 -0.42270732468E+01 -0.67024473815E+02  0.23037613719E+03  0.23996523254E+03  0.00000000000E+00 0.  1.
</event>
<event>
 7    1  0.5137842E-006  0.1168595E+03  0.7561462E-02  0.1248370E+00
         -1   -1    0    0    0  501 -0.00000000000E+00  0.00000000000E+00  0.51444363820E+02  0.51444363820E+02  0.00000000000E+00 0.  1.
          1   -1    0    0  501    0  0.00000000000E+00 -0.00000000000E+00 -0.33777501067E+03  0.33777501067E+03  0.00000000000E+00 0. -1.
         23    2    1    2    0    0 -0.50877580465E+02  0.55882453560E+02 -0.11696795639E+03  0.16551980366E+03  0.89464662133E+02 0.  0.
          5    1    1    2  502    0 -0.79048215925E+01 -0.60465313629E+02 -0.14921953689E+03  0.16125285408E+03  0.41800000000E+01 0.  1.
         -5    1    1    2    0  502  0.58782402057E+02  0.45828600682E+01 -0.20143153564E+02  0.62446716755E+02  0.41800000000E+01 0.  1.
        -11    1    3    3    0    0 -0.51142289879E+02  0.76962605534E+02 -0.76793906295E+02  0.12015024140E+03  0.00000000000E+00 0.  1.
         11    1    3    3    0    0  0.26470941414E+00 -0.21080151973E+02 -0.40174050095E+02  0.45369562256E+02  0.00000000000E+00 0. -1.
</event>
<event>
 7    1  0.5137842E-006  0.2178141E+03  0.7561462E-02  0.1135523E+00
         -3   -1    0    0    0  501 -0.00000000000E+00  0.00000000000E+00  0.16707640398E+03  0.16707640398E+03  0.00000000000E+00 0.  1.
          3   -1    0    0  501    0  0.00000000000E+00 -0.00000000000E+00 -0.30847329230E+03  0.30847329230E+03  0.00000000000E+00 0. -1.
         23    2    1    2    0    0 -0.15204380725E+03 -0.12754845102E+03 -0.82201787240E+02  0.23360118015E+03  0.91795701749E+02 0.  0.
          5    1    1    2  502    0  0.14777791208E+02  0.71621248371E+02  0.17058691062E+02  0.75209425420E+02  0.41800000000E+01 0. -1.
         -5    1    1    2    0  502  0.13726601604E+03  0.55927202650E+02 -0.76253792141E+02  0.16673909071E+03  0.41800000000E+01 0. -1.
        -11    1    3    3    0    0 -0.11704897800E+03 -0.13462581077E+03 -0.49376991722E+02  0.18510175441E+03  0.00000000000E+00 0.  1.
         11    1    3    3    0    0 -0.34994829253E+02  0.70773597508E+01 -0.32824795518E+02  0.48499425732E+02  0.00000000000E+00 0. -1.
</event>
<event>
 7    1  0.5137842E-006  0.1144811E+03  0.7561462E-02  0.1252490E+00
         -1   -1    0    0    0  501 -0.00000000000E+00  0.00000000000E+00  0.41663807319E+03  0.41663807319E+03  0.00000000000E+00 0.  1.
          1   -1    0    0  501    0  0.00000000000E+00 -0.00000000000E+00 -0.52465774268E+02  0.52465774268E+02  0.00000000000E+00 0. -1.
         23    2    1    2    0    0 -0.74290239440E+02  0.63066594591E+02  0.14161094748E+03  0.19583112580E+03  0.93806899299E+02 0.  0.
          5    1    1    2  502    0  0.83267403535E+02 -0.18007497028E+02  0.20813684412E+03  0.22493587691E+03  0.41800000000E+01 0. -1.
         -5    1    1    2    0  502 -0.89771640954E+01 -0.45059097563E+02  0.14424507313E+02  0.48336844742E+02  0.41800000000E+01 0. -1.
        -11    1    3    3    0    0 -0.55055878675E+02  0.44377062560E+02  0.15154494935E+03  0.16723141191E+03  0.00000000000E+00 0.  1.
         11    1    3    3    0    0 -0.19234360764E+02  0.18689532031E+02 -0.99340018613E+01  0.28599713889E+02  0.00000000000E+00 0. -1.
</event>
<event>
 7    1  0.5137842E-006  0.1008299E+03  0.7561462E-02  0.1278560E+00
          3   -1    0    0  501    0  0.00000000000E+00  0.00000000000E+00  0.15399192915E+03  0.15399192915E+03  0.00000000000E+00 0. -1.
         -3   -1    0    0    0  501 -0.00000000000E+00 -0.00000000000E+00 -0.10211997722E+03  0.10211997722E+03  0.00000000000E+00 0.  1.
         23    2    1    2    0    0  0.26833881617E+02  0.18587565890E+02  0.76442249190E+02  0.12453850355E+03  0.92740857209E+02 0.  0.
          5    1    1    2  502    0 -0.49354388519E+02 -0.61768660550E+02 -0.64296204127E+01  0.79435731953E+02  0.41800000000E+01 0.  1.
         -5    1    1    2    0  502  0.22520506903E+02  0.43181094661E+02 -0.18140676841E+02  0.52137670868E+02  0.41800000000E+01 0.  1.
        -11    1    3    3    0    0  0.43003073828E+02 -0.67679101955E+01  0.12440546058E+01  0.43550162329E+02  0.00000000000E+00 0.  1.
         11    1    3    3    0    0 -0.16169192211E+02  0.25355476085E+02  0.75198194584E+02  0.80988341216E+02  0.00000000000E+00 0. -1.
</event>
<event>
 7    1  0.5137842E-006  0.2092269E+03  0.7561462E-02  0.1142180E+00
         -2   -1    0    0    0  501 -0.00000000000E+00  0.00000000000E+00  0.17040494606E+03  0.17040494606E+03  0.00000000000E+00 0.  1.
          2   -1    0    0  501    0  0.00000000000E+00 -0.00000000000E+00 -0.28172978193E+03  0.28172978193E+03  0.00000000000E+00 0. -1.
         23    2    1    2    0    0  0.18514851469E+03 -0.30088179519E+02 -0.18747414029E+02  0.20839635874E+03  0.88838650183E+02 0.  0.
          5    1    1    2  502    0 -0.11994949600E+03 -0.41661534247E+02 -0.39035468506E+02  0.13290901109E+03  0.41800000000E+01 0.  1.
         -5    1    1    2    0  502 -0.65199018691E+02  0.71749713766E+02 -0.53541953338E+02  0.11082935816E+03  0.41800000000E+01 0.  1.
        -11    1    3    3    0    0  0.54642155069E+02  0.14364768716E+02  0.27686128623E+02  0.62917671674E+02  0.00000000000E+00 0.  1.
         11    1    3    3    0    0  0.13050635962E+03 -0.44452948235E+02 -0.46433542652E+02  0.14547868707E+03  0.00000000000E+00 0. -1.
</event>
<event>
 6    1  0.5137842E-006  0.6017345E+02  0.7561462E-02  0.1397105E+00
          1   -1    0    0  501    0  0.00000000000E+00  0.00000000000E+00  0.14645145891E+02  0.14645145891E+02  0.00000000000E+00 0. -1.
         -1   -1    0    0    0  501 -0.00000000000E+00 -0.00000000000E+00 -0.39117815531E+03  0.39117815531E+03  0.00000000000E+00 0.  1.
          5    1    1    2  502    0 -0.36557582848E+02  0.20263000779E+02 -0.60479531488E+02  0.73636215229E+02  0.41800000000E+01 0. -1.
         -5    1    1    2    0  502  0.42462269212E+02 -0.29532926745E+02 -0.26874897471E+03  0.27371284565E+03  0.41800000000E+01 0.  1.
        -11    1    1    2    0    0  0.58801925560E+01  0.12851028456E+02 -0.59665230105E+01  0.15340306181E+02  0.00000000000E+00 0. -1.
         11    1    1    2    0    0 -0.11784878920E+02 -0.35811024904E+01 -0.41337980212E+02  0.43133934138E+02  0.00000000000E+00 0.  1.
</event>
<event>
 7    1  0.5137842E-006  0.1774542E+03  0.7561462E-02  0.1170290E+00
          1   -1    0    0  501    0  0.00000000000E+00  0.00000000000E+00  0.15916993657E+04  0.15916993657E+04  0.00000000000E+00 0. -1.
         -1   -1    0    0    0  501 -0.00000000000E+00 -0.00000000000E+00 -0.20744155888E+02  0.20744155888E+02  0.00000000000E+00 0.  1.
         23    2    1    2    0    0  0.14344596550E+03  0.35328637257E+02  0.81146818451E+03  0.82867580792E+03  0.79988265003E+02 0.  0.
          5    1    1    2  502    0 -0.24475217703E+02 -0.63148473445E+02  0.20406280236E+03  0.21504851937E+03  0.41800000000E+01 0.  1.
         -5    1    1    2    0  502 -0.11897074780E+03  0.27819836189E+02  0.55542422298E+03  0.56871919432E+03  0.41800000000E+01 0.  1.
        -11    1    3    3    0    0  0.18816089738E+02  0.35493281298E+02  0.13612011533E+03  0.14192428985E+03  0.00000000000E+00 0. -1.
         11    1    3    3    0    0  0.12462987576E+03 -0.16464404156E+00  0.67534806917E+03  0.68675151807E+03  0.00000000000E+00 0.  1.
</event>
<event>
 7    1  0.5137842E-006  0.1157314E+03  0.7561462E-02  0.1250310E+00
         -2   -1    0    0    0  501 -0.00000000000E+00  0.00000000000E+00  0.82203539991E+02  0.82203539991E+02  0.00000000000E+00 0.  1.
          2   -1    0    0  501    0  0.00000000000E+00 -0.00000000000E+00 -0.16454314769E+03  0.16454314769E+03  0.00000000000E+00 0. -1.
         23    2    1    2    0    0  0.18461475687E+02  0.24315763726E+02 -0.44249587078E+02  0.11246958430E+03  0.98789164318E+02 0.  0.
          5    1    1    2  502    0  0.29735079253E+02 -0.61031216381E+02 -0.21001570238E+02  0.71186534286E+02  0.41800000000E+01 0.  1.
         -5    1    1    2    0  502 -0.48196554940E+02  0.36715452656E+02 -0.17088450382E+02  0.63090569091E+02  0.41800000000E+01 0.  1.
        -11    1    3    3    0    0  0.59109598591E+02  0.13070273596E+02 -0.32395372798E+02  0.68660300583E+02  0.00000000000E+00 0. -1.
         11    1    3    3    0    0 -0.40648122904E+02  0.11245490130E+02 -0.11854214281E+02  0.43809283720E+02  0.00000000000E+00 0.  1.
</event>
<event>
 7    1  0.5137842E-006  0.1791589E+03  0.7561462E-02  0.1168620E+00
          2   -1    0    0  501    0  0.00000000000E+00  0.00000000000E+00  0.40306034274E+03  0.40306034274E+03  0.00000000000E+00 0. -1.
         -2   -1    0    0    0  501 -0.00000000000E+00 -0.00000000000E+00 -0.91885313723E+02  0.91885313723E+02  0.00000000000E+00 0.  1.
         23    2    1    2    0    0 -0.13938069724E+03 -0.49187469761E+02  0.21582226488E+03  0.27910792354E+03  0.97342678298E+02 0.  0.
          5    1    1    2  502    0  0.18030023204E+02  0.56907122585E+02  0.69026265505E+02  0.91354255878E+02  0.41800000000E+01 0.  1.
         -5    1    1    2    0  502  0.12135067403E+03 -0.77196528240E+01  0.26326498628E+02  0.12448347705E+03  0.41800000000E+01 0.  1.
        -11    1    3    3    0    0 -0.78711797467E+02  0.23485226727E+02  0.94155324276E+02  0.12494930182E+03  0.00000000000E+00 0. -1.
         11    1    3    3    0    0 -0.60668899769E+02 -0.72672696487E+02  0.12166694061E+03  0.15415862172E+03  0.00000000000E+00 0.  1.
</event>
<event>
 7    1  0.5137842E-006  0.7943530E+02  0.7561462E-02  0.1330662E+00
          1   -1    0    0  501    0  0.00000000000E+00  0.00000000000E+00  0.24220326753E+02  0.24220326753E+02  0.00000000000E+00 0. -1.
         -1   -1    0    0    0  501 -0.00000000000E+00 -0.00000000000E+00 -0.57007220730E+03  0.57007220730E+03  0.00000000000E+00 0.  1.
         23    2    1    2    0    0  0.53715072173E+01 -0.56703060637E+02 -0.20550672430E+03  0.22723825950E+03  0.78486448975E+02 0.  0.
          5    1    1    2  502    0 -0.12909241183E+02  0.51930016816E+02 -0.34950457411E+03  0.35360188755E+03  0.41800000000E+01 0.  1.
         -5    1    1    2    0  502  0.75377339654E+01  0.47730438212E+01  0.91594178604E+01  0.13452387007E+02  0.41800000000E+01 0.  1.
        -11    1    3    3    0    0  0.17757047033E+02 -0.72856575681E+02 -0.17681184309E+03  0.19205681762E+03  0.00000000000E+00 0.  1.
         11    1    3    3    0    0 -0.12385539815E+02  0.16153515043E+02 -0.28694881208E+02  0.35181441874E+02  0.00000000000E+00 0. -1.
</event>
<event>
 7    1  0.5137842E-006  0.1144091E+03  0.7561462E-02  0.1252616E+00
         -2   -1    0    0    0  501 -0.00000000000E+00  0.00000000000E+00  0.26982468784E+03  0.26982468784E+03  0.00000000000E+00 0.  1.
          2   -1    0    0  501    0  0.00000000000E+00 -0.00000000000E+00 -0.12540487474E+03  0.12540487474E+03  0.00000000000E+00 0. -1.
         23    2    1    2    0    0  0.82047675825E+02 -0.29155457620E+02 -0.57021418926E+02  0.14262603382E+03  0.97513493885E+02 0.  0.
          5    1    1    2  502    0 -0.41662411337E+02  0.54307752415E+02  0.19205327283E+03  0.20392895943E+03  0.41800000000E+01 0.  1.
         -5    1    1    2    0  502 -0.40385264488E+02 -0.25152294795E+02  0.93879591964E+01  0.48674569327E+02  0.41800000000E+01 0.  1.
        -11    1    3    3    0    0  0.22667188915E+02  0.23837418062E+02 -0.53693352271E+02  0.62968246214E+02  0.00000000000E+00 0. -1.
         11    1    3    3    0    0  0.59380486910E+02 -0.52992875681E+02 -0.33280666550E+01  0.79657787606E+02  0.00000000000E+00 0.  1.
</event>
<event>
 7    1  0.5137842E-006  0.3323788E+03  0.7561462E-02  0.1070089E+00
          2   -1    0    0  501    0  0.00000000000E+00  0.00000000000E+00  0.60882459786E+03  0.60882459786E+03  0.00000000000E+00 0. -1.
         -2   -1    0    0    0  501 -0.00000000000E+00 -0.00000000000E+00 -0.20334325452E+03  0.20334325452E+03  0.00000000000E+00 0.  1.
         23    2    1    2    0    0 -0.28076778694E+02 -0.32861606575E+03  0.26365049424E+03  0.43198542261E+03  0.91230466741E+02 0.  0.
          5    1    1    2  502    0 -0.78097969726E+01  0.14765966678E+03  0.12716753228E+03  0.19507286790E+03  0.41800000000E+01 0. -1.
         -5    1    1    2    0  502  0.35886575667E+02  0.18095639896E+03  0.14663316816E+02  0.18510956188E+03  0.41800000000E+01 0. -1.
        -11    1    3    3    0    0 -0.27040694091E+02 -0.97337377897E+02  0.13077816875E+03  0.16525342264E+03  0.00000000000E+00 0. -1.
         11    1    3    3    0    0 -0.10360846027E+01 -0.23127868785E+03  0.13287232550E+03  0.26673199997E+03  0.00000000000E+00 0.  1.
</event>
<event>
 7    1  0.5137842E-006  0.2170366E+03  0.7561462E-02  0.1136112E+00
         -1   -1    0    0    0  501 -0.00000000000E+00  0.00000000000E+00  0.13317531824E+04  0.13317531824E+04  0.00000000000E+00 0.  1.
          1   -1    0    0  501    0  0.00000000000E+00 -0.00000000000E+00 -0.39168437839E+02  0.39168437839E+02  0.00000000000E+00 0. -1.
         23    2    1    2    0    0 -0.14465991533E+03  0.12691151645E+03  0.44117006957E+03  0.48911215792E+03  0.86986485327E+02 0.  0.
          5    1    1    2  502    0  0.12145400658E+03 -0.25759468968E+02  0.41423326307E+03  0.43245958724E+03  0.41800000000E+01 0.  1.
         -5    1    1    2    0  502  0.23205908755E+02 -0.10115204748E+03  0.43718141191E+03  0.44934987507E+03  0.41800000000E+01 0.  1.
        -11    1    3    3    0    0 -0.12644946309E+03  0.66465244915E+02  0.35176434901E+03  0.37966465826E+03  0.00000000000E+00 0.  1.
         11    1    3    3    0    0 -0.18210452243E+02  0.60446271534E+02  0.89405720569E+02  0.10944749967E+03  0.00000000000E+00 0. -1.
</event>
<event>
 7    1  0.5137842E-006  0.8756675E+02  0.7561462E-02  0.1308853E+00
         -2   -1    0    0    0  501 -0.00000000000E+00  0.00000000000E+00  0.11137235081E+03  0.11137235081E+03  0.00000000000E+00 0. -1.
          2   -1    0    0  501    0  0.00000000000E+00 -0.00000000000E+00 -0.14189790689E+03  0.14189790689E+03  0.00000000000E+00 0.  1.
         23    2    1    2    0    0 -0.10394300735E+02 -0.27422098214E+02 -0.67751600745E+02  0.11950721884E+03  0.93977034396E+02 0.  0.
          5    1    1    2  502    0 -0.36030795241E+02  0.79108764900E+01  0.65918239599E+02  0.75653730142E+02  0.41800000000E+01 0.  1.
         -5    1    1    2    0  502  0.46425095977E+02  0.19511221724E+02 -0.28692194927E+02  0.58109308715E+02  0.41800000000E+01 0.  1.
        -11    1    3    3    0    0  0.25523179549E+02  0.16762266560E+02 -0.52208571391E+02  0.60482569400E+02  0.00000000000E+00 0.  1.
         11    1    3    3    0    0 -0.35917480285E+02 -0.44184364773E+02 -0.15543029354E+02  0.59024649444E+02  0.00000000000E+00 0. -1.
</event>
<event>
 7    1  0.5137842E-006  0.2400289E+03  0.7561462E-02  0.1119774E+00
          4   -1    0    0  501    0  0.00000000000E+00  0.00000000000E+00  0.65001135863E+03  0.65001135863E+03  0.00000000000E+00 0. -1.
         -4   -1    0    0    0  501 -0.00000000000E+00 -0.00000000000E+00 -0.11012282384E+03  0.11012282384E+03  0.00000000000E+00 0.  1.
         23    2    1    2    0    0 -0.75812734639E+02  0.22138657904E+03  0.36238361020E+03  0.44089358617E+03  0.91135532433E+02 0.  0.
          5    1    1    2  502    0 -0.56909697678E+01 -0.71678896150E+02  0.11876554578E+03  0.13889916686E+03  0.41800000000E+01 0. -1.
         -5    1    1    2    0  502  0.81503704406E+02 -0.14970768289E+03  0.58739378811E+02  0.18034142944E+03  0.41800000000E+01 0. -1.
        -11    1    3    3    0    0 -0.24861761389E+02  0.13468535522E+03  0.27684435796E+03  0.30887060498E+03  0.00000000000E+00 0.  1.
         11    1    3    3    0    0 -0.50950973249E+02  0.86701223821E+02  0.85539252239E+02  0.13202298118E+03  0.00000000000E+00 0. -1.
</event>
<event>
 7    1  0.5137842E-006  0.1316232E+03  0.7561462E-02  0.1225067E+00
          1   -1    0    0  501    0  0.00000000000E+00  0.00000000000E+00  0.67216921334E+02  0.67216921334E+02  0.00000000000E+00 0. -1.
         -1   -1    0    0    0  501 -0.00000000000E+00 -0.00000000000E+00 -0.36224049111E+03  0.36224049111E+03  0.00000000000E+00 0.  1.
         23    2    1    2    0    0 -0.12959020543E+02 -0.10448021513E+03 -0.81692461709E+02  0.16067759677E+03  0.89775164919E+02 0.  0.
          5    1    1    2  502    0  0.10555695233E+02 -0.23720930158E+02 -0.77954636808E+02  0.82270912413E+02  0.41800000000E+01 0.  1.
         -5    1    1    2    0  502  0.24033253099E+01  0.12820114529E+03 -0.13537647126E+03  0.18650890326E+03  0.41800000000E+01 0.  1.
        -11    1    3    3    0    0 -0.21310430344E+02 -0.69522587695E+02 -0.97320266672E+02  0.12148563267E+03  0.00000000000E+00 0.  1.
         11    1    3    3    0    0  0.83514098013E+01 -0.34957627434E+02  0.15627804964E+02  0.39191964093E+02  0.00000000000E+00 0. -1.
</event>
<event>
 7    1  0.5137842E-006  0.1056078E+03  0.7561462E-02  0.1268927E+00
          1   -1    0    0  501    0  0.00000000000E+00  0.00000000000E+00  0.36575035850E+03  0.36575035850E+03  0.00000000000E+00 0. -1.
         -1   -1    0    0    0  501 -0.00000000000E+00 -0.00000000000E+00 -0.42111385123E+02  0.42111385123E+02  0.00000000000E+00 0.  1.
         23    2    1    2    0    0  0.19873498163E+01  0.22447668216E+02  0.23252929178E+03  0.25147568244E+03  0.93071477663E+02 0.  0.
          5    1    1    2  502    0 -0.77668661679E+01  0.46928606936E+02  0.88891102844E+01  0.48570639698E+02  0.41800000000E+01 0.  1.
         -5    1    1    2    0  502  0.57795163517E+01 -0.69376275152E+02  0.82220571312E+02  0.10781542149E+03  0.41800000000E+01 0.  1.
        -11    1    3    3    0    0  0.35029754171E+02  0.42497349234E+02  0.11036285751E+03  0.12334126919E+03  0.00000000000E+00 0.  1.
         11    1    3    3    0    0 -0.33042404355E+02 -0.20049681018E+02  0.12216643428E+03  0.12813441325E+03  0.00000000000E+00 0. -1.
</event>
<event>
 7    1  0.5137842E-006  0.7698422E+02  0.7561462E-02  0.1337834E+00
          4   -1    0    0  501    0  0.00000000000E+00  0.00000000000E+00  0.11331513040E+03  0.11331513040E+03  0.00000000000E+00 0. -1.
         -4   -1    0    0    0  501 -0.00000000000E+00 -0.00000000000E+00 -0.11367935899E+03  0.11367935899E+03  0.00000000000E+00 0.  1.
         23    2    1    2    0    0  0.28108926440E+02 -0.90845215838E+01  0.16009325156E+02  0.97425888731E+02  0.91448701604E+02 0.  0.
          5    1    1    2  502    0  0.38990702479E+01 -0.25074245172E+02  0.45262530510E+02  0.52058520800E+02  0.41800000000E+01 0.  1.
         -5    1    1    2    0  502 -0.32007996687E+02  0.34158766756E+02 -0.61636084255E+02  0.77510079864E+02  0.41800000000E+01 0.  1.
        -11    1    3    3    0    0  0.31193093888E+01  0.32547553582E+02 -0.18767808367E+02  0.37700185227E+02  0.00000000000E+00 0.  1.
         11    1    3    3    0    0  0.24989617051E+02 -0.41632075166E+02  0.34777133523E+02  0.59725703504E+02  0.00000000000E+00 0. -1.
</event>
<event>
 7    1  0.5137842E-006  0.1364753E+03  0.7561462E-02  0.1218152E+00
          1   -1    0    0  501    0  0.00000000000E+00  0.00000000000E+00  0.71096038180E+03  0.71096038180E+03  0.00000000000E+00 0. -1.
         -1   -1    0    0    0  501 -0.00000000000E+00 -0.00000000000E+00 -0.32113275555E+02  0.32113275555E+02  0.00000000000E+00 0.  1.
         23    2    1    2    0    0  0.83439635412E+02 -0.55677338342E+02  0.38482538187E+03  0.40818255240E+03  0.91979795554E+02 0.  0.
          5    1    1    2  502    0  0.24634385015E+02  0.40075951211E+02  0.57964215761E+02  0.74768024578E+02  0.41800000000E+01 0. -1.
         -5    1    1    2    0  502 -0.10807402043E+03  0.15601387131E+02  0.23605750861E+03  0.26012308037E+03  0.41800000000E+01 0. -1.
        -11    1    3    3    0    0  0.15590355355E+02 -0.45177781701E+02  0.62787234292E+02  0.78907084153E+02  0.00000000000E+00 0.  1.
         11    1    3    3    0    0  0.67849280057E+02 -0.10499556641E+02  0.32203814758E+03  0.32927546825E+03  0.00000000000E+00 0. -1.
</event>
<event>
 7    1  0.5137842E-006  0.8062513E+02  0.7561462E-02  0.1327287E+00
         -2   -1    0    0    0  501 -0.00000000000E+00  0.00000000000E+00  0.70760063509E+03  0.70760063509E+03  0.00000000000E+00 0.  1.
          2   -1    0    0  501    0  0.00000000000E+00 -0.00000000000E+00 -0.16841004277E+02  0.16841004277E+02  0.00000000000E+00 0. -1.
         23    2    1    2    0    0  0.14180671162E+02  0.19218562799E-01  0.27086508352E+03  0.28608163655E+03  0.90959977430E+02 0.  0.
          5    1    1    2  502    0 -0.31286540537E+02  0.24311825190E+02  0.37264527236E+02  0.54553000403E+02  0.41800000000E+01 0. -1.
         -5    1    1    2    0  502  0.17105869375E+02 -0.24331043753E+02  0.38263002005E+03  0.38380700241E+03  0.41800000000E+01 0. -1.
        -11    1    3    3    0    0 -0.23455839939E+02  0.33570698202E+02  0.13893558045E+03  0.14484565482E+03  0.00000000000E+00 0. -1.
         11    1    3    3    0    0  0.37636511100E+02 -0.33551479640E+02  0.13192950307E+03  0.14123598173E+03  0.00000000000E+00 0.  1.
</event>
<event>
 7    1  0.5137842E-006  0.1021447E+03  0.7561462E-02  0.1275850E+00
          1   -1    0    0  501    0  0.00000000000E+00  0.00000000000E+00  0.59956676180E+02  0.59956676180E+02  0.00000000000E+00 0. -1.
         -1   -1    0    0    0  501 -0.00000000000E+00 -0.00000000000E+00 -0.21281697219E+03  0.21281697219E+03  0.00000000000E+00 0.  1.
         23    2    1    2    0    0 -0.26552344901E+02  0.11264480107E+02 -0.47403670207E+02  0.10663973159E+03  0.91065958911E+02 0.  0.
          5    1    1    2  502    0 -0.32475465200E+02  0.38702575193E+02 -0.46587329574E+02  0.68850539891E+02  0.41800000000E+01 0. -1.
         -5    1    1    2    0  502  0.59027810101E+02 -0.49967055300E+02 -0.58869296227E+02  0.97283376889E+02  0.41800000000E+01 0. -1.
        -11    1    3    3    0    0  0.19611353623E+02  0.21246178271E+02 -0.51677451835E+02  0.59216250390E+02  0.00000000000E+00 0.  1.
         11    1    3    3    0    0 -0.46163698524E+02 -0.99816981638E+01  0.42737816275E+01  0.47423481199E+02  0.00000000000E+00 0. -1.
</event>
<event>
 7    1  0.5137842E-006  0.1040097E+03  0.7561462E-02  0.1272083E+00
          1   -1    0    0  501    0  0.00000000000E+00  0.00000000000E+00  0.25849941554E+03  0.25849941554E+03  0.00000000000E+00 0.  1.
         -1   -1    0    0    0  501 -0.00000000000E+00 -0.00000000000E+00 -0.95001822877E+02  0.95001822877E+02  0.00000000000E+00 0. -1.
         23    2    1    2    0    0  0.56895517329E+02 -0.18267360433E+02  0.18321864681E+03  0.21347486298E+03  0.91824006862E+02 0.  0.
          5    1    1    2  502    0 -0.75138130153E+02  0.28404630049E+02  0.30072671261E+02  0.85874324264E+02  0.41800000000E+01 0.  1.
         -5    1    1    2    0  502  0.18242612824E+02 -0.10137269616E+02 -0.49793725400E+02  0.54152051181E+02  0.41800000000E+01 0.  1.
        -11    1    3    3    0    0 -0.21873470590E+02  0.79613151799E+01  0.21482791383E+02  0.31675567567E+02  0.00000000000E+00 0. -1.
         11    1    3    3    0    0  0.78768987919E+02 -0.26228675613E+02  0.16173585542E+03  0.18179929541E+03  0.00000000000E+00 0.  1.
</event>
<event>
 7    1  0.5137842E-006  0.9048076E+02  0.7561462E-02  0.1301692E+00
         -1   -1    0    0    0  501 -0.00000000000E+00  0.00000000000E+00  0.69795482582E+02  0.69795482582E+02  0.00000000000E+00 0.  1.
          1   -1    0    0  501    0  0.00000000000E+00 -0.00000000000E+00 -0.20334528239E+03  0.20334528239E+03  0.00000000000E+00 0. -1.
         23    2    1    2    0    0 -0.30136308645E+02 -0.16807229887E+02 -0.97858367487E+02  0.13855849943E+03  0.91823295523E+02 0.  0.
          5    1    1    2  502    0 -0.68351602608E+00 -0.45247748261E+02 -0.45701877938E+02  0.64451221586E+02  0.41800000000E+01 0.  1.
         -5    1    1    2    0  502  0.30819824671E+02  0.62054978148E+02  0.10010445616E+02  0.70131043962E+02  0.41800000000E+01 0.  1.
        -11    1    3    3    0    0 -0.45728262600E+02 -0.39588072531E+01 -0.81675938837E+01  0.46620336176E+02  0.00000000000E+00 0.  1.
         11    1    3    3    0    0  0.15591953955E+02 -0.12848422633E+02 -0.89690773604E+02  0.91938163251E+02  0.00000000000E+00 0. -1.
</event>
<event>
 7    1  0.5137842E-006  0.1008442E+03  0.7561462E-02  0.1278531E+00
         -1   -1    0    0    0  501 -0.00000000000E+00  0.00000000000E+00  0.49647107528E+03  0.49647107528E+03  0.00000000000E+00 0.  1.
          1   -1    0    0  501    0  0.00000000000E+00 -0.00000000000E+00 -0.31237809814E+02  0.31237809814E+02  0.00000000000E+00 0. -1.
         23    2    1    2    0    0  0.13259236129E+02 -0.56801160203E+02  0.11318845085E+03  0.15312522417E+03  0.85050160071E+02 0.  0.
          5    1    1    2  502    0  0.21898683390E+02 -0.22960737307E+02  0.43945158074E+02  0.54363564177E+02  0.41800000000E+01 0. -1.
         -5    1    1    2    0  502 -0.35157919519E+02  0.79761897510E+02  0.30809965655E+03  0.32022009675E+03  0.41800000000E+01 0.  1.
        -11    1    3    3    0    0 -0.30388270339E+01  0.11656944028E+02  0.68970559323E+02  0.70014690367E+02  0.00000000000E+00 0.  1.
         11    1    3    3    0    0  0.16298063162E+02 -0.68458104232E+02  0.44217891523E+02  0.83110533800E+02  0.00000000000E+00 0. -1.
</event>
<event>
 7    1  0.5137842E-006  0.1994292E+03  0.7561462E-02  0.1150221E+00
          1   -1    0    0  501    0  0.00000000000E+00  0.00000000000E+00  0.49954924704E+03  0.49954924704E+03  0.00000000000E+00 0. -1.
         -1   -1    0    0    0  501 -0.00000000000E+00 -0.00000000000E+00 -0.84873600198E+02  0.84873600198E+02  0.00000000000E+00 0.  1.
         23    2    1    2    0    0  0.13887624439E+03  0.10099492492E+03  0.16632358990E+03  0.25759895711E+03  0.95953634797E+02 0.  0.
          5    1    1    2  502    0  0.15995892827E+02 -0.44617221927E+02  0.56006631208E+02  0.73490000811E+02  0.41800000000E+01 0.  1.
         -5    1    1    2    0  502 -0.15487213721E+03 -0.56377702991E+02  0.19234542573E+03  0.25333388932E+03  0.41800000000E+01 0.  1.
        -11    1    3    3    0    0  0.18915333420E+02 -0.11347077328E+02 -0.22430761399E+01  0.22171544666E+02  0.00000000000E+00 0.  1.
         11    1    3    3    0    0  0.11996091096E+03  0.11234200225E+03  0.16856666604E+03  0.23542741244E+03  0.00000000000E+00 0. -1.
</event>
<event>
 7    1  0.5137842E-006  0.1482601E+03  0.7561462E-02  0.1202627E+00
          2   -1    0    0  501    0  0.00000000000E+00  0.00000000000E+00  0.14208907109E+04  0.14208907109E+04  0.00000000000E+00 0. -1.
         -2   -1    0    0    0  501 -0.00000000000E+00 -0.00000000000E+00 -0.20943482561E+02  0.20943482561E+02  0.00000000000E+00 0.  1.
         23    2    1    2    0    0 -0.11027885217E+03  0.67310447722E+02  0.80402330127E+03  0.81936679926E+03  0.90644145675E+02 0.  0.
          5    1    1    2  502    0  0.64533021724E+02 -0.90686922670E+01  0.48277701103E+03  0.48717334374E+03  0.41800000000E+01 0.  1.
         -5    1    1    2    0  502  0.45745830443E+02 -0.58241755455E+02  0.11314691609E+03  0.13529405050E+03  0.41800000000E+01 0.  1.
        -11    1    3    3    0    0 -0.91597407817E+02  0.47155436729E+01  0.42874629271E+03  0.43844692379E+03  0.00000000000E+00 0.  1.
         11    1    3    3    0    0 -0.18681444349E+02  0.62594904049E+02  0.37527700856E+03  0.38091987547E+03  0.00000000000E+00 0. -1.
</event>
<event>
 7    1  0.5137842E-006  0.1049115E+03  0.7561462E-02  0.1270294E+00
         -1   -1    0    0    0  501 -0.00000000000E+00  0.00000000000E+00  0.45604586412E+03  0.45604586412E+03  0.00000000000E+00 0.  1.
          1   -1    0    0  501    0  0.00000000000E+00 -0.00000000000E+00 -0.33804627189E+02  0.33804627189E+02  0.00000000000E+00 0. -1.
         23    2    1    2    0    0 -0.50545043596E+02 -0.33564866828E+02  0.17005367858E+03  0.20188123800E+03  0.90312673201E+02 0.  0.
          5    1    1    2  502    0 -0.14772302776E+02  0.36788972363E+02  0.16161788919E+02  0.43015406983E+02  0.41800000000E+01 0.  1.
         -5    1    1    2    0  502  0.65317346373E+02 -0.32241055353E+01  0.23602576943E+03  0.24495384632E+03  0.41800000000E+01 0.  1.
        -11    1    3    3    0    0 -0.16423176713E+02 -0.59400842332E+02  0.71249379274E+02  0.94205386523E+02  0.00000000000E+00 0. -1.
         11    1    3    3    0    0 -0.34121866884E+02  0.25835975504E+02  0.98804299309E+02  0.10767585148E+03  0.00000000000E+00 0.  1.
</event>
<event>
 7    1  0.5137842E-006  0.9716107E+02  0.7561462E-02  0.1286382E+00
         -3   -1    0    0    0  501 -0.00000000000E+00  0.00000000000E+00  0.66317948768E+02  0.66317948768E+02  0.00000000000E+00 0.  1.
          3   -1    0    0  501    0  0.00000000000E+00 -0.00000000000E+00 -0.24150494063E+03  0.24150494063E+03  0.00000000000E+00 0. -1.
         23    2    1    2    0    0 -0.64383982551E+02 -0.75875070724E+01 -0.11286936114E+03  0.15376781230E+03  0.81866842757E+02 0.  0.
          5    1    1    2  502    0  0.40572800033E+02  0.34715948105E+02 -0.92453154418E+02  0.10684758920E+03  0.41800000000E+01 0.  1.
         -5    1    1    2    0  502  0.23811182518E+02 -0.27128441033E+02  0.30135523694E+02  0.47207487903E+02  0.41800000000E+01 0.  1.
        -11    1    3    3    0    0 -0.26015908507E+02  0.37234257239E+02 -0.48452056602E+02  0.66413998499E+02  0.00000000000E+00 0. -1.
         11    1    3    3    0    0 -0.38368074044E+02 -0.44821764312E+02 -0.64417304540E+02  0.87353813804E+02  0.00000000000E+00 0.  1.
</event>
<event>
 7    1  0.5137842E-006  0.8783410E+02  0.7561462E-02  0.1308183E+00
          2   -1    0    0  501    0  0.00000000000E+00  0.00000000000E+00  0.91365415965E+02  0.91365415965E+02  0.00000000000E+00 0. -1.
         -2   -1    0    0    0  501 -0.00000000000E+00 -0.00000000000E+00 -0.16905507688E+03  0.16905507688E+03  0.00000000000E+00 0.  1.
         23    2    1    2    0    0 -0.40006190324E+02  0.17574527223E+02 -0.78719915013E+01  0.11065824473E+03  0.10136034533E+03 0.  0.
          5    1    1    2  502    0 -0.24037560047E+02  0.30456705187E+02 -0.56247072035E+02  0.68458897862E+02  0.41800000000E+01 0. -1.
         -5    1    1    2    0  502  0.64043750371E+02 -0.48031232410E+02 -0.13570597375E+02  0.81303350248E+02  0.41800000000E+01 0. -1.
        -11    1    3    3    0    0 -0.41823495903E+02  0.31492376077E+01 -0.50484339749E+02  0.65633764687E+02  0.00000000000E+00 0.  1.
         11    1    3    3    0    0  0.18173055794E+01  0.14425289615E+02  0.42612348248E+02  0.45024480044E+02  0.00000000000E+00 0. -1.
</event>
<event>
 7    1  0.5137842E-006  0.1079333E+03  0.7561462E-02  0.1264446E+00
          1   -1    0    0  501    0  0.00000000000E+00  0.00000000000E+00  0.44206544711E+03  0.44206544711E+03  0.00000000000E+00 0. -1.
         -1   -1    0    0    0  501 -0.00000000000E+00 -0.00000000000E+00 -0.27614764033E+02  0.27614764033E+02  0.00000000000E+00 0.  1.
         23    2    1    2    0    0 -0.13728203387E+02  0.38638626460E+02  0.19943259476E+03  0.21756443314E+03  0.76678000047E+02 0.  0.
          5    1    1    2  502    0 -0.28299255074E+02  0.35032741022E+02  0.93521117495E+02  0.10388364933E+03  0.41800000000E+01 0.  1.
         -5    1    1    2    0  502  0.42027458461E+02 -0.73671367482E+02  0.12149697082E+03  0.14823212867E+03  0.41800000000E+01 0.  1.
        -11    1    3    3    0    0 -0.20821770846E+02  0.59841788975E+02  0.16217670141E+03  0.17411452647E+03  0.00000000000E+00 0. -1.
         11    1    3    3    0    0  0.70935674584E+01 -0.21203162514E+02  0.37255893351E+02  0.43449906666E+02  0.00000000000E+00 0.  1.
</event>
<event>
 7    1  0.5137842E-006  0.5892437E+02  0.7561462E-02  0.1402402E+00
         -1   -1    0    0    0  501 -0.00000000000E+00  0.00000000000E+00  0.19960482841E+03  0.19960482841E+03  0.00000000000E+00 0.  1.
          1   -1    0    0  501    0  0.00000000000E+00 -0.00000000000E+00 -0.66705406634E+02  0.66705406634E+02  0.00000000000E+00 0. -1.
         23    2    1    2    0    0  0.35681823468E+02  0.12242004288E+02  0.66390055827E+02  0.11970140191E+03  0.92183116201E+02 0.  0.
          5    1    1    2  502    0 -0.13047172784E+02  0.25903898472E+02  0.91116438299E+02  0.95712686735E+02  0.41800000000E+01 0.  1.
         -5    1    1    2    0  502 -0.22634650684E+02 -0.38145902760E+02 -0.24607072345E+02  0.50896146400E+02  0.41800000000E+01 0.  1.
        -11    1    3    3    0    0  0.17291034536E+02  0.17764778906E+02 -0.19594235998E+02  0.31599071652E+02  0.00000000000E+00 0. -1.
         11    1    3    3    0    0  0.18390788932E+02 -0.55227746181E+01  0.85984291825E+02  0.88102330263E+02  0.00000000000E+00 0.  1.
</event>
<event>
 7    1  0.5137842E-006  0.1269759E+03  0.7561462E-02  0.1232013E+00
          2   -1    0    0  501    0  0.00000000000E+00  0.00000000000E+00  0.13380290020E+03  0.13380290020E+03  0.00000000000E+00 0. -1.
         -2   -1    0    0    0  501 -0.00000000000E+00 -0.00000000000E+00 -0.15401448353E+03  0.15401448353E+03  0.00000000000E+00 0.  1.
         23    2    1    2    0    0  0.58182962876E+02 -0.73467956515E+02 -0.45052840175E+01  0.13072807846E+03  0.91031506142E+02 0.  0.
          5    1    1    2  502    0 -0.60459181494E+02 -0.16793880234E+02 -0.21642690641E+02  0.66507334170E+02  0.41800000000E+01 0. -1.
         -5    1    1    2    0  502  0.22762186178E+01  0.90261836749E+02  0.59363913289E+01  0.90581971090E+02  0.41800000000E+01 0. -1.
        -11    1    3    3    0    0  0.26218534672E+02 -0.60948469050E+02 -0.43066516502E+02  0.79100267278E+02  0.00000000000E+00 0.  1.
         11    1    3    3    0    0  0.31964428204E+02 -0.12519487465E+02  0.38561232484E+02  0.51627811183E+02  0.00000000000E+00 0. -1.
</event>
<event>
 7    1  0.5137842E-006  0.1250012E+03  0.7561462E-02  0.1235067E+00
          2   -1    0    0  501    0  0.00000000000E+00  0.00000000000E+00  0.38644816636E+03  0.38644816636E+03  0.00000000000E+00 0. -1.
         -2   -1    0    0    0  501 -0.00000000000E+00 -0.00000000000E+00 -0.59284327267E+02  0.59284327267E+02  0.00000000000E+00 0.  1.
         23    2    1    2    0    0 -0.25888259216E+01 -0.11139201436E+03  0.18387327247E+03  0.23342080456E+03  0.90890091826E+02 0.  0.
          5    1    1    2  502    0 -0.16744220565E+02  0.74325183760E+02  0.15138282234E+03  0.16952531717E+03  0.41800000000E+01 0. -1.
         -5    1    1    2    0  502  0.19333046487E+02  0.37066830600E+02 -0.80922557118E+01  0.42786371892E+02  0.41800000000E+01 0.  1.
        -11    1    3    3    0    0 -0.63065579096E+01  0.91355349353E+01  0.58213828283E+02  0.59262808528E+02  0.00000000000E+00 0. -1.
         11    1    3    3    0    0  0.37177319880E+01 -0.12052754930E+03  0.12565944418E+03  0.17415799603E+03  0.00000000000E+00 0.  1.
</event>
<event>
 7    1  0.5137842E-006  0.1650947E+03  0.7561462E-02  0.1183062E+00
         -1   -1    0    0    0  501 -0.00000000000E+00  0.00000000000E+00  0.52826295829E+02  0.52826295829E+02  0.00000000000E+00 0.  1.
          1   -1    0    0  501    0  0.00000000000E+00 -0.00000000000E+00 -0.61185320017E+03  0.61185320017E+03  0.00000000000E+00 0. -1.
         23    2    1    2    0    0 -0.10395662228E+03 -0.88921565980E+02 -0.34158976988E+03  0.37895192011E+03  0.90592288059E+02 0.  0.
          5    1    1    2  502    0  0.50087829321E+02  0.11386637624E+03 -0.13016773344E+03  0.18009845505E+03  0.41800000000E+01 0.  1.
         -5    1    1    2    0  502  0.53868792960E+02 -0.24944810259E+02 -0.87269401025E+02  0.10562912084E+03  0.41800000000E+01 0.  1.
        -11    1    3    3    0    0 -0.47311015995E+02 -0.88530989860E+01 -0.20635862740E+03  0.21189759956E+03  0.00000000000E+00 0. -1.
         11    1    3    3    0    0 -0.56645606286E+02 -0.80068466994E+02 -0.13523114248E+03  0.16705432055E+03  0.00000000000E+00 0.  1.
</event>
<event>
 7    1  0.5137842E-006  0.1098189E+03  0.7561462E-02  0.1260906E+00
         -1   -1    0    0    0  501 -0.00000000000E+00  0.00000000000E+00  0.95299089838E+02  0.95299089838E+02  0.00000000000E+00 0.  1.
          1   -1    0    0  501    0  0.00000000000E+00 -0.00000000000E+00 -0.13846556685E+03  0.13846556685E+03  0.00000000000E+00 0. -1.
         23    2    1    2    0    0  0.33148487155E+02  0.10659238817E+02 -0.31156361226E+02  0.10336349621E+03  0.92200064703E+02 0.  0.
          5    1    1    2  502    0 -0.24980576308E+02  0.56520028550E+02 -0.30732938773E+01  0.62011775940E+02  0.41800000000E+01 0. -1.
         -5    1    1    2    0  502 -0.81679108469E+01 -0.67179267367E+02 -0.89368219090E+01  0.68389384537E+02  0.41800000000E+01 0. -1.
        -11    1    3    3    0    0 -0.16953421212E+02 -0.23705881045E+02  0.90410339749E+01  0.30514383203E+02  0.00000000000E+00 0.  1.
         11    1    3    3    0    0  0.50101908367E+02  0.34365119862E+02 -0.40197395201E+02  0.72849113008E+02  0.00000000000E+00 0. -1.
</event>
<event>
 7    1  0.5137842E-006  0.1151145E+03  0.7561462E-02  0.1251381E+00
         -1   -1    0    0    0  501 -0.00000000000E+00  0.00000000000E+00  0.24499287270E+03  0.24499287270E+03  0.00000000000E+00 0.  1.
          1   -1    0    0  501    0  0.00000000000E+00 -0.00000000000E+00 -0.55990921138E+02  0.55990921138E+02  0.00000000000E+00 0. -1.
         23    2    1    2    0    0  0.13266935163E+02  0.43799058791E+02  0.92569904761E+02  0.13657934607E+03  0.89388821371E+02 0.  0.
          5    1    1    2  502    0  0.10806705185E+02 -0.84312322624E+02  0.70107401748E+02  0.11026274440E+03  0.41800000000E+01 0.  1.
         -5    1    1    2    0  502 -0.24073640348E+02  0.40513263834E+02  0.26324645050E+02  0.54141703363E+02  0.41800000000E+01 0.  1.
        -11    1    3    3    0    0  0.49533143583E+02  0.15786003205E+02  0.33613864733E+02  0.61908174846E+02  0.00000000000E+00 0. -1.
         11    1    3    3    0    0 -0.36266208420E+02  0.28013055585E+02  0.58956040028E+02  0.74671171225E+02  0.00000000000E+00 0.  1.
</event>
<event>
 7    1  0.5137842E-006  0.9819870E+02  0.7561462E-02  0.1284130E+00
         -1   -1    0    0    0  501 -0.00000000000E+00  0.00000000000E+00  0.16716703460E+03  0.16716703460E+03  0.00000000000E+00 0.  1.
          1   -1    0    0  501    0  0.00000000000E+00 -0.00000000000E+00 -0.74918098347E+02  0.74918098347E+02  0.00000000000E+00 0. -1.
         23    2    1    2    0    0  0.79244170894E+01 -0.16418116523E+01 -0.32157934787E+01  0.84520320068E+02  0.84070513529E+02 0.  0.
          5    1    1    2  502    0  0.32747451889E+02  0.42728556753E+02  0.81796167396E+02  0.98011277759E+02  0.41800000000E+01 0.  1.
         -5    1    1    2    0  502 -0.40671868979E+02 -0.41086745101E+02  0.13668562338E+02  0.59553535122E+02  0.41800000000E+01 0.  1.
        -11    1    3    3    0    0  0.20057449397E+02 -0.39706976556E+02 -0.26511864851E+01  0.44564268796E+02  0.00000000000E+00 0.  1.
         11    1    3    3    0    0 -0.12133032308E+02  0.38065164904E+02 -0.56460699363E+00  0.39956051271E+02  0.00000000000E+00 0. -1.
</event>
<event>
 7    1  0.5137842E-006  0.1342347E+03  0.7561462E-02  0.1221304E+00
         -1   -1    0    0    0  501 -0.00000000000E+00  0.00000000000E+00  0.45333858586E+02  0.45333858586E+02  0.00000000000E+00 0.  1.
          1   -1    0    0  501    0  0.00000000000E+00 -0.00000000000E+00 -0.45791694005E+03  0.45791694005E+03  0.00000000000E+00 0. -1.
         23    2    1    2    0    0  0.53744548665E+02 -0.73324378346E+02 -0.23201432267E+03  0.26551656585E+03  0.91670386955E+02 0.  0.
          5    1    1    2  502    0 -0.78630752532E+02  0.88007441555E+02 -0.16934792309E+03  0.20645652440E+03  0.41800000000E+01 0.  1.
         -5    1    1    2    0  502  0.24886203867E+02 -0.14683063208E+02 -0.11220835701E+02  0.31277708386E+02  0.41800000000E+01 0.  1.
        -11    1    3    3    0    0 -0.18186030924E+02  0.38697277933E+00 -0.79015627625E+02  0.81082370943E+02  0.00000000000E+00 0.  1.
         11    1    3    3    0    0  0.71930579589E+02 -0.73711351126E+02 -0.15299869505E+03  0.18443419491E+03  0.00000000000E+00 0. -1.
</event>
<event>
 7    1  0.5137842E-006  0.1082507E+03  0.7561462E-02  0.1263844E+00
         -2   -1    0    0    0  501 -0.00000000000E+00  0.00000000000E+00  0.35568101187E+02  0.35568101187E+02  0.00000000000E+00 0.  1.
          2   -1    0    0  501    0  0.00000000000E+00 -0.00000000000E+00 -0.42683131658E+03  0.42683131658E+03  0.00000000000E+00 0. -1.
         23    2    1    2    0    0  0.55815347297E+02 -0.55690997979E+01 -0.21255222035E+03  0.23716162467E+03  0.88998999849E+02 0.  0.
          5    1    1    2  502    0 -0.51729690291E+02 -0.51966872496E+02 -0.66853293028E+02  0.99314409243E+02  0.41800000000E+01 0. -1.
         -5    1    1    2    0  502 -0.40856570060E+01  0.57535972294E+02 -0.11185770202E+03  0.12592338385E+03  0.41800000000E+01 0. -1.
        -11    1    3    3    0    0  0.44402160241E+02 -0.33126744250E+02 -0.59768700265E+02  0.81493745466E+02  0.00000000000E+00 0.  1.
         11    1    3    3    0    0  0.11413187056E+02  0.27557644453E+02 -0.15278352008E+03  0.15566787920E+03  0.00000000000E+00 0. -1.
</event>
<event>
 7    1  0.5137842E-006  0.5818056E+02  0.7561462E-02  0.1405630E+00
         -2   -1    0    0    0  501 -0.00000000000E+00  0.00000000000E+00  0.40113830351E+03  0.40113830351E+03  0.00000000000E+00 0.  1.
          2   -1    0    0  501    0  0.00000000000E+00 -0.00000000000E+00 -0.50221075557E+02  0.50221075557E+02  0.00000000000E+00 0. -1.
         23    2    1    2    0    0 -0.34363619887E+02 -0.23477871329E+02  0.31152650469E+02  0.10548761445E+03  0.91788236488E+02 0.  0.
          5    1    1    2  502    0  0.41273348891E+02  0.41791727500E+01  0.21568615670E+02  0.46942863094E+02  0.41800000000E+01 0. -1.
         -5    1    1    2    0  502 -0.69097290045E+01  0.19298698579E+02  0.29819596181E+03  0.29892890152E+03  0.41800000000E+01 0. -1.
        -11    1    3    3    0    0 -0.27232029107E+02  0.19844501509E+01  0.60263434466E+02  0.66160433684E+02  0.00000000000E+00 0.  1.
         11    1    3    3    0    0 -0.71315907799E+01 -0.25462321480E+02 -0.29110783997E+02  0.39327180768E+02  0.00000000000E+00 0. -1.
</event>
<event>
 7    1  0.5137842E-006  0.2951229E+03  0.7561462E-02  0.1087704E+00
         -3   -1    0    0    0  501 -0.00000000000E+00  0.00000000000E+00  0.15595692769E+03  0.15595692769E+03  0.00000000000E+00 0.  1.
          3   -1    0    0  501    0  0.00000000000E+00 -0.00000000000E+00 -0.58779214824E+03  0.58779214824E+03  0.00000000000E+00 0. -1.
         23    2    1    2    0    0  0.57339530086E+02  0.27627155685E+03 -0.19821181803E+03  0.35667821055E+03  0.91201021039E+02 0.  0.
          5    1    1    2  502    0  0.82182777493E+00 -0.20361870841E+03 -0.10756182529E+03  0.23032210592E+03  0.41800000000E+01 0. -1.
         -5    1    1    2    0  502 -0.58161357861E+02 -0.72652848447E+02 -0.12606157724E+03  0.15674875946E+03  0.41800000000E+01 0. -1.
        -11    1    3    3    0    0 -0.20670407336E+02  0.51151355647E+02 -0.18296615555E+02  0.58124805933E+02  0.00000000000E+00 0.  1.
         11    1    3    3    0    0  0.78009937422E+02  0.22512020121E+03 -0.17991520247E+03  0.29855340462E+03  0.00000000000E+00 0. -1.
</event>
<event>
 7    1  0.5137842E-006  0.2029737E+03  0.7561462E-02  0.1147254E+00
          2   -1    0    0  501    0  0.00000000000E+00  0.00000000000E+00  0.38845304298E+03  0.38845304298E+03  0.00000000000E+00 0. -1.
         -2   -1    0    0    0  501 -0.00000000000E+00 -0.00000000000E+00 -0.15894944559E+03  0.15894944559E+03  0.00000000000E+00 0.  1.
         23    2    1    2    0    0  0.45287928018E+02  0.19237760369E+03  0.22577695161E+03  0.31347671779E+03  0.90731923212E+02 0.  0.
          5    1    1    2  502    0 -0.43372644647E+02 -0.56069344440E+02 -0.50520203870E+02  0.87147696978E+02  0.41800000000E+01 0.  1.
         -5    1    1    2    0  502 -0.19152833709E+01 -0.13630825925E+03  0.54246849652E+02  0.14677807380E+03  0.41800000000E+01 0.  1.
        -11    1    3    3    0    0  0.55694710051E+01  0.62217830321E+02  0.17834311102E+02  0.64962605164E+02  0.00000000000E+00 0.  1.
         11    1    3    3    0    0  0.39718457013E+02  0.13015977337E+03  0.20794264051E+03  0.24851411262E+03  0.00000000000E+00 0. -1.
</event>
<event>
 7    1  0.5137842E-006  0.1054281E+03  0.7561462E-02  0.1269279E+00
         -1   -1    0    0    0  501 -0.00000000000E+00  0.00000000000E+00  0.74908345130E+03  0.74908345130E+03  0.00000000000E+00 0.  1.
          1   -1    0    0  501    0  0.00000000000E+00 -0.00000000000E+00 -0.17234477771E+02  0.17234477771E+02  0.00000000000E+00 0. -1.
         23    2    1    2    0    0  0.33608757937E+02  0.25843631760E+02  0.25381227475E+03  0.27037043089E+03  0.82958165206E+02 0.  0.
          5    1    1    2  502    0  0.44832289720E+02 -0.20014887916E+02  0.24657121119E+03  0.25144654408E+03  0.41800000000E+01 0. -1.
         -5    1    1    2    0  502 -0.78441047657E+02 -0.58287438444E+01  0.23146548759E+03  0.24450095411E+03  0.41800000000E+01 0. -1.
        -11    1    3    3    0    0 -0.19634140170E+02  0.21917230118E+02  0.38046252910E+02  0.48097627767E+02  0.00000000000E+00 0. -1.
         11    1    3    3    0    0  0.53242898107E+02  0.39264016417E+01  0.21576602184E+03  0.22227280312E+03  0.00000000000E+00 0.  1.
</event>
<event>
 7    1  0.5137842E-006  0.1846570E+03  0.7561462E-02  0.1163371E+00
         -2   -1    0    0    0  501 -0.00000000000E+00  0.00000000000E+00  0.33165183347E+03  0.33165183347E+03  0.00000000000E+00 0.  1.
          2   -1    0    0  501    0  0.00000000000E+00 -0.00000000000E+00 -0.10957004778E+03  0.10957004778E+03  0.00000000000E+00 0. -1.
         23    2    1    2    0    0 -0.42130782217E+02  0.14277855410E+03  0.53083071093E+02  0.18360024533E+03  0.93437248076E+02 0.  0.
          5    1    1    2  502    0  0.77315851873E+01 -0.15616672876E+03  0.14576802084E+03  0.21380742008E+03  0.41800000000E+01 0. -1.
         -5    1    1    2    0  502  0.34399197030E+02  0.13388174665E+02  0.23230693758E+02  0.43814215840E+02  0.41800000000E+01 0. -1.
        -11    1    3    3    0    0  0.16473957406E+02  0.10441519823E+03  0.31094750178E+02  0.11018533652E+03  0.00000000000E+00 0. -1.
         11    1    3    3    0    0 -0.58604739623E+02  0.38363355867E+02  0.21988320916E+02  0.73414908815E+02  0.00000000000E+00 0.  1.
</event>
<event>
 7    1  0.5137842E-006  0.1594907E+03  0.7561462E-02  0.1189273E+00
         -1   -1    0    0    0  501 -0.00000000000E+00  0.00000000000E+00  0.54343868893E+02  0.54343868893E+02  0.00000000000E+00 0.  1.
          1   -1    0    0  501    0  0.00000000000E+00 -0.00000000000E+00 -0.81113874239E+03  0.81113874239E+03  0.00000000000E+00 0. -1.
         23    2    1    2    0    0 -0.13726914222E+03 -0.53785857253E+02 -0.57334488560E+03  0.59895509640E+03  0.91033586205E+02 0.  0.
          5    1    1    2  502    0  0.17479646060E+02  0.10172456716E+02 -0.12416815530E+03  0.12587382608E+03  0.41800000000E+01 0. -1.
         -5    1    1    2    0  502  0.11978949616E+03  0.43613400537E+02 -0.59281832602E+02  0.14065368880E+03  0.41800000000E+01 0. -1.
        -11    1    3    3    0    0 -0.16374346432E+02 -0.46913941876E+02 -0.21634978627E+03  0.22198258306E+03  0.00000000000E+00 0.  1.
         11    1    3    3    0    0 -0.12089479579E+03 -0.68719153768E+01 -0.35699509933E+03  0.37697251334E+03  0.00000000000E+00 0. -1.
</event>
<event>
 7    1  0.5137842E-006  0.1051991E+03  0.7561462E-02  0.1269728E+00
          4   -1    0    0  501    0  0.00000000000E+00  0.00000000000E+00  0.68841689405E+02  0.68841689405E+02  0.00000000000E+00 0. -1.
         -4   -1    0    0    0  501 -0.00000000000E+00 -0.00000000000E+00 -0.18824977097E+03  0.18824977097E+03  0.00000000000E+00 0.  1.
         23    2    1    2    0    0  0.11916950424E+01 -0.50212920097E+01 -0.12458391097E+02  0.92519540246E+02  0.91531526307E+02 0.  0.
          5    1    1    2  502    0  0.57102703787E+02  0.20234169103E+02 -0.74168065443E+02  0.95856740559E+02  0.41800000000E+01 0.  1.
         -5    1    1    2    0  502 -0.58294398829E+02 -0.15212877093E+02 -0.32781625029E+02  0.68715179574E+02  0.41800000000E+01 0.  1.
        -11    1    3    3    0    0  0.43224805104E+02  0.10485855472E+02 -0.16714646934E+02  0.47515432897E+02  0.00000000000E+00 0.  1.
         11    1    3    3    0    0 -0.42033110062E+02 -0.15507147482E+02  0.42562558376E+01  0.45004107349E+02  0.00000000000E+00 0. -1.
</event>
<event>
 7    1  0.5137842E-006  0.1172905E+03  0.7561462E-02  0.1247635E+00
         -1   -1    0    0    0  501 -0.00000000000E+00  0.00000000000E+00  0.67244160898E+02  0.67244160898E+02  0.00000000000E+00 0.  1.
          1   -1    0    0  501    0  0.00000000000E+00 -0.00000000000E+00 -0.29027412011E+03  0.29027412011E+03  0.00000000000E+00 0. -1.
         23    2    1    2    0    0 -0.32096847615E+02 -0.66491392410E+02 -0.16176178329E+03  0.19987648285E+03  0.91282095569E+02 0.  0.
          5    1    1    2  502    0 -0.19404188630E+02 -0.24932776788E+02 -0.38870067672E+02  0.50264504927E+02  0.41800000000E+01 0. -1.
         -5    1    1    2    0  502  0.51501036245E+02  0.91424169198E+02 -0.22398108244E+02  0.10737729323E+03  0.41800000000E+01 0. -1.
        -11    1    3    3    0    0  0.17788239921E+02 -0.49260951948E+01  0.13800688594E+01  0.18509253994E+02  0.00000000000E+00 0.  1.
         11    1    3    3    0    0 -0.49885087537E+02 -0.61565297215E+02 -0.16314185215E+03  0.18136722886E+03  0.00000000000E+00 0. -1.
</event>
<event>
 7    1  0.5137842E-006  0.9281652E+02  0.7561462E-02  0.1296171E+00
         -1   -1    0    0    0  501 -0.00000000000E+00  0.00000000000E+00  0.20662221062E+02  0.20662221062E+02  0.00000000000E+00 0.  1.
          1   -1    0    0  501    0  0.00000000000E+00 -0.00000000000E+00 -0.66418616350E+03  0.66418616350E+03  0.00000000000E+00 0. -1.
         23    2    1    2    0    0  0.59918587591E+01 -0.20001735764E+02 -0.39124440454E+03  0.40248666335E+03  0.92126859754E+02 0.  0.
          5    1    1    2  502    0  0.88762753964E+01  0.56329167994E+02 -0.23007005668E+03  0.23706848549E+03  0.41800000000E+01 0.  1.
         -5    1    1    2    0  502 -0.14868134155E+02 -0.36327432230E+02 -0.22209481214E+02  0.45293235714E+02  0.41800000000E+01 0.  1.
        -11    1    3    3    0    0 -0.39372288458E+02 -0.18728135382E+02 -0.25969050869E+03  0.26332504715E+03  0.00000000000E+00 0. -1.
         11    1    3    3    0    0  0.45364147217E+02 -0.12736003825E+01 -0.13155389585E+03  0.13916161620E+03  0.00000000000E+00 0.  1.
</event>
<event>
 7    1  0.5137842E-006  0.1026359E+03  0.7561462E-02  0.1274849E+00
          2   -1    0    0  501    0  0.00000000000E+00  0.00000000000E+00  0.64217216703E+02  0.64217216703E+02  0.00000000000E+00 0. -1.
         -2   -1    0    0    0  501 -0.00000000000E+00 -0.00000000000E+00 -0.24884632097E+03  0.24884632097E+03  0.00000000000E+00 0.  1.
         23    2    1    2    0    0 -0.52967309169E+02 -0.37157543924E+02 -0.75967761601E+02  0.13518379806E+03  0.91199449258E+02 0.  0.
          5    1    1    2  502    0  0.18730918373E+02 -0.21086654421E+02  0.18384781349E+02  0.33925902833E+02  0.41800000000E+01 0.  1.
         -5    1    1    2    0  502  0.34236390796E+02  0.58244198344E+02 -0.12704612401E+03  0.14395383678E+03  0.41800000000E+01 0.  1.
        -11    1    3    3    0    0  0.89885493208E+01  0.21777374129E+02 -0.29861557056E+02  0.38036306769E+02  0.00000000000E+00 0. -1.
         11    1    3    3    0    0 -0.61955858490E+02 -0.58934918052E+02 -0.46106204544E+02  0.97147491293E+02  0.00000000000E+00 0.  1.
</event>
<event>
 7    1  0.5137842E-006  0.1139210E+03  0.7561462E-02  0.1253476E+00
          1   -1    0    0  501    0  0.00000000000E+00  0.00000000000E+00  0.23269226372E+03  0.23269226372E+03  0.00000000000E+00 0. -1.
         -1   -1    0    0    0  501 -0.00000000000E+00 -0.00000000000E+00 -0.10023901227E+03  0.10023901227E+03  0.00000000000E+00 0.  1.
         23    2    1    2    0    0  0.77581749218E+02  0.44731714571E+02  0.12561280555E+03  0.17893969082E+03  0.90669630698E+02 0.  0.
          5    1    1    2  502    0 -0.10867277474E+01 -0.32827669668E+02 -0.48509692027E+02  0.58732439874E+02  0.41800000000E+01 0. -1.
         -5    1    1    2    0  502 -0.76495021470E+02 -0.11904044902E+02  0.55350137921E+02  0.95259145296E+02  0.41800000000E+01 0. -1.
        -11    1    3    3    0    0  0.86932201879E+02  0.17855909242E+02  0.59180580255E+02  0.10666950032E+03  0.00000000000E+00 0.  1.
         11    1    3    3    0    0 -0.93504526619E+01  0.26875805328E+02  0.66432225298E+02  0.72270190501E+02  0.00000000000E+00 0. -1.
</event>
<event>
 7    1  0.5137842E-006  0.8865459E+02  0.7561462E-02  0.1306143E+00
         -1   -1    0    0    0  501 -0.00000000000E+00  0.00000000000E+00  0.18102999816E+03  0.18102999816E+03  0.00000000000E+00 0.  1.
          1   -1    0    0  501    0  0.00000000000E+00 -0.00000000000E+00 -0.71004532614E+02  0.71004532614E+02  0.00000000000E+00 0. -1.
         23    2    1    2    0    0 -0.23730778517E+02 -0.45573211869E+02  0.15938346061E+02  0.95902493861E+02  0.79392631677E+02 0.  0.
          5    1    1    2  502    0  0.21265409994E+01 -0.37325836491E+02  0.39048215962E+02  0.54221543838E+02  0.41800000000E+01 0. -1.
         -5    1    1    2    0  502  0.21604237518E+02  0.82899048359E+02  0.55038903519E+02  0.10191049307E+03  0.41800000000E+01 0.  1.
        -11    1    3    3    0    0 -0.21500025443E+02 -0.23960519533E+02 -0.30679398884E+02  0.44470024806E+02  0.00000000000E+00 0. -1.
         11    1    3    3    0    0 -0.22307530739E+01 -0.21612692336E+02  0.46617744946E+02  0.51432469055E+02  0.00000000000E+00 0.  1.
</event>
<event>
 7    1  0.5137842E-006  0.1280161E+03  0.7561462E-02  0.1230429E+00
          2   -1    0    0  501    0  0.00000000000E+00  0.00000000000E+00  0.49872631240E+03  0.49872631240E+03  0.00000000000E+00 0.  1.
         -2   -1    0    0    0  501 -0.00000000000E+00 -0.00000000000E+00 -0.35484517356E+02  0.35484517356E+02  0.00000000000E+00 0. -1.
         23    2    1    2    0    0 -0.75717863688E+02  0.26044445979E+00  0.23217672431E+03  0.26076152629E+03  0.91418157760E+02 0.  0.
          5    1    1    2  502    0 -0.19503503197E+02  0.38460805571E+02  0.66080441379E+02  0.79017196451E+02  0.41800000000E+01 0.  1.
         -5    1    1    2    0  502  0.95221366885E+02 -0.38721250030E+02  0.16498462935E+03  0.19443210701E+03  0.41800000000E+01 0.  1.
        -11    1    3    3    0    0 -0.79104209877E+02  0.26459147862E+02  0.12426975140E+03  0.14966807822E+03  0.00000000000E+00 0. -1.
         11    1    3    3    0    0  0.33863461884E+01 -0.26198703402E+02  0.10790697292E+03  0.11109344807E+03  0.00000000000E+00 0.  1.
</event>
<event>
 7    1  0.5137842E-006  0.9329586E+02  0.7561462E-02  0.1295061E+00
         -1   -1    0    0    0  501 -0.00000000000E+00  0.00000000000E+00  0.51606611140E+02  0.51606611140E+02  0.00000000000E+00 0.  1.
          1   -1    0    0  501    0  0.00000000000E+00 -0.00000000000E+00 -0.50898807253E+03  0.50898807253E+03  0.00000000000E+00 0. -1.
         23    2    1    2    0    0 -0.51575822758E+02 -0.27144352630E+02 -0.39123482008E+03  0.40756239758E+03  0.98211720795E+02 0.  0.
          5    1    1    2  502    0  0.14396267768E+02 -0.19370505080E+02  0.30695417524E+02  0.39270218356E+02  0.41800000000E+01 0. -1.
         -5    1    1    2    0  502  0.37179554990E+02  0.46514857710E+02 -0.96842058836E+02  0.11376206774E+03  0.41800000000E+01 0. -1.
        -11    1    3    3    0    0 -0.17592800578E+02  0.30660644338E+02 -0.60257014707E+02  0.69860500749E+02  0.00000000000E+00 0.  1.
         11    1    3    3    0    0 -0.33983022180E+02 -0.57804996968E+02 -0.33097780537E+03  0.33770189683E+03  0.00000000000E+00 0. -1.
</event>
<event>
 7    1  0.5137842E-006  0.1182660E+03  0.7561462E-02  0.1245985E+00
         -1   -1    0    0    0  501 -0.00000000000E+00  0.00000000000E+00  0.96490446909E+03  0.96490446909E+03  0.00000000000E+00 0.  1.
          1   -1    0    0  501    0  0.00000000000E+00 -0.00000000000E+00 -0.16341171341E+02  0.16341171341E+02  0.00000000000E+00 0. -1.
         23    2    1    2    0    0  0.45664743946E+02  0.51652928733E+02  0.39619274322E+03  0.41070711502E+03  0.83416728896E+02 0.  0.
          5    1    1    2  502    0  0.66935519484E+01  0.32955184902E+02  0.67289286872E+02  0.75340350260E+02  0.41800000000E+01 0. -1.
         -5    1    1    2    0  502 -0.52358295894E+02 -0.84608113636E+02  0.48508126766E+03  0.49519817515E+03  0.41800000000E+01 0. -1.
        -11    1    3    3    0    0  0.21710750171E+02  0.69741426992E+02  0.33059533495E+03  0.33856830744E+03  0.00000000000E+00 0. -1.
         11    1    3    3    0    0  0.23953993775E+02 -0.18088498259E+02  0.65597408265E+02  0.72138807573E+02  0.00000000000E+00 0.  1.
</event>
<event>
 7    1  0.5137842E-006  0.1354281E+03  0.7561462E-02  0.1219617E+00
         -2   -1    0    0    0  501 -0.00000000000E+00  0.00000000000E+00  0.42274328086E+02  0.42274328086E+02  0.00000000000E+00 0.  1.
          2   -1    0    0  501    0  0.00000000000E+00 -0.00000000000E+00 -0.58481420659E+03  0.58481420659E+03  0.00000000000E+00 0. -1.
         23    2    1    2    0    0 -0.87723258733E+02  0.72383384905E+01 -0.39345114316E+03  0.41349422511E+03  0.91792747430E+02 0.  0.
          5    1    1    2  502    0  0.65394080114E+01 -0.50869481769E+02 -0.91084532308E+02  0.10461516362E+03  0.41800000000E+01 0.  1.
         -5    1    1    2    0  502  0.81183850722E+02  0.43631143278E+02 -0.58004203037E+02  0.10897914595E+03  0.41800000000E+01 0.  1.
        -11    1    3    3    0    0 -0.63653079925E+01  0.39209857669E+02 -0.11828455542E+03  0.12477646467E+03  0.00000000000E+00 0. -1.
         11    1    3    3    0    0 -0.81357950741E+02 -0.31971519179E+02 -0.27516658774E+03  0.28871776045E+03  0.00000000000E+00 0.  1.
</event>
<event>
 7    1  0.5137842E-006  0.1510933E+03  0.7561462E-02  0.1199136E+00
         -1   -1    0    0    0  501 -0.00000000000E+00  0.00000000000E+00  0.48097840831E+02  0.48097840831E+02  0.00000000000E+00 0.  1.
          1   -1    0    0  501    0  0.00000000000E+00 -0.00000000000E+00 -0.48516339132E+03  0.48516339132E+03  0.00000000000E+00 0. -1.
         23    2    1    2    0    0  0.21633469474E+01  0.10687174606E+03 -0.21137862810E+03  0.25401951226E+03  0.91753681201E+02 0.  0.
          5    1    1    2  502    0  0.60635925488E+02 -0.40900448346E+02 -0.99524874212E+02  0.12358088494E+03  0.41800000000E+01 0. -1.
         -5    1    1    2    0  502 -0.62799272435E+02 -0.65971297711E+02 -0.12616204817E+03  0.15566083496E+03  0.41800000000E+01 0. -1.
        -11    1    3    3    0    0  0.48681361092E+01  0.12214282607E+03 -0.20134839984E+03  0.23554988183E+03  0.00000000000E+00 0. -1.
         11    1    3    3    0    0 -0.27047891618E+01 -0.15271080016E+02 -0.10030228261E+02  0.18469630430E+02  0.00000000000E+00 0.  1.
</event>
<event>
 7    1  0.5137842E-006  0.1130112E+03  0.7561462E-02  0.1255093E+00
          2   -1    0    0  501    0  0.00000000000E+00  0.00000000000E+00  0.39904444370E+03  0.39904444370E+03  0.00000000000E+00 0. -1.
         -2   -1    0    0    0  501 -0.00000000000E+00 -0.00000000000E+00 -0.37988170059E+02  0.37988170059E+02  0.00000000000E+00 0.  1.
         23    2    1    2    0    0  0.87953778478E+01  0.26115014464E+02  0.23108265461E+03  0.25455038755E+03  0.10313754838E+03 0.  0.
          5    1    1    2  502    0  0.46710333266E+02  0.23871560312E+02  0.44729354817E+02  0.69064420709E+02  0.41800000000E+01 0. -1.
         -5    1    1    2    0  502 -0.55505711114E+02 -0.49986574776E+02  0.85244264215E+02  0.11341780551E+03  0.41800000000E+01 0. -1.
        -11    1    3    3    0    0 -0.71731814790E+01 -0.34841831787E+02  0.40926058204E+02  0.54224994375E+02  0.00000000000E+00 0.  1.
         11    1    3    3    0    0  0.15968559327E+02  0.60956846251E+02  0.19015659641E+03  0.20032539317E+03  0.00000000000E+00 0. -1.
</event>
<event>
 7    1  0.5137842E-006  0.1374203E+03  0.7561462E-02  0.1216843E+00
          3   -1    0    0  501    0  0.00000000000E+00  0.00000000000E+00  0.51281346053E+03  0.51281346053E+03  0.00000000000E+00 0. -1.
         -3   -1    0    0    0  501 -0.00000000000E+00 -0.00000000000E+00 -0.40466148014E+02  0.40466148014E+02  0.00000000000E+00 0.  1.
         23    2    1    2    0    0  0.13617266162E+02  0.90377478375E+02  0.26496256434E+03  0.29441738805E+03  0.90127239778E+02 0.  0.
          5    1    1    2  502    0  0.16910112991E+00  0.30303497843E+02  0.24106193858E+02  0.38947548819E+02  0.41800000000E+01 0.  1.
         -5    1    1    2    0  502 -0.13786367292E+02 -0.12068097622E+03  0.18327855431E+03  0.21991467167E+03  0.41800000000E+01 0.  1.
        -11    1    3    3    0    0  0.30547275766E+02 -0.21809945545E+00  0.10957372939E+03  0.11375230019E+03  0.00000000000E+00 0. -1.
         11    1    3    3    0    0 -0.16930009604E+02  0.90595577831E+02  0.15538883495E+03  0.18066508787E+03  0.00000000000E+00 0.  1.
</event>
<event>
 7    1  0.5137842E-006  0.1115577E+03  0.7561462E-02  0.1257712E+00
          1   -1    0    0  501    0  0.00000000000E+00  0.00000000000E+00  0.19474604927E+03  0.19474604927E+03  0.00000000000E+00 0. -1.
         -1   -1    0    0    0  501 -0.00000000000E+00 -0.00000000000E+00 -0.69197765209E+02  0.69197765209E+02  0.00000000000E+00 0.  1.
         23    2    1    2    0    0 -0.17833516809E+02 -0.30380269852E+02  0.71028313271E+02  0.12074811270E+03  0.91071896416E+02 0.  0.
          5    1    1    2  502    0  0.42327019078E+02 -0.35542543802E+02  0.46386830211E+02  0.72277654783E+02  0.41800000000E+01 0. -1.
         -5    1    1    2    0  502 -0.24493502268E+02  0.65922813654E+02  0.81331405753E+01  0.70918046991E+02  0.41800000000E+01 0.  1.
        -11    1    3    3    0    0 -0.52705170049E+02 -0.28050707930E+01  0.44041788803E+02  0.68741417886E+02  0.00000000000E+00 0. -1.
         11    1    3    3    0    0  0.34871653239E+02 -0.27575199059E+02  0.26986524468E+02  0.52006694815E+02  0.00000000000E+00 0.  1.
</event>
<event>
 7    1  0.5137842E-006  0.6182872E+02  0.7561462E-02  0.1390314E+00
          1   -1    0    0  501    0  0.00000000000E+00  0.00000000000E+00  0.11902726287E+03  0.11902726287E+03  0.00000000000E+00 0. -1.
         -1   -1    0    0    0  501 -0.00000000000E+00 -0.00000000000E+00 -0.12625278234E+03  0.12625278234E+03  0.00000000000E+00 0.  1.
         23    2    1    2    0    0 -0.31653158815E+02  0.31784587690E+02  0.30691332333E+02  0.10708681744E+03  0.92268337533E+02 0.  0.
          5    1    1    2  502    0  0.37114180386E+02 -0.29276452909E+02  0.38695321603E+02  0.61232127144E+02  0.41800000000E+01 0. -1.
         -5    1    1    2    0  502 -0.54610215706E+01 -0.25081347816E+01 -0.76612173403E+02  0.76961100630E+02  0.41800000000E+01 0. -1.
        -11    1    3    3    0    0 -0.35961250007E+02 -0.84258438791E+00  0.55316355077E+02  0.65983487249E+02  0.00000000000E+00 0.  1.
         11    1    3    3    0    0  0.43080911919E+01  0.32627172078E+02 -0.24625022744E+02  0.41103330190E+02  0.00000000000E+00 0. -1.
</event>
<event>
 7    1  0.5137842E-006  0.1127532E+03  0.7561462E-02  0.1255555E+00
         -1   -1    0    0    0  501 -0.00000000000E+00  0.00000000000E+00  0.15594823782E+03  0.15594823782E+03  0.00000000000E+00 0.  1.
          1   -1    0    0  501    0  0.00000000000E+00 -0.00000000000E+00 -0.87597373511E+02  0.87597373511E+02  0.00000000000E+00 0. -1.
         23    2    1    2    0    0  0.12126691721E+02  0.75856451680E+01 -0.31403394037E+01  0.88937690866E+02  0.87723728035E+02 0.  0.
          5    1    1    2  502    0  0.26597261891E+02  0.55967146763E+02  0.26341896517E+02  0.67461869000E+02  0.41800000000E+01 0. -1.
         -5    1    1    2    0  502 -0.38723953613E+02 -0.63552791931E+02  0.45149307196E+02  0.87146051464E+02  0.41800000000E+01 0.  1.
        -11    1    3    3    0    0  0.33470419362E+02  0.38677356805E+02 -0.86016206441E+00  0.51156102085E+02  0.00000000000E+00 0. -1.
         11    1    3    3    0    0 -0.21343727641E+02 -0.31091711637E+02 -0.22801773393E+01  0.37781588781E+02  0.00000000000E+00 0.  1.
</event>
<event>
 7    1  0.5137842E-006  0.1043622E+03  0.7561462E-02  0.1271381E+00
          2   -1    0    0  501    0  0.00000000000E+00  0.00000000000E+00  0.87768027726E+03  0.87768027726E+03  0.00000000000E+00 0. -1.
         -2   -1    0    0    0  501 -0.00000000000E+00 -0.00000000000E+00 -0.22886160809E+02  0.22886160809E+02  0.00000000000E+00 0.  1.
         23    2    1    2    0    0  0.47671038144E+02 -0.38487750064E+02  0.56943309841E+03  0.58271316979E+03  0.10745580439E+03 0.  0.
          5    1    1    2  502    0 -0.29711679556E+02 -0.15256727424E+02  0.24703095557E+03  0.24931369205E+03  0.41800000000E+01 0. -1.
         -5    1    1    2    0  502 -0.17959358588E+02  0.53744477488E+02  0.38330062478E+02  0.68539576238E+02  0.41800000000E+01 0. -1.
        -11    1    3    3    0    0 -0.20134320665E+02  0.20234726218E+02  0.75803633579E+02  0.81000159737E+02  0.00000000000E+00 0.  1.
         11    1    3    3    0    0  0.67805358809E+02 -0.58722476281E+02  0.49362946483E+03  0.50171301005E+03  0.00000000000E+00 0. -1.
</event>
<event>
 7    1  0.5137842E-006  0.1518147E+03  0.7561462E-02  0.1198261E+00
          1   -1    0    0  501    0  0.00000000000E+00  0.00000000000E+00  0.13167863211E+03  0.13167863211E+03  0.00000000000E+00 0. -1.
         -1   -1    0    0    0  501 -0.00000000000E+00 -0.00000000000E+00 -0.22196238173E+03  0.22196238173E+03  0.00000000000E+00 0.  1.
         23    2    1    2    0    0 -0.11895274140E+03 -0.21653666087E+02  0.13573863765E+02  0.15108464894E+03  0.89575026811E+02 0.  0.
          5    1    1    2  502    0  0.12948497389E+03 -0.53718045559E+01 -0.45787102518E+02  0.13751053016E+03  0.41800000000E+01 0.  1.
         -5    1    1    2    0  502 -0.10532232489E+02  0.27025470643E+02 -0.58070510862E+02  0.65045834735E+02  0.41800000000E+01 0.  1.
        -11    1    3    3    0    0 -0.85142360739E+01 -0.32588349923E+02  0.21275990998E+02  0.39839183722E+02  0.00000000000E+00 0.  1.
         11    1    3    3    0    0 -0.11043850532E+03  0.10934683837E+02 -0.77021272328E+01  0.11124546522E+03  0.00000000000E+00 0. -1.
</event>
<event>
 7    1  0.5137842E-006  0.2119686E+03  0.7561462E-02  0.1140017E+00
         -1   -1    0    0    0  501 -0.00000000000E+00  0.00000000000E+00  0.63203955867E+02  0.63203955867E+02  0.00000000000E+00 0.  1.
          1   -1    0    0  501    0  0.00000000000E+00 -0.00000000000E+00 -0.78187766300E+03  0.78187766300E+03  0.00000000000E+00 0. -1.
         23    2    1    2    0    0 -0.74163174303E+02 -0.17547018097E+03 -0.37163344274E+03  0.42990254619E+03  0.10205303829E+03 0.  0.
          5    1    1    2  502    0  0.60269145314E+02  0.18666741329E+03 -0.25721354232E+03  0.32350173387E+03  0.41800000000E+01 0. -1.
         -5    1    1    2    0  502  0.13894028989E+02 -0.11197232320E+02 -0.89826722075E+02  0.91677338814E+02  0.41800000000E+01 0. -1.
        -11    1    3    3    0    0 -0.13095996928E+02 -0.13614976226E+03 -0.18853264337E+03  0.23292234868E+03  0.00000000000E+00 0.  1.
         11    1    3    3    0    0 -0.61067177376E+02 -0.39320418712E+02 -0.18310079937E+03  0.19698019751E+03  0.00000000000E+00 0. -1.
</event>
<event>
 7    1  0.5137842E-006  0.1230934E+03  0.7561462E-02  0.1238079E+00
         -2   -1    0    0    0  501 -0.00000000000E+00  0.00000000000E+00  0.11839086296E+03  0.11839086296E+03  0.00000000000E+00 0.  1.
          2   -1    0    0  501    0  0.00000000000E+00 -0.00000000000E+00 -0.14557233765E+03  0.14557233765E+03  0.00000000000E+00 0. -1.
         23    2    1    2    0    0  0.62050792544E+02  0.40481811902E+02 -0.27248205956E+02  0.11857838893E+03  0.88483284545E+02 0.  0.
          5    1    1    2  502    0 -0.78172240957E+02 -0.72545073115E+02  0.11840564644E+02  0.10738416206E+03  0.41800000000E+01 0. -1.
         -5    1    1    2    0  502  0.16121448413E+02  0.32063261213E+02 -0.11773833378E+02  0.38000649612E+02  0.41800000000E+01 0. -1.
        -11    1    3    3    0    0  0.21063451057E+02  0.55743478068E+02  0.10856365934E+02  0.60571156493E+02  0.00000000000E+00 0.  1.
         11    1    3    3    0    0  0.40987341487E+02 -0.15261666166E+02 -0.38104571891E+02  0.58007232440E+02  0.00000000000E+00 0. -1.
</event>
<event>
 7    1  0.5137842E-006  0.1301908E+03  0.7561462E-02  0.1227173E+00
          2   -1    0    0  501    0  0.00000000000E+00  0.00000000000E+00  0.37628048454E+02  0.37628048454E+02  0.00000000000E+00 0. -1.
         -2   -1    0    0    0  501 -0.00000000000E+00 -0.00000000000E+00 -0.58579816982E+03  0.58579816982E+03  0.00000000000E+00 0.  1.
         23    2    1    2    0    0  0.86342313490E+02  0.16137473532E+02 -0.14789731934E+03  0.19496174515E+03  0.91766289300E+02 0.  0.
          5    1    1    2  502    0 -0.97015385433E+01  0.38862934030E+02 -0.23234197403E+03  0.23580651557E+03  0.41800000000E+01 0. -1.
         -5    1    1    2    0  502 -0.76640774947E+02 -0.55000407563E+02 -0.16793082799E+03  0.19265795755E+03  0.41800000000E+01 0. -1.
        -11    1    3    3    0    0  0.47729400977E+02  0.53677369307E+02 -0.70284711669E+02  0.10049525555E+03  0.00000000000E+00 0.  1.
         11    1    3    3    0    0  0.38612912513E+02 -0.37539895775E+02 -0.77612607674E+02  0.94466489600E+02  0.00000000000E+00 0. -1.
</event>
<event>
 7    1  0.5137842E-006  0.7256455E+02  0.7561462E-02  0.1351583E+00
         -2   -1    0    0    0  501 -0.00000000000E+00  0.00000000000E+00  0.61485535639E+02  0.61485535639E+02  0.00000000000E+00 0.  1.
          2   -1    0    0  501    0  0.00000000000E+00 -0.00000000000E+00 -0.24536195889E+03  0.24536195889E+03  0.00000000000E+00 0. -1.
         23    2    1    2    0    0 -0.70541736369E+01  0.30595739096E+02 -0.14066232400E+03  0.17082840096E+03  0.91709282865E+02 0.  0.
          5    1    1    2  502    0  0.24580210005E+02 -0.11035852588E+02 -0.83448531907E+02  0.87790128395E+02  0.41800000000E+01 0. -1.
         -5    1    1    2    0  502 -0.17526036368E+02 -0.19559886508E+02  0.40234432656E+02  0.48228965178E+02  0.41800000000E+01 0. -1.
        -11    1    3    3    0    0 -0.35307049412E+02  0.46857635163E+02 -0.11585589005E+03  0.12986459475E+03  0.00000000000E+00 0.  1.
         11    1    3    3    0    0  0.28252875775E+02 -0.16261896067E+02 -0.24806433948E+02  0.40963806201E+02  0.00000000000E+00 0. -1.
</event>
<event>
 7    1  0.5137842E-006  0.2335420E+03  0.7561462E-02  0.1124171E+00
          3   -1    0    0  501    0  0.00000000000E+00  0.00000000000E+00  0.37932888399E+03  0.37932888399E+03  0.00000000000E+00 0. -1.
         -3   -1    0    0    0  501 -0.00000000000E+00 -0.00000000000E+00 -0.15428512804E+03  0.15428512804E+03  0.00000000000E+00 0.  1.
         23    2    1    2    0    0 -0.19727113737E+03  0.88115004103E+02  0.10028620184E+03  0.25452040745E+03  0.89683665975E+02 0.  0.
          5    1    1    2  502    0  0.16551991498E+03 -0.11423689062E+03  0.75655276263E+02  0.21491417510E+03  0.41800000000E+01 0. -1.
         -5    1    1    2    0  502  0.31751222387E+02  0.26121886521E+02  0.49102277846E+02  0.64179429478E+02  0.41800000000E+01 0. -1.
        -11    1    3    3    0    0 -0.13587533998E+03  0.90333180825E+02  0.10312222157E+03  0.19301912899E+03  0.00000000000E+00 0. -1.
         11    1    3    3    0    0 -0.61395797384E+02 -0.22181767215E+01 -0.28360197340E+01  0.61501278461E+02  0.00000000000E+00 0.  1.
</event>
<event>
 7    1  0.5137842E-006  0.1509271E+03  0.7561462E-02  0.1199338E+00
         -1   -1    0    0    0  501 -0.00000000000E+00  0.00000000000E+00  0.44634598398E+03  0.44634598398E+03  0.00000000000E+00 0.  1.
          1   -1    0    0  501    0  0.00000000000E+00 -0.00000000000E+00 -0.12609673648E+03  0.12609673648E+03  0.00000000000E+00 0. -1.
         23    2    1    2    0    0  0.13227170747E+03 -0.42491504231E+02 -0.41189521266E+02  0.16551928092E+03  0.79992019377E+02 0.  0.
          5    1    1    2  502    0 -0.48542132543E+02  0.40926711429E+02  0.28960288951E+03  0.29651077612E+03  0.41800000000E+01 0.  1.
         -5    1    1    2    0  502 -0.83729574930E+02  0.15647928019E+01  0.71835879260E+02  0.11041266342E+03  0.41800000000E+01 0.  1.
        -11    1    3    3    0    0  0.14674085574E+02 -0.33335157560E+02  0.87037372869E+01  0.37447517404E+02  0.00000000000E+00 0.  1.
         11    1    3    3    0    0  0.11759762190E+03 -0.91563466711E+01 -0.49893258553E+02  0.12807176351E+03  0.00000000000E+00 0. -1.
</event>
<event>
 7    1  0.5137842E-006  0.9838766E+02  0.7561462E-02  0.1283723E+00
         -2   -1    0    0    0  501 -0.00000000000E+00  0.00000000000E+00  0.15942873292E+02  0.15942873292E+02  0.00000000000E+00 0. -1.
          2   -1    0    0  501    0  0.00000000000E+00 -0.00000000000E+00 -0.65855683601E+03  0.65855683601E+03  0.00000000000E+00 0.  1.
         23    2    1    2    0    0 -0.66556182850E+01 -0.14522204622E+02 -0.32805166503E+03  0.34056336443E+03  0.90057307204E+02 0.  0.
          5    1    1    2  502    0 -0.50379264804E+02 -0.67578032497E+01 -0.14905266118E+03  0.15753700020E+03  0.41800000000E+01 0. -1.
         -5    1    1    2    0  502  0.57034883089E+02  0.21280007872E+02 -0.16550963651E+03  0.17639934468E+03  0.41800000000E+01 0.  1.
        -11    1    3    3    0    0  0.26217967266E+02  0.22994381739E+02 -0.20222916578E+03  0.20521393445E+03  0.00000000000E+00 0.  1.
         11    1    3    3    0    0 -0.32873585551E+02 -0.37516586361E+02 -0.12582249925E+03  0.13534942998E+03  0.00000000000E+00 0. -1.
</event>
<event>
 7    1  0.5137842E-006  0.8453844E+02  0.7561462E-02  0.1316644E+00
         -1   -1    0    0    0  501 -0.00000000000E+00  0.00000000000E+00  0.13169238145E+03  0.13169238145E+03  0.00000000000E+00 0. -1.
          1   -1    0    0  501    0  0.00000000000E+00 -0.00000000000E+00 -0.11033278206E+03  0.11033278206E+03  0.00000000000E+00 0.  1.
         23    2    1    2    0    0  0.30805003275E+02  0.15559039968E+01 -0.31457043515E+02  0.10278193989E+03  0.92861254117E+02 0.  0.
          5    1    1    2  502    0 -0.37845634873E+02 -0.31544320730E+02  0.82550900013E+02  0.96226086600E+02  0.41800000000E+01 0. -1.
         -5    1    1    2    0  502  0.70406315973E+01  0.29988416734E+02 -0.29734257115E+02  0.43017137023E+02  0.41800000000E+01 0. -1.
        -11    1    3    3    0    0 -0.28172675562E+02 -0.67929209732E+01 -0.32055305037E+02  0.43213261908E+02  0.00000000000E+00 0.  1.
         11    1    3    3    0    0  0.58977678837E+02  0.83488249700E+01  0.59826152228E+00  0.59568677980E+02  0.00000000000E+00 0. -1.
</event>
<event>
 7    1  0.5137842E-006  0.1240387E+03  0.7561462E-02  0.1236579E+00
         -1   -1    0    0    0  501 -0.00000000000E+00  0.00000000000E+00  0.72246778756E+03  0.72246778756E+03  0.00000000000E+00 0.  1.
          1   -1    0    0  501    0  0.00000000000E+00 -0.00000000000E+00 -0.24433936988E+02  0.24433936988E+02  0.00000000000E+00 0. -1.
         23    2    1    2    0    0  0.36346933471E+02 -0.56129060995E+02  0.22858339903E+03  0.25649053601E+03  0.95212676088E+02 0.  0.
          5    1    1    2  502    0  0.29933848124E+02  0.63517941092E+02  0.30279560812E+03  0.31085883742E+03  0.41800000000E+01 0.  1.
         -5    1    1    2    0  502 -0.66280781595E+02 -0.73888800969E+01  0.16665484342E+03  0.17955235112E+03  0.41800000000E+01 0.  1.
        -11    1    3    3    0    0 -0.82621125419E+01 -0.64921896760E+02  0.94833668653E+02  0.11522386859E+03  0.00000000000E+00 0. -1.
         11    1    3    3    0    0  0.44609046013E+02  0.87928357657E+01  0.13374973038E+03  0.14126666742E+03  0.00000000000E+00 0.  1.
</event>
<event>
 7    1  0.5137842E-006  0.1113223E+03  0.7561462E-02  0.1258141E+00
         -1   -1    0    0    0  501 -0.00000000000E+00  0.00000000000E+00  0.13707727883E+03  0.13707727883E+03  0.00000000000E+00 0.  1.
          1   -1    0    0  501    0  0.00000000000E+00 -0.00000000000E+00 -0.19100247483E+03  0.19100247483E+03  0.00000000000E+00 0. -1.
         23    2    1    2    0    0  0.53425701649E+02  0.48166813109E+02 -0.12158708293E+03  0.16871090109E+03  0.92225820294E+02 0.  0.
          5    1    1    2  502    0 -0.61386068003E+02 -0.45317011803E+01 -0.16743967811E+02  0.63926665160E+02  0.41800000000E+01 0. -1.
         -5    1    1    2    0  502  0.79603663539E+01 -0.43635111929E+02  0.84405854732E+02  0.95442187415E+02  0.41800000000E+01 0. -1.
        -11    1    3    3    0    0  0.65853093798E+02 -0.82120062617E+00 -0.60519133088E+02  0.89441991274E+02  0.00000000000E+00 0.  1.
         11    1    3    3    0    0 -0.12427392149E+02  0.48988013735E+02 -0.61067949839E+02  0.79268909813E+02  0.00000000000E+00 0. -1.
</event>
<event>
 7    1  0.7046414E-006  0.1800530E+03  0.7561462E-02  0.1167752E+00
         -2   -1    0    0    0  501 -0.00000000000E+00  0.00000000000E+00  0.52846246289E+02  0.52846246289E+02  0.00000000000E+00 0.  1.
          2   -1    0    0  501    0  0.00000000000E+00 -0.00000000000E+00 -0.77974614239E+03  0.77974614239E+03  0.00000000000E+00 0. -1.
         23    2    1    2    0    0 -0.10945905238E+03  0.12161506380E+03 -0.45782128593E+03  0.49373733339E+03  0.86050663245E+02 0.  0.
          5    1    1    2  502    0  0.86639768906E+02 -0.44656347342E+02 -0.59214982422E+02  0.11412504308E+03  0.41800000000E+01 0. -1.
         -5    1    1    2    0  502  0.22819283472E+02 -0.76958716455E+02 -0.20986362774E+03  0.22473001221E+03  0.41800000000E+01 0. -1.
        -11    1    3    3    0    0 -0.76680341541E+02  0.25808585691E+02 -0.24587909096E+03  0.25884838274E+03  0.00000000000E+00 0.  1.
         11    1    3    3    0    0 -0.32778710836E+02  0.95806478106E+02 -0.21194219497E+03  0.23488895066E+03  0.00000000000E+00 0. -1.
</event>
<event>
 7    1  0.5137842E-006  0.1476227E+03  0.7561462E-02  0.1203425E+00
         -2   -1    0    0    0  501 -0.00000000000E+00  0.00000000000E+00  0.34957065867E+02  0.34957065867E+02  0.00000000000E+00 0.  1.
          2   -1    0    0  501    0  0.00000000000E+00 -0.00000000000E+00 -0.87259856752E+03  0.87259856752E+03  0.00000000000E+00 0. -1.
         23    2    1    2    0    0 -0.70988829839E+02  0.75530807223E+02 -0.44061637651E+03  0.46162994306E+03  0.90637168318E+02 0.  0.
          5    1    1    2  502    0  0.69515589914E+02  0.30297878144E+02 -0.27028265789E+03  0.28075000662E+03  0.41800000000E+01 0. -1.
         -5    1    1    2    0  502  0.14732399252E+01 -0.10582868537E+03 -0.12674246726E+03  0.16517568371E+03  0.41800000000E+01 0.  1.
        -11    1    3    3    0    0 -0.71390704658E+02  0.48415649253E+02 -0.41650288251E+03  0.42534146158E+03  0.00000000000E+00 0. -1.
         11    1    3    3    0    0  0.40187481890E+00  0.27115157969E+02 -0.24113494004E+02  0.36288481480E+02  0.00000000000E+00 0.  1.
</event>
<event>
 7    1  0.5137842E-006  0.1837531E+03  0.7561462E-02  0.1164219E+00
         -1   -1    0    0    0  501 -0.00000000000E+00  0.00000000000E+00  0.53390799436E+03  0.53390799436E+03  0.00000000000E+00 0.  1.
          1   -1    0    0  501    0  0.00000000000E+00 -0.00000000000E+00 -0.83678077990E+02  0.83678077990E+02  0.00000000000E+00 0. -1.
         23    2    1    2    0    0 -0.44781900460E+01 -0.47365056352E+02  0.75915989870E+02  0.12958319685E+03  0.93621923918E+02 0.  0.
          5    1    1    2  502    0 -0.58253346392E+02  0.13999985147E+03  0.76604343332E+02  0.16993854358E+03  0.41800000000E+01 0. -1.
         -5    1    1    2    0  502  0.62731536438E+02 -0.92634795117E+02  0.29770958317E+03  0.31806433193E+03  0.41800000000E+01 0.  1.
        -11    1    3    3    0    0  0.38302615951E+01  0.27886813992E+02  0.12397863238E+02  0.30757963382E+02  0.00000000000E+00 0. -1.
         11    1    3    3    0    0 -0.83084516411E+01 -0.75251870344E+02  0.63518126632E+02  0.98825233467E+02  0.00000000000E+00 0.  1.
</event>
<event>
 7    1  0.5137842E-006  0.1628006E+03  0.7561462E-02  0.1185571E+00
          1   -1    0    0  501    0  0.00000000000E+00  0.00000000000E+00  0.61423372373E+03  0.61423372373E+03  0.00000000000E+00 0. -1.
         -1   -1    0    0    0  501 -0.00000000000E+00 -0.00000000000E+00 -0.63857639570E+02  0.63857639570E+02  0.00000000000E+00 0.  1.
         23    2    1    2    0    0 -0.32833712906E+00  0.13696808041E+03  0.42192187187E+03  0.45246210759E+03  0.89126483080E+02 0.  0.
          5    1    1    2  502    0  0.23726414584E+02  0.14770469096E+02  0.52758361189E+01  0.28747458202E+02  0.41800000000E+01 0. -1.
         -5    1    1    2    0  502 -0.23398077455E+02 -0.15173854950E+03  0.12317837617E+03  0.19688179751E+03  0.41800000000E+01 0. -1.
        -11    1    3    3    0    0 -0.21900834739E+02  0.62668731425E+02  0.91148628248E+02  0.11276120296E+03  0.00000000000E+00 0. -1.
         11    1    3    3    0    0  0.21572497610E+02  0.74299348984E+02  0.33077324362E+03  0.33970090463E+03  0.00000000000E+00 0.  1.
</event>
<event>
 7    1  0.5137842E-006  0.5065668E+02  0.7561462E-02  0.1441831E+00
          2   -1    0    0  501    0  0.00000000000E+00  0.00000000000E+00  0.17312178331E+02  0.17312178331E+02  0.00000000000E+00 0. -1.
         -2   -1    0    0    0  501 -0.00000000000E+00 -0.00000000000E+00 -0.74659147694E+03  0.74659147694E+03  0.00000000000E+00 0.  1.
         23    2    1    2    0    0 -0.33685537975E+02  0.99921506231E+01 -0.24678586209E+03  0.26422045372E+03  0.87604953604E+02 0.  0.
          5    1    1    2  502    0  0.15447403455E+02  0.34442156354E+01 -0.47525543296E+03  0.47553725811E+03  0.41800000000E+01 0.  1.
         -5    1    1    2    0  502  0.18238134520E+02 -0.13436366258E+02 -0.72380035631E+01  0.24145943439E+02  0.41800000000E+01 0.  1.
        -11    1    3    3    0    0 -0.37833091728E+02  0.25651338984E+02 -0.24342112492E+03  0.24767555002E+03  0.00000000000E+00 0.  1.
         11    1    3    3    0    0  0.41475537533E+01 -0.15659188361E+02 -0.33647371684E+01  0.16544903701E+02  0.00000000000E+00 0. -1.
</event>
<event>
 7    1  0.5137842E-006  0.1109566E+03  0.7561462E-02  0.1258809E+00
         -2   -1    0    0    0  501 -0.00000000000E+00  0.00000000000E+00  0.34848849753E+02  0.34848849753E+02  0.00000000000E+00 0.  1.
          2   -1    0    0  501    0  0.00000000000E+00 -0.00000000000E+00 -0.63876036931E+03  0.63876036931E+03  0.00000000000E+00 0. -1.
         23    2    1    2    0    0 -0.24566363073E+02  0.65645908736E+02 -0.44530678772E+03  0.45979825762E+03  0.90572683476E+02 0.  0.
          5    1    1    2  502    0  0.27469202920E+02 -0.83956017857E+02 -0.17001846419E+03  0.19164268994E+03  0.41800000000E+01 0.  1.
         -5    1    1    2    0  502 -0.29028398474E+01  0.18310109120E+02  0.11413732351E+02  0.22168271501E+02  0.41800000000E+01 0.  1.
        -11    1    3    3    0    0  0.28308239120E+02  0.53034831033E+02 -0.24074536274E+03  0.24813782337E+03  0.00000000000E+00 0.  1.
         11    1    3    3    0    0 -0.52874602193E+02  0.12611077703E+02 -0.20456142498E+03  0.21166043426E+03  0.00000000000E+00 0. -1.
</event>
<event>
 7    1  0.5137842E-006  0.7823990E+02  0.7561462E-02  0.1334122E+00
         -1   -1    0    0    0  501 -0.00000000000E+00  0.00000000000E+00  0.28124593317E+03  0.28124593317E+03  0.00000000000E+00 0.  1.
          1   -1    0    0  501    0  0.00000000000E+00 -0.00000000000E+00 -0.41915840305E+02  0.41915840305E+02  0.00000000000E+00 0. -1.
         23    2    1    2    0    0 -0.12107092468E+01  0.58943625009E+00  0.90744954536E+02  0.12892767755E+03  0.91574483417E+02 0.  0.
          5    1    1    2  502    0 -0.21322414796E+02  0.42991528718E+02  0.12866206099E+02  0.49859087171E+02  0.41800000000E+01 0. -1.
         -5    1    1    2    0  502  0.22533124042E+02 -0.43580964968E+02  0.13571893223E+03  0.14437500876E+03  0.41800000000E+01 0. -1.
        -11    1    3    3    0    0  0.14321245568E-01 -0.29227713280E+02 -0.40860694357E+01  0.29511953376E+02  0.00000000000E+00 0. -1.
         11    1    3    3    0    0 -0.12250304924E+01  0.29817149530E+02  0.94831023971E+02  0.99415724175E+02  0.00000000000E+00 0.  1.
</event>
<event>
 7    1  0.5137842E-006  0.1062921E+03  0.7561462E-02  0.1267595E+00
          2   -1    0    0  501    0  0.00000000000E+00  0.00000000000E+00  0.15981061173E+03  0.15981061173E+03  0.00000000000E+00 0. -1.
         -2   -1    0    0    0  501 -0.00000000000E+00 -0.00000000000E+00 -0.11149248063E+03  0.11149248063E+03  0.00000000000E+00 0.  1.
         23    2    1    2    0    0 -0.79134042093E+00  0.76042407213E+02  0.28429179754E+02  0.12356765642E+03  0.93154031247E+02 0.  0.
          5    1    1    2  502    0  0.21089506347E+02 -0.10090399762E+03  0.38829641505E+02  0.11023428447E+03  0.41800000000E+01 0. -1.
         -5    1    1    2    0  502 -0.20298165926E+02  0.24861590409E+02 -0.18940690153E+02  0.37501151463E+02  0.41800000000E+01 0. -1.
        -11    1    3    3    0    0 -0.64109459901E+01  0.30912064042E+02 -0.33956380568E+02  0.46364768015E+02  0.00000000000E+00 0.  1.
         11    1    3    3    0    0  0.56196055691E+01  0.45130343171E+02  0.62385560323E+02  0.77202888406E+02  0.00000000000E+00 0. -1.
</event>
<event>
 7    1  0.5137842E-006  0.1349287E+03  0.7561462E-02  0.1220320E+00
          1   -1    0    0  501    0  0.00000000000E+00  0.00000000000E+00  0.99589322690E+01  0.99589322690E+01  0.00000000000E+00 0. -1.
         -1   -1    0    0    0  501 -0.00000000000E+00 -0.00000000000E+00 -0.24424406697E+04  0.24424406697E+04  0.00000000000E+00 0.  1.
         23    2    1    2    0    0  0.96192219470E+02 -0.16065433701E+02 -0.71580021788E+03  0.72840620617E+03  0.93244882068E+02 0.  0.
          5    1    1    2  502    0 -0.56489994050E+02 -0.37650676875E+02 -0.41035528242E+03  0.41595387137E+03  0.41800000000E+01 0.  1.
         -5    1    1    2    0  502 -0.39702225420E+02  0.53716110576E+02 -0.13063262372E+04  0.13080395245E+04  0.41800000000E+01 0.  1.
        -11    1    3    3    0    0 -0.18671561706E+02  0.14303456678E+01 -0.95849546401E+02  0.97661705139E+02  0.00000000000E+00 0. -1.
         11    1    3    3    0    0  0.11486378118E+03 -0.17495779369E+02 -0.61995067148E+03  0.63074450103E+03  0.00000000000E+00 0.  1.
</event>
<event>
 7    1  0.5137842E-006  0.1999578E+03  0.7561462E-02  0.1149775E+00
         -2   -1    0    0    0  501 -0.00000000000E+00  0.00000000000E+00  0.22243610245E+03  0.22243610245E+03  0.00000000000E+00 0.  1.
          2   -1    0    0  501    0  0.00000000000E+00 -0.00000000000E+00 -0.22051701033E+03  0.22051701033E+03  0.00000000000E+00 0. -1.
         23    2    1    2    0    0  0.38598005681E+02 -0.17611032085E+03 -0.70839189697E+02  0.21176834724E+03  0.85574475993E+02 0.  0.
          5    1    1    2  502    0 -0.52057580159E+02  0.18741743942E+03  0.81710474618E+02  0.21101981498E+03  0.41800000000E+01 0.  1.
         -5    1    1    2    0  502  0.13459574479E+02 -0.11307118568E+02 -0.89521928025E+01  0.20164950568E+02  0.41800000000E+01 0.  1.
        -11    1    3    3    0    0  0.36598637520E+02 -0.54419324636E+02  0.90215121104E+01  0.66199024486E+02  0.00000000000E+00 0.  1.
         11    1    3    3    0    0  0.19993681609E+01 -0.12169099622E+03 -0.79860701807E+02  0.14556932275E+03  0.00000000000E+00 0. -1.
</event>
<event>
 7    1  0.5137842E-006  0.1216450E+03  0.7561462E-02  0.1240408E+00
         -2   -1    0    0    0  501 -0.00000000000E+00  0.00000000000E+00  0.20663334713E+04  0.20663334713E+04  0.00000000000E+00 0.  1.
          2   -1    0    0  501    0  0.00000000000E+00 -0.00000000000E+00 -0.87220790911E+01  0.87220790911E+01  0.00000000000E+00 0. -1.
         23    2    1    2    0    0 -0.64886202737E+02 -0.27596339416E+02  0.61056388285E+03  0.62090162049E+03  0.88083994234E+02 0.  0.
          5    1    1    2  502    0 -0.29690979250E+02  0.23964115612E+02  0.71085750017E+03  0.71189303342E+03  0.41800000000E+01 0.  1.
         -5    1    1    2    0  502  0.94577181988E+02  0.36322238044E+01  0.73619000917E+03  0.74226089646E+03  0.41800000000E+01 0.  1.
        -11    1    3    3    0    0  0.20826623081E+02 -0.33792127472E+01  0.72203394665E+02  0.75222985243E+02  0.00000000000E+00 0.  1.
         11    1    3    3    0    0 -0.85712825818E+02 -0.24217126669E+02  0.53836048818E+03  0.54567863525E+03  0.00000000000E+00 0. -1.
</event>
<event>
 7    1  0.5137842E-006  0.1542056E+03  0.7561462E-02  0.1195398E+00
          1   -1    0    0  501    0  0.00000000000E+00  0.00000000000E+00  0.59831296419E+03  0.59831296419E+03  0.00000000000E+00 0. -1.
         -1   -1    0    0    0  501 -0.00000000000E+00 -0.00000000000E+00 -0.54745751261E+02  0.54745751261E+02  0.00000000000E+00 0.  1.
         23    2    1    2    0    0 -0.33485946970E+01 -0.14049943017E+03  0.31495304445E+03  0.35697945051E+03  0.92128198233E+02 0.  0.
          5    1    1    2  502    0 -0.29014409024E+02  0.11794958692E+03  0.22565509594E+03  0.25630379573E+03  0.41800000000E+01 0.  1.
         -5    1    1    2    0  502  0.32363003721E+02  0.22549843255E+02  0.29590725405E+01  0.39775469211E+02  0.41800000000E+01 0.  1.
        -11    1    3    3    0    0 -0.23221581082E+02 -0.61225846847E+02  0.22982246751E+03  0.23896906227E+03  0.00000000000E+00 0. -1.
         11    1    3    3    0    0  0.19872986385E+02 -0.79273583326E+02  0.85130576941E+02  0.11801038824E+03  0.00000000000E+00 0.  1.
</event>
<event>
 7    1  0.5137842E-006  0.1127101E+03  0.7561462E-02  0.1255632E+00
         -1   -1    0    0    0  501 -0.00000000000E+00  0.00000000000E+00  0.21289891447E+03  0.21289891447E+03  0.00000000000E+00 0.  1.
          1   -1    0    0  501    0  0.00000000000E+00 -0.00000000000E+00 -0.11909662737E+03  0.11909662737E+03  0.00000000000E+00 0. -1.
         23    2    1    2    0    0 -0.97271896722E+02  0.30666375565E+02 -0.15186117286E+02  0.13724313436E+03  0.90569372789E+02 0.  0.
          5    1    1    2  502    0  0.24600195588E+02 -0.88089108677E+01  0.11547999103E+03  0.11847306555E+03  0.41800000000E+01 0.  1.
         -5    1    1    2    0  502  0.72671701134E+02 -0.21857464698E+02 -0.64915866369E+01  0.76279341933E+02  0.41800000000E+01 0.  1.
        -11    1    3    3    0    0 -0.68359783462E+02 -0.13970932932E+02 -0.37912832900E+02  0.79407996200E+02  0.00000000000E+00 0. -1.
         11    1    3    3    0    0 -0.28912113260E+02  0.44637308497E+02  0.22726715613E+02  0.57835138156E+02  0.00000000000E+00 0.  1.
</event>
<event>
 7    1  0.5137842E-006  0.1033230E+03  0.7561462E-02  0.1273459E+00
          1   -1    0    0  501    0  0.00000000000E+00  0.00000000000E+00  0.31686216679E+03  0.31686216679E+03  0.00000000000E+00 0. -1.
         -1   -1    0    0    0  501 -0.00000000000E+00 -0.00000000000E+00 -0.81781197916E+02  0.81781197916E+02  0.00000000000E+00 0.  1.
         23    2    1    2    0    0 -0.98557262862E+02  0.25778624522E+02  0.18361929468E+03  0.22931357203E+03  0.92144437677E+02 0.  0.
          5    1    1    2  502    0  0.64482906797E+02 -0.22966363654E+02  0.92883903880E+02  0.11545731301E+03  0.41800000000E+01 0. -1.
         -5    1    1    2    0  502  0.34074356065E+02 -0.28122608678E+01 -0.41422229685E+02  0.53872479658E+02  0.41800000000E+01 0. -1.
        -11    1    3    3    0    0 -0.46051665151E+02  0.23058665557E+01  0.16106603436E+03  0.16753608658E+03  0.00000000000E+00 0. -1.
         11    1    3    3    0    0 -0.52505597710E+02  0.23472757966E+02  0.22553260323E+02  0.61777485451E+02  0.00000000000E+00 0.  1.
</event>
<event>
 7    1  0.5137842E-006  0.1179892E+03  0.7561462E-02  0.1246452E+00
         -2   -1    0    0    0  501 -0.00000000000E+00  0.00000000000E+00  0.71106829092E+02  0.71106829092E+02  0.00000000000E+00 0.  1.
          2   -1    0    0  501    0  0.00000000000E+00 -0.00000000000E+00 -0.30195288859E+03  0.30195288859E+03  0.00000000000E+00 0. -1.
         23    2    1    2    0    0  0.47435387943E+02 -0.60572756716E+02 -0.18236647707E+03  0.21845354811E+03  0.92440498898E+02 0.  0.
          5    1    1    2  502    0 -0.57648327296E+02  0.91638810231E+02 -0.18237449752E+02  0.10986845841E+03  0.41800000000E+01 0.  1.
         -5    1    1    2    0  502  0.10212939353E+02 -0.31066053514E+02 -0.30242132672E+02  0.44737711159E+02  0.41800000000E+01 0.  1.
        -11    1    3    3    0    0 -0.22287484711E+00 -0.44308712753E+02 -0.15485895648E+03  0.16107330040E+03  0.00000000000E+00 0. -1.
         11    1    3    3    0    0  0.47658262790E+02 -0.16264043963E+02 -0.27507520590E+02  0.57380247709E+02  0.00000000000E+00 0.  1.
</event>
<event>
 7    1  0.5137842E-006  0.1529043E+03  0.7561462E-02  0.1196949E+00
         -1   -1    0    0    0  501 -0.00000000000E+00  0.00000000000E+00  0.11888645586E+03  0.11888645586E+03  0.00000000000E+00 0.  1.
          1   -1    0    0  501    0  0.00000000000E+00 -0.00000000000E+00 -0.24028277414E+03  0.24028277414E+03  0.00000000000E+00 0. -1.
         23    2    1    2    0    0  0.74989779472E+02 -0.74245420928E+02 -0.13108845169E+03  0.19522470350E+03  0.98957835154E+02 0.  0.
          5    1    1    2  502    0 -0.10071730396E+03  0.21745029762E+02  0.18197679596E+02  0.10471604260E+03  0.41800000000E+01 0.  1.
         -5    1    1    2    0  502  0.25727524486E+02  0.52500391166E+02 -0.85055461845E+01  0.59228483896E+02  0.41800000000E+01 0.  1.
        -11    1    3    3    0    0  0.24674027726E+01  0.22793490145E+02 -0.14731770495E+02  0.27251721621E+02  0.00000000000E+00 0.  1.
         11    1    3    3    0    0  0.72522376700E+02 -0.97038911073E+02 -0.11635668119E+03  0.16797298188E+03  0.00000000000E+00 0. -1.
</event>
<event>
 7    1  0.5137842E-006  0.8574833E+02  0.7561462E-02  0.1313487E+00
          2   -1    0    0  501    0  0.00000000000E+00  0.00000000000E+00  0.48907562134E+03  0.48907562134E+03  0.00000000000E+00 0. -1.
         -2   -1    0    0    0  501 -0.00000000000E+00 -0.00000000000E+00 -0.27427664832E+02  0.27427664832E+02  0.00000000000E+00 0.  1.
         23    2    1    2    0    0 -0.38573770569E+02 -0.63362760624E+01  0.18969659240E+03  0.21462282728E+03  0.92466624531E+02 0.  0.
          5    1    1    2  502    0 -0.11372105514E+02  0.19169501419E+02  0.24000678884E+03  0.24107576746E+03  0.41800000000E+01 0.  1.
         -5    1    1    2    0  502  0.49945876083E+02 -0.12833225356E+02  0.31944575270E+02  0.60804691430E+02  0.41800000000E+01 0.  1.
        -11    1    3    3    0    0  0.25373828901E+02  0.15232285584E+02  0.34927112322E+02  0.45779437441E+02  0.00000000000E+00 0.  1.
         11    1    3    3    0    0 -0.63947599470E+02 -0.21568561647E+02  0.15476948008E+03  0.16884338984E+03  0.00000000000E+00 0. -1.
</event>
<event>
 7    1  0.5137842E-006  0.1724520E+03  0.7561462E-02  0.1175315E+00
         -2   -1    0    0    0  501 -0.00000000000E+00  0.00000000000E+00  0.12615999052E+03  0.12615999052E+03  0.00000000000E+00 0.  1.
          2   -1    0    0  501    0  0.00000000000E+00 -0.00000000000E+00 -0.28660004024E+03  0.28660004024E+03  0.00000000000E+00 0. -1.
         23    2    1    2    0    0  0.15509120981E+03 -0.79330769881E+01 -0.87188410410E+02  0.20032000025E+03  0.91706414826E+02 0.  0.
          5    1    1    2  502    0 -0.15587399872E+03 -0.24011527589E+00 -0.18621236347E+02  0.15703816089E+03  0.41800000000E+01 0. -1.
         -5    1    1    2    0  502  0.78278890538E+00  0.81731922640E+01 -0.54630402966E+02  0.55401869630E+02  0.41800000000E+01 0. -1.
        -11    1    3    3    0    0  0.64474605038E+02  0.41363853733E+02 -0.29189219989E+02  0.81975323445E+02  0.00000000000E+00 0.  1.
         11    1    3    3    0    0  0.90616604773E+02 -0.49296930721E+02 -0.57999190422E+02  0.11834467681E+03  0.00000000000E+00 0. -1.
</event>
<event>
 7    1  0.5137842E-006  0.1067572E+03  0.7561462E-02  0.1266696E+00
          2   -1    0    0  501    0  0.00000000000E+00  0.00000000000E+00  0.50431842538E+02  0.50431842538E+02  0.00000000000E+00 0. -1.
         -2   -1    0    0    0  501 -0.00000000000E+00 -0.00000000000E+00 -0.47390535992E+03  0.47390535992E+03  0.00000000000E+00 0.  1.
         23    2    1    2    0    0 -0.52771915201E+02 -0.52474059961E+02 -0.58717061889E+02  0.13161090840E+03  0.91298060500E+02 0.  0.
          5    1    1    2  502    0 -0.12394226534E+02  0.18258582777E+02 -0.19938489705E+01  0.22548625903E+02  0.41800000000E+01 0. -1.
         -5    1    1    2    0  502  0.65166141735E+02  0.34215477185E+02 -0.36276260652E+03  0.37017766815E+03  0.41800000000E+01 0. -1.
        -11    1    3    3    0    0  0.22499509635E+02  0.44816478691E+01 -0.16206541946E+02  0.28088522626E+02  0.00000000000E+00 0.  1.
         11    1    3    3    0    0 -0.75271424836E+02 -0.56955707830E+02 -0.42510519943E+02  0.10352238578E+03  0.00000000000E+00 0. -1.
</event>
<event>
 7    1  0.5137842E-006  0.9587878E+02  0.7561462E-02  0.1289209E+00
         -2   -1    0    0    0  501 -0.00000000000E+00  0.00000000000E+00  0.95816097382E+02  0.95816097382E+02  0.00000000000E+00 0.  1.
          2   -1    0    0  501    0  0.00000000000E+00 -0.00000000000E+00 -0.14699748105E+03  0.14699748105E+03  0.00000000000E+00 0. -1.
         23    2    1    2    0    0  0.35518481426E+02  0.23132172009E+02 -0.47050725338E+02  0.11067553953E+03  0.90766978531E+02 0.  0.
          5    1    1    2  502    0 -0.69175404818E+02  0.10021219693E+02  0.27392515481E+02  0.75189652082E+02  0.41800000000E+01 0.  1.
         -5    1    1    2    0  502  0.33656923392E+02 -0.33153391703E+02 -0.31523173808E+02  0.56948386812E+02  0.41800000000E+01 0.  1.
        -11    1    3    3    0    0 -0.14548056649E+02  0.19196392347E+02 -0.54800428527E+02  0.59860123606E+02  0.00000000000E+00 0. -1.
         11    1    3    3    0    0  0.50066538075E+02  0.39357796624E+01  0.77497031892E+01  0.50815415928E+02  0.00000000000E+00 0.  1.
</event>
<event>
 7    1  0.5137842E-006  0.1745832E+03  0.7561462E-02  0.1173151E+00
          2   -1    0    0  501    0  0.00000000000E+00  0.00000000000E+00  0.40069749963E+03  0.40069749963E+03  0.00000000000E+00 0. -1.
         -2   -1    0    0    0  501 -0.00000000000E+00 -0.00000000000E+00 -0.15353668822E+03  0.15353668822E+03  0.00000000000E+00 0.  1.
         23    2    1    2    0    0  0.59425490384E+02  0.88651733773E+02  0.12631294135E+03  0.18798167334E+03  0.89395925810E+02 0.  0.
          5    1    1    2  502    0  0.55780852706E+02  0.16202797663E+02  0.18781607188E+03  0.19663769587E+03  0.41800000000E+01 0. -1.
         -5    1    1    2    0  502 -0.11520634309E+03 -0.10485453144E+03 -0.66968201816E+02  0.16961481865E+03  0.41800000000E+01 0.  1.
        -11    1    3    3    0    0 -0.30742561034E+01 -0.14316693408E+02  0.31337522162E+02  0.34589869268E+02  0.00000000000E+00 0.  1.
         11    1    3    3    0    0  0.62499746487E+02  0.10296842718E+03  0.94975419187E+02  0.15339180407E+03  0.00000000000E+00 0. -1.
</event>
<event>
 7    1  0.5137842E-006  0.1355069E+03  0.7561462E-02  0.1219506E+00
         -1   -1    0    0    0  501 -0.00000000000E+00  0.00000000000E+00  0.34093168496E+02  0.34093168496E+02  0.00000000000E+00 0.  1.
          1   -1    0    0  501    0  0.00000000000E+00 -0.00000000000E+00 -0.66207036864E+03  0.66207036864E+03  0.00000000000E+00 0. -1.
         23    2    1    2    0    0  0.75727344136E+02 -0.39115400917E+02 -0.42452342340E+03  0.44257803351E+03  0.91599855259E+02 0.  0.
          5    1    1    2  502    0 -0.46040349033E+01  0.68628908918E+02 -0.12973939061E+03  0.14690441161E+03  0.41800000000E+01 0. -1.
         -5    1    1    2    0  502 -0.71123309233E+02 -0.29513508001E+02 -0.73714386132E+02  0.10668109202E+03  0.41800000000E+01 0. -1.
        -11    1    3    3    0    0  0.39169234210E+01  0.27055545705E+02 -0.10157941055E+03  0.10519373313E+03  0.00000000000E+00 0. -1.
         11    1    3    3    0    0  0.71810420715E+02 -0.66170946622E+02 -0.32294401285E+03  0.33738430037E+03  0.00000000000E+00 0.  1.
</event>
<event>
 7    1  0.5137842E-006  0.1601476E+03  0.7561462E-02  0.1188530E+00
         -2   -1    0    0    0  501 -0.00000000000E+00  0.00000000000E+00  0.24070521486E+03  0.24070521486E+03  0.00000000000E+00 0.  1.
          2   -1    0    0  501    0  0.00000000000E+00 -0.00000000000E+00 -0.22007469525E+03  0.22007469525E+03  0.00000000000E+00 0. -1.
         23    2    1    2    0    0 -0.81679916839E+02 -0.11795555562E+03 -0.13124870132E+03  0.21727576807E+03  0.96940269632E+02 0.  0.
          5    1    1    2  502    0  0.10443282556E+03  0.11138219951E+03  0.15686466427E+03  0.21894338246E+03  0.41800000000E+01 0.  1.
         -5    1    1    2    0  502 -0.22752908725E+02  0.65733561066E+01 -0.49854433419E+01  0.24560759583E+02  0.41800000000E+01 0.  1.
        -11    1    3    3    0    0 -0.16328924640E+02 -0.21566382824E+02 -0.89605560882E+02  0.93599675154E+02  0.00000000000E+00 0.  1.
         11    1    3    3    0    0 -0.65350992200E+02 -0.96389172797E+02 -0.41643140440E+02  0.12367609292E+03  0.00000000000E+00 0. -1.
</event>
<event>
 7    1  0.5137842E-006  0.1064373E+03  0.7561462E-02  0.1267313E+00
          4   -1    0    0  501    0  0.00000000000E+00  0.00000000000E+00  0.40957691701E+03  0.40957691701E+03  0.00000000000E+00 0. -1.
         -4   -1    0    0    0  501 -0.00000000000E+00 -0.00000000000E+00 -0.45870745361E+02  0.45870745361E+02  0.00000000000E+00 0.  1.
         23    2    1    2    0    0 -0.56149558340E+02 -0.58464295294E+02  0.19434233717E+03  0.22983131350E+03  0.92101259062E+02 0.  0.
          5    1    1    2  502    0  0.10233085049E+02  0.79940573259E+02  0.15159812789E+03  0.17174014109E+03  0.41800000000E+01 0. -1.
         -5    1    1    2    0  502  0.45916473291E+02 -0.21476277966E+02  0.17765706594E+02  0.53876207787E+02  0.41800000000E+01 0. -1.
        -11    1    3    3    0    0 -0.13005093448E+02 -0.98643724646E+01 -0.73691891115E+01  0.17909306181E+02  0.00000000000E+00 0.  1.
         11    1    3    3    0    0 -0.43144464892E+02 -0.48599922829E+02  0.20171152628E+03  0.21192200732E+03  0.00000000000E+00 0. -1.
</event>
<event>
 7    1  0.5137842E-006  0.9602075E+02  0.7561462E-02  0.1288894E+00
         -1   -1    0    0    0  501 -0.00000000000E+00  0.00000000000E+00  0.34157290555E+02  0.34157290555E+02  0.00000000000E+00 0.  1.
          1   -1    0    0  501    0  0.00000000000E+00 -0.00000000000E+00 -0.33344808152E+03  0.33344808152E+03  0.00000000000E+00 0. -1.
         23    2    1    2    0    0 -0.86530501420E+01  0.46637173647E+01 -0.17098371909E+03  0.18813763251E+03  0.77869833935E+02 0.  0.
          5    1    1    2  502    0  0.61190407305E+02 -0.28508093528E+02 -0.69649401436E+02  0.97084956935E+02  0.41800000000E+01 0.  1.
         -5    1    1    2    0  502 -0.52537357163E+02  0.23844376164E+02 -0.58657670446E+02  0.82382782634E+02  0.41800000000E+01 0.  1.
        -11    1    3    3    0    0  0.99328666321E+01  0.31998974112E+02 -0.36057477655E+02  0.49221315287E+02  0.00000000000E+00 0.  1.
         11    1    3    3    0    0 -0.18585916774E+02 -0.27335256747E+02 -0.13492624143E+03  0.13891631722E+03  0.00000000000E+00 0. -1.
</event>
<event>
 7    1  0.5137842E-006  0.9664317E+02  0.7561462E-02  0.1287518E+00
         -1   -1    0    0    0  501 -0.00000000000E+00  0.00000000000E+00  0.14516513528E+03  0.14516513528E+03  0.00000000000E+00 0.  1.
          1   -1    0    0  501    0  0.00000000000E+00 -0.00000000000E+00 -0.13898467178E+03  0.13898467178E+03  0.00000000000E+00 0. -1.
         23    2    1    2    0    0  0.19118062358E+02 -0.42769560272E+02 -0.76566180341E+02  0.12702732616E+03  0.89882289830E+02 0.  0.
          5    1    1    2  502    0  0.24549460853E+02  0.70360015543E+02  0.72980505299E+02  0.10438790337E+03  0.41800000000E+01 0.  1.
         -5    1    1    2    0  502 -0.43667523210E+02 -0.27590455270E+02  0.97661385404E+01  0.52734577531E+02  0.41800000000E+01 0.  1.
        -11    1    3    3    0    0 -0.13625350009E+02 -0.27516423580E+02 -0.84619914310E+02  0.90018518246E+02  0.00000000000E+00 0. -1.
         11    1    3    3    0    0  0.32743412366E+02 -0.15253136692E+02  0.80537339682E+01  0.37008807913E+02  0.00000000000E+00 0.  1.
</event>
<event>
 7    1  0.5137842E-006  0.1122213E+03  0.7561462E-02  0.1256511E+00
          2   -1    0    0  501    0  0.00000000000E+00  0.00000000000E+00  0.29175143812E+03  0.29175143812E+03  0.00000000000E+00 0. -1.
         -2   -1    0    0    0  501 -0.00000000000E+00 -0.00000000000E+00 -0.80289871086E+02  0.80289871086E+02  0.00000000000E+00 0.  1.
         23    2    1    2    0    0  0.52974464798E+02  0.61641692532E+02  0.17806182556E+03  0.21917313288E+03  0.98614685901E+02 0.  0.
          5    1    1    2  502    0  0.10813648180E+01 -0.84284925590E+02 -0.17268243197E+01  0.84413105344E+02  0.41800000000E+01 0. -1.
         -5    1    1    2    0  502 -0.54055829616E+02  0.22643233058E+02  0.35126565794E+02  0.68455070983E+02  0.41800000000E+01 0. -1.
        -11    1    3    3    0    0  0.27416560651E+02  0.30728978325E+02  0.49533393616E+01  0.41478590594E+02  0.00000000000E+00 0.  1.
         11    1    3    3    0    0  0.25557904146E+02  0.30912714207E+02  0.17310848620E+03  0.17769454228E+03  0.00000000000E+00 0. -1.
</event>
<event>
 7    1  0.5137842E-006  0.9313385E+02  0.7561462E-02  0.1295435E+00
          1   -1    0    0  501    0  0.00000000000E+00  0.00000000000E+00  0.40220734383E+03  0.40220734383E+03  0.00000000000E+00 0. -1.
         -1   -1    0    0    0  501 -0.00000000000E+00 -0.00000000000E+00 -0.49987506714E+02  0.49987506714E+02  0.00000000000E+00 0.  1.
         23    2    1    2    0    0  0.90016305153E+02  0.13887492188E+02  0.15178845780E+03  0.19898385580E+03  0.90879267803E+02 0.  0.
          5    1    1    2  502    0 -0.37302843558E+02 -0.12204516485E+02 -0.61640616404E+01  0.39948972654E+02  0.41800000000E+01 0.  1.
         -5    1    1    2    0  502 -0.52713461594E+02 -0.16829757034E+01  0.20659544095E+03  0.21326202208E+03  0.41800000000E+01 0.  1.
        -11    1    3    3    0    0  0.51192412069E+02 -0.35833490690E+01  0.11789271866E+02  0.52654443071E+02  0.00000000000E+00 0.  1.
         11    1    3    3    0    0  0.38823893083E+02  0.17470841257E+02  0.13999918593E+03  0.14632941273E+03  0.00000000000E+00 0. -1.
</event>
<event>
 7    1  0.5137842E-006  0.2505817E+03  0.7561462E-02  0.1112938E+00
         -1   -1    0    0    0  501 -0.00000000000E+00  0.00000000000E+00  0.88901845875E+02  0.88901845875E+02  0.00000000000E+00 0.  1.
          1   -1    0    0  501    0  0.00000000000E+00 -0.00000000000E+00 -0.76749810986E+03  0.76749810986E+03  0.00000000000E+00 0. -1.
         23    2    1    2    0    0  0.95536923305E+02  0.21008083239E+03 -0.42235526667E+03  0.48956442190E+03  0.89599620850E+02 0.  0.
          5    1    1    2  502    0  0.12939137404E+02 -0.11240029289E+03 -0.83752183134E+02  0.14083020876E+03  0.41800000000E+01 0. -1.
         -5    1    1    2    0  502 -0.10847606071E+03 -0.97680539498E+02 -0.17248881418E+03  0.22600532507E+03  0.41800000000E+01 0. -1.
        -11    1    3    3    0    0  0.91974174922E+02  0.11729427167E+03 -0.20734746884E+03  0.25536281611E+03  0.00000000000E+00 0.  1.
         11    1    3    3    0    0  0.35627483827E+01  0.92786560722E+02 -0.21500779783E+03  0.23420160579E+03  0.00000000000E+00 0. -1.
</event>
<event>
 7    1  0.5137842E-006  0.8198997E+02  0.7561462E-02  0.1323497E+00
          2   -1    0    0  501    0  0.00000000000E+00  0.00000000000E+00  0.17431208570E+03  0.17431208570E+03  0.00000000000E+00 0. -1.
         -2   -1    0    0    0  501 -0.00000000000E+00 -0.00000000000E+00 -0.14675952658E+03  0.14675952658E+03  0.00000000000E+00 0.  1.
         23    2    1    2    0    0  0.32400410522E+02  0.19839683890E+02  0.12403915435E+03  0.15859203895E+03  0.91226768811E+02 0.  0.
          5    1    1    2  502    0 -0.40900619339E+02  0.31540939609E+02 -0.97287300728E+02  0.11022696048E+03  0.41800000000E+01 0.  1.
         -5    1    1    2    0  502  0.85002088172E+01 -0.51380623499E+02  0.80070549849E+00  0.52252612857E+02  0.41800000000E+01 0.  1.
        -11    1    3    3    0    0  0.44461159580E+02  0.16127357851E+02  0.13426384642E+03  0.14235050698E+03  0.00000000000E+00 0. -1.
         11    1    3    3    0    0 -0.12060749059E+02  0.37123260399E+01 -0.10224692076E+02  0.16241531964E+02  0.00000000000E+00 0.  1.
</event>
<event>
 7    1  0.5137842E-006  0.1090728E+03  0.7561462E-02  0.1262297E+00
         -2   -1    0    0    0  501 -0.00000000000E+00  0.00000000000E+00  0.42189289061E+02  0.42189289061E+02  0.00000000000E+00 0.  1.
          2   -1    0    0  501    0  0.00000000000E+00 -0.00000000000E+00 -0.31058006408E+03  0.31058006408E+03  0.00000000000E+00 0. -1.
         23    2    1    2    0    0  0.29103467461E+02  0.29140081499E+02 -0.14146044215E+03  0.16986308068E+03  0.84535515121E+02 0.  0.
          5    1    1    2  502    0 -0.68684966055E+02 -0.44215067638E+02 -0.52578189095E+02  0.97234433905E+02  0.41800000000E+01 0. -1.
         -5    1    1    2    0  502  0.39581498594E+02  0.15074986139E+02 -0.74352143779E+02  0.85671838562E+02  0.41800000000E+01 0. -1.
        -11    1    3    3    0    0  0.51048477365E+02  0.43913502834E+02 -0.10688736156E+03  0.12632992849E+03  0.00000000000E+00 0.  1.
         11    1    3    3    0    0 -0.21945009904E+02 -0.14773421335E+02 -0.34573080588E+02  0.43533152183E+02  0.00000000000E+00 0. -1.
</event>
<event>
 7    1  0.5137842E-006  0.1211751E+03  0.7561462E-02  0.1241171E+00
         -1   -1    0    0    0  501 -0.00000000000E+00  0.00000000000E+00  0.32073557850E+02  0.32073557850E+02  0.00000000000E+00 0.  1.
          1   -1    0    0  501    0  0.00000000000E+00 -0.00000000000E+00 -0.51733022978E+03  0.51733022978E+03  0.00000000000E+00 0. -1.
         23    2    1    2    0    0 -0.99781031720E+01 -0.66370054442E+02 -0.17599054711E+03  0.20911337165E+03  0.90836021830E+02 0.  0.
          5    1    1    2  502    0  0.10425024047E+01 -0.34014803348E+02 -0.13154258131E+03  0.13593754726E+03  0.41800000000E+01 0.  1.
         -5    1    1    2    0  502  0.89356007673E+01  0.10038485779E+03 -0.17772354351E+03  0.20435286871E+03  0.41800000000E+01 0.  1.
        -11    1    3    3    0    0 -0.38133536486E+02 -0.69083508289E+02 -0.95998350177E+02  0.12426737689E+03  0.00000000000E+00 0.  1.
         11    1    3    3    0    0  0.28155433314E+02  0.27134538469E+01 -0.79992196932E+02  0.84845994760E+02  0.00000000000E+00 0. -1.
</event>
<event>
 7    1  0.5137842E-006  0.1581203E+03  0.7561462E-02  0.1190835E+00
          1   -1    0    0  501    0  0.00000000000E+00  0.00000000000E+00  0.68909186582E+03  0.68909186582E+03  0.00000000000E+00 0. -1.
         -1   -1    0    0    0  501 -0.00000000000E+00 -0.00000000000E+00 -0.51094057559E+02  0.51094057559E+02  0.00000000000E+00 0.  1.
         23    2    1    2    0    0 -0.14658406443E+03  0.28454578495E+02  0.34306045012E+03  0.38672787569E+03  0.97833667104E+02 0.  0.
          5    1    1    2  502    0  0.32485814200E+02  0.13813213466E+02  0.12878873628E+01  0.35570550240E+02  0.41800000000E+01 0.  1.
         -5    1    1    2    0  502  0.11409825023E+03 -0.42267791961E+02  0.29364947078E+03  0.31788749745E+03  0.41800000000E+01 0.  1.
        -11    1    3    3    0    0 -0.64424520340E+02  0.40219565095E+02  0.25345602835E+03  0.26459042036E+03  0.00000000000E+00 0.  1.
         11    1    3    3    0    0 -0.82159544094E+02 -0.11764986601E+02  0.89604421767E+02  0.12213745533E+03  0.00000000000E+00 0. -1.
</event>
<event>
 7    1  0.5137842E-006  0.2507230E+03  0.7561462E-02  0.1112849E+00
         -2   -1    0    0    0  501 -0.00000000000E+00  0.00000000000E+00  0.13553392684E+03  0.13553392684E+03  0.00000000000E+00 0.  1.
          2   -1    0    0  501    0  0.00000000000E+00 -0.00000000000E+00 -0.71911110628E+03  0.71911110628E+03  0.00000000000E+00 0. -1.
         23    2    1    2    0    0 -0.17052432292E+03  0.16267211929E+03 -0.52307012568E+03  0.58106546823E+03  0.92162676211E+02 0.  0.
          5    1    1    2  502    0 -0.11695122066E+02  0.49750521658E+01  0.92906365243E+01  0.16288503652E+02  0.41800000000E+01 0.  1.
         -5    1    1    2    0  502  0.18221944499E+03 -0.16764717145E+03 -0.69797690283E+02  0.25729106124E+03  0.41800000000E+01 0.  1.
        -11    1    3    3    0    0 -0.11725946361E+03  0.13977374247E+03 -0.30484926081E+03  0.35527391222E+03  0.00000000000E+00 0.  1.
         11    1    3    3    0    0 -0.53264859315E+02  0.22898376818E+02 -0.21822086487E+03  0.22579155601E+03  0.00000000000E+00 0. -1.
</event>
<event>
 7    1  0.5137842E-006  0.1233348E+03  0.7561462E-02  0.1237695E+00
         -2   -1    0    0    0  501 -0.00000000000E+00  0.00000000000E+00  0.29360104751E+03  0.29360104751E+03  0.00000000000E+00 0.  1.
          2   -1    0    0  501    0  0.00000000000E+00 -0.00000000000E+00 -0.90108678760E+02  0.90108678760E+02  0.00000000000E+00 0. -1.
         23    2    1    2    0    0  0.11966033112E+03  0.17311096581E+02  0.94883591598E+02  0.17862189724E+03  0.91019873155E+02 0.  0.
          5    1    1    2  502    0 -0.38520509484E+02  0.54245716784E+01  0.11402012125E+03  0.12054590859E+03  0.41800000000E+01 0.  1.
         -5    1    1    2    0  502 -0.81139821637E+02 -0.22735668259E+02 -0.54113440978E+01  0.84541920439E+02  0.41800000000E+01 0.  1.
        -11    1    3    3    0    0  0.91689869487E+02  0.23229476835E+02  0.11097460755E+03  0.14581496591E+03  0.00000000000E+00 0.  1.
         11    1    3    3    0    0  0.27970461635E+02 -0.59183802541E+01 -0.16091015955E+02  0.32806931331E+02  0.00000000000E+00 0. -1.
</event>
<event>
 7    1  0.5137842E-006  0.2482494E+03  0.7561462E-02  0.1114416E+00
         -2   -1    0    0    0  501 -0.00000000000E+00  0.00000000000E+00  0.18935194636E+03  0.18935194636E+03  0.00000000000E+00 0.  1.
          2   -1    0    0  501    0  0.00000000000E+00 -0.00000000000E+00 -0.47465996889E+03  0.47465996889E+03  0.00000000000E+00 0. -1.
         23    2    1    2    0    0  0.15814435060E+03 -0.74021338236E+02 -0.16972321751E+03  0.25941340141E+03  0.89445783157E+02 0.  0.
          5    1    1    2  502    0 -0.20115986347E+03 -0.17881441664E+02 -0.19108012231E+03  0.27805417128E+03  0.41800000000E+01 0. -1.
         -5    1    1    2    0  502  0.43015512860E+02  0.91902779900E+02  0.75495317290E+02  0.12654434255E+03  0.41800000000E+01 0.  1.
        -11    1    3    3    0    0  0.51489488782E+02 -0.69103471180E+02 -0.52749230994E+02  0.10103929213E+03  0.00000000000E+00 0. -1.
         11    1    3    3    0    0  0.10665486182E+03 -0.49178670564E+01 -0.11697398652E+03  0.15837410927E+03  0.00000000000E+00 0.  1.
</event>
<event>
 7    1  0.5137842E-006  0.1447133E+03  0.7561462E-02  0.1207124E+00
         -1   -1    0    0    0  501 -0.00000000000E+00  0.00000000000E+00  0.25950692574E+03  0.25950692574E+03  0.00000000000E+00 0.  1.
          1   -1    0    0  501    0  0.00000000000E+00 -0.00000000000E+00 -0.10559605900E+03  0.10559605900E+03  0.00000000000E+00 0. -1.
         23    2    1    2    0    0 -0.16618115449E+02 -0.11583682026E+03  0.19808080546E+02  0.14755933664E+03  0.87675920787E+02 0.  0.
          5    1    1    2  502    0  0.15011201565E+02  0.14248211244E+03  0.12069948782E+03  0.18738283619E+03  0.41800000000E+01 0.  1.
         -5    1    1    2    0  502  0.16069138845E+01 -0.26645292178E+02  0.13403298377E+02  0.30160811906E+02  0.41800000000E+01 0.  1.
        -11    1    3    3    0    0 -0.20776606820E+02 -0.69136090949E+02 -0.30874891055E+02  0.78515765043E+02  0.00000000000E+00 0. -1.
         11    1    3    3    0    0  0.41584913704E+01 -0.46700729316E+02  0.50682971601E+02  0.69043571601E+02  0.00000000000E+00 0.  1.
</event>
<event>
 7    1  0.5137842E-006  0.8803291E+02  0.7561462E-02  0.1307686E+00
         -1   -1    0    0    0  501 -0.00000000000E+00  0.00000000000E+00  0.15442303774E+03  0.15442303774E+03  0.00000000000E+00 0.  1.
          1   -1    0    0  501    0  0.00000000000E+00 -0.00000000000E+00 -0.85565494786E+02  0.85565494786E+02  0.00000000000E+00 0. -1.
         23    2    1    2    0    0  0.64947296873E+01  0.37559407287E+02  0.25783595597E+02  0.10230781879E+03  0.91373986420E+02 0.  0.
          5    1    1    2  502    0  0.16643511832E+02  0.43196575387E+02  0.11893715982E+02  0.47977947967E+02  0.41800000000E+01 0.  1.
         -5    1    1    2    0  502 -0.23138241519E+02 -0.80755982674E+02  0.31180231376E+02  0.89702765771E+02  0.41800000000E+01 0.  1.
        -11    1    3    3    0    0  0.15009829298E+02  0.14397574978E+02 -0.32743590459E+02  0.38790821813E+02  0.00000000000E+00 0. -1.
         11    1    3    3    0    0 -0.85150996112E+01  0.23161832309E+02  0.58527186056E+02  0.63516996977E+02  0.00000000000E+00 0.  1.
</event>
<event>
 7    1  0.5137842E-006  0.8540008E+02  0.7561462E-02  0.1314390E+00
          1   -1    0    0  501    0  0.00000000000E+00  0.00000000000E+00  0.52513683709E+03  0.52513683709E+03  0.00000000000E+00 0. -1.
         -1   -1    0    0    0  501 -0.00000000000E+00 -0.00000000000E+00 -0.28455503368E+02  0.28455503368E+02  0.00000000000E+00 0.  1.
         23    2    1    2    0    0  0.19995770354E+02 -0.42070408840E+02  0.28963073644E+03  0.30724626011E+03  0.91348512465E+02 0.  0.
          5    1    1    2  502    0 -0.28079660620E+02  0.33651156306E+01  0.20451621239E+03  0.20650458802E+03  0.41800000000E+01 0. -1.
         -5    1    1    2    0  502  0.80838902663E+01  0.38705293209E+02  0.25343848967E+01  0.39841492329E+02  0.41800000000E+01 0. -1.
        -11    1    3    3    0    0  0.42358981168E+02 -0.60236918441E+02  0.20235610755E+03  0.21533871898E+03  0.00000000000E+00 0. -1.
         11    1    3    3    0    0 -0.22363210815E+02  0.18166509601E+02  0.87274628887E+02  0.91907541129E+02  0.00000000000E+00 0.  1.
</event>
<event>
 7    1  0.5137842E-006  0.9496125E+02  0.7561462E-02  0.1291263E+00
         -2   -1    0    0    0  501 -0.00000000000E+00  0.00000000000E+00  0.27727750893E+03  0.27727750893E+03  0.00000000000E+00 0.  1.
          2   -1    0    0  501    0  0.00000000000E+00 -0.00000000000E+00 -0.66040256425E+02  0.66040256425E+02  0.00000000000E+00 0. -1.
         23    2    1    2    0    0 -0.32134868122E+02 -0.69940001918E+02  0.12895030124E+03  0.17496515051E+03  0.89779563853E+02 0.  0.
          5    1    1    2  502    0  0.20021530081E+02  0.29411342614E+02  0.11127718854E+03  0.11690155615E+03  0.41800000000E+01 0.  1.
         -5    1    1    2    0  502  0.12113338041E+02  0.40528659305E+02 -0.28990237274E+02  0.51451058694E+02  0.41800000000E+01 0.  1.
        -11    1    3    3    0    0 -0.59495901602E+02 -0.45413162977E+02  0.11148750327E+03  0.13428172275E+03  0.00000000000E+00 0.  1.
         11    1    3    3    0    0  0.27361033480E+02 -0.24526838942E+02  0.17462797971E+02  0.40683427763E+02  0.00000000000E+00 0. -1.
</event>
<event>
 7    1  0.5137842E-006  0.1084290E+03  0.7561462E-02  0.1263507E+00
          1   -1    0    0  501    0  0.00000000000E+00  0.00000000000E+00  0.51838030286E+02  0.51838030286E+02  0.00000000000E+00 0. -1.
         -1   -1    0    0    0  501 -0.00000000000E+00 -0.00000000000E+00 -0.27294907843E+03  0.27294907843E+03  0.00000000000E+00 0.  1.
         23    2    1    2    0    0 -0.49883265000E+01  0.22465544543E+02 -0.39771022096E+02  0.10328988603E+03  0.92506660649E+02 0.  0.
          5    1    1    2  502    0  0.62035476765E+02 -0.33371925673E+01 -0.12155041036E+03  0.13657053815E+03  0.41800000000E+01 0.  1.
         -5    1    1    2    0  502 -0.57047150265E+02 -0.19128351975E+02 -0.59789615686E+02  0.84926684537E+02  0.41800000000E+01 0.  1.
        -11    1    3    3    0    0 -0.40172427245E+02  0.38473487651E+02 -0.30899761196E+02  0.63630404719E+02  0.00000000000E+00 0.  1.
         11    1    3    3    0    0  0.35184100745E+02 -0.16007943108E+02 -0.88712609001E+01  0.39659481310E+02  0.00000000000E+00 0. -1.
</event>
<event>
 7    1  0.5137842E-006  0.1391668E+03  0.7561462E-02  0.1214455E+00
          2   -1    0    0  501    0  0.00000000000E+00  0.00000000000E+00  0.11729955239E+03  0.11729955239E+03  0.00000000000E+00 0. -1.
         -2   -1    0    0    0  501 -0.00000000000E+00 -0.00000000000E+00 -0.22644253641E+03  0.22644253641E+03  0.00000000000E+00 0.  1.
         23    2    1    2    0    0  0.94225095569E+02  0.37071910347E+00  0.29609275525E+02  0.13451063497E+03  0.91312078369E+02 0.  0.
          5    1    1    2  502    0 -0.88401140957E+02 -0.53221805200E+02 -0.91142422184E+02  0.13773792431E+03  0.41800000000E+01 0.  1.
         -5    1    1    2    0  502 -0.58239546112E+01  0.52851086097E+02 -0.47609837369E+02  0.71493529520E+02  0.41800000000E+01 0.  1.
        -11    1    3    3    0    0  0.13476929498E+02  0.32220517945E+02 -0.13684209885E+02  0.37510625235E+02  0.00000000000E+00 0.  1.
         11    1    3    3    0    0  0.80748166070E+02 -0.31849798842E+02  0.43293485411E+02  0.97000009737E+02  0.00000000000E+00 0. -1.
</event>
<event>
 7    1  0.5137842E-006  0.1181031E+03  0.7561462E-02  0.1246260E+00
          1   -1    0    0  501    0  0.00000000000E+00  0.00000000000E+00  0.14970168493E+03  0.14970168493E+03  0.00000000000E+00 0. -1.
         -1   -1    0    0    0  501 -0.00000000000E+00 -0.00000000000E+00 -0.15131420473E+03  0.15131420473E+03  0.00000000000E+00 0.  1.
         23    2    1    2    0    0 -0.38138652273E+02  0.84412753830E+02  0.31798542013E+02  0.14183460054E+03  0.10259550102E+03 0.  0.
          5    1    1    2  502    0 -0.24446690403E+02  0.12043816940E+02 -0.34442978703E+02  0.44118991149E+02  0.41800000000E+01 0.  1.
         -5    1    1    2    0  502  0.62585342675E+02 -0.96456570769E+02  0.10319168887E+01  0.11506229797E+03  0.41800000000E+01 0.  1.
        -11    1    3    3    0    0 -0.14637450259E+02  0.18437236034E+02  0.61431251483E+02  0.65787424949E+02  0.00000000000E+00 0. -1.
         11    1    3    3    0    0 -0.23501202013E+02  0.65975517796E+02 -0.29632709469E+02  0.76047175589E+02  0.00000000000E+00 0.  1.
</event>
<event>
 7    1  0.5137842E-006  0.9344154E+02  0.7561462E-02  0.1294725E+00
          2   -1    0    0  501    0  0.00000000000E+00  0.00000000000E+00  0.20011026249E+03  0.20011026249E+03  0.00000000000E+00 0. -1.
         -2   -1    0    0    0  501 -0.00000000000E+00 -0.00000000000E+00 -0.87501118908E+02  0.87501118908E+02  0.00000000000E+00 0.  1.
         23    2    1    2    0    0  0.47762682001E+02 -0.36739852141E+01  0.11274227572E+03  0.15366353417E+03  0.92773320742E+02 0.  0.
          5    1    1    2  502    0  0.20399638455E+01 -0.40812944033E+02 -0.38938507994E+02  0.56599802631E+02  0.41800000000E+01 0.  1.
         -5    1    1    2    0  502 -0.49802645847E+02  0.44486929247E+02  0.38805375862E+02  0.77348044597E+02  0.41800000000E+01 0.  1.
        -11    1    3    3    0    0  0.19543123127E+02 -0.32902190069E+02  0.10572005268E+03  0.11243316820E+03  0.00000000000E+00 0. -1.
         11    1    3    3    0    0  0.28219558875E+02  0.29228204855E+02  0.70222230404E+01  0.41230365977E+02  0.00000000000E+00 0.  1.
</event>
<event>
 7    1  0.5137842E-006  0.9604621E+02  0.7561462E-02  0.1288837E+00
          1   -1    0    0  501    0  0.00000000000E+00  0.00000000000E+00  0.54393061249E+02  0.54393061249E+02  0.00000000000E+00 0. -1.
         -1   -1    0    0    0  501 -0.00000000000E+00 -0.00000000000E+00 -0.28094970773E+03  0.28094970773E+03  0.00000000000E+00 0.  1.
         23    2    1    2    0    0 -0.15328749740E+02 -0.16114513030E+02 -0.21305355799E+02  0.93951047992E+02  0.88759411525E+02 0.  0.
          5    1    1    2  502    0  0.55907231298E+02 -0.30349758786E+02 -0.12245817713E+03  0.13805869735E+03  0.41800000000E+01 0.  1.
         -5    1    1    2    0  502 -0.40578481558E+02  0.46464271816E+02 -0.82793113554E+02  0.10333302363E+03  0.41800000000E+01 0.  1.
        -11    1    3    3    0    0 -0.39501610607E+02 -0.47057296102E+01  0.20174882687E+02  0.44604338613E+02  0.00000000000E+00 0. -1.
         11    1    3    3    0    0  0.24172860867E+02 -0.11408783420E+02 -0.41480238486E+02  0.49346709378E+02  0.00000000000E+00 0.  1.
</event>
<event>
 7    1  0.5137842E-006  0.2092491E+03  0.7561462E-02  0.1142162E+00
         -2   -1    0    0    0  501 -0.00000000000E+00  0.00000000000E+00  0.84028322488E+02  0.84028322488E+02  0.00000000000E+00 0.  1.
          2   -1    0    0  501    0  0.00000000000E+00 -0.00000000000E+00 -0.54433998625E+03  0.54433998625E+03  0.00000000000E+00 0. -1.
         23    2    1    2    0    0  0.16844437675E+03  0.65598078032E+02 -0.25756362423E+03  0.32931869933E+03  0.97134799661E+02 0.  0.
          5    1    1    2  502    0  0.90338697767E+01  0.19918331108E+02 -0.27125982592E+02  0.35094758139E+02  0.41800000000E+01 0.  1.
         -5    1    1    2    0  502 -0.17747824653E+03 -0.85516409140E+02 -0.17562205695E+03  0.26395485127E+03  0.41800000000E+01 0.  1.
        -11    1    3    3    0    0  0.53564155109E+02  0.65093610342E+02 -0.14933839792E+03  0.17148834921E+03  0.00000000000E+00 0. -1.
         11    1    3    3    0    0  0.11488022164E+03  0.50446769017E+00 -0.10822522630E+03  0.15783035013E+03  0.00000000000E+00 0.  1.
</event>
<event>
 7    1  0.5137842E-006  0.9735792E+02  0.7561462E-02  0.1285952E+00
          1   -1    0    0  501    0  0.00000000000E+00  0.00000000000E+00  0.45786329075E+03  0.45786329075E+03  0.00000000000E+00 0. -1.
         -1   -1    0    0    0  501 -0.00000000000E+00 -0.00000000000E+00 -0.51345081992E+02  0.51345081992E+02  0.00000000000E+00 0.  1.
         23    2    1    2    0    0  0.44773971491E+02  0.21826797568E+02  0.35707318026E+03  0.36577033217E+03  0.61689239125E+02 0.  0.
          5    1    1    2  502    0 -0.37456198627E+02  0.39727748652E+02  0.59092588700E+02  0.80564677544E+02  0.41800000000E+01 0.  1.
         -5    1    1    2    0  502 -0.73177728645E+01 -0.61554546220E+02 -0.96475602013E+01  0.62873363023E+02  0.41800000000E+01 0.  1.
        -11    1    3    3    0    0 -0.10412344767E+02  0.20072218377E+02  0.74610879928E+02  0.77962133615E+02  0.00000000000E+00 0.  1.
         11    1    3    3    0    0  0.55186316258E+02  0.17545791908E+01  0.28246230033E+03  0.28780819856E+03  0.00000000000E+00 0. -1.
</event>
<event>
 7    1  0.5137842E-006  0.7463644E+02  0.7561462E-02  0.1345001E+00
         -1   -1    0    0    0  501 -0.00000000000E+00  0.00000000000E+00  0.11385888016E+03  0.11385888016E+03  0.00000000000E+00 0.  1.
          1   -1    0    0  501    0  0.00000000000E+00 -0.00000000000E+00 -0.12092134680E+03  0.12092134680E+03  0.00000000000E+00 0. -1.
         23    2    1    2    0    0 -0.25863677809E+02 -0.19646278320E+02 -0.33749849597E+02  0.10281699520E+03  0.91528007043E+02 0.  0.
          5    1    1    2  502    0 -0.20007641615E+02 -0.82081960783E+01 -0.40361363700E+02  0.45980346732E+02  0.41800000000E+01 0. -1.
         -5    1    1    2    0  502  0.45871319423E+02  0.27854474398E+02  0.67048746653E+02  0.85982885026E+02  0.41800000000E+01 0. -1.
        -11    1    3    3    0    0  0.19059348596E+02 -0.21148924151E+02 -0.47875944582E+02  0.55701362921E+02  0.00000000000E+00 0. -1.
         11    1    3    3    0    0 -0.44923026404E+02  0.15026458314E+01  0.14126094985E+02  0.47115632282E+02  0.00000000000E+00 0.  1.
</event>
<event>
 7    1  0.5137842E-006  0.1528067E+03  0.7561462E-02  0.1197066E+00
         -1   -1    0    0    0  501 -0.00000000000E+00  0.00000000000E+00  0.24155741103E+03  0.24155741103E+03  0.00000000000E+00 0.  1.
          1   -1    0    0  501    0  0.00000000000E+00 -0.00000000000E+00 -0.14922375778E+03  0.14922375778E+03  0.00000000000E+00 0. -1.
         23    2    1    2    0    0  0.13804051111E+03 -0.44217106351E+02 -0.13366927877E+02  0.17207913865E+03  0.91772653862E+02 0.  0.
          5    1    1    2  502    0 -0.88933788536E+02  0.47445556372E+02  0.12926947383E+03  0.16397673258E+03  0.41800000000E+01 0.  1.
         -5    1    1    2    0  502 -0.49106722570E+02 -0.32284500218E+01 -0.23568892708E+02  0.54725297575E+02  0.41800000000E+01 0.  1.
        -11    1    3    3    0    0  0.11650290636E+03 -0.12738894616E+02 -0.41883155515E+02  0.12445643953E+03  0.00000000000E+00 0. -1.
         11    1    3    3    0    0  0.21537604751E+02 -0.31478211735E+02  0.28516227639E+02  0.47622699117E+02  0.00000000000E+00 0.  1.
</event>
<event>
 7    1  0.5137842E-006  0.8375891E+02  0.7561462E-02  0.1318710E+00
          2   -1    0    0  501    0  0.00000000000E+00  0.00000000000E+00  0.12058553128E+03  0.12058553128E+03  0.00000000000E+00 0. -1.
         -2   -1    0    0    0  501 -0.00000000000E+00 -0.00000000000E+00 -0.12004028770E+03  0.12004028770E+03  0.00000000000E+00 0.  1.
         23    2    1    2    0    0 -0.29496025831E+02  0.25781312083E+02  0.51037561353E+02  0.10016141965E+03  0.76764482183E+02 0.  0.
          5    1    1    2  502    0 -0.43954747326E+02 -0.23704090629E+02  0.18551395812E+01  0.50147957764E+02  0.41800000000E+01 0. -1.
         -5    1    1    2    0  502  0.73450773157E+02 -0.20772214538E+01 -0.52347457355E+02  0.90316441570E+02  0.41800000000E+01 0. -1.
        -11    1    3    3    0    0 -0.11209926983E+02 -0.11325628913E+01 -0.19477314386E+02  0.22501354123E+02  0.00000000000E+00 0.  1.
         11    1    3    3    0    0 -0.18286098848E+02  0.26913874974E+02  0.70514875739E+02  0.77660065527E+02  0.00000000000E+00 0. -1.
</event>
<event>
 7    1  0.5137842E-006  0.9624258E+02  0.7561462E-02  0.1288402E+00
         -1   -1    0    0    0  501 -0.00000000000E+00  0.00000000000E+00  0.20393580150E+03  0.20393580150E+03  0.00000000000E+00 0.  1.
          1   -1    0    0  501    0  0.00000000000E+00 -0.00000000000E+00 -0.74662378613E+02  0.74662378613E+02  0.00000000000E+00 0. -1.
         23    2    1    2    0    0 -0.41605351894E+02  0.19493368137E+02  0.12993049296E+02  0.10173977490E+03  0.89839666957E+02 0.  0.
          5    1    1    2  502    0 -0.22947142388E+02  0.20354995392E+01 -0.15782532395E+02  0.28236064367E+02  0.41800000000E+01 0.  1.
         -5    1    1    2    0  502  0.64552494282E+02 -0.21528867676E+02  0.13206290599E+03  0.14862234085E+03  0.41800000000E+01 0.  1.
        -11    1    3    3    0    0  0.23685769154E+01  0.48279500832E+02  0.54712423494E+01  0.48646221333E+02  0.00000000000E+00 0. -1.
         11    1    3    3    0    0 -0.43973928809E+02 -0.28786132695E+02  0.75218069470E+01  0.53093553565E+02  0.00000000000E+00 0.  1.
</event>
<event>
 7    1  0.5137842E-006  0.1418768E+03  0.7561462E-02  0.1210826E+00
         -2   -1    0    0    0  501 -0.00000000000E+00  0.00000000000E+00  0.24222006280E+02  0.24222006280E+02  0.00000000000E+00 0.  1.
          2   -1    0    0  501    0  0.00000000000E+00 -0.00000000000E+00 -0.12472621218E+04  0.12472621218E+04  0.00000000000E+00 0. -1.
         23    2    1    2    0    0 -0.12498379643E+03  0.44061445118E+02 -0.68695761743E+03  0.70527337920E+03  0.89092148579E+02 0.  0.
          5    1    1    2  502    0  0.99312946252E+02 -0.57095522613E+02 -0.21357455561E+03  0.24239332334E+03  0.41800000000E+01 0.  1.
         -5    1    1    2    0  502  0.25670850180E+02  0.13034077495E+02 -0.32250794250E+03  0.32381742557E+03  0.41800000000E+01 0.  1.
        -11    1    3    3    0    0 -0.12306714935E+03  0.31111459123E+02 -0.67707327306E+03  0.68886984492E+03  0.00000000000E+00 0. -1.
         11    1    3    3    0    0 -0.19166470837E+01  0.12949985995E+02 -0.98843443700E+01  0.16403534282E+02  0.00000000000E+00 0.  1.
</event>
<event>
 7    1  0.5137842E-006  0.1072922E+03  0.7561462E-02  0.1265668E+00
          2   -1    0    0  501    0  0.00000000000E+00  0.00000000000E+00  0.32076007197E+03  0.32076007197E+03  0.00000000000E+00 0. -1.
         -2   -1    0    0    0  501 -0.00000000000E+00 -0.00000000000E+00 -0.63523865156E+02  0.63523865156E+02  0.00000000000E+00 0.  1.
         23    2    1    2    0    0  0.28293388377E+02 -0.21889866020E+01  0.23546156621E+03  0.25418271096E+03  0.91440657821E+02 0.  0.
          5    1    1    2  502    0 -0.36803138086E+02 -0.56642772022E+02  0.19647427216E+02  0.70472465485E+02  0.41800000000E+01 0. -1.
         -5    1    1    2    0  502  0.85097497089E+01  0.58831758624E+02  0.21272133861E+01  0.59628760675E+02  0.41800000000E+01 0. -1.
        -11    1    3    3    0    0  0.47610487051E+02 -0.27879530955E+02  0.19416405942E+03  0.20185070892E+03  0.00000000000E+00 0.  1.
         11    1    3    3    0    0 -0.19317098674E+02  0.25690544353E+02  0.41297506793E+02  0.52332002041E+02  0.00000000000E+00 0. -1.
</event>
<event>
 7    1  0.5137842E-006  0.1030894E+03  0.7561462E-02  0.1273930E+00
         -2   -1    0    0    0  501 -0.00000000000E+00  0.00000000000E+00  0.21718144396E+02  0.21718144396E+02  0.00000000000E+00 0.  1.
          2   -1    0    0  501    0  0.00000000000E+00 -0.00000000000E+00 -0.58803864499E+03  0.58803864499E+03  0.00000000000E+00 0. -1.
         23    2    1    2    0    0  0.11004575230E+02  0.26597215515E+02 -0.28233042752E+03  0.29810717250E+03  0.91262826190E+02 0.  0.
          5    1    1    2  502    0  0.88523239727E+00  0.41372391075E+02 -0.38726476685E+02  0.56830192470E+02  0.41800000000E+01 0.  1.
         -5    1    1    2    0  502 -0.11889807628E+02 -0.67969606590E+02 -0.24526359640E+03  0.25481942442E+03  0.41800000000E+01 0.  1.
        -11    1    3    3    0    0  0.40828579962E+02 -0.15666419757E+02 -0.11896842780E+03  0.12675131740E+03  0.00000000000E+00 0.  1.
         11    1    3    3    0    0 -0.29824004732E+02  0.42263635272E+02 -0.16336199972E+03  0.17135585510E+03  0.00000000000E+00 0. -1.
</event>
<event>
 7    1  0.5137842E-006  0.6816300E+02  0.7561462E-02  0.1366454E+00
         -1   -1    0    0    0  501 -0.00000000000E+00  0.00000000000E+00  0.30538968343E+02  0.30538968343E+02  0.00000000000E+00 0.  1.
          1   -1    0    0  501    0  0.00000000000E+00 -0.00000000000E+00 -0.41006001202E+03  0.41006001202E+03  0.00000000000E+00 0. -1.
         23    2    1    2    0    0  0.17144454143E+02 -0.12825469001E+02 -0.17605682465E+03  0.20079871844E+03  0.94157818880E+02 0.  0.
          5    1    1    2  502    0  0.29162850686E+02  0.16778947131E+02 -0.30675756575E+01  0.34042434510E+02  0.41800000000E+01 0.  1.
         -5    1    1    2    0  502 -0.46307304829E+02 -0.39534781298E+01 -0.20039664337E+03  0.20575782742E+03  0.41800000000E+01 0.  1.
        -11    1    3    3    0    0 -0.18350451854E+02 -0.76801005947E+01  0.12199955829E+01  0.19930163512E+02  0.00000000000E+00 0.  1.
         11    1    3    3    0    0  0.35494905997E+02 -0.51453684060E+01 -0.17727682023E+03  0.18086855492E+03  0.00000000000E+00 0. -1.
</event>
<event>
 7    1  0.5137842E-006  0.2695028E+03  0.7561462E-02  0.1101564E+00
         -2   -1    0    0    0  501 -0.00000000000E+00  0.00000000000E+00  0.12828829587E+03  0.12828829587E+03  0.00000000000E+00 0.  1.
          2   -1    0    0  501    0  0.00000000000E+00 -0.00000000000E+00 -0.67329819658E+03  0.67329819658E+03  0.00000000000E+00 0. -1.
         23    2    1    2    0    0  0.25367821741E+03 -0.57539694811E+02 -0.38060689829E+03  0.46941668956E+03  0.88470124583E+02 0.  0.
          5    1    1    2  502    0 -0.22226126449E+03  0.29585236308E+02 -0.17954445851E+03  0.28727868157E+03  0.41800000000E+01 0.  1.
         -5    1    1    2    0  502 -0.31416952918E+02  0.27954458503E+02  0.15141456089E+02  0.44891121320E+02  0.41800000000E+01 0.  1.
        -11    1    3    3    0    0  0.13473116038E+03  0.11041376634E+02 -0.21895943558E+03  0.25732786870E+03  0.00000000000E+00 0.  1.
         11    1    3    3    0    0  0.11894705703E+03 -0.68581071445E+02 -0.16164746270E+03  0.21208882086E+03  0.00000000000E+00 0. -1.
</event>
<event>
 7    1  0.5137842E-006  0.9691336E+02  0.7561462E-02  0.1286924E+00
          2   -1    0    0  501    0  0.00000000000E+00  0.00000000000E+00  0.40649332223E+02  0.40649332223E+02  0.00000000000E+00 0. -1.
         -2   -1    0    0    0  501 -0.00000000000E+00 -0.00000000000E+00 -0.43351635723E+03  0.43351635723E+03  0.00000000000E+00 0.  1.
         23    2    1    2    0    0 -0.48792158434E+02 -0.11047414177E+01 -0.69545918771E+02  0.12407077239E+03  0.90415853512E+02 0.  0.
          5    1    1    2  502    0  0.49840520787E+02 -0.57101261213E+02 -0.18191530981E+03  0.19711743679E+03  0.41800000000E+01 0. -1.
         -5    1    1    2    0  502 -0.10483623535E+01  0.58206002631E+02 -0.14140579643E+03  0.15297748027E+03  0.41800000000E+01 0. -1.
        -11    1    3    3    0    0 -0.52261253629E+00 -0.10385999536E+02  0.19647544887E+02  0.22229892720E+02  0.00000000000E+00 0. -1.
         11    1    3    3    0    0 -0.48269545898E+02  0.92812581185E+01 -0.89193463658E+02  0.10184087967E+03  0.00000000000E+00 0.  1.
</event>
<event>
 7    1  0.5137842E-006  0.1306469E+03  0.7561462E-02  0.1226499E+00
          2   -1    0    0  501    0  0.00000000000E+00  0.00000000000E+00  0.88081192873E+03  0.88081192873E+03  0.00000000000E+00 0. -1.
         -2   -1    0    0    0  501 -0.00000000000E+00 -0.00000000000E+00 -0.28235651841E+02  0.28235651841E+02  0.00000000000E+00 0.  1.
         23    2    1    2    0    0 -0.73988955261E+02 -0.80312024950E+02  0.48193064282E+03  0.50290251310E+03  0.93431292048E+02 0.  0.
          5    1    1    2  502    0  0.43573143227E+02  0.10594496970E+02  0.29629132757E+03  0.29969465355E+03  0.41800000000E+01 0. -1.
         -5    1    1    2    0  502  0.30415812035E+02  0.69717527979E+02  0.74354306497E+02  0.10645041392E+03  0.41800000000E+01 0. -1.
        -11    1    3    3    0    0 -0.13880106162E+02 -0.78734834006E+02  0.32902114169E+03  0.33859524969E+03  0.00000000000E+00 0.  1.
         11    1    3    3    0    0 -0.60108849099E+02 -0.15771909433E+01  0.15290950113E+03  0.16430726341E+03  0.00000000000E+00 0. -1.
</event>
<event>
 7    1  0.5137842E-006  0.1393465E+03  0.7561462E-02  0.1214211E+00
          1   -1    0    0  501    0  0.00000000000E+00  0.00000000000E+00  0.14106001003E+03  0.14106001003E+03  0.00000000000E+00 0. -1.
         -1   -1    0    0    0  501 -0.00000000000E+00 -0.00000000000E+00 -0.15885243353E+03  0.15885243353E+03  0.00000000000E+00 0.  1.
         23    2    1    2    0    0  0.94549583376E+02 -0.31422542201E+02  0.22140578933E+02  0.13508215380E+03  0.88487192092E+02 0.  0.
          5    1    1    2  502    0 -0.97638654797E+02 -0.26888069668E+02 -0.24100072883E+02  0.10418522503E+03  0.41800000000E+01 0.  1.
         -5    1    1    2    0  502  0.30890714214E+01  0.58310611869E+02 -0.15832929552E+02  0.60645064737E+02  0.41800000000E+01 0.  1.
        -11    1    3    3    0    0  0.99265087285E+02 -0.13403619466E+02 -0.70956827279E+01  0.10041694718E+03  0.00000000000E+00 0.  1.
         11    1    3    3    0    0 -0.47155039093E+01 -0.18018922735E+02  0.29236261661E+02  0.34665206613E+02  0.00000000000E+00 0. -1.
</event>
<event>
 7    1  0.5137842E-006  0.7641327E+02  0.7561462E-02  0.1339550E+00
         -2   -1    0    0    0  501 -0.00000000000E+00  0.00000000000E+00  0.57820750312E+02  0.57820750312E+02  0.00000000000E+00 0.  1.
          2   -1    0    0  501    0  0.00000000000E+00 -0.00000000000E+00 -0.24937694365E+03  0.24937694365E+03  0.00000000000E+00 0. -1.
         23    2    1    2    0    0 -0.42981709702E+01  0.39579143196E+02 -0.12334177048E+03  0.15925719600E+03  0.92545552482E+02 0.  0.
          5    1    1    2  502    0 -0.28685008393E+02  0.23662449275E+02 -0.66696125885E+02  0.76476053900E+02  0.41800000000E+01 0. -1.
         -5    1    1    2    0  502  0.32983179363E+02 -0.63241592470E+02 -0.15182969758E+01  0.71464444060E+02  0.41800000000E+01 0. -1.
        -11    1    3    3    0    0  0.72972418713E+01  0.18744133077E+02  0.10924800187E+02  0.22889812644E+02  0.00000000000E+00 0.  1.
         11    1    3    3    0    0 -0.11595412841E+02  0.20835010118E+02 -0.13426657067E+03  0.13636738336E+03  0.00000000000E+00 0. -1.
</event>
<event>
 7    1  0.5137842E-006  0.9314352E+02  0.7561462E-02  0.1295413E+00
          2   -1    0    0  501    0  0.00000000000E+00  0.00000000000E+00  0.21141801505E+03  0.21141801505E+03  0.00000000000E+00 0. -1.
         -2   -1    0    0    0  501 -0.00000000000E+00 -0.00000000000E+00 -0.69501672311E+02  0.69501672311E+02  0.00000000000E+00 0.  1.
         23    2    1    2    0    0 -0.47011828065E+01 -0.53777895683E+02  0.60578603425E+02  0.12224755708E+03  0.91435960299E+02 0.  0.
          5    1    1    2  502    0  0.28435340403E+02 -0.29969690516E+02  0.32364807885E+01  0.41649707578E+02  0.41800000000E+01 0.  1.
         -5    1    1    2    0  502 -0.23734157596E+02  0.83747586200E+02  0.78101258521E+02  0.11702242270E+03  0.41800000000E+01 0.  1.
        -11    1    3    3    0    0  0.79232328159E+01 -0.17642178156E+02  0.77877243937E+02  0.80242689334E+02  0.00000000000E+00 0. -1.
         11    1    3    3    0    0 -0.12624415622E+02 -0.36135717527E+02 -0.17298640512E+02  0.42004867748E+02  0.00000000000E+00 0.  1.
</event>
<event>
 7    1  0.5137842E-006  0.1029894E+03  0.7561462E-02  0.1274132E+00
         -1   -1    0    0    0  501 -0.00000000000E+00  0.00000000000E+00  0.12121880980E+03  0.12121880980E+03  0.00000000000E+00 0.  1.
          1   -1    0    0  501    0  0.00000000000E+00 -0.00000000000E+00 -0.14473774936E+03  0.14473774936E+03  0.00000000000E+00 0. -1.
         23    2    1    2    0    0 -0.20843193199E+02  0.37496775255E+02 -0.73134438794E+02  0.12471135539E+03  0.91453972950E+02 0.  0.
          5    1    1    2  502    0 -0.38399541276E+02 -0.20350323889E+02  0.64288538119E+02  0.77711961667E+02  0.41800000000E+01 0.  1.
         -5    1    1    2    0  502  0.59242734475E+02 -0.17146451365E+02 -0.14673038880E+02  0.63533242105E+02  0.41800000000E+01 0.  1.
        -11    1    3    3    0    0 -0.46163583231E+02  0.53412085471E+02 -0.56963492281E+02  0.90712550091E+02  0.00000000000E+00 0. -1.
         11    1    3    3    0    0  0.25320390032E+02 -0.15915310216E+02 -0.16170946513E+02  0.33998805299E+02  0.00000000000E+00 0.  1.
</event>
<event>
 7    1  0.5137842E-006  0.1076937E+03  0.7561462E-02  0.1264901E+00
         -2   -1    0    0    0  501 -0.00000000000E+00  0.00000000000E+00  0.10422071256E+03  0.10422071256E+03  0.00000000000E+00 0.  1.
          2   -1    0    0  501    0  0.00000000000E+00 -0.00000000000E+00 -0.14346778042E+03  0.14346778042E+03  0.00000000000E+00 0. -1.
         23    2    1    2    0    0 -0.50487629636E+02  0.65545706212E+00  0.84786206307E+01  0.10460049988E+03  0.91213744562E+02 0.  0.
          5    1    1    2  502    0 -0.17057504432E+02 -0.41035958003E+02  0.95756102667E+01  0.45651648586E+02  0.41800000000E+01 0. -1.
         -5    1    1    2    0  502  0.67545134068E+02  0.40380500941E+02 -0.57301298759E+02  0.97436344512E+02  0.41800000000E+01 0. -1.
        -11    1    3    3    0    0 -0.55315498185E+02 -0.28615398030E+02  0.28826399068E+02  0.68626573768E+02  0.00000000000E+00 0.  1.
         11    1    3    3    0    0  0.48278685494E+01  0.29270855092E+02 -0.20347778437E+02  0.35973926112E+02  0.00000000000E+00 0. -1.
</event>
<event>
 7    1  0.5137842E-006  0.1123803E+03  0.7561462E-02  0.1256224E+00
         -4   -1    0    0    0  501 -0.00000000000E+00  0.00000000000E+00  0.56022404050E+02  0.56022404050E+02  0.00000000000E+00 0.  1.
          4   -1    0    0  501    0  0.00000000000E+00 -0.00000000000E+00 -0.30590294461E+03  0.30590294461E+03  0.00000000000E+00 0. -1.
         23    2    1    2    0    0 -0.45682985071E+02 -0.43682667217E+02 -0.15527983614E+03  0.19283448388E+03  0.95279589222E+02 0.  0.
          5    1    1    2  502    0  0.38166067279E+02  0.72173397289E+02 -0.13700702409E+02  0.82890467572E+02  0.41800000000E+01 0.  1.
         -5    1    1    2    0  502  0.75169177921E+01 -0.28490730072E+02 -0.80900002012E+02  0.86200397207E+02  0.41800000000E+01 0.  1.
        -11    1    3    3    0    0 -0.57713642716E+02 -0.66135427836E+02 -0.13067513881E+03  0.15741903085E+03  0.00000000000E+00 0. -1.
         11    1    3    3    0    0  0.12030657645E+02  0.22452760620E+02 -0.24604697330E+02  0.35415453033E+02  0.00000000000E+00 0.  1.
</event>
<event>
 7    1  0.5137842E-006  0.9056900E+02  0.7561462E-02  0.1301480E+00
          4   -1    0    0  501    0  0.00000000000E+00  0.00000000000E+00  0.20811416269E+03  0.20811416269E+03  0.00000000000E+00 0. -1.
         -4   -1    0    0    0  501 -0.00000000000E+00 -0.00000000000E+00 -0.77767770448E+02  0.77767770448E+02  0.00000000000E+00 0.  1.
         23    2    1    2    0    0  0.12324119393E+02  0.60318771425E+02  0.86168777871E+02  0.13962997306E+03  0.91001280170E+02 0.  0.
          5    1    1    2  502    0  0.94236939690E+01 -0.63043432194E+02  0.81023085225E+02  0.10317699884E+03  0.41800000000E+01 0. -1.
         -5    1    1    2    0  502 -0.21747813362E+02  0.27246607689E+01 -0.36845470857E+02  0.43074961230E+02  0.41800000000E+01 0. -1.
        -11    1    3    3    0    0  0.17096415759E+02  0.76338198596E+02  0.93040004651E+02  0.12155760142E+03  0.00000000000E+00 0. -1.
         11    1    3    3    0    0 -0.47722963651E+01 -0.16019427170E+02 -0.68712267800E+01  0.18072371646E+02  0.00000000000E+00 0.  1.
</event>
<event>
 7    1  0.5137842E-006  0.1064127E+03  0.7561462E-02  0.1267361E+00
         -1   -1    0    0    0  501 -0.00000000000E+00  0.00000000000E+00  0.89493772848E+02  0.89493772848E+02  0.00000000000E+00 0.  1.
          1   -1    0    0  501    0  0.00000000000E+00 -0.00000000000E+00 -0.15349455659E+03  0.15349455659E+03  0.00000000000E+00 0. -1.
         23    2    1    2    0    0  0.35530109104E+01 -0.42109744587E+02 -0.37530807432E+02  0.10832850988E+03  0.92415637587E+02 0.  0.
          5    1    1    2  502    0  0.56082137641E+02  0.99973667522E+00  0.30558992327E+01  0.56329535378E+02  0.41800000000E+01 0. -1.
         -5    1    1    2    0  502 -0.59635148552E+02  0.41110007912E+02 -0.29525875545E+02  0.78330284181E+02  0.41800000000E+01 0. -1.
        -11    1    3    3    0    0 -0.19346777991E+02 -0.54610839979E+02  0.52986608424E+01  0.58178324732E+02  0.00000000000E+00 0.  1.
         11    1    3    3    0    0  0.22899788901E+02  0.12501095392E+02 -0.42829468275E+02  0.50150185148E+02  0.00000000000E+00 0. -1.
</event>
<event>
 7    1  0.5137842E-006  0.1434117E+03  0.7561462E-02  0.1208811E+00
          2   -1    0    0  501    0  0.00000000000E+00  0.00000000000E+00  0.80017289271E+03  0.80017289271E+03  0.00000000000E+00 0. -1.
         -2   -1    0    0    0  501 -0.00000000000E+00 -0.00000000000E+00 -0.66856267798E+02  0.66856267798E+02  0.00000000000E+00 0.  1.
         23    2    1    2    0    0  0.11827588411E+03 -0.21113725163E+02  0.66841959091E+03  0.68184138591E+03  0.60728509566E+02 0.  0.
          5    1    1    2  502    0 -0.10285729853E+02  0.41332994406E+02 -0.19060910390E+02  0.46850863067E+02  0.41800000000E+01 0.  1.
         -5    1    1    2    0  502 -0.10799015426E+03 -0.20219269243E+02  0.83957944394E+02  0.13833691153E+03  0.41800000000E+01 0.  1.
        -11    1    3    3    0    0  0.11020203511E+03 -0.37009351027E+02  0.59842433719E+03  0.60961124329E+03  0.00000000000E+00 0.  1.
         11    1    3    3    0    0  0.80738489998E+01  0.15895625864E+02  0.69995253717E+02  0.72230142615E+02  0.00000000000E+00 0. -1.
</event>
<event>
 7    1  0.5137842E-006  0.8056657E+02  0.7561462E-02  0.1327451E+00
         -2   -1    0    0    0  501 -0.00000000000E+00  0.00000000000E+00  0.48098882018E+02  0.48098882018E+02  0.00000000000E+00 0.  1.
          2   -1    0    0  501    0  0.00000000000E+00 -0.00000000000E+00 -0.31987197369E+03  0.31987197369E+03  0.00000000000E+00 0. -1.
         23    2    1    2    0    0  0.74765386283E+01 -0.40134011928E+02 -0.18787939003E+03  0.21192665965E+03  0.89149348443E+02 0.  0.
          5    1    1    2  502    0  0.34993742069E+02  0.81615575529E+01 -0.94930968223E+02  0.10159002969E+03  0.41800000000E+01 0. -1.
         -5    1    1    2    0  502 -0.42470280697E+02  0.31972454375E+02  0.11037266579E+02  0.54454166368E+02  0.41800000000E+01 0. -1.
        -11    1    3    3    0    0  0.31238558872E+02 -0.90792178834E+01 -0.17146981386E+02  0.36773614568E+02  0.00000000000E+00 0.  1.
         11    1    3    3    0    0 -0.23762020243E+02 -0.31054794045E+02 -0.17073240864E+03  0.17515304508E+03  0.00000000000E+00 0. -1.
</event>
<event>
 7    1  0.5137842E-006  0.1423899E+03  0.7561462E-02  0.1210149E+00
         -3   -1    0    0    0  501 -0.00000000000E+00  0.00000000000E+00  0.10652684760E+03  0.10652684760E+03  0.00000000000E+00 0.  1.
          3   -1    0    0  501    0  0.00000000000E+00 -0.00000000000E+00 -0.29488648717E+03  0.29488648717E+03  0.00000000000E+00 0. -1.
         23    2    1    2    0    0  0.13466833386E+03  0.77936271972E+01 -0.12581288301E+03  0.20710377421E+03  0.94163639427E+02 0.  0.
          5    1    1    2  502    0 -0.11751585536E+03  0.15346978774E+02  0.71262079602E+01  0.11880135209E+03  0.41800000000E+01 0.  1.
         -5    1    1    2    0  502 -0.17152478501E+02 -0.23140605971E+02 -0.69672964520E+02  0.75508208484E+02  0.41800000000E+01 0.  1.
        -11    1    3    3    0    0  0.58529432872E+02 -0.87247835482E+01 -0.64792395219E-01  0.59176182357E+02  0.00000000000E+00 0.  1.
         11    1    3    3    0    0  0.76138900986E+02  0.16518410745E+02 -0.12574809062E+03  0.14792759185E+03  0.00000000000E+00 0. -1.
</event>
<event>
 7    1  0.5137842E-006  0.1627976E+03  0.7561462E-02  0.1185574E+00
         -1   -1    0    0    0  501 -0.00000000000E+00  0.00000000000E+00  0.17740683437E+03  0.17740683437E+03  0.00000000000E+00 0.  1.
          1   -1    0    0  501    0  0.00000000000E+00 -0.00000000000E+00 -0.22046736987E+03  0.22046736987E+03  0.00000000000E+00 0. -1.
         23    2    1    2    0    0 -0.38060828707E+02 -0.12035389999E+03 -0.12514284027E+03  0.20212212514E+03  0.96223360351E+02 0.  0.
          5    1    1    2  502    0 -0.43415505759E+02  0.67861335782E+02  0.35472988038E+02  0.88124186889E+02  0.41800000000E+01 0.  1.
         -5    1    1    2    0  502  0.81476334466E+02  0.52492564206E+02  0.46609316730E+02  0.10762789221E+03  0.41800000000E+01 0.  1.
        -11    1    3    3    0    0 -0.57335229174E+02 -0.11402237053E+03 -0.75003027325E+02  0.14803338675E+03  0.00000000000E+00 0.  1.
         11    1    3    3    0    0  0.19274400467E+02 -0.63315294610E+01 -0.50139812945E+02  0.54088738392E+02  0.00000000000E+00 0. -1.
</event>
<event>
 7    1  0.5137842E-006  0.6833293E+02  0.7561462E-02  0.1365856E+00
         -1   -1    0    0    0  501 -0.00000000000E+00  0.00000000000E+00  0.30498677049E+03  0.30498677049E+03  0.00000000000E+00 0.  1.
          1   -1    0    0  501    0  0.00000000000E+00 -0.00000000000E+00 -0.40373746631E+02  0.40373746631E+02  0.00000000000E+00 0. -1.
         23    2    1    2    0    0  0.11929745643E+02 -0.13114932612E+02  0.94474208317E+02  0.13344598960E+03  0.92564225346E+02 0.  0.
          5    1    1    2  502    0  0.90571807128E+01 -0.20779949386E+02 -0.11602196589E+02  0.25805468115E+02  0.41800000000E+01 0.  1.
         -5    1    1    2    0  502 -0.20986926356E+02  0.33894881998E+02  0.18174101213E+03  0.18610905941E+03  0.41800000000E+01 0.  1.
        -11    1    3    3    0    0  0.19760924000E+00  0.29413374366E+02  0.82714306698E+02  0.87788622119E+02  0.00000000000E+00 0.  1.
         11    1    3    3    0    0  0.11732136403E+02 -0.42528306978E+02  0.11759901619E+02  0.45657367478E+02  0.00000000000E+00 0. -1.
</event>
<event>
 7    1  0.5137842E-006  0.5215721E+02  0.7561462E-02  0.1434042E+00
          2   -1    0    0  501    0  0.00000000000E+00  0.00000000000E+00  0.51375039689E+03  0.51375039689E+03  0.00000000000E+00 0.  1.
         -2   -1    0    0    0  501 -0.00000000000E+00 -0.00000000000E+00 -0.23183917126E+02  0.23183917126E+02  0.00000000000E+00 0. -1.
         23    2    1    2    0    0  0.82364623981E+01  0.69804157651E+01  0.23790383690E+03  0.25479864864E+03  0.90595530910E+02 0.  0.
          5    1    1    2  502    0  0.12663259642E+02 -0.27751674143E+01 -0.11043970107E+02  0.17535717113E+02  0.41800000000E+01 0. -1.
         -5    1    1    2    0  502 -0.20899722040E+02 -0.42052483508E+01  0.26370661297E+03  0.26459994826E+03  0.41800000000E+01 0. -1.
        -11    1    3    3    0    0 -0.13789788244E+02 -0.25929405790E+02  0.25991706027E+02  0.39218122426E+02  0.00000000000E+00 0. -1.
         11    1    3    3    0    0  0.22026250643E+02  0.32909821555E+02  0.21191213087E+03  0.21558052622E+03  0.00000000000E+00 0.  1.
</event>
<event>
 7    1  0.5137842E-006  0.2183101E+03  0.7561462E-02  0.1135149E+00
         -2   -1    0    0    0  501 -0.00000000000E+00  0.00000000000E+00  0.69279268773E+02  0.69279268773E+02  0.00000000000E+00 0.  1.
          2   -1    0    0  501    0  0.00000000000E+00 -0.00000000000E+00 -0.75230308985E+03  0.75230308985E+03  0.00000000000E+00 0. -1.
         23    2    1    2    0    0 -0.18591436639E+03 -0.74232049829E+02 -0.30846793552E+03  0.37881989176E+03  0.90980735849E+02 0.  0.
          5    1    1    2  502    0  0.44419466982E+02 -0.35371902831E+02 -0.83923948704E+02  0.10141480229E+03  0.41800000000E+01 0. -1.
         -5    1    1    2    0  502  0.14149489940E+03  0.10960395266E+03 -0.29063193685E+03  0.34134766458E+03  0.41800000000E+01 0. -1.
        -11    1    3    3    0    0 -0.56274532269E+02 -0.29331942743E+02 -0.34051127916E+02  0.72018505674E+02  0.00000000000E+00 0. -1.
         11    1    3    3    0    0 -0.12963983412E+03 -0.44900107086E+02 -0.27441680761E+03  0.30680138609E+03  0.00000000000E+00 0.  1.
</event>
<event>
 7    1  0.5137842E-006  0.2492237E+03  0.7561462E-02  0.1113796E+00
          2   -1    0    0  501    0  0.00000000000E+00  0.00000000000E+00  0.17620610374E+04  0.17620610374E+04  0.00000000000E+00 0. -1.
         -2   -1    0    0    0  501 -0.00000000000E+00 -0.00000000000E+00 -0.42078934532E+02  0.42078934532E+02  0.00000000000E+00 0.  1.
         23    2    1    2    0    0 -0.22719420586E+03  0.52999013286E+02  0.11288471274E+04  0.11564384924E+04  0.92887281751E+02 0.  0.
          5    1    1    2  502    0  0.22919331420E+03 -0.62126020563E+02  0.59156109624E+03  0.63745683830E+03  0.41800000000E+01 0. -1.
         -5    1    1    2    0  502 -0.19991083374E+01  0.91270072768E+01 -0.42612071770E+00  0.10244641274E+02  0.41800000000E+01 0. -1.
        -11    1    3    3    0    0 -0.66936984742E+02 -0.26286062370E+02  0.29520856185E+03  0.30384142573E+03  0.00000000000E+00 0.  1.
         11    1    3    3    0    0 -0.16025722112E+03  0.79285075656E+02  0.83363856550E+03  0.85259706664E+03  0.00000000000E+00 0. -1.
</event>
<event>
 7    1  0.5137842E-006  0.1097767E+03  0.7561462E-02  0.1260984E+00
         -3   -1    0    0    0  501 -0.00000000000E+00  0.00000000000E+00  0.30190399635E+03  0.30190399635E+03  0.00000000000E+00 0.  1.
          3   -1    0    0  501    0  0.00000000000E+00 -0.00000000000E+00 -0.11974081190E+03  0.11974081190E+03  0.00000000000E+00 0. -1.
         23    2    1    2    0    0  0.40530476513E+02 -0.38924238413E+02 -0.69408098757E+02  0.12799950309E+03  0.91698270183E+02 0.  0.
          5    1    1    2  502    0 -0.44701598516E+02 -0.46104847580E+02  0.13144227619E+03  0.14635038179E+03  0.41800000000E+01 0. -1.
         -5    1    1    2    0  502  0.41711220038E+01  0.85029085994E+02  0.12012900702E+03  0.14729492337E+03  0.41800000000E+01 0.  1.
        -11    1    3    3    0    0  0.44435623645E+02 -0.16808863720E+02  0.73049083335E+01  0.48066872521E+02  0.00000000000E+00 0.  1.
         11    1    3    3    0    0 -0.39051471321E+01 -0.22115374694E+02 -0.76713007091E+02  0.79932630564E+02  0.00000000000E+00 0. -1.
</event>
<event>
 7    1  0.5137842E-006  0.1042379E+03  0.7561462E-02  0.1271628E+00
          2   -1    0    0  501    0  0.00000000000E+00  0.00000000000E+00  0.38825276940E+03  0.38825276940E+03  0.00000000000E+00 0.  1.
         -2   -1    0    0    0  501 -0.00000000000E+00 -0.00000000000E+00 -0.48892479014E+02  0.48892479014E+02  0.00000000000E+00 0. -1.
         23    2    1    2    0    0  0.14410677458E+02  0.37328485699E+02  0.27181365277E+03  0.28945877760E+03  0.91118815988E+02 0.  0.
          5    1    1    2  502    0 -0.29293178775E+02  0.29949500821E+02 -0.10601324475E+02  0.43415704564E+02  0.41800000000E+01 0. -1.
         -5    1    1    2    0  502  0.14882501317E+02 -0.67277986520E+02  0.78147962087E+02  0.10427076625E+03  0.41800000000E+01 0. -1.
        -11    1    3    3    0    0  0.16989183428E+02  0.66205873970E+02  0.21611763443E+03  0.22666866130E+03  0.00000000000E+00 0.  1.
         11    1    3    3    0    0 -0.25785059699E+01 -0.28877388271E+02  0.55696018340E+02  0.62790116303E+02  0.00000000000E+00 0. -1.
</event>
<event>
 7    1  0.5137842E-006  0.1129076E+03  0.7561462E-02  0.1255278E+00
          3   -1    0    0  501    0  0.00000000000E+00  0.00000000000E+00  0.17892220776E+03  0.17892220776E+03  0.00000000000E+00 0. -1.
         -3   -1    0    0    0  501 -0.00000000000E+00 -0.00000000000E+00 -0.20085795721E+03  0.20085795721E+03  0.00000000000E+00 0.  1.
         23    2    1    2    0    0 -0.34686439867E+02  0.75167952083E+02  0.12093065961E+03  0.17262974203E+03  0.91232851916E+02 0.  0.
          5    1    1    2  502    0  0.66932279534E+02 -0.81017887123E+02 -0.67792051319E+02  0.12512818507E+03  0.41800000000E+01 0. -1.
         -5    1    1    2    0  502 -0.32245839667E+02  0.58499350401E+01 -0.75074357740E+02  0.82022237874E+02  0.41800000000E+01 0. -1.
        -11    1    3    3    0    0 -0.25293179694E+02  0.21724359294E+02 -0.66411924331E+01  0.33997031675E+02  0.00000000000E+00 0.  1.
         11    1    3    3    0    0 -0.93932601721E+01  0.53443592788E+02  0.12757185204E+03  0.13863271035E+03  0.00000000000E+00 0. -1.
</event>
<event>
 7    1  0.5137842E-006  0.1422063E+03  0.7561462E-02  0.1210391E+00
         -2   -1    0    0    0  501 -0.00000000000E+00  0.00000000000E+00  0.20738350651E+02  0.20738350651E+02  0.00000000000E+00 0.  1.
          2   -1    0    0  501    0  0.00000000000E+00 -0.00000000000E+00 -0.10300673057E+04  0.10300673057E+04  0.00000000000E+00 0. -1.
         23    2    1    2    0    0 -0.48750853234E+02 -0.80283680081E+02 -0.39597241713E+03  0.41780948460E+03  0.94596486816E+02 0.  0.
          5    1    1    2  502    0  0.30983311065E+02  0.11104087258E+03 -0.38685825837E+03  0.40369149782E+03  0.41800000000E+01 0. -1.
         -5    1    1    2    0  502  0.17767542168E+02 -0.30757192495E+02 -0.22649827958E+03  0.22930467396E+03  0.41800000000E+01 0. -1.
        -11    1    3    3    0    0 -0.35869744163E+02  0.13722048558E+02 -0.11717643155E+03  0.12330956684E+03  0.00000000000E+00 0.  1.
         11    1    3    3    0    0 -0.12881109070E+02 -0.94005728640E+02 -0.27879598558E+03  0.29449991776E+03  0.00000000000E+00 0. -1.
</event>
<event>
 7    1  0.5137842E-006  0.9439020E+02  0.7561462E-02  0.1292555E+00
         -1   -1    0    0    0  501 -0.00000000000E+00  0.00000000000E+00  0.12552608146E+03  0.12552608146E+03  0.00000000000E+00 0.  1.
          1   -1    0    0  501    0  0.00000000000E+00 -0.00000000000E+00 -0.12661481038E+03  0.12661481038E+03  0.00000000000E+00 0. -1.
         23    2    1    2    0    0 -0.39347782007E+02 -0.43622572669E+02 -0.31249437186E+02  0.11068904408E+03  0.88455414528E+02 0.  0.
          5    1    1    2  502    0 -0.40759061137E+01 -0.15225650058E+02 -0.38025267948E+02  0.41374229090E+02  0.41800000000E+01 0. -1.
         -5    1    1    2    0  502  0.43423688121E+02  0.58848222727E+02  0.68185976215E+02  0.10007761868E+03  0.41800000000E+01 0. -1.
        -11    1    3    3    0    0 -0.31598373757E+01 -0.59584014468E+02  0.96911952096E+00  0.59675610973E+02  0.00000000000E+00 0.  1.
         11    1    3    3    0    0 -0.36187944631E+02  0.15961441798E+02 -0.32218556707E+02  0.51013433105E+02  0.00000000000E+00 0. -1.
</event>
<event>
 7    1  0.5137842E-006  0.9657001E+02  0.7561462E-02  0.1287679E+00
         -2   -1    0    0    0  501 -0.00000000000E+00  0.00000000000E+00  0.12632217119E+03  0.12632217119E+03  0.00000000000E+00 0.  1.
          2   -1    0    0  501    0  0.00000000000E+00 -0.00000000000E+00 -0.23976779902E+03  0.23976779902E+03  0.00000000000E+00 0. -1.
         23    2    1    2    0    0  0.18102728451E+02  0.44060583222E+02 -0.18690199653E+03  0.21340956140E+03  0.91335868186E+02 0.  0.
          5    1    1    2  502    0 -0.23798075682E+02  0.30804771960E+02 -0.99349438747E+01  0.40391309603E+02  0.41800000000E+01 0.  1.
         -5    1    1    2    0  502  0.56953472305E+01 -0.74865355182E+02  0.83391312586E+02  0.11228909921E+03  0.41800000000E+01 0.  1.
        -11    1    3    3    0    0  0.32532061608E+02  0.10914909856E+00 -0.15803115438E+02  0.36167463327E+02  0.00000000000E+00 0.  1.
         11    1    3    3    0    0 -0.14429333157E+02  0.43951434124E+02 -0.17109888110E+03  0.17724209807E+03  0.00000000000E+00 0. -1.
</event>
<event>
 7    1  0.5137842E-006  0.1118396E+03  0.7561462E-02  0.1257201E+00
         -2   -1    0    0    0  501 -0.00000000000E+00  0.00000000000E+00  0.75566327027E+03  0.75566327027E+03  0.00000000000E+00 0.  1.
          2   -1    0    0  501    0  0.00000000000E+00 -0.00000000000E+00 -0.32032661069E+02  0.32032661069E+02  0.00000000000E+00 0. -1.
         23    2    1    2    0    0  0.89578158803E+02 -0.17321396616E+02  0.17349991593E+03  0.21619340998E+03  0.91176161238E+02 0.  0.
          5    1    1    2  502    0 -0.98131394529E+01  0.35627123258E+02  0.39169799160E+02  0.54012361398E+02  0.41800000000E+01 0. -1.
         -5    1    1    2    0  502 -0.79765019350E+02 -0.18305726642E+02  0.51096089411E+03  0.51749015995E+03  0.41800000000E+01 0. -1.
        -11    1    3    3    0    0  0.39146994971E+02 -0.33560187535E+02  0.14928812057E+03  0.15794212974E+03  0.00000000000E+00 0.  1.
         11    1    3    3    0    0  0.50431163832E+02  0.16238790918E+02  0.24211795359E+02  0.58251280247E+02  0.00000000000E+00 0. -1.
</event>
<event>
 7    1  0.5137842E-006  0.1322105E+03  0.7561462E-02  0.1224212E+00
         -2   -1    0    0    0  501 -0.00000000000E+00  0.00000000000E+00  0.11772713970E+03  0.11772713970E+03  0.00000000000E+00 0.  1.
          2   -1    0    0  501    0  0.00000000000E+00 -0.00000000000E+00 -0.41755219710E+03  0.41755219710E+03  0.00000000000E+00 0. -1.
         23    2    1    2    0    0 -0.79831755869E+02  0.13555700938E+02 -0.35529444690E+03  0.37627734177E+03  0.93774344372E+02 0.  0.
          5    1    1    2  502    0  0.42330969701E+02  0.52747834954E+02  0.58890040145E+01  0.68017629012E+02  0.41800000000E+01 0. -1.
         -5    1    1    2    0  502  0.37500786168E+02 -0.66303535892E+02  0.49580385479E+02  0.90984366015E+02  0.41800000000E+01 0. -1.
        -11    1    3    3    0    0 -0.58532034111E+02  0.50775681854E+02 -0.26864644834E+03  0.27959807419E+03  0.00000000000E+00 0.  1.
         11    1    3    3    0    0 -0.21299721758E+02 -0.37219980916E+02 -0.86647998554E+02  0.96679267580E+02  0.00000000000E+00 0. -1.
</event>
<event>
 7    1  0.5137842E-006  0.1228166E+03  0.7561462E-02  0.1238522E+00
         -2   -1    0    0    0  501 -0.00000000000E+00  0.00000000000E+00  0.99273788363E+02  0.99273788363E+02  0.00000000000E+00 0.  1.
          2   -1    0    0  501    0  0.00000000000E+00 -0.00000000000E+00 -0.20353001746E+03  0.20353001746E+03  0.00000000000E+00 0. -1.
         23    2    1    2    0    0 -0.19238912503E+02 -0.60471635604E+02 -0.11777272286E+03  0.16188635327E+03  0.91158228679E+02 0.  0.
          5    1    1    2  502    0 -0.45533439840E+02 -0.54568890330E+01 -0.57747232334E+01  0.46410037815E+02  0.41800000000E+01 0.  1.
         -5    1    1    2    0  502  0.64772352343E+02  0.65928524637E+02  0.19291216996E+02  0.94507414746E+02  0.41800000000E+01 0.  1.
        -11    1    3    3    0    0  0.32252661449E+02 -0.73398525501E+01 -0.58003329693E+02  0.66771954153E+02  0.00000000000E+00 0.  1.
         11    1    3    3    0    0 -0.51491573952E+02 -0.53131783054E+02 -0.59769393172E+02  0.95114399113E+02  0.00000000000E+00 0. -1.
</event>
<event>
 7    1  0.5137842E-006  0.1638680E+03  0.7561462E-02  0.1184398E+00
          1   -1    0    0  501    0  0.00000000000E+00  0.00000000000E+00  0.10922926926E+03  0.10922926926E+03  0.00000000000E+00 0. -1.
         -1   -1    0    0    0  501 -0.00000000000E+00 -0.00000000000E+00 -0.27577453748E+03  0.27577453748E+03  0.00000000000E+00 0.  1.
         23    2    1    2    0    0  0.42277286472E-01 -0.13185825527E+03 -0.56817492360E+02  0.17269664362E+03  0.95965108298E+02 0.  0.
          5    1    1    2  502    0 -0.45474191540E+02  0.30337787261E+02  0.16497390403E+01  0.54849589525E+02  0.41800000000E+01 0.  1.
         -5    1    1    2    0  502  0.45431914254E+02  0.10152046801E+03 -0.11137751490E+03  0.15745757359E+03  0.41800000000E+01 0.  1.
        -11    1    3    3    0    0  0.33661117977E+02 -0.98760798253E+01 -0.22207386371E+02  0.41518379371E+02  0.00000000000E+00 0.  1.
         11    1    3    3    0    0 -0.33618840691E+02 -0.12198217545E+03 -0.34610105989E+02  0.13117826425E+03  0.00000000000E+00 0. -1.
</event>
<event>
 7    1  0.5137842E-006  0.1741200E+03  0.7561462E-02  0.1173618E+00
         -1   -1    0    0    0  501 -0.00000000000E+00  0.00000000000E+00  0.55206540225E+03  0.55206540225E+03  0.00000000000E+00 0.  1.
          1   -1    0    0  501    0  0.00000000000E+00 -0.00000000000E+00 -0.76967093184E+02  0.76967093184E+02  0.00000000000E+00 0. -1.
         23    2    1    2    0    0  0.11593309920E+03 -0.11717501228E+03  0.13303852719E+03  0.22925033082E+03  0.87669820747E+02 0.  0.
          5    1    1    2  502    0 -0.79215758327E+02  0.93750524622E+02  0.33324010447E+03  0.35514889393E+03  0.41800000000E+01 0.  1.
         -5    1    1    2    0  502 -0.36717340869E+02  0.23424487662E+02  0.88196774087E+01  0.44633270688E+02  0.41800000000E+01 0.  1.
        -11    1    3    3    0    0  0.37711046578E+02  0.34961305526E+01  0.80505659450E+01  0.38718956273E+02  0.00000000000E+00 0.  1.
         11    1    3    3    0    0  0.78222052618E+02 -0.12067114284E+03  0.12498796125E+03  0.19053137455E+03  0.00000000000E+00 0. -1.
</event>
<event>
 7    1  0.5137842E-006  0.1039971E+03  0.7561462E-02  0.1272108E+00
          1   -1    0    0  501    0  0.00000000000E+00  0.00000000000E+00  0.36413464265E+03  0.36413464265E+03  0.00000000000E+00 0. -1.
         -1   -1    0    0    0  501 -0.00000000000E+00 -0.00000000000E+00 -0.64407045001E+02  0.64407045001E+02  0.00000000000E+00 0.  1.
         23    2    1    2    0    0  0.83655059667E+02  0.76827240057E+01  0.23346506885E+03  0.26392928363E+03  0.89975191741E+02 0.  0.
          5    1    1    2  502    0  0.62820677080E+01 -0.24936253317E+02 -0.24389455648E+02  0.35687519541E+02  0.41800000000E+01 0. -1.
         -5    1    1    2    0  502 -0.89937127375E+02  0.17253529311E+02  0.90651984448E+02  0.12892488448E+03  0.41800000000E+01 0. -1.
        -11    1    3    3    0    0  0.68916268134E+02 -0.72388060693E+01  0.23285487053E+03  0.24294699640E+03  0.00000000000E+00 0. -1.
         11    1    3    3    0    0  0.14738791533E+02  0.14921530075E+02  0.61019831702E+00  0.20982287235E+02  0.00000000000E+00 0.  1.
</event>
<event>
 7    1  0.5137842E-006  0.2201575E+03  0.7561462E-02  0.1133766E+00
          1   -1    0    0  501    0  0.00000000000E+00  0.00000000000E+00  0.64849513949E+03  0.64849513949E+03  0.00000000000E+00 0. -1.
         -1   -1    0    0    0  501 -0.00000000000E+00 -0.00000000000E+00 -0.79176241761E+02  0.79176241761E+02  0.00000000000E+00 0.  1.
         23    2    1    2    0    0 -0.19603393315E+03 -0.57595708059E+02  0.28636149889E+03  0.35691861277E+03  0.60344175896E+02 0.  0.
          5    1    1    2  502    0  0.12139957667E+03 -0.20634078300E+02  0.19790034707E+03  0.23312151804E+03  0.41800000000E+01 0. -1.
         -5    1    1    2    0  502  0.74634356481E+02  0.78229786359E+02  0.85057051767E+02  0.13763125043E+03  0.41800000000E+01 0. -1.
        -11    1    3    3    0    0 -0.23793050102E+02 -0.23255699702E+02  0.75422052732E+02  0.82434354732E+02  0.00000000000E+00 0.  1.
         11    1    3    3    0    0 -0.17224088305E+03 -0.34340008357E+02  0.21093944616E+03  0.27448425804E+03  0.00000000000E+00 0. -1.
</event>
<event>
 7    1  0.5137842E-006  0.1083503E+03  0.7561462E-02  0.1263656E+00
         -2   -1    0    0    0  501 -0.00000000000E+00  0.00000000000E+00  0.26797076138E+02  0.26797076138E+02  0.00000000000E+00 0.  1.
          2   -1    0    0  501    0  0.00000000000E+00 -0.00000000000E+00 -0.50367941729E+03  0.50367941729E+03  0.00000000000E+00 0. -1.
         23    2    1    2    0    0  0.20436186631E+02  0.12102324690E+02 -0.28896914155E+03  0.30349394458E+03  0.89673327362E+02 0.  0.
          5    1    1    2  502    0  0.22938846232E+02 -0.58715781356E+02 -0.85304066621E+02  0.10615078817E+03  0.41800000000E+01 0. -1.
         -5    1    1    2    0  502 -0.43375032863E+02  0.46613456665E+02 -0.10260913298E+03  0.12083176068E+03  0.41800000000E+01 0. -1.
        -11    1    3    3    0    0 -0.13815112775E+02 -0.31424774958E+02 -0.75174661853E+02  0.82641415809E+02  0.00000000000E+00 0.  1.
         11    1    3    3    0    0  0.34251299406E+02  0.43527099648E+02 -0.21379447970E+03  0.22085252877E+03  0.00000000000E+00 0. -1.
</event>
<event>
 7    1  0.5137842E-006  0.8845532E+02  0.7561462E-02  0.1306636E+00
         -1   -1    0    0    0  501 -0.00000000000E+00  0.00000000000E+00  0.13038694925E+03  0.13038694925E+03  0.00000000000E+00 0.  1.
          1   -1    0    0  501    0  0.00000000000E+00 -0.00000000000E+00 -0.11937334828E+03  0.11937334828E+03  0.00000000000E+00 0. -1.
         23    2    1    2    0    0  0.47470177164E+02  0.39809671363E+02 -0.10760444185E+02  0.10848015625E+03  0.88396433684E+02 0.  0.
          5    1    1    2  502    0 -0.52088793505E+01 -0.22675135186E+02  0.70532796882E+02  0.74388453511E+02  0.41800000000E+01 0.  1.
         -5    1    1    2    0  502 -0.42261297813E+02 -0.17134536177E+02 -0.48758751727E+02  0.66891687771E+02  0.41800000000E+01 0.  1.
        -11    1    3    3    0    0 -0.16591680666E+01 -0.25610794621E+02 -0.68966354555E+01  0.26574973573E+02  0.00000000000E+00 0. -1.
         11    1    3    3    0    0  0.49129345230E+02  0.65420465984E+02 -0.38638087294E+01  0.81905182682E+02  0.00000000000E+00 0.  1.
</event>
<event>
 7    1  0.5137842E-006  0.1581132E+03  0.7561462E-02  0.1190844E+00
         -1   -1    0    0    0  501 -0.00000000000E+00  0.00000000000E+00  0.63592296760E+02  0.63592296760E+02  0.00000000000E+00 0.  1.
          1   -1    0    0  501    0  0.00000000000E+00 -0.00000000000E+00 -0.39613511776E+03  0.39613511776E+03  0.00000000000E+00 0. -1.
         23    2    1    2    0    0  0.67429350242E+02  0.88689531043E+02 -0.16116781853E+03  0.22007332858E+03  0.10022302148E+03 0.  0.
          5    1    1    2  502    0 -0.35699778431E+01 -0.10131775042E+03 -0.92510919797E+02  0.13730904549E+03  0.41800000000E+01 0. -1.
         -5    1    1    2    0  502 -0.63859372399E+02  0.12628219375E+02 -0.78864082676E+02  0.10234504045E+03  0.41800000000E+01 0. -1.
        -11    1    3    3    0    0  0.70717055009E+02  0.10760270611E+02 -0.84379770819E+02  0.11061930671E+03  0.00000000000E+00 0. -1.
         11    1    3    3    0    0 -0.32877047670E+01  0.77929260432E+02 -0.76788047708E+02  0.10945402188E+03  0.00000000000E+00 0.  1.
</event>
<event>
 7    1  0.5137842E-006  0.1406800E+03  0.7561462E-02  0.1212417E+00
          1   -1    0    0  501    0  0.00000000000E+00  0.00000000000E+00  0.19429207107E+03  0.19429207107E+03  0.00000000000E+00 0. -1.
         -1   -1    0    0    0  501 -0.00000000000E+00 -0.00000000000E+00 -0.12276933404E+03  0.12276933404E+03  0.00000000000E+00 0.  1.
         23    2    1    2    0    0 -0.12203287010E+02  0.10824994434E+03  0.45658489303E+02  0.14914533275E+03  0.91064054217E+02 0.  0.
          5    1    1    2  502    0  0.43413442442E+02 -0.21663776301E+02 -0.32778444308E+02  0.58702172017E+02  0.41800000000E+01 0. -1.
         -5    1    1    2    0  502 -0.31210155433E+02 -0.86586168044E+02  0.58642692038E+02  0.10921390034E+03  0.41800000000E+01 0. -1.
        -11    1    3    3    0    0 -0.30612316607E+02 -0.11249310128E+00  0.19048404384E+02  0.36055073046E+02  0.00000000000E+00 0. -1.
         11    1    3    3    0    0  0.18409029597E+02  0.10836243745E+03  0.26610084918E+02  0.11309025970E+03  0.00000000000E+00 0.  1.
</event>
<event>
 7    1  0.5137842E-006  0.9349687E+02  0.7561462E-02  0.1294598E+00
          1   -1    0    0  501    0  0.00000000000E+00  0.00000000000E+00  0.84242610168E+02  0.84242610168E+02  0.00000000000E+00 0. -1.
         -1   -1    0    0    0  501 -0.00000000000E+00 -0.00000000000E+00 -0.15528056880E+03  0.15528056880E+03  0.00000000000E+00 0.  1.
         23    2    1    2    0    0 -0.91113018779E+01 -0.19735151895E+02  0.35324469334E-02  0.94034544812E+02  0.91487723566E+02 0.  0.
          5    1    1    2  502    0 -0.54870667027E+02  0.25222114434E+02 -0.21369904689E+02  0.64195719350E+02  0.41800000000E+01 0. -1.
         -5    1    1    2    0  502  0.63981968905E+02 -0.54869625393E+01 -0.49671586391E+02  0.81292914804E+02  0.41800000000E+01 0. -1.
        -11    1    3    3    0    0 -0.28349182822E+02  0.69702119797E+01 -0.35273858530E+02  0.45787608775E+02  0.00000000000E+00 0.  1.
         11    1    3    3    0    0  0.19237880944E+02 -0.26705363875E+02  0.35277390977E+02  0.48246936038E+02  0.00000000000E+00 0. -1.
</event>
<event>
 7    1  0.5137842E-006  0.1009612E+03  0.7561462E-02  0.1278288E+00
         -1   -1    0    0    0  501 -0.00000000000E+00  0.00000000000E+00  0.12016120185E+04  0.12016120185E+04  0.00000000000E+00 0.  1.
          1   -1    0    0  501    0  0.00000000000E+00 -0.00000000000E+00 -0.50735850420E+02  0.50735850420E+02  0.00000000000E+00 0. -1.
         23    2    1    2    0    0 -0.62589240907E+01 -0.45648764524E+02  0.83985753749E+01  0.10211937317E+03  0.90746054876E+02 0.  0.
          5    1    1    2  502    0  0.40996684003E+02  0.57094663827E+02  0.10177203021E+04  0.10201532309E+04  0.41800000000E+01 0.  1.
         -5    1    1    2    0  502 -0.34737759912E+02 -0.11445899303E+02  0.12475729057E+03  0.13007526485E+03  0.41800000000E+01 0.  1.
        -11    1    3    3    0    0 -0.21429793970E+02  0.18786918731E+02  0.20128791273E+02  0.34890580722E+02  0.00000000000E+00 0.  1.
         11    1    3    3    0    0  0.15170869880E+02 -0.64435683255E+02 -0.11730215898E+02  0.67228792451E+02  0.00000000000E+00 0. -1.
</event>
<event>
 7    1  0.5137842E-006  0.1358765E+03  0.7561462E-02  0.1218988E+00
         -1   -1    0    0    0  501 -0.00000000000E+00  0.00000000000E+00  0.15057832194E+02  0.15057832194E+02  0.00000000000E+00 0.  1.
          1   -1    0    0  501    0  0.00000000000E+00 -0.00000000000E+00 -0.14364892261E+04  0.14364892261E+04  0.00000000000E+00 0. -1.
         23    2    1    2    0    0  0.80826139157E+02  0.28958266667E+02 -0.40664168584E+03  0.42547818299E+03  0.91119578369E+02 0.  0.
          5    1    1    2  502    0 -0.10163104803E+03  0.14807839877E+02 -0.71786661570E+03  0.72518831512E+03  0.41800000000E+01 0.  1.
         -5    1    1    2    0  502  0.20804908877E+02 -0.43766106544E+02 -0.29692309237E+03  0.30088056018E+03  0.41800000000E+01 0.  1.
        -11    1    3    3    0    0  0.53224985061E+02 -0.25690660069E+02 -0.14124468294E+03  0.15311097122E+03  0.00000000000E+00 0.  1.
         11    1    3    3    0    0  0.27601154096E+02  0.54648926737E+02 -0.26539700290E+03  0.27236721177E+03  0.00000000000E+00 0. -1.
</event>
<event>
 7    1  0.5137842E-006  0.1186695E+03  0.7561462E-02  0.1245308E+00
         -2   -1    0    0    0  501 -0.00000000000E+00  0.00000000000E+00  0.47808054338E+02  0.47808054338E+02  0.00000000000E+00 0.  1.
          2   -1    0    0  501    0  0.00000000000E+00 -0.00000000000E+00 -0.44391450936E+03  0.44391450936E+03  0.00000000000E+00 0. -1.
         23    2    1    2    0    0 -0.38209002686E+02 -0.14843221808E+02 -0.32463547367E+03  0.34193495983E+03  0.99252591248E+02 0.  0.
          5    1    1    2  502    0  0.62641106592E+02  0.55477079878E+02 -0.50056573834E+02  0.97594813443E+02  0.41800000000E+01 0. -1.
         -5    1    1    2    0  502 -0.24432103906E+02 -0.40633858070E+02 -0.21414407518E+02  0.52192790425E+02  0.41800000000E+01 0. -1.
        -11    1    3    3    0    0 -0.38418641787E+02  0.37459598237E+02 -0.19207222100E+03  0.19942655695E+03  0.00000000000E+00 0. -1.
         11    1    3    3    0    0  0.20963910117E+00 -0.52302820045E+02 -0.13256325267E+03  0.14250840288E+03  0.00000000000E+00 0.  1.
</event>
<event>
 7    1  0.5137842E-006  0.1015917E+03  0.7561462E-02  0.1276984E+00
          2   -1    0    0  501    0  0.00000000000E+00  0.00000000000E+00  0.97906044950E+02  0.97906044950E+02  0.00000000000E+00 0. -1.
         -2   -1    0    0    0  501 -0.00000000000E+00 -0.00000000000E+00 -0.37276192189E+03  0.37276192189E+03  0.00000000000E+00 0.  1.
         23    2    1    2    0    0 -0.64055655840E+02 -0.38148254664E+02  0.38953852655E+02  0.12471784031E+03  0.92079968920E+02 0.  0.
          5    1    1    2  502    0  0.58939044551E+02  0.66910196659E+02 -0.30067904682E+03  0.31364972020E+03  0.41800000000E+01 0. -1.
         -5    1    1    2    0  502  0.51166112897E+01 -0.28761941995E+02 -0.13130682776E+02  0.32300406322E+02  0.41800000000E+01 0. -1.
        -11    1    3    3    0    0 -0.31783339528E+02 -0.41150531719E+02 -0.21387578651E+02  0.56222552885E+02  0.00000000000E+00 0.  1.
         11    1    3    3    0    0 -0.32272316312E+02  0.30022770546E+01  0.60341431306E+02  0.68495287427E+02  0.00000000000E+00 0. -1.
</event>
<event>
 7    1  0.5137842E-006  0.1016489E+03  0.7561462E-02  0.1276866E+00
          3   -1    0    0  501    0  0.00000000000E+00  0.00000000000E+00  0.10527323665E+03  0.10527323665E+03  0.00000000000E+00 0. -1.
         -3   -1    0    0    0  501 -0.00000000000E+00 -0.00000000000E+00 -0.22625029957E+03  0.22625029957E+03  0.00000000000E+00 0.  1.
         23    2    1    2    0    0  0.38080670534E+02  0.27028808295E+02  0.48095991402E+02  0.11609187769E+03  0.94780829969E+02 0.  0.
          5    1    1    2  502    0 -0.16389835315E+02  0.46233364375E+02 -0.32836869396E+02  0.59176710578E+02  0.41800000000E+01 0.  1.
         -5    1    1    2    0  502 -0.21690835220E+02 -0.73262172670E+02 -0.13623618492E+03  0.15625494795E+03  0.41800000000E+01 0.  1.
        -11    1    3    3    0    0 -0.16551318011E+02  0.13258268286E+02 -0.19003441379E+02  0.28475578837E+02  0.00000000000E+00 0.  1.
         11    1    3    3    0    0  0.54631988546E+02  0.13770540010E+02  0.67099432780E+02  0.87616298849E+02  0.00000000000E+00 0. -1.
</event>
<event>
 7    1  0.5137842E-006  0.9603178E+02  0.7561462E-02  0.1288869E+00
          3   -1    0    0  501    0  0.00000000000E+00  0.00000000000E+00  0.90966792581E+02  0.90966792581E+02  0.00000000000E+00 0. -1.
         -3   -1    0    0    0  501 -0.00000000000E+00 -0.00000000000E+00 -0.15422854993E+03  0.15422854993E+03  0.00000000000E+00 0.  1.
         23    2    1    2    0    0 -0.27460990405E+02 -0.27889149909E+02  0.17147789903E+01  0.98900639113E+02  0.90810160628E+02 0.  0.
          5    1    1    2  502    0 -0.25923408310E+02 -0.28500182870E+02 -0.55878280285E+02  0.68001015652E+02  0.41800000000E+01 0. -1.
         -5    1    1    2    0  502  0.53384398715E+02  0.56389332778E+02 -0.90982560521E+01  0.78293687744E+02  0.41800000000E+01 0. -1.
        -11    1    3    3    0    0 -0.25152085854E+02  0.17154455555E+02 -0.30793925691E+02  0.43303217290E+02  0.00000000000E+00 0.  1.
         11    1    3    3    0    0 -0.23089045508E+01 -0.45043605464E+02  0.32508704681E+02  0.55597421823E+02  0.00000000000E+00 0. -1.
</event>
<event>
 7    1  0.5137842E-006  0.1632183E+03  0.7561462E-02  0.1185110E+00
         -2   -1    0    0    0  501 -0.00000000000E+00  0.00000000000E+00  0.56493693434E+02  0.56493693434E+02  0.00000000000E+00 0.  1.
          2   -1    0    0  501    0  0.00000000000E+00 -0.00000000000E+00 -0.56201159552E+03  0.56201159552E+03  0.00000000000E+00 0. -1.
         23    2    1    2    0    0  0.11344782404E+03  0.56989917541E+02 -0.34935425469E+03  0.38153902321E+03  0.86054468095E+02 0.  0.
          5    1    1    2  502    0  0.11643952087E+02 -0.50997400460E+02 -0.38589748565E+02  0.65137988672E+02  0.41800000000E+01 0.  1.
         -5    1    1    2    0  502 -0.12509177613E+03 -0.59925170800E+01 -0.11757389882E+03  0.17182827707E+03  0.41800000000E+01 0.  1.
        -11    1    3    3    0    0 -0.51011035897E+01  0.25486103113E+02 -0.31509686922E+02  0.40846334960E+02  0.00000000000E+00 0.  1.
         11    1    3    3    0    0  0.11854892763E+03  0.31503814427E+02 -0.31784456777E+03  0.34069268825E+03  0.00000000000E+00 0. -1.
</event>
<event>
 7    1  0.5137842E-006  0.1139665E+03  0.7561462E-02  0.1253396E+00
         -1   -1    0    0    0  501 -0.00000000000E+00  0.00000000000E+00  0.42606500702E+02  0.42606500702E+02  0.00000000000E+00 0.  1.
          1   -1    0    0  501    0  0.00000000000E+00 -0.00000000000E+00 -0.37559882967E+03  0.37559882967E+03  0.00000000000E+00 0. -1.
         23    2    1    2    0    0  0.32896617515E+02  0.28902021939E+02 -0.22660456996E+03  0.24825396990E+03  0.91448827925E+02 0.  0.
          5    1    1    2  502    0 -0.67676898648E+02  0.21092722338E+02 -0.64358576887E+02  0.95836132879E+02  0.41800000000E+01 0.  1.
         -5    1    1    2    0  502  0.34780281133E+02 -0.49994744277E+02 -0.42029182117E+02  0.74115227588E+02  0.41800000000E+01 0.  1.
        -11    1    3    3    0    0  0.51726819950E+02  0.46903631294E+02 -0.19598407062E+03  0.20805136497E+03  0.00000000000E+00 0. -1.
         11    1    3    3    0    0 -0.18830202436E+02 -0.18001609355E+02 -0.30620499342E+02  0.40202604929E+02  0.00000000000E+00 0.  1.
</event>
<event>
 7    1  0.5137842E-006  0.1545181E+03  0.7561462E-02  0.1195029E+00
         -2   -1    0    0    0  501 -0.00000000000E+00  0.00000000000E+00  0.91149092428E+02  0.91149092428E+02  0.00000000000E+00 0.  1.
          2   -1    0    0  501    0  0.00000000000E+00 -0.00000000000E+00 -0.59109216495E+03  0.59109216495E+03  0.00000000000E+00 0. -1.
         23    2    1    2    0    0 -0.11200419110E+03 -0.91033130769E+02 -0.45548667093E+03  0.48613586777E+03  0.89599134004E+02 0.  0.
          5    1    1    2  502    0 -0.96845240935E+01 -0.63114977263E+00 -0.42386823067E+02  0.43684133581E+02  0.41800000000E+01 0.  1.
         -5    1    1    2    0  502  0.12168871520E+03  0.91664280542E+02 -0.20695785231E+01  0.15242125603E+03  0.41800000000E+01 0.  1.
        -11    1    3    3    0    0 -0.16517247843E+02 -0.25011324798E+02 -0.21489368155E+02  0.36880601787E+02  0.00000000000E+00 0.  1.
         11    1    3    3    0    0 -0.95486943260E+02 -0.66021805972E+02 -0.43399730277E+03  0.44925526598E+03  0.00000000000E+00 0. -1.
</event>
<event>
 7    1  0.5137842E-006  0.1751170E+03  0.7561462E-02  0.1172614E+00
         -2   -1    0    0    0  501 -0.00000000000E+00  0.00000000000E+00  0.73314850183E+02  0.73314850183E+02  0.00000000000E+00 0.  1.
          2   -1    0    0  501    0  0.00000000000E+00 -0.00000000000E+00 -0.89637418718E+03  0.89637418718E+03  0.00000000000E+00 0. -1.
         23    2    1    2    0    0 -0.12483120681E+03  0.87906910630E+02 -0.72984653828E+03  0.75140321831E+03  0.92845957986E+02 0.  0.
          5    1    1    2  502    0  0.34571593150E+02  0.30867102630E+02 -0.10665959728E+02  0.47741053346E+02  0.41800000000E+01 0.  1.
         -5    1    1    2    0  502  0.90259613662E+02 -0.11877401326E+03 -0.82546838993E+02  0.17054476571E+03  0.41800000000E+01 0.  1.
        -11    1    3    3    0    0 -0.86023223365E+02  0.73232170931E+02 -0.66423734082E+03  0.67377606870E+03  0.00000000000E+00 0.  1.
         11    1    3    3    0    0 -0.38807983447E+02  0.14674739700E+02 -0.65609197458E+02  0.77627149604E+02  0.00000000000E+00 0. -1.
</event>
<event>
 7    1  0.5137842E-006  0.1602344E+03  0.7561462E-02  0.1188432E+00
          1   -1    0    0  501    0  0.00000000000E+00  0.00000000000E+00  0.84483393412E+02  0.84483393412E+02  0.00000000000E+00 0. -1.
         -1   -1    0    0    0  501 -0.00000000000E+00 -0.00000000000E+00 -0.32259544295E+03  0.32259544295E+03  0.00000000000E+00 0.  1.
         23    2    1    2    0    0 -0.11934840335E+03 -0.32308816659E+02 -0.10202539731E+03  0.18469454941E+03  0.91733275705E+02 0.  0.
          5    1    1    2  502    0  0.46013296051E+01  0.52868095594E+02 -0.17483369378E+02  0.56029888191E+02  0.41800000000E+01 0.  1.
         -5    1    1    2    0  502  0.11474707374E+03 -0.20559278935E+02 -0.11860328286E+03  0.16635439876E+03  0.41800000000E+01 0.  1.
        -11    1    3    3    0    0  0.17365406952E+01 -0.29416472830E+02 -0.36750018670E+02  0.47105289720E+02  0.00000000000E+00 0. -1.
         11    1    3    3    0    0 -0.12108494404E+03 -0.28923438293E+01 -0.65275378637E+02  0.13758925969E+03  0.00000000000E+00 0.  1.
</event>
<event>
 7    1  0.5137842E-006  0.1307137E+03  0.7561462E-02  0.1226401E+00
         -1   -1    0    0    0  501 -0.00000000000E+00  0.00000000000E+00  0.24815366284E+03  0.24815366284E+03  0.00000000000E+00 0.  1.
          1   -1    0    0  501    0  0.00000000000E+00 -0.00000000000E+00 -0.99393398988E+02  0.99393398988E+02  0.00000000000E+00 0. -1.
         23    2    1    2    0    0 -0.78530060657E+02  0.36845442084E+02 -0.92132440069E+00  0.13406179325E+03  0.10221134253E+03 0.  0.
          5    1    1    2  502    0  0.10149699228E+03 -0.32003358759E+02  0.15593652315E+03  0.18883730052E+03  0.41800000000E+01 0.  1.
         -5    1    1    2    0  502 -0.22966931622E+02 -0.48420833254E+01 -0.62549348994E+01  0.24647968064E+02  0.41800000000E+01 0.  1.
        -11    1    3    3    0    0  0.19926351962E+02 -0.97173578767E+01  0.10542274997E+02  0.24548444120E+02  0.00000000000E+00 0.  1.
         11    1    3    3    0    0 -0.98456412619E+02  0.46562799961E+02 -0.11463599398E+02  0.10951334913E+03  0.00000000000E+00 0. -1.
</event>
<event>
 7    1  0.5137842E-006  0.6580335E+02  0.7561462E-02  0.1374975E+00
         -1   -1    0    0    0  501 -0.00000000000E+00  0.00000000000E+00  0.62343142162E+02  0.62343142162E+02  0.00000000000E+00 0.  1.
          1   -1    0    0  501    0  0.00000000000E+00 -0.00000000000E+00 -0.18965681966E+03  0.18965681966E+03  0.00000000000E+00 0. -1.
         23    2    1    2    0    0 -0.15840349480E+02 -0.10936799778E+01 -0.54222696955E+02  0.10625000993E+03  0.89982503507E+02 0.  0.
          5    1    1    2  502    0 -0.16056779893E+00  0.17630064209E+02 -0.10479686072E+03  0.10635177179E+03  0.41800000000E+01 0.  1.
         -5    1    1    2    0  502  0.16000917279E+02 -0.16536384231E+02  0.31705880181E+02  0.39398180100E+02  0.41800000000E+01 0.  1.
        -11    1    3    3    0    0 -0.46100057062E+01 -0.44768156074E+02 -0.18249566392E+02  0.48564252536E+02  0.00000000000E+00 0.  1.
         11    1    3    3    0    0 -0.11230343773E+02  0.43674476096E+02 -0.35973130563E+02  0.57685757393E+02  0.00000000000E+00 0. -1.
</event>
<event>
 7    1  0.5137842E-006  0.8962140E+02  0.7561462E-02  0.1303771E+00
          1   -1    0    0  501    0  0.00000000000E+00  0.00000000000E+00  0.60401247819E+02  0.60401247819E+02  0.00000000000E+00 0. -1.
         -1   -1    0    0    0  501 -0.00000000000E+00 -0.00000000000E+00 -0.28178274718E+03  0.28178274718E+03  0.00000000000E+00 0.  1.
         23    2    1    2    0    0 -0.14105490509E+02  0.64939280095E+02 -0.60029049088E+02  0.12748029849E+03  0.90728522563E+02 0.  0.
          5    1    1    2  502    0  0.24515644484E+02  0.66185592910E+00 -0.14371565564E+03  0.14585306631E+03  0.41800000000E+01 0. -1.
         -5    1    1    2    0  502 -0.10410153975E+02 -0.65601136024E+02 -0.17636794634E+02  0.68850630196E+02  0.41800000000E+01 0. -1.
        -11    1    3    3    0    0 -0.34718007818E+02  0.54719943747E+02 -0.75695133891E+02  0.99646202162E+02  0.00000000000E+00 0.  1.
         11    1    3    3    0    0  0.20612517310E+02  0.10219336348E+02  0.15666084803E+02  0.27834096326E+02  0.00000000000E+00 0. -1.
</event>
<event>
 7    1  0.5137842E-006  0.1989064E+03  0.7561462E-02  0.1150665E+00
          1   -1    0    0  501    0  0.00000000000E+00  0.00000000000E+00  0.49143061668E+03  0.49143061668E+03  0.00000000000E+00 0. -1.
         -1   -1    0    0    0  501 -0.00000000000E+00 -0.00000000000E+00 -0.98285850877E+02  0.98285850877E+02  0.00000000000E+00 0.  1.
         23    2    1    2    0    0 -0.82016570043E+02  0.37764542949E+02  0.18159290547E+03  0.22249138473E+03  0.91507128118E+02 0.  0.
          5    1    1    2  502    0 -0.55745364922E+02  0.75757364011E+02  0.15237646032E+03  0.17911667139E+03  0.41800000000E+01 0. -1.
         -5    1    1    2    0  502  0.13776193497E+03 -0.11352190696E+03  0.59175400019E+02  0.18810841144E+03  0.41800000000E+01 0.  1.
        -11    1    3    3    0    0 -0.15481568433E+00 -0.23097000081E+02  0.16349088212E+02  0.28298198989E+02  0.00000000000E+00 0.  1.
         11    1    3    3    0    0 -0.81861754359E+02  0.60861543029E+02  0.16524381725E+03  0.19419318574E+03  0.00000000000E+00 0. -1.
</event>
<event>
 7    1  0.5137842E-006  0.1252361E+03  0.7561462E-02  0.1234701E+00
         -2   -1    0    0    0  501 -0.00000000000E+00  0.00000000000E+00  0.18394870833E+03  0.18394870833E+03  0.00000000000E+00 0.  1.
          2   -1    0    0  501    0  0.00000000000E+00 -0.00000000000E+00 -0.10939245442E+03  0.10939245442E+03  0.00000000000E+00 0. -1.
         23    2    1    2    0    0  0.82926297892E+02 -0.27494198633E+02  0.92375689435E+01  0.12736772703E+03  0.92219864287E+02 0.  0.
          5    1    1    2  502    0 -0.62946365193E+02 -0.35042957294E+02  0.69323581492E+02  0.10006740277E+03  0.41800000000E+01 0. -1.
         -5    1    1    2    0  502 -0.19979932699E+02  0.62537155928E+02 -0.40048965319E+01  0.65906032944E+02  0.41800000000E+01 0. -1.
        -11    1    3    3    0    0 -0.90778711719E+01  0.97001024615E+01  0.23613128252E+02  0.27093902610E+02  0.00000000000E+00 0.  1.
         11    1    3    3    0    0  0.92004169064E+02 -0.37194301095E+02 -0.14375559309E+02  0.10027382442E+03  0.00000000000E+00 0. -1.
</event>
<event>
 7    1  0.5137842E-006  0.1032220E+03  0.7561462E-02  0.1273663E+00
          2   -1    0    0  501    0  0.00000000000E+00  0.00000000000E+00  0.66706929957E+02  0.66706929957E+02  0.00000000000E+00 0. -1.
         -2   -1    0    0    0  501 -0.00000000000E+00 -0.00000000000E+00 -0.43544000742E+03  0.43544000742E+03  0.00000000000E+00 0.  1.
         23    2    1    2    0    0  0.30991797658E+01  0.17557534597E+01  0.11368878992E+02  0.10501284121E+03  0.10433483514E+03 0.  0.
          5    1    1    2  502    0  0.29439396049E+02 -0.46131809418E+02 -0.24739769371E+03  0.25341253547E+03  0.41800000000E+01 0. -1.
         -5    1    1    2    0  502 -0.32538575814E+02  0.44376055959E+02 -0.13270426275E+03  0.14372156070E+03  0.41800000000E+01 0.  1.
        -11    1    3    3    0    0 -0.16950432726E+02  0.45336918427E+02  0.25890125732E+02  0.54891273919E+02  0.00000000000E+00 0.  1.
         11    1    3    3    0    0  0.20049612492E+02 -0.43581164967E+02 -0.14521246739E+02  0.50121567292E+02  0.00000000000E+00 0. -1.
</event>
<event>
 7    1  0.5137842E-006  0.1295188E+03  0.7561462E-02  0.1228171E+00
         -2   -1    0    0    0  501 -0.00000000000E+00  0.00000000000E+00  0.25514878796E+02  0.25514878796E+02  0.00000000000E+00 0.  1.
          2   -1    0    0  501    0  0.00000000000E+00 -0.00000000000E+00 -0.82725895557E+03  0.82725895557E+03  0.00000000000E+00 0. -1.
         23    2    1    2    0    0  0.94425734356E+02  0.26702586325E+02 -0.35131398078E+03  0.37510832520E+03  0.87495686317E+02 0.  0.
          5    1    1    2  502    0 -0.61758487767E+02 -0.62031366332E+02 -0.39287632266E+03  0.40253109013E+03  0.41800000000E+01 0.  1.
         -5    1    1    2    0  502 -0.32667246589E+02  0.35328780008E+02 -0.57553773339E+02  0.75134419024E+02  0.41800000000E+01 0.  1.
        -11    1    3    3    0    0  0.95009089042E+01 -0.22875010304E+02 -0.29058355322E+02  0.38182736681E+02  0.00000000000E+00 0.  1.
         11    1    3    3    0    0  0.84924825452E+02  0.49577596629E+02 -0.32225562545E+03  0.33692558852E+03  0.00000000000E+00 0. -1.
</event>
<event>
 7    1  0.5137842E-006  0.8391256E+02  0.7561462E-02  0.1318301E+00
         -1   -1    0    0    0  501 -0.00000000000E+00  0.00000000000E+00  0.96069893629E+02  0.96069893629E+02  0.00000000000E+00 0.  1.
          1   -1    0    0  501    0  0.00000000000E+00 -0.00000000000E+00 -0.14855645437E+03  0.14855645437E+03  0.00000000000E+00 0. -1.
         23    2    1    2    0    0 -0.36248244216E+02 -0.34085096131E+02 -0.28798467052E+02  0.10793582713E+03  0.91351311360E+02 0.  0.
          5    1    1    2  502    0  0.52035607137E+02  0.13345311040E+02 -0.66993677432E+02  0.85973408405E+02  0.41800000000E+01 0.  1.
         -5    1    1    2    0  502 -0.15787362921E+02  0.20739785091E+02  0.43305583741E+02  0.50717112465E+02  0.41800000000E+01 0.  1.
        -11    1    3    3    0    0  0.33486460015E+01  0.20131612598E+02 -0.34997623692E+02  0.40513317809E+02  0.00000000000E+00 0. -1.
         11    1    3    3    0    0 -0.39596890218E+02 -0.54216708730E+02  0.61991566398E+01  0.67422509323E+02  0.00000000000E+00 0.  1.
</event>
<event>
 7    1  0.5137842E-006  0.1074723E+03  0.7561462E-02  0.1265324E+00
         -2   -1    0    0    0  501 -0.00000000000E+00  0.00000000000E+00  0.63185157658E+02  0.63185157658E+02  0.00000000000E+00 0.  1.
          2   -1    0    0  501    0  0.00000000000E+00 -0.00000000000E+00 -0.20862603018E+03  0.20862603018E+03  0.00000000000E+00 0. -1.
         23    2    1    2    0    0  0.10176720760E+02  0.50864082427E+01 -0.10547667896E+03  0.14000181549E+03  0.91355029093E+02 0.  0.
          5    1    1    2  502    0 -0.14607120938E+01  0.59142592743E+02 -0.94868332759E+01  0.60062070908E+02  0.41800000000E+01 0.  1.
         -5    1    1    2    0  502 -0.87160086662E+01 -0.64229000985E+02 -0.30477360287E+02  0.71747301446E+02  0.41800000000E+01 0.  1.
        -11    1    3    3    0    0  0.51431288258E+01  0.47598299778E+02 -0.67638975035E+02  0.82867851786E+02  0.00000000000E+00 0.  1.
         11    1    3    3    0    0  0.50335919341E+01 -0.42511891535E+02 -0.37837703926E+02  0.57133963700E+02  0.00000000000E+00 0. -1.
</event>
<event>
 7    1  0.5137842E-006  0.1243094E+03  0.7561462E-02  0.1236152E+00
         -2   -1    0    0    0  501 -0.00000000000E+00  0.00000000000E+00  0.79394734562E+03  0.79394734562E+03  0.00000000000E+00 0.  1.
          2   -1    0    0  501    0  0.00000000000E+00 -0.00000000000E+00 -0.27343723457E+02  0.27343723457E+02  0.00000000000E+00 0. -1.
         23    2    1    2    0    0  0.88035314514E+02  0.23834202498E+02  0.23114170651E+03  0.26389981824E+03  0.88872604166E+02 0.  0.
          5    1    1    2  502    0 -0.19354288030E+02 -0.48213191369E+02  0.75930906378E+02  0.92098182558E+02  0.41800000000E+01 0. -1.
         -5    1    1    2    0  502 -0.68681026484E+02  0.24378988871E+02  0.45953100927E+03  0.46529306827E+03  0.41800000000E+01 0. -1.
        -11    1    3    3    0    0  0.93861218546E+02 -0.50848097948E+01  0.20008767278E+03  0.22106754723E+03  0.00000000000E+00 0.  1.
         11    1    3    3    0    0 -0.58259040314E+01  0.28919012293E+02  0.31054033725E+02  0.42832271016E+02  0.00000000000E+00 0. -1.
</event>
<event>
 7    1  0.5137842E-006  0.1422325E+03  0.7561462E-02  0.1210356E+00
          2   -1    0    0  501    0  0.00000000000E+00  0.00000000000E+00  0.27690177946E+03  0.27690177946E+03  0.00000000000E+00 0. -1.
         -2   -1    0    0    0  501 -0.00000000000E+00 -0.00000000000E+00 -0.81090519995E+02  0.81090519995E+02  0.00000000000E+00 0.  1.
         23    2    1    2    0    0 -0.94042298716E+02  0.39499266779E+02  0.88484280894E+02  0.16416114302E+03  0.93355593774E+02 0.  0.
          5    1    1    2  502    0  0.98049365484E+02 -0.75950754108E+02  0.88322291325E+02  0.15231708593E+03  0.41800000000E+01 0. -1.
         -5    1    1    2    0  502 -0.40070667676E+01  0.36451487329E+02  0.19004687247E+02  0.41514070505E+02  0.41800000000E+01 0. -1.
        -11    1    3    3    0    0 -0.26325332236E+02  0.48465013110E+02  0.77276809223E+02  0.94939906556E+02  0.00000000000E+00 0.  1.
         11    1    3    3    0    0 -0.67716966480E+02 -0.89657463308E+01  0.11207471670E+02  0.69221236465E+02  0.00000000000E+00 0. -1.
</event>
<event>
 7    1  0.5137842E-006  0.2226400E+03  0.7561462E-02  0.1131930E+00
         -1   -1    0    0    0  501 -0.00000000000E+00  0.00000000000E+00  0.10481341883E+04  0.10481341883E+04  0.00000000000E+00 0.  1.
          1   -1    0    0  501    0  0.00000000000E+00 -0.00000000000E+00 -0.52468782553E+02  0.52468782553E+02  0.00000000000E+00 0. -1.
         23    2    1    2    0    0  0.96570087647E+02  0.18403335236E+03  0.47910156430E+03  0.52992044839E+03  0.89907263927E+02 0.  0.
          5    1    1    2  502    0 -0.97050014285E+02 -0.11875461864E+03  0.45753076902E+03  0.48256941648E+03  0.41800000000E+01 0. -1.
         -5    1    1    2    0  502  0.47992663813E+00 -0.65278733722E+02  0.59033072454E+02  0.88113106002E+02  0.41800000000E+01 0. -1.
        -11    1    3    3    0    0  0.10671379334E+03  0.18748457922E+03  0.45700079264E+03  0.50535930347E+03  0.00000000000E+00 0.  1.
         11    1    3    3    0    0 -0.10143705693E+02 -0.34512268591E+01  0.22100771660E+02  0.24561144925E+02  0.00000000000E+00 0. -1.
</event>
<event>
 7    1  0.5137842E-006  0.1002678E+03  0.7561462E-02  0.1279734E+00
         -2   -1    0    0    0  501 -0.00000000000E+00  0.00000000000E+00  0.35110225755E+03  0.35110225755E+03  0.00000000000E+00 0.  1.
          2   -1    0    0  501    0  0.00000000000E+00 -0.00000000000E+00 -0.31329029998E+02  0.31329029998E+02  0.00000000000E+00 0. -1.
         23    2    1    2    0    0 -0.28451152211E+02  0.10824157401E+02  0.11701047057E+03  0.14908300278E+03  0.87221906948E+02 0.  0.
          5    1    1    2  502    0 -0.20065178019E+02  0.39136651350E+02  0.97785409462E+02  0.10730213209E+03  0.41800000000E+01 0. -1.
         -5    1    1    2    0  502  0.48516330230E+02 -0.49960808751E+02  0.10497734752E+03  0.12604615267E+03  0.41800000000E+01 0.  1.
        -11    1    3    3    0    0 -0.15257502014E+02  0.46295383461E+02  0.39179951400E+02  0.62538967766E+02  0.00000000000E+00 0. -1.
         11    1    3    3    0    0 -0.13193650197E+02 -0.35471226060E+02  0.77830519166E+02  0.86544035019E+02  0.00000000000E+00 0.  1.
</event>
<event>
 7    1  0.5137842E-006  0.1440996E+03  0.7561462E-02  0.1207917E+00
          1   -1    0    0  501    0  0.00000000000E+00  0.00000000000E+00  0.21455929303E+03  0.21455929303E+03  0.00000000000E+00 0.  1.
         -1   -1    0    0    0  501 -0.00000000000E+00 -0.00000000000E+00 -0.13312697670E+03  0.13312697670E+03  0.00000000000E+00 0. -1.
         23    2    1    2    0    0  0.60378396523E+02  0.94279033328E+02  0.94563952728E+02  0.17930069912E+03  0.10330688582E+03 0.  0.
          5    1    1    2  502    0  0.20049488622E+02 -0.70213175769E+02 -0.35651784250E+02  0.81365804646E+02  0.41800000000E+01 0.  1.
         -5    1    1    2    0  502 -0.80427885145E+02 -0.24065857559E+02  0.22520147846E+02  0.87019765961E+02  0.41800000000E+01 0.  1.
        -11    1    3    3    0    0 -0.11367363128E+02 -0.13573231670E+01  0.50660515838E+02  0.51937916166E+02  0.00000000000E+00 0.  1.
         11    1    3    3    0    0  0.71745759651E+02  0.95636356495E+02  0.43903436889E+02  0.12736278296E+03  0.00000000000E+00 0. -1.
</event>
<event>
 7    1  0.5137842E-006  0.1146650E+03  0.7561462E-02  0.1252167E+00
          1   -1    0    0  501    0  0.00000000000E+00  0.00000000000E+00  0.39326154248E+03  0.39326154248E+03  0.00000000000E+00 0. -1.
         -1   -1    0    0    0  501 -0.00000000000E+00 -0.00000000000E+00 -0.40754048894E+02  0.40754048894E+02  0.00000000000E+00 0.  1.
         23    2    1    2    0    0  0.49000280678E+02  0.45239270517E+02  0.15426691495E+03  0.19030601984E+03  0.89277550572E+02 0.  0.
          5    1    1    2  502    0  0.19195680154E+02 -0.50571778831E+02  0.15106037605E+03  0.16050759659E+03  0.41800000000E+01 0. -1.
         -5    1    1    2    0  502 -0.68195960832E+02  0.53325083146E+01  0.47180202593E+02  0.83201974949E+02  0.41800000000E+01 0. -1.
        -11    1    3    3    0    0  0.58657175405E+02 -0.16409633781E+01  0.56539534817E+02  0.81486661391E+02  0.00000000000E+00 0.  1.
         11    1    3    3    0    0 -0.96568947274E+01  0.46880233895E+02  0.97727380130E+02  0.10881935845E+03  0.00000000000E+00 0. -1.
</event>
<event>
 7    1  0.5137842E-006  0.8919956E+02  0.7561462E-02  0.1304802E+00
          2   -1    0    0  501    0  0.00000000000E+00  0.00000000000E+00  0.10669344501E+04  0.10669344501E+04  0.00000000000E+00 0. -1.
         -2   -1    0    0    0  501 -0.00000000000E+00 -0.00000000000E+00 -0.15037428652E+02  0.15037428652E+02  0.00000000000E+00 0.  1.
         23    2    1    2    0    0 -0.27336930306E+02 -0.30661677524E+02  0.43498976662E+03  0.44623079290E+03  0.90655265958E+02 0.  0.
          5    1    1    2  502    0  0.39101125483E+02 -0.10063413821E+02  0.57346598846E+03  0.57490075894E+03  0.41800000000E+01 0. -1.
         -5    1    1    2    0  502 -0.11764195178E+02  0.40725091344E+02  0.43441266338E+02  0.60840326875E+02  0.41800000000E+01 0.  1.
        -11    1    3    3    0    0 -0.22978460917E+02 -0.60676882128E+02  0.35067410826E+03  0.35662588786E+03  0.00000000000E+00 0.  1.
         11    1    3    3    0    0 -0.43584693891E+01  0.30015204604E+02  0.84315658362E+02  0.89604905043E+02  0.00000000000E+00 0. -1.
</event>
<event>
 7    1  0.5137842E-006  0.1053594E+03  0.7561462E-02  0.1269413E+00
          1   -1    0    0  501    0  0.00000000000E+00  0.00000000000E+00  0.46963766076E+03  0.46963766076E+03  0.00000000000E+00 0. -1.
         -1   -1    0    0    0  501 -0.00000000000E+00 -0.00000000000E+00 -0.28464009129E+02  0.28464009129E+02  0.00000000000E+00 0.  1.
         23    2    1    2    0    0 -0.51297042301E+01 -0.15713603556E+02  0.25963720187E+03  0.27702043141E+03  0.95160977405E+02 0.  0.
          5    1    1    2  502    0  0.13560976199E+02  0.69823945072E+02  0.10360359974E+03  0.12573965827E+03  0.41800000000E+01 0. -1.
         -5    1    1    2    0  502 -0.84312719690E+01 -0.54110341516E+02  0.77932850016E+02  0.95341580214E+02  0.41800000000E+01 0. -1.
        -11    1    3    3    0    0 -0.41045581727E+02  0.75759286750E+01  0.61594731693E+02  0.74404606355E+02  0.00000000000E+00 0.  1.
         11    1    3    3    0    0  0.35915877497E+02 -0.23289532231E+02  0.19804247018E+03  0.20261582505E+03  0.00000000000E+00 0. -1.
</event>
<event>
 7    1  0.5137842E-006  0.2355819E+03  0.7561462E-02  0.1122772E+00
          2   -1    0    0  501    0  0.00000000000E+00  0.00000000000E+00  0.12804729249E+04  0.12804729249E+04  0.00000000000E+00 0. -1.
         -2   -1    0    0    0  501 -0.00000000000E+00 -0.00000000000E+00 -0.47846253191E+02  0.47846253191E+02  0.00000000000E+00 0.  1.
         23    2    1    2    0    0  0.19419116380E+03 -0.87880218129E+02  0.76310115373E+03  0.79771934751E+03  0.92734274842E+02 0.  0.
          5    1    1    2  502    0  0.69400765872E+01  0.36982773042E+02  0.51691003500E+02  0.64072789917E+02  0.41800000000E+01 0.  1.
         -5    1    1    2    0  502 -0.20113124039E+03  0.50897445086E+02  0.41783451445E+03  0.46652704063E+03  0.41800000000E+01 0.  1.
        -11    1    3    3    0    0  0.41024526459E+02 -0.55870952359E+02  0.33044999370E+03  0.33764148652E+03  0.00000000000E+00 0.  1.
         11    1    3    3    0    0  0.15316663735E+03 -0.32009265770E+02  0.43265116003E+03  0.46007786099E+03  0.00000000000E+00 0. -1.
</event>
<event>
 7    1  0.5137842E-006  0.1108169E+03  0.7561462E-02  0.1259065E+00
          2   -1    0    0  501    0  0.00000000000E+00  0.00000000000E+00  0.21232613725E+03  0.21232613725E+03  0.00000000000E+00 0. -1.
         -2   -1    0    0    0  501 -0.00000000000E+00 -0.00000000000E+00 -0.95540178991E+02  0.95540178991E+02  0.00000000000E+00 0.  1.
         23    2    1    2    0    0 -0.38491462739E+02  0.42905444693E+02  0.12966937641E+03  0.16953270082E+03  0.92761627741E+02 0.  0.
          5    1    1    2  502    0 -0.31469258710E+02  0.23840397916E+02 -0.12252227088E+02  0.41548384868E+02  0.41800000000E+01 0.  1.
         -5    1    1    2    0  502  0.69960721449E+02 -0.66745842609E+02 -0.63119105943E+00  0.96785230554E+02  0.41800000000E+01 0.  1.
        -11    1    3    3    0    0 -0.53556557591E+02  0.18870624269E+02  0.26737591931E+02  0.62763876104E+02  0.00000000000E+00 0.  1.
         11    1    3    3    0    0  0.15065094853E+02  0.24034820424E+02  0.10293178447E+03  0.10676882471E+03  0.00000000000E+00 0. -1.
</event>
<event>
 7    1  0.5137842E-006  0.1535026E+03  0.7561462E-02  0.1196234E+00
          2   -1    0    0  501    0  0.00000000000E+00  0.00000000000E+00  0.75198662626E+02  0.75198662626E+02  0.00000000000E+00 0. -1.
         -2   -1    0    0    0  501 -0.00000000000E+00 -0.00000000000E+00 -0.42935393067E+03  0.42935393067E+03  0.00000000000E+00 0.  1.
         23    2    1    2    0    0 -0.27485489940E+01  0.12129634856E+03 -0.63379212664E+02  0.16555594495E+03  0.93120822680E+02 0.  0.
          5    1    1    2  502    0 -0.64745148157E+01 -0.14507332610E+03 -0.26657068600E+03  0.30358786590E+03  0.41800000000E+01 0.  1.
         -5    1    1    2    0  502  0.92230638097E+01  0.23776977545E+02 -0.24205369376E+02  0.35408782439E+02  0.41800000000E+01 0.  1.
        -11    1    3    3    0    0  0.28357993225E+02  0.41734363073E+02  0.11733307172E+02  0.51803507005E+02  0.00000000000E+00 0. -1.
         11    1    3    3    0    0 -0.31106542219E+02  0.79561985483E+02 -0.75112519836E+02  0.11375243795E+03  0.00000000000E+00 0.  1.
</event>
<event>
 7    1  0.5137842E-006  0.1179562E+03  0.7561462E-02  0.1246507E+00
         -2   -1    0    0    0  501 -0.00000000000E+00  0.00000000000E+00  0.96637162265E+02  0.96637162265E+02  0.00000000000E+00 0.  1.
          2   -1    0    0  501    0  0.00000000000E+00 -0.00000000000E+00 -0.16269417567E+03  0.16269417567E+03  0.00000000000E+00 0. -1.
         23    2    1    2    0    0 -0.28947852439E+01 -0.61119959420E+02 -0.27129519859E+02  0.11473680021E+03  0.93190628570E+02 0.  0.
          5    1    1    2  502    0 -0.36026756798E+02  0.78780141476E+02 -0.14211409084E+00  0.86727910691E+02  0.41800000000E+01 0. -1.
         -5    1    1    2    0  502  0.38921542042E+02 -0.17660182057E+02 -0.38785379459E+02  0.57866627040E+02  0.41800000000E+01 0. -1.
        -11    1    3    3    0    0 -0.40404594207E+02 -0.79639321191E+01  0.61869710037E+01  0.41644135938E+02  0.00000000000E+00 0.  1.
         11    1    3    3    0    0  0.37509808963E+02 -0.53156027301E+02 -0.33316490862E+02  0.73092664271E+02  0.00000000000E+00 0. -1.
</event>
<event>
 7    1  0.5137842E-006  0.3063786E+03  0.7561462E-02  0.1082095E+00
         -2   -1    0    0    0  501 -0.00000000000E+00  0.00000000000E+00  0.94874744754E+02  0.94874744754E+02  0.00000000000E+00 0.  1.
          2   -1    0    0  501    0  0.00000000000E+00 -0.00000000000E+00 -0.11216076713E+04  0.11216076713E+04  0.00000000000E+00 0. -1.
         23    2    1    2    0    0 -0.33862539897E+01  0.30589668996E+03 -0.44594513065E+03  0.54824152137E+03  0.90096917599E+02 0.  0.
          5    1    1    2  502    0 -0.60308760174E+00 -0.21374488803E+03 -0.50637594124E+03  0.54965562595E+03  0.41800000000E+01 0. -1.
         -5    1    1    2    0  502  0.39893415915E+01 -0.92151801931E+02 -0.74411854639E+02  0.11858526872E+03  0.41800000000E+01 0. -1.
        -11    1    3    3    0    0 -0.12169784234E+02  0.20431355736E+03 -0.22073382324E+03  0.30102417527E+03  0.00000000000E+00 0.  1.
         11    1    3    3    0    0  0.87835302442E+01  0.10158313259E+03 -0.22521130740E+03  0.24721734610E+03  0.00000000000E+00 0. -1.
</event>
<event>
 7    1  0.5137842E-006  0.1441448E+03  0.7561462E-02  0.1207858E+00
          2   -1    0    0  501    0  0.00000000000E+00  0.00000000000E+00  0.37440135535E+03  0.37440135535E+03  0.00000000000E+00 0. -1.
         -2   -1    0    0    0  501 -0.00000000000E+00 -0.00000000000E+00 -0.25428976616E+03  0.25428976616E+03  0.00000000000E+00 0.  1.
         23    2    1    2    0    0 -0.95677552922E+02 -0.66622185254E+02  0.32780523210E+03  0.35965797588E+03  0.91131112788E+02 0.  0.
          5    1    1    2  502    0  0.18436762703E+01  0.44340787357E+02 -0.54182967009E+01  0.44903617947E+02  0.41800000000E+01 0.  1.
         -5    1    1    2    0  502  0.93833876651E+02  0.22281397897E+02 -0.20227534621E+03  0.22412952769E+03  0.41800000000E+01 0.  1.
        -11    1    3    3    0    0 -0.48958438613E+01 -0.55505122682E+02  0.10643415248E+03  0.12013749100E+03  0.00000000000E+00 0.  1.
         11    1    3    3    0    0 -0.90781709060E+02 -0.11117062572E+02  0.22137107962E+03  0.23952048487E+03  0.00000000000E+00 0. -1.
</event>
<event>
 7    1  0.5137842E-006  0.1235434E+03  0.7561462E-02  0.1237363E+00
          1   -1    0    0  501    0  0.00000000000E+00  0.00000000000E+00  0.42134757759E+03  0.42134757759E+03  0.00000000000E+00 0. -1.
         -1   -1    0    0    0  501 -0.00000000000E+00 -0.00000000000E+00 -0.40345520921E+02  0.40345520921E+02  0.00000000000E+00 0.  1.
         23    2    1    2    0    0  0.50591570013E+02 -0.49887386965E+02  0.17735692783E+03  0.21236085041E+03  0.92700553408E+02 0.  0.
          5    1    1    2  502    0 -0.51603073650E+02 -0.30884695644E+02  0.11124998055E+03  0.12653368013E+03  0.41800000000E+01 0.  1.
         -5    1    1    2    0  502  0.10115036370E+01  0.80772082610E+02  0.92395148293E+02  0.12279856798E+03  0.41800000000E+01 0.  1.
        -11    1    3    3    0    0  0.49729311124E+02  0.59391403091E+01  0.40019631973E+02  0.64108101795E+02  0.00000000000E+00 0.  1.
         11    1    3    3    0    0  0.86225888830E+00 -0.55826527275E+02  0.13733729586E+03  0.14825274861E+03  0.00000000000E+00 0. -1.
</event>
<event>
 7    1  0.5137842E-006  0.1318990E+03  0.7561462E-02  0.1224665E+00
         -1   -1    0    0    0  501 -0.00000000000E+00  0.00000000000E+00  0.11952645958E+04  0.11952645958E+04  0.00000000000E+00 0.  1.
          1   -1    0    0  501    0  0.00000000000E+00 -0.00000000000E+00 -0.15303959146E+02  0.15303959146E+02  0.00000000000E+00 0. -1.
         23    2    1    2    0    0 -0.80416681146E+02 -0.78938916700E+01  0.53018221608E+03  0.54394364307E+03  0.90842437510E+02 0.  0.
          5    1    1    2  502    0 -0.17546240246E+02  0.37949569701E+02  0.12364195909E+03  0.13058654921E+03  0.41800000000E+01 0.  1.
         -5    1    1    2    0  502  0.97962921392E+02 -0.30055678031E+02  0.52613646152E+03  0.53603836270E+03  0.41800000000E+01 0.  1.
        -11    1    3    3    0    0 -0.76610769058E+02  0.29162569157E+02  0.31118671455E+03  0.32180248086E+03  0.00000000000E+00 0. -1.
         11    1    3    3    0    0 -0.38059120881E+01 -0.37056460827E+02  0.21899550153E+03  0.22214116221E+03  0.00000000000E+00 0.  1.
</event>
<event>
 7    1  0.5137842E-006  0.2236683E+03  0.7561462E-02  0.1131177E+00
          2   -1    0    0  501    0  0.00000000000E+00  0.00000000000E+00  0.53943060282E+03  0.53943060282E+03  0.00000000000E+00 0. -1.
         -2   -1    0    0    0  501 -0.00000000000E+00 -0.00000000000E+00 -0.12564686504E+03  0.12564686504E+03  0.00000000000E+00 0.  1.
         23    2    1    2    0    0 -0.14879642565E+02 -0.21518646115E+03  0.32404942183E+03  0.40007377439E+03  0.92327570860E+02 0.  0.
          5    1    1    2  502    0  0.51754635045E+01  0.21318870850E+02 -0.29620465905E+02  0.37096146394E+02  0.41800000000E+01 0.  1.
         -5    1    1    2    0  502  0.97041790606E+01  0.19386759030E+03  0.11935478186E+03  0.22790754708E+03  0.41800000000E+01 0.  1.
        -11    1    3    3    0    0 -0.33938540110E+02 -0.31910998887E+02  0.39520082683E+02  0.61089878786E+02  0.00000000000E+00 0.  1.
         11    1    3    3    0    0  0.19058897545E+02 -0.18327546227E+03  0.28452933914E+03  0.33898389560E+03  0.00000000000E+00 0. -1.
</event>
<event>
 7    1  0.5137842E-006  0.1000206E+03  0.7561462E-02  0.1280253E+00
         -2   -1    0    0    0  501 -0.00000000000E+00  0.00000000000E+00  0.44852737315E+02  0.44852737315E+02  0.00000000000E+00 0.  1.
          2   -1    0    0  501    0  0.00000000000E+00 -0.00000000000E+00 -0.41677353766E+03  0.41677353766E+03  0.00000000000E+00 0. -1.
         23    2    1    2    0    0 -0.52658247639E+02  0.40857936846E+02 -0.25161363769E+03  0.27577096457E+03  0.91093030353E+02 0.  0.
          5    1    1    2  502    0 -0.46261119526E+00 -0.40730724997E+02 -0.12579183927E+03  0.13228856789E+03  0.41800000000E+01 0. -1.
         -5    1    1    2    0  502  0.53120858835E+02 -0.12721184953E+00  0.54846766159E+01  0.53566742516E+02  0.41800000000E+01 0. -1.
        -11    1    3    3    0    0  0.18308092279E+02  0.28351280121E+02 -0.40615636678E+02  0.52807303189E+02  0.00000000000E+00 0. -1.
         11    1    3    3    0    0 -0.70966339919E+02  0.12506656726E+02 -0.21099800101E+03  0.22296366138E+03  0.00000000000E+00 0.  1.
</event>
<event>
 7    1  0.5137842E-006  0.1395862E+03  0.7561462E-02  0.1213887E+00
          1   -1    0    0  501    0  0.00000000000E+00  0.00000000000E+00  0.28542878795E+03  0.28542878795E+03  0.00000000000E+00 0. -1.
         -1   -1    0    0    0  501 -0.00000000000E+00 -0.00000000000E+00 -0.88652719878E+02  0.88652719878E+02  0.00000000000E+00 0.  1.
         23    2    1    2    0    0  0.10635861987E+03 -0.25601637802E+02  0.14126216609E+03  0.19880431305E+03  0.87181164465E+02 0.  0.
          5    1    1    2  502    0 -0.66415648556E+02  0.63741288283E+02  0.72604010814E+02  0.11731498196E+03  0.41800000000E+01 0.  1.
         -5    1    1    2    0  502 -0.39942971319E+02 -0.38139650481E+02 -0.17090108826E+02  0.57962212831E+02  0.41800000000E+01 0.  1.
        -11    1    3    3    0    0  0.92162984689E+01  0.21711081405E+02  0.57304236727E+02  0.61968433578E+02  0.00000000000E+00 0. -1.
         11    1    3    3    0    0  0.97142321406E+02 -0.47312719207E+02  0.83957929362E+02  0.13683587947E+03  0.00000000000E+00 0.  1.
</event>
<event>
 7    1  0.5137842E-006  0.9308137E+02  0.7561462E-02  0.1295557E+00
          2   -1    0    0  501    0  0.00000000000E+00  0.00000000000E+00  0.16132415754E+03  0.16132415754E+03  0.00000000000E+00 0.  1.
         -2   -1    0    0    0  501 -0.00000000000E+00 -0.00000000000E+00 -0.10161855994E+03  0.10161855994E+03  0.00000000000E+00 0. -1.
         23    2    1    2    0    0 -0.20999356761E+02  0.13467216185E+02  0.71424637668E+02  0.13485386712E+03  0.11163219838E+03 0.  0.
          5    1    1    2  502    0  0.43786226874E+02 -0.19163760947E+02  0.45483105079E+02  0.66111032703E+02  0.41800000000E+01 0.  1.
         -5    1    1    2    0  502 -0.22786870113E+02  0.56965447620E+01 -0.57202145146E+02  0.61977817654E+02  0.41800000000E+01 0.  1.
        -11    1    3    3    0    0 -0.45504306886E+02  0.51726173210E+02  0.45148934696E+02  0.82369079419E+02  0.00000000000E+00 0. -1.
         11    1    3    3    0    0  0.24504950125E+02 -0.38258957024E+02  0.26275702972E+02  0.52484787700E+02  0.00000000000E+00 0.  1.
</event>
<event>
 7    1  0.5137842E-006  0.9492695E+02  0.7561462E-02  0.1291341E+00
          1   -1    0    0  501    0  0.00000000000E+00  0.00000000000E+00  0.18288329114E+03  0.18288329114E+03  0.00000000000E+00 0. -1.
         -1   -1    0    0    0  501 -0.00000000000E+00 -0.00000000000E+00 -0.10980345446E+03  0.10980345446E+03  0.00000000000E+00 0.  1.
         23    2    1    2    0    0  0.45616641600E+02  0.16856366194E+02  0.11259110975E+03  0.15272604901E+03  0.91013586787E+02 0.  0.
          5    1    1    2  502    0 -0.59228751305E+02  0.38359482321E+02 -0.17995650036E+00  0.70689459253E+02  0.41800000000E+01 0.  1.
         -5    1    1    2    0  502  0.13612109705E+02 -0.55215848514E+02 -0.39331316575E+02  0.69271237331E+02  0.41800000000E+01 0.  1.
        -11    1    3    3    0    0  0.25014917711E+02 -0.11139517586E+02  0.11468021945E+03  0.11790414621E+03  0.00000000000E+00 0. -1.
         11    1    3    3    0    0  0.20601723889E+02  0.27995883780E+02 -0.20891096945E+01  0.34821902807E+02  0.00000000000E+00 0.  1.
</event>
<event>
 7    1  0.5137842E-006  0.1586933E+03  0.7561462E-02  0.1190180E+00
          2   -1    0    0  501    0  0.00000000000E+00  0.00000000000E+00  0.14523002832E+04  0.14523002832E+04  0.00000000000E+00 0. -1.
         -2   -1    0    0    0  501 -0.00000000000E+00 -0.00000000000E+00 -0.19002195388E+02  0.19002195388E+02  0.00000000000E+00 0.  1.
         23    2    1    2    0    0 -0.16764982969E+02 -0.13132169438E+03  0.68195770353E+03  0.69820101198E+03  0.69942059351E+02 0.  0.
          5    1    1    2  502    0  0.56887568082E+02  0.40579772302E+02  0.17884133605E+03  0.19205366230E+03  0.41800000000E+01 0. -1.
         -5    1    1    2    0  502 -0.40122585113E+02  0.90741922079E+02  0.57249904829E+03  0.58104780436E+03  0.41800000000E+01 0. -1.
        -11    1    3    3    0    0 -0.35949321383E+02 -0.36108895258E+02  0.28612453691E+03  0.29062597380E+03  0.00000000000E+00 0.  1.
         11    1    3    3    0    0  0.19184338414E+02 -0.95212799123E+02  0.39583316661E+03  0.40757503818E+03  0.00000000000E+00 0. -1.
</event>
<event>
 7    1  0.5137842E-006  0.1038778E+03  0.7561462E-02  0.1272347E+00
          2   -1    0    0  501    0  0.00000000000E+00  0.00000000000E+00  0.10571375507E+02  0.10571375507E+02  0.00000000000E+00 0. -1.
         -2   -1    0    0    0  501 -0.00000000000E+00 -0.00000000000E+00 -0.12158915776E+04  0.12158915776E+04  0.00000000000E+00 0.  1.
         23    2    1    2    0    0  0.12048864325E+02 -0.19828358954E+02 -0.36836726995E+03  0.37989704580E+03  0.89938761877E+02 0.  0.
          5    1    1    2  502    0 -0.58512052452E+02  0.36521982561E+02 -0.62934816894E+03  0.63313040177E+03  0.41800000000E+01 0.  1.
         -5    1    1    2    0  502  0.46463188127E+02 -0.16693623607E+02 -0.20760476318E+03  0.21343550551E+03  0.41800000000E+01 0.  1.
        -11    1    3    3    0    0  0.80224131979E+01  0.34098548504E+02 -0.95474004217E+02  0.10169737265E+03  0.00000000000E+00 0. -1.
         11    1    3    3    0    0  0.40264511266E+01 -0.53926907458E+02 -0.27289326573E+03  0.27819967314E+03  0.00000000000E+00 0.  1.
</event>
<event>
 7    1  0.5137842E-006  0.1232038E+03  0.7561462E-02  0.1237903E+00
         -1   -1    0    0    0  501 -0.00000000000E+00  0.00000000000E+00  0.83415943573E+02  0.83415943573E+02  0.00000000000E+00 0.  1.
          1   -1    0    0  501    0  0.00000000000E+00 -0.00000000000E+00 -0.30878147891E+03  0.30878147891E+03  0.00000000000E+00 0. -1.
         23    2    1    2    0    0  0.10265432292E+03  0.50137997090E+02 -0.14002335277E+03  0.20250624546E+03  0.91381132426E+02 0.  0.
          5    1    1    2  502    0 -0.42340603578E+02 -0.56997483939E+02 -0.10404724563E+03  0.12603468415E+03  0.41800000000E+01 0.  1.
         -5    1    1    2    0  502 -0.60313719341E+02  0.68594868490E+01  0.18705063060E+02  0.63656492871E+02  0.41800000000E+01 0.  1.
        -11    1    3    3    0    0  0.43768473329E+02  0.25030013079E+02 -0.21147727801E+01  0.50464374327E+02  0.00000000000E+00 0.  1.
         11    1    3    3    0    0  0.58885849590E+02  0.25107984011E+02 -0.13790857999E+03  0.15204187113E+03  0.00000000000E+00 0. -1.
</event>
<event>
 7    1  0.5137842E-006  0.1597559E+03  0.7561462E-02  0.1188973E+00
          1   -1    0    0  501    0  0.00000000000E+00  0.00000000000E+00  0.31998018176E+03  0.31998018176E+03  0.00000000000E+00 0. -1.
         -1   -1    0    0    0  501 -0.00000000000E+00 -0.00000000000E+00 -0.11722763261E+03  0.11722763261E+03  0.00000000000E+00 0.  1.
         23    2    1    2    0    0  0.90716378260E+02 -0.11453220634E+03  0.17275444831E+03  0.24254345466E+03  0.87385012515E+02 0.  0.
          5    1    1    2  502    0 -0.79476542656E+02  0.11512786653E+03  0.67429132785E+02  0.15535477731E+03  0.41800000000E+01 0.  1.
         -5    1    1    2    0  502 -0.11239835605E+02 -0.59566019425E+00 -0.37431031952E+02  0.39309582401E+02  0.41800000000E+01 0.  1.
        -11    1    3    3    0    0  0.10311891468E+03 -0.78970442803E+02  0.11434939851E+03  0.17304804633E+03  0.00000000000E+00 0.  1.
         11    1    3    3    0    0 -0.12402536419E+02 -0.35561763538E+02  0.58405049803E+02  0.69495408324E+02  0.00000000000E+00 0. -1.
</event>
<event>
 7    1  0.5137842E-006  0.2454800E+03  0.7561462E-02  0.1116195E+00
          1   -1    0    0  501    0  0.00000000000E+00  0.00000000000E+00  0.17155080406E+03  0.17155080406E+03  0.00000000000E+00 0. -1.
         -1   -1    0    0    0  501 -0.00000000000E+00 -0.00000000000E+00 -0.73284849226E+03  0.73284849226E+03  0.00000000000E+00 0.  1.
         23    2    1    2    0    0  0.36185239085E+02 -0.22103668087E+03  0.43906890914E+02  0.24706637351E+03  0.94590655100E+02 0.  0.
          5    1    1    2  502    0  0.35780807968E+02  0.16523751199E+02 -0.88335091829E+02  0.96818703880E+02  0.41800000000E+01 0.  1.
         -5    1    1    2    0  502 -0.71966047053E+02  0.20451292967E+03 -0.51686948729E+03  0.56051421893E+03  0.41800000000E+01 0.  1.
        -11    1    3    3    0    0 -0.12867060882E+02 -0.13365522677E+03 -0.74203600594E+01  0.13447803777E+03  0.00000000000E+00 0.  1.
         11    1    3    3    0    0  0.49052299967E+02 -0.87381454101E+02  0.51327250974E+02  0.11258833574E+03  0.00000000000E+00 0. -1.
</event>
<event>
 7    1  0.5137842E-006  0.2650440E+03  0.7561462E-02  0.1104150E+00
         -2   -1    0    0    0  501 -0.00000000000E+00  0.00000000000E+00  0.94564948081E+03  0.94564948081E+03  0.00000000000E+00 0.  1.
          2   -1    0    0  501    0  0.00000000000E+00 -0.00000000000E+00 -0.77627855475E+02  0.77627855475E+02  0.00000000000E+00 0. -1.
         23    2    1    2    0    0  0.14892695885E+03  0.19577010586E+03  0.36764875729E+03  0.45185310996E+03  0.92197889493E+02 0.  0.
          5    1    1    2  502    0  0.22449844567E+02 -0.20369979633E+02  0.50893274091E+02  0.59384588397E+02  0.41800000000E+01 0. -1.
         -5    1    1    2    0  502 -0.17137680341E+03 -0.17540012622E+03  0.44947959396E+03  0.51203963793E+03  0.41800000000E+01 0. -1.
        -11    1    3    3    0    0  0.30133448821E+02  0.90907539082E+02  0.86133204775E+02  0.12880657733E+03  0.00000000000E+00 0. -1.
         11    1    3    3    0    0  0.11879351003E+03  0.10486256678E+03  0.28151555252E+03  0.32304653263E+03  0.00000000000E+00 0.  1.
</event>
<event>
 7    1  0.5137842E-006  0.6891927E+02  0.7561462E-02  0.1363807E+00
          1   -1    0    0  501    0  0.00000000000E+00  0.00000000000E+00  0.67506206918E+02  0.67506206918E+02  0.00000000000E+00 0. -1.
         -1   -1    0    0    0  501 -0.00000000000E+00 -0.00000000000E+00 -0.39970836667E+03  0.39970836667E+03  0.00000000000E+00 0.  1.
         23    2    1    2    0    0  0.38682340655E+02  0.44177276857E+01  0.10315472104E+02  0.10049246543E+03  0.92067838289E+02 0.  0.
          5    1    1    2  502    0 -0.39015347938E+02 -0.69545242664E+01 -0.20771662627E+02  0.44938815636E+02  0.41800000000E+01 0.  1.
         -5    1    1    2    0  502  0.33300728334E+00  0.25367965807E+01 -0.32174596923E+03  0.32178329252E+03  0.41800000000E+01 0.  1.
        -11    1    3    3    0    0  0.23508213247E+02 -0.39863295837E+02 -0.13178512766E+02  0.48118516641E+02  0.00000000000E+00 0.  1.
         11    1    3    3    0    0  0.15174127408E+02  0.44281023522E+02  0.23493984869E+02  0.52373948789E+02  0.00000000000E+00 0. -1.
</event>
<event>
 7    1  0.5137842E-006  0.9732629E+02  0.7561462E-02  0.1286021E+00
          1   -1    0    0  501    0  0.00000000000E+00  0.00000000000E+00  0.63467654611E+02  0.63467654611E+02  0.00000000000E+00 0. -1.
         -1   -1    0    0    0  501 -0.00000000000E+00 -0.00000000000E+00 -0.23494000376E+03  0.23494000376E+03  0.00000000000E+00 0.  1.
         23    2    1    2    0    0  0.39606008657E+02  0.40134456303E+02 -0.81100274435E+02  0.13411601935E+03  0.90721781441E+02 0.  0.
          5    1    1    2  502    0 -0.11477902606E+02  0.43028363808E+02 -0.51433135375E+02  0.68161735268E+02  0.41800000000E+01 0.  1.
         -5    1    1    2    0  502 -0.28128106051E+02 -0.83162820111E+02 -0.38938939337E+02  0.96129903753E+02  0.41800000000E+01 0.  1.
        -11    1    3    3    0    0  0.23144654810E+02  0.39228544650E+02  0.55746197721E+01  0.45887145773E+02  0.00000000000E+00 0. -1.
         11    1    3    3    0    0  0.16461353846E+02  0.90591165352E+00 -0.86674894207E+02  0.88228873574E+02  0.00000000000E+00 0.  1.
</event>
<event>
 7    1  0.5137842E-006  0.1943883E+03  0.7561462E-02  0.1154562E+00
          2   -1    0    0  501    0  0.00000000000E+00  0.00000000000E+00  0.73850582304E+02  0.73850582304E+02  0.00000000000E+00 0. -1.
         -2   -1    0    0    0  501 -0.00000000000E+00 -0.00000000000E+00 -0.71251678167E+03  0.71251678167E+03  0.00000000000E+00 0.  1.
         23    2    1    2    0    0  0.41092154359E+02  0.16401415569E+03 -0.12671481147E+03  0.23289664994E+03  0.97954059076E+02 0.  0.
          5    1    1    2  502    0  0.31153112479E+02 -0.63829973975E+02 -0.29813031670E+03  0.30650275714E+03  0.41800000000E+01 0.  1.
         -5    1    1    2    0  502 -0.72245266839E+02 -0.10018418172E+03 -0.21382107119E+03  0.24696795689E+03  0.41800000000E+01 0.  1.
        -11    1    3    3    0    0 -0.19022698221E+02  0.11475510813E+03 -0.62303623129E+02  0.13195582345E+03  0.00000000000E+00 0. -1.
         11    1    3    3    0    0  0.60114852580E+02  0.49259047569E+02 -0.64411188342E+02  0.10094082649E+03  0.00000000000E+00 0.  1.
</event>
<event>
 7    1  0.5137842E-006  0.1082230E+03  0.7561462E-02  0.1263896E+00
         -1   -1    0    0    0  501 -0.00000000000E+00  0.00000000000E+00  0.12341825776E+03  0.12341825776E+03  0.00000000000E+00 0.  1.
          1   -1    0    0  501    0  0.00000000000E+00 -0.00000000000E+00 -0.18988486083E+03  0.18988486083E+03  0.00000000000E+00 0. -1.
         23    2    1    2    0    0  0.59952269538E+02  0.34398336271E+02 -0.11393195621E+03  0.16270998101E+03  0.93362343132E+02 0.  0.
          5    1    1    2  502    0 -0.19516593654E+02 -0.60175776380E+02 -0.21099998117E+02  0.66818439157E+02  0.41800000000E+01 0.  1.
         -5    1    1    2    0  502 -0.40435675884E+02  0.25777440109E+02  0.68565351249E+02  0.83774698416E+02  0.41800000000E+01 0.  1.
        -11    1    3    3    0    0  0.79319912754E+02  0.31419173678E+02 -0.57270061024E+02  0.10275540338E+03  0.00000000000E+00 0.  1.
         11    1    3    3    0    0 -0.19367643216E+02  0.29791625927E+01 -0.56661895185E+02  0.59954577635E+02  0.00000000000E+00 0. -1.
</event>
<event>
 7    1  0.5137842E-006  0.9014918E+02  0.7561462E-02  0.1302491E+00
          3   -1    0    0  501    0  0.00000000000E+00  0.00000000000E+00  0.37256571289E+02  0.37256571289E+02  0.00000000000E+00 0. -1.
         -3   -1    0    0    0  501 -0.00000000000E+00 -0.00000000000E+00 -0.40949260226E+03  0.40949260226E+03  0.00000000000E+00 0.  1.
         23    2    1    2    0    0 -0.11178589344E+02  0.52882613200E+02 -0.12375562535E+03  0.16340300874E+03  0.91997591394E+02 0.  0.
          5    1    1    2  502    0 -0.29909820577E+02 -0.10755206922E+02 -0.21106677757E+03  0.21348753789E+03  0.41800000000E+01 0. -1.
         -5    1    1    2    0  502  0.41088409921E+02 -0.42127406277E+02 -0.37413628049E+02  0.69858626907E+02  0.41800000000E+01 0. -1.
        -11    1    3    3    0    0 -0.19201336450E+01 -0.17827654345E+02 -0.74759416511E+02  0.76879662653E+02  0.00000000000E+00 0.  1.
         11    1    3    3    0    0 -0.92584556989E+01  0.70710267545E+02 -0.48996208840E+02  0.86523346091E+02  0.00000000000E+00 0. -1.
</event>
<event>
 7    1  0.5137842E-006  0.1153583E+03  0.7561462E-02  0.1250957E+00
          2   -1    0    0  501    0  0.00000000000E+00  0.00000000000E+00  0.62246194786E+03  0.62246194786E+03  0.00000000000E+00 0. -1.
         -2   -1    0    0    0  501 -0.00000000000E+00 -0.00000000000E+00 -0.24923433976E+02  0.24923433976E+02  0.00000000000E+00 0.  1.
         23    2    1    2    0    0 -0.29207003039E+02 -0.53031056491E+02  0.24282349078E+03  0.26641633174E+03  0.91373257381E+02 0.  0.
          5    1    1    2  502    0 -0.24847407592E+02  0.69311407676E+02  0.26341559152E+03  0.27354471510E+03  0.41800000000E+01 0.  1.
         -5    1    1    2    0  502  0.54054410631E+02 -0.16280351185E+02  0.91299431577E+02  0.10742433500E+03  0.41800000000E+01 0.  1.
        -11    1    3    3    0    0  0.13619468868E+02  0.14817503394E+02  0.10523814822E+03  0.10714530405E+03  0.00000000000E+00 0. -1.
         11    1    3    3    0    0 -0.42826471907E+02 -0.67848559885E+02  0.13758534256E+03  0.15927102769E+03  0.00000000000E+00 0.  1.
</event>
<event>
 7    1  0.5137842E-006  0.1096149E+03  0.7561462E-02  0.1261285E+00
         -2   -1    0    0    0  501 -0.00000000000E+00  0.00000000000E+00  0.43669639086E+03  0.43669639086E+03  0.00000000000E+00 0.  1.
          2   -1    0    0  501    0  0.00000000000E+00 -0.00000000000E+00 -0.31980037668E+02  0.31980037668E+02  0.00000000000E+00 0. -1.
         23    2    1    2    0    0  0.27573711474E+02  0.39053532719E+02  0.17798886833E+03  0.20533963544E+03  0.90547449722E+02 0.  0.
          5    1    1    2  502    0  0.21492304720E+01  0.36690022752E+02  0.22107179595E+02  0.43092653096E+02  0.41800000000E+01 0. -1.
         -5    1    1    2    0  502 -0.29722941946E+02 -0.75743555471E+02  0.20462030526E+03  0.22024413999E+03  0.41800000000E+01 0. -1.
        -11    1    3    3    0    0 -0.28433473825E+02 -0.57914729205E+01  0.35878264431E+02  0.46143834377E+02  0.00000000000E+00 0.  1.
         11    1    3    3    0    0  0.56007185299E+02  0.44845005639E+02  0.14211060390E+03  0.15919580107E+03  0.00000000000E+00 0. -1.
</event>
<event>
 7    1  0.5137842E-006  0.1398514E+03  0.7561462E-02  0.1213529E+00
         -1   -1    0    0    0  501 -0.00000000000E+00  0.00000000000E+00  0.64060014064E+03  0.64060014064E+03  0.00000000000E+00 0.  1.
          1   -1    0    0  501    0  0.00000000000E+00 -0.00000000000E+00 -0.37714135265E+02  0.37714135265E+02  0.00000000000E+00 0. -1.
         23    2    1    2    0    0 -0.46934215424E+02  0.98664292753E+02  0.24637574918E+03  0.28501426060E+03  0.92707366048E+02 0.  0.
          5    1    1    2  502    0  0.55245112606E+01  0.29787246900E+02  0.78101321525E+02  0.83875438160E+02  0.41800000000E+01 0. -1.
         -5    1    1    2    0  502  0.41409704164E+02 -0.12845153965E+03  0.27840893468E+03  0.30942457715E+03  0.41800000000E+01 0. -1.
        -11    1    3    3    0    0 -0.20425765823E+00  0.35616599839E+02  0.11582706564E+02  0.37453210765E+02  0.00000000000E+00 0. -1.
         11    1    3    3    0    0 -0.46729957766E+02  0.63047692914E+02  0.23479304261E+03  0.24756104983E+03  0.00000000000E+00 0.  1.
</event>
<event>
 7    1  0.5137842E-006  0.1954090E+03  0.7561462E-02  0.1153671E+00
         -1   -1    0    0    0  501 -0.00000000000E+00  0.00000000000E+00  0.25557140010E+02  0.25557140010E+02  0.00000000000E+00 0.  1.
          1   -1    0    0  501    0  0.00000000000E+00 -0.00000000000E+00 -0.17632703760E+04  0.17632703760E+04  0.00000000000E+00 0. -1.
         23    2    1    2    0    0 -0.18022452097E+03 -0.20938302559E+02 -0.10154476982E+04  0.10350357672E+04  0.85121801251E+02 0.  0.
          5    1    1    2  502    0  0.15697281928E+03 -0.14667628727E+02 -0.42212379835E+03  0.45062354450E+03  0.41800000000E+01 0. -1.
         -5    1    1    2    0  502  0.23251701686E+02  0.35605931286E+02 -0.30014173945E+03  0.30316820436E+03  0.41800000000E+01 0.  1.
        -11    1    3    3    0    0 -0.24739346838E+02  0.17385028612E+02 -0.71962813559E+02  0.78057165187E+02  0.00000000000E+00 0. -1.
         11    1    3    3    0    0 -0.15548517413E+03 -0.38323331171E+02 -0.94348488464E+03  0.95697860197E+03  0.00000000000E+00 0.  1.
</event>
<event>
 7    1  0.5137842E-006  0.2762352E+03  0.7561462E-02  0.1097763E+00
         -1   -1    0    0    0  501 -0.00000000000E+00  0.00000000000E+00  0.22987343229E+03  0.22987343229E+03  0.00000000000E+00 0.  1.
          1   -1    0    0  501    0  0.00000000000E+00 -0.00000000000E+00 -0.58609823383E+03  0.58609823383E+03  0.00000000000E+00 0. -1.
         23    2    1    2    0    0  0.11079301225E+03  0.23664847659E+03 -0.43402394612E+03  0.51600864197E+03  0.98033360416E+02 0.  0.
          5    1    1    2  502    0 -0.28123391247E+02 -0.18783121072E+03  0.28957783696E+02  0.19216533114E+03  0.41800000000E+01 0. -1.
         -5    1    1    2    0  502 -0.82669621003E+02 -0.48817265863E+02  0.48841360887E+02  0.10779769300E+03  0.41800000000E+01 0. -1.
        -11    1    3    3    0    0  0.68900254437E+02  0.86882230660E+02 -0.25979149872E+03  0.28246661727E+03  0.00000000000E+00 0.  1.
         11    1    3    3    0    0  0.41892757814E+02  0.14976624593E+03 -0.17423244740E+03  0.23354202470E+03  0.00000000000E+00 0. -1.
</event>
<event>
 7    1  0.5137842E-006  0.8550147E+02  0.7561462E-02  0.1314126E+00
          2   -1    0    0  501    0  0.00000000000E+00  0.00000000000E+00  0.71328505672E+02  0.71328505672E+02  0.00000000000E+00 0. -1.
         -2   -1    0    0    0  501 -0.00000000000E+00 -0.00000000000E+00 -0.18137230875E+03  0.18137230875E+03  0.00000000000E+00 0.  1.
         23    2    1    2    0    0  0.41874632358E+02 -0.11052996517E+02 -0.47667333848E+02  0.10636193061E+03  0.84646512033E+02 0.  0.
          5    1    1    2  502    0  0.97721340491E+01 -0.18854850264E+02  0.29567924750E+02  0.36643342592E+02  0.41800000000E+01 0. -1.
         -5    1    1    2    0  502 -0.51646766407E+02  0.29907846781E+02 -0.91944393979E+02  0.10969554122E+03  0.41800000000E+01 0. -1.
        -11    1    3    3    0    0  0.25749544462E+02 -0.45057970118E+02 -0.44902909815E+02  0.68626022914E+02  0.00000000000E+00 0.  1.
         11    1    3    3    0    0  0.16125087896E+02  0.34004973601E+02 -0.27644240324E+01  0.37735907694E+02  0.00000000000E+00 0. -1.
</event>
<event>
 7    1  0.5137842E-006  0.1473885E+03  0.7561462E-02  0.1203719E+00
         -1   -1    0    0    0  501 -0.00000000000E+00  0.00000000000E+00  0.10326273392E+03  0.10326273392E+03  0.00000000000E+00 0.  1.
          1   -1    0    0  501    0  0.00000000000E+00 -0.00000000000E+00 -0.27046654001E+03  0.27046654001E+03  0.00000000000E+00 0. -1.
         23    2    1    2    0    0  0.11988315207E+03  0.46207866078E+00 -0.12353895541E+03  0.19504972080E+03  0.91707886329E+02 0.  0.
          5    1    1    2  502    0 -0.10019941634E+03  0.32331473440E+02  0.17110002772E+02  0.10674957520E+03  0.41800000000E+01 0.  1.
         -5    1    1    2    0  502 -0.19683735728E+02 -0.32793552100E+02 -0.60774853464E+02  0.71929977931E+02  0.41800000000E+01 0.  1.
        -11    1    3    3    0    0  0.88366859723E+02 -0.42171921937E+02 -0.79281731696E+02  0.12598716553E+03  0.00000000000E+00 0.  1.
         11    1    3    3    0    0  0.31516292347E+02  0.42634000598E+02 -0.44257223710E+02  0.69062555273E+02  0.00000000000E+00 0. -1.
</event>
<event>
 7    1  0.5137842E-006  0.1146600E+03  0.7561462E-02  0.1252176E+00
         -1   -1    0    0    0  501 -0.00000000000E+00  0.00000000000E+00  0.39109888826E+03  0.39109888826E+03  0.00000000000E+00 0.  1.
          1   -1    0    0  501    0  0.00000000000E+00 -0.00000000000E+00 -0.43474574828E+02  0.43474574828E+02  0.00000000000E+00 0. -1.
         23    2    1    2    0    0  0.20041291677E+02 -0.13432875061E+02  0.55528185027E+02  0.11021688826E+03  0.92099335611E+02 0.  0.
          5    1    1    2  502    0  0.54168017074E+02 -0.11869733306E+02  0.17291242562E+03  0.18163491948E+03  0.41800000000E+01 0. -1.
         -5    1    1    2    0  502 -0.74209308751E+02  0.25302608367E+02  0.11918370279E+03  0.14272165535E+03  0.41800000000E+01 0.  1.
        -11    1    3    3    0    0  0.27310452183E+02 -0.50504743118E+02  0.34391114260E+02  0.66927861283E+02  0.00000000000E+00 0. -1.
         11    1    3    3    0    0 -0.72691605064E+01  0.37071868057E+02  0.21137070767E+02  0.43289026974E+02  0.00000000000E+00 0.  1.
</event>
<event>
 7    1  0.5137842E-006  0.1010765E+03  0.7561462E-02  0.1278048E+00
         -1   -1    0    0    0  501 -0.00000000000E+00  0.00000000000E+00  0.72593962811E+02  0.72593962811E+02  0.00000000000E+00 0.  1.
          1   -1    0    0  501    0  0.00000000000E+00 -0.00000000000E+00 -0.22253498979E+03  0.22253498979E+03  0.00000000000E+00 0. -1.
         23    2    1    2    0    0 -0.45894803209E+02  0.38414450966E+02 -0.95557546502E+02  0.14620382818E+03  0.93071540628E+02 0.  0.
          5    1    1    2  502    0  0.80010098529E+02 -0.15984200234E+02 -0.67353687508E+02  0.10588249215E+03  0.41800000000E+01 0.  1.
         -5    1    1    2    0  502 -0.34115295320E+02 -0.22430250732E+02  0.12970207029E+02  0.43042632274E+02  0.41800000000E+01 0.  1.
        -11    1    3    3    0    0  0.59023700776E-01  0.33159613780E+02 -0.94270715336E+02  0.99932633508E+02  0.00000000000E+00 0. -1.
         11    1    3    3    0    0 -0.45953826909E+02  0.52548371867E+01 -0.12868311662E+01  0.46271194667E+02  0.00000000000E+00 0.  1.
</event>
<event>
 7    1  0.5137842E-006  0.1898204E+03  0.7561462E-02  0.1158623E+00
         -1   -1    0    0    0  501 -0.00000000000E+00  0.00000000000E+00  0.90830523981E+02  0.90830523981E+02  0.00000000000E+00 0.  1.
          1   -1    0    0  501    0  0.00000000000E+00 -0.00000000000E+00 -0.68932822718E+03  0.68932822718E+03  0.00000000000E+00 0. -1.
         23    2    1    2    0    0  0.70672052764E+02  0.14879798897E+03 -0.53233462946E+03  0.56299315690E+03  0.80285468352E+02 0.  0.
          5    1    1    2  502    0  0.34897309644E+01  0.20095928008E+02 -0.15111941005E+02  0.25726789649E+02  0.41800000000E+01 0.  1.
         -5    1    1    2    0  502 -0.74161783728E+02 -0.16889391698E+03 -0.51051132741E+02  0.19143880462E+03  0.41800000000E+01 0.  1.
        -11    1    3    3    0    0  0.40023850831E+02  0.25949347439E+02 -0.78762470983E+02  0.92080421932E+02  0.00000000000E+00 0.  1.
         11    1    3    3    0    0  0.30648201933E+02  0.12284864154E+03 -0.45357215847E+03  0.47091273496E+03  0.00000000000E+00 0. -1.
</event>
<event>
 7    1  0.5137842E-006  0.1036440E+03  0.7561462E-02  0.1272814E+00
          3   -1    0    0  501    0  0.00000000000E+00  0.00000000000E+00  0.86549923877E+02  0.86549923877E+02  0.00000000000E+00 0. -1.
         -3   -1    0    0    0  501 -0.00000000000E+00 -0.00000000000E+00 -0.16153864410E+03  0.16153864410E+03  0.00000000000E+00 0.  1.
         23    2    1    2    0    0 -0.22493646851E+02  0.73054583319E+01  0.20964535390E+01  0.99262750098E+02  0.96381349698E+02 0.  0.
          5    1    1    2  502    0 -0.25165575585E+02  0.38544776256E+02  0.12287064695E+01  0.46238383306E+02  0.41800000000E+01 0.  1.
         -5    1    1    2    0  502  0.47659222436E+02 -0.45850234588E+02 -0.78313880227E+02  0.10258743457E+03  0.41800000000E+01 0.  1.
        -11    1    3    3    0    0  0.35344807371E+02  0.10507120223E+02  0.15181139979E+02  0.39876333765E+02  0.00000000000E+00 0. -1.
         11    1    3    3    0    0 -0.57838454222E+02 -0.32016618910E+01 -0.13084686440E+02  0.59386416333E+02  0.00000000000E+00 0.  1.
</event>
<event>
 7    1  0.5137842E-006  0.1428542E+03  0.7561462E-02  0.1209539E+00
         -1   -1    0    0    0  501 -0.00000000000E+00  0.00000000000E+00  0.10751230633E+03  0.10751230633E+03  0.00000000000E+00 0.  1.
          1   -1    0    0  501    0  0.00000000000E+00 -0.00000000000E+00 -0.22470035061E+03  0.22470035061E+03  0.00000000000E+00 0. -1.
         23    2    1    2    0    0  0.10847624710E+03 -0.57912012529E+02 -0.52924899463E+02  0.14540953885E+03  0.56762590026E+02 0.  0.
          5    1    1    2  502    0 -0.79285702086E+02 -0.71008035660E+01  0.13933577559E+02  0.80921325682E+02  0.41800000000E+01 0.  1.
         -5    1    1    2    0  502 -0.29190545010E+02  0.65012816095E+02 -0.78196722377E+02  0.10588179242E+03  0.41800000000E+01 0.  1.
        -11    1    3    3    0    0  0.10685043951E+03 -0.36171776112E+02 -0.38190261128E+02  0.11909622099E+03  0.00000000000E+00 0.  1.
         11    1    3    3    0    0  0.16258075883E+01 -0.21740236417E+02 -0.14734638335E+02  0.26313317856E+02  0.00000000000E+00 0. -1.
</event>
<event>
 7    1  0.5137842E-006  0.1135344E+03  0.7561462E-02  0.1254161E+00
         -2   -1    0    0    0  501 -0.00000000000E+00  0.00000000000E+00  0.20266935831E+02  0.20266935831E+02  0.00000000000E+00 0.  1.
          2   -1    0    0  501    0  0.00000000000E+00 -0.00000000000E+00 -0.81697592936E+03  0.81697592936E+03  0.00000000000E+00 0. -1.
         23    2    1    2    0    0 -0.45065307624E+02  0.51164795492E+02 -0.31338703391E+03  0.33335052771E+03  0.90897871556E+02 0.  0.
          5    1    1    2  502    0  0.66374245909E+02 -0.69400197524E+01 -0.12109366343E+03  0.13832878268E+03  0.41800000000E+01 0. -1.
         -5    1    1    2    0  502 -0.21308938285E+02 -0.44224775740E+02 -0.36222829618E+03  0.36556355480E+03  0.41800000000E+01 0. -1.
        -11    1    3    3    0    0  0.52762822531E+01  0.59649034936E+02 -0.13261393701E+03  0.14550705417E+03  0.00000000000E+00 0. -1.
         11    1    3    3    0    0 -0.50341589877E+02 -0.84842394437E+01 -0.18077309689E+03  0.18784347354E+03  0.00000000000E+00 0.  1.
</event>
<event>
 7    1  0.5137842E-006  0.9619256E+02  0.7561462E-02  0.1288513E+00
         -1   -1    0    0    0  501 -0.00000000000E+00  0.00000000000E+00  0.17017767365E+03  0.17017767365E+03  0.00000000000E+00 0.  1.
          1   -1    0    0  501    0  0.00000000000E+00 -0.00000000000E+00 -0.82954613695E+02  0.82954613695E+02  0.00000000000E+00 0. -1.
         23    2    1    2    0    0  0.51708099733E+02 -0.71739812125E+01  0.38801194387E+02  0.10919700942E+03  0.87711234144E+02 0.  0.
          5    1    1    2  502    0  0.27521863654E+02  0.18472558667E+02  0.54110206323E+02  0.63593043889E+02  0.41800000000E+01 0. -1.
         -5    1    1    2    0  502 -0.79229963387E+02 -0.11298577455E+02 -0.56883407511E+01  0.80342234045E+02  0.41800000000E+01 0. -1.
        -11    1    3    3    0    0  0.86540496457E+01 -0.29213428492E+02 -0.17369727446E+02  0.35071703852E+02  0.00000000000E+00 0.  1.
         11    1    3    3    0    0  0.43054050087E+02  0.22039447280E+02  0.56170921833E+02  0.74125305563E+02  0.00000000000E+00 0. -1.
</event>
<event>
 7    1  0.5137842E-006  0.1204238E+03  0.7561462E-02  0.1242400E+00
         -2   -1    0    0    0  501 -0.00000000000E+00  0.00000000000E+00  0.34898175002E+03  0.34898175002E+03  0.00000000000E+00 0.  1.
          2   -1    0    0  501    0  0.00000000000E+00 -0.00000000000E+00 -0.48609825749E+02  0.48609825749E+02  0.00000000000E+00 0. -1.
         23    2    1    2    0    0  0.25905587334E+01  0.65885590117E+02  0.96768530614E+02  0.14970172598E+03  0.93267552053E+02 0.  0.
          5    1    1    2  502    0 -0.45442546353E+02 -0.83194829634E+02  0.13207648798E+03  0.16262864377E+03  0.41800000000E+01 0.  1.
         -5    1    1    2    0  502  0.42851987619E+02  0.17309239518E+02  0.71526905670E+02  0.85261206011E+02  0.41800000000E+01 0.  1.
        -11    1    3    3    0    0  0.15557758471E+01  0.82696749964E+02  0.10268156147E+03  0.13185096116E+03  0.00000000000E+00 0.  1.
         11    1    3    3    0    0  0.10347828863E+01 -0.16811159847E+02 -0.59130308529E+01  0.17850764826E+02  0.00000000000E+00 0. -1.
</event>
<event>
 7    1  0.5137842E-006  0.2006077E+03  0.7561462E-02  0.1149227E+00
         -2   -1    0    0    0  501 -0.00000000000E+00  0.00000000000E+00  0.42735678294E+03  0.42735678294E+03  0.00000000000E+00 0.  1.
          2   -1    0    0  501    0  0.00000000000E+00 -0.00000000000E+00 -0.11019236170E+03  0.11019236170E+03  0.00000000000E+00 0. -1.
         23    2    1    2    0    0 -0.16091526234E+03 -0.10142343147E+03  0.14984186862E+03  0.25501690002E+03  0.80003747410E+02 0.  0.
          5    1    1    2  502    0  0.65761062848E+02  0.92628268847E+02  0.14511377216E+03  0.18433662915E+03  0.41800000000E+01 0. -1.
         -5    1    1    2    0  502  0.95154199495E+02  0.87951626236E+01  0.22208780455E+02  0.98195615464E+02  0.41800000000E+01 0. -1.
        -11    1    3    3    0    0 -0.11100197678E+03 -0.83323298455E+02  0.14651516281E+03  0.20181898783E+03  0.00000000000E+00 0.  1.
         11    1    3    3    0    0 -0.49913285559E+02 -0.18100133015E+02  0.33267058146E+01  0.53197912196E+02  0.00000000000E+00 0. -1.
</event>
<event>
 7    1  0.5137842E-006  0.6838164E+02  0.7561462E-02  0.1365684E+00
         -1   -1    0    0    0  501 -0.00000000000E+00  0.00000000000E+00  0.81065317908E+02  0.81065317908E+02  0.00000000000E+00 0.  1.
          1   -1    0    0  501    0  0.00000000000E+00 -0.00000000000E+00 -0.20815061710E+03  0.20815061710E+03  0.00000000000E+00 0. -1.
         23    2    1    2    0    0 -0.16989866364E+02  0.48095229599E+02 -0.12155441104E+03  0.15400522644E+03  0.79626178220E+02 0.  0.
          5    1    1    2  502    0  0.35136060159E+02 -0.49078031833E+02 -0.55358888865E+02  0.82007773464E+02  0.41800000000E+01 0. -1.
         -5    1    1    2    0  502 -0.18146193795E+02  0.98280223436E+00  0.49828000710E+02  0.53202935109E+02  0.41800000000E+01 0. -1.
        -11    1    3    3    0    0  0.59506774954E+01  0.22353477268E+02  0.42866444006E+01  0.23525811970E+02  0.00000000000E+00 0.  1.
         11    1    3    3    0    0 -0.22940543859E+02  0.25741752331E+02 -0.12584105544E+03  0.13047941447E+03  0.00000000000E+00 0. -1.
</event>
<event>
 7    1  0.5137842E-006  0.1875710E+03  0.7561462E-02  0.1160671E+00
         -2   -1    0    0    0  501 -0.00000000000E+00  0.00000000000E+00  0.48045957383E+02  0.48045957383E+02  0.00000000000E+00 0.  1.
          2   -1    0    0  501    0  0.00000000000E+00 -0.00000000000E+00 -0.93733659052E+03  0.93733659052E+03  0.00000000000E+00 0. -1.
         23    2    1    2    0    0  0.14995822905E+03  0.68189639697E+02 -0.60639692672E+03  0.63491288602E+03  0.90883676634E+02 0.  0.
          5    1    1    2  502    0 -0.14955087999E+03 -0.14838182925E+02 -0.23305345258E+03  0.27733918140E+03  0.41800000000E+01 0.  1.
         -5    1    1    2    0  502 -0.40734905807E+00 -0.53351456772E+02 -0.49840253834E+02  0.73130480480E+02  0.41800000000E+01 0.  1.
        -11    1    3    3    0    0  0.79290463512E+02  0.61409187380E+02 -0.47592675079E+03  0.48637880095E+03  0.00000000000E+00 0.  1.
         11    1    3    3    0    0  0.70667765541E+02  0.67804523169E+01 -0.13047017593E+03  0.14853408507E+03  0.00000000000E+00 0. -1.
</event>
<event>
 7    1  0.5137842E-006  0.3510703E+02  0.7561462E-02  0.1547652E+00
         -2   -1    0    0    0  501 -0.00000000000E+00  0.00000000000E+00  0.16641029432E+03  0.16641029432E+03  0.00000000000E+00 0.  1.
          2   -1    0    0  501    0  0.00000000000E+00 -0.00000000000E+00 -0.81300523731E+02  0.81300523731E+02  0.00000000000E+00 0. -1.
         23    2    1    2    0    0  0.84155202298E+01  0.94790533614E+00 -0.26965967241E+01  0.94647450879E+02  0.94229235478E+02 0.  0.
          5    1    1    2  502    0  0.97206328779E+01  0.96942879140E+00  0.11749303880E+03  0.11797252673E+03  0.41800000000E+01 0. -1.
         -5    1    1    2    0  502 -0.18136153108E+02 -0.19173341275E+01 -0.29686671483E+02  0.35090840450E+02  0.41800000000E+01 0. -1.
        -11    1    3    3    0    0 -0.48691556619E+01  0.18350037999E+02  0.41327718456E+02  0.45479807434E+02  0.00000000000E+00 0.  1.
         11    1    3    3    0    0  0.13284675892E+02 -0.17402132663E+02 -0.44024315180E+02  0.49167643445E+02  0.00000000000E+00 0. -1.
</event>
<event>
 7    1  0.5137842E-006  0.1073664E+03  0.7561462E-02  0.1265526E+00
         -1   -1    0    0    0  501 -0.00000000000E+00  0.00000000000E+00  0.76725031009E+02  0.76725031009E+02  0.00000000000E+00 0.  1.
          1   -1    0    0  501    0  0.00000000000E+00 -0.00000000000E+00 -0.28052572800E+03  0.28052572800E+03  0.00000000000E+00 0. -1.
         23    2    1    2    0    0  0.89706112861E+02  0.34785808004E+02 -0.11585768786E+03  0.17658960280E+03  0.92215209463E+02 0.  0.
          5    1    1    2  502    0 -0.59550732817E+02 -0.48800287651E+02  0.94319420070E+01  0.77680060401E+02  0.41800000000E+01 0.  1.
         -5    1    1    2    0  502 -0.30155380044E+02  0.14014479647E+02 -0.97374951135E+02  0.10298109581E+03  0.41800000000E+01 0.  1.
        -11    1    3    3    0    0  0.52823669542E+02 -0.84541919109E+00 -0.33394887092E+01  0.52935876137E+02  0.00000000000E+00 0.  1.
         11    1    3    3    0    0  0.36882443319E+02  0.35631227196E+02 -0.11251819915E+03  0.12365372666E+03  0.00000000000E+00 0. -1.
</event>
<event>
 7    1  0.5137842E-006  0.1044564E+03  0.7561462E-02  0.1271194E+00
          3   -1    0    0  501    0  0.00000000000E+00  0.00000000000E+00  0.10873770697E+03  0.10873770697E+03  0.00000000000E+00 0. -1.
         -3   -1    0    0    0  501 -0.00000000000E+00 -0.00000000000E+00 -0.11376270734E+03  0.11376270734E+03  0.00000000000E+00 0.  1.
         23    2    1    2    0    0 -0.17861301226E+02  0.15335347183E+02  0.23482070652E+01  0.95001565470E+02  0.92008610524E+02 0.  0.
          5    1    1    2  502    0  0.18403845282E+02  0.47436797901E+02 -0.31645555652E+02  0.60065505149E+02  0.41800000000E+01 0. -1.
         -5    1    1    2    0  502 -0.54254405627E+00 -0.62772145085E+02  0.24272348223E+02  0.67433343687E+02  0.41800000000E+01 0. -1.
        -11    1    3    3    0    0  0.36117199414E+02  0.19062415784E+02 -0.10035182155E+00  0.40839170652E+02  0.00000000000E+00 0. -1.
         11    1    3    3    0    0 -0.53978500640E+02 -0.37270686012E+01  0.24485588868E+01  0.54162394818E+02  0.00000000000E+00 0.  1.
</event>
<event>
 7    1  0.5137842E-006  0.3104586E+03  0.7561462E-02  0.1080126E+00
         -2   -1    0    0    0  501 -0.00000000000E+00  0.00000000000E+00  0.77703570523E+02  0.77703570523E+02  0.00000000000E+00 0.  1.
          2   -1    0    0  501    0  0.00000000000E+00 -0.00000000000E+00 -0.13159791954E+04  0.13159791954E+04  0.00000000000E+00 0. -1.
         23    2    1    2    0    0  0.21200216037E+03 -0.20378751786E+03 -0.74476068082E+03  0.80573873488E+03  0.89845248913E+02 0.  0.
          5    1    1    2  502    0 -0.12550213007E+03  0.18749544379E+03 -0.40129319001E+03  0.46039007683E+03  0.41800000000E+01 0. -1.
         -5    1    1    2    0  502 -0.86500030298E+02  0.16292074070E+02 -0.92221754090E+02  0.12755395426E+03  0.41800000000E+01 0. -1.
        -11    1    3    3    0    0  0.11427403010E+03 -0.16775199583E+03 -0.47377709813E+03  0.51542606141E+03  0.00000000000E+00 0. -1.
         11    1    3    3    0    0  0.97728130267E+02 -0.36035522031E+02 -0.27098358269E+03  0.29031267347E+03  0.00000000000E+00 0.  1.
</event>
<event>
 7    1  0.5137842E-006  0.1548896E+03  0.7561462E-02  0.1194590E+00
          2   -1    0    0  501    0  0.00000000000E+00  0.00000000000E+00  0.26873583644E+03  0.26873583644E+03  0.00000000000E+00 0. -1.
         -2   -1    0    0    0  501 -0.00000000000E+00 -0.00000000000E+00 -0.14187002564E+03  0.14187002564E+03  0.00000000000E+00 0.  1.
         23    2    1    2    0    0 -0.77475781636E+02 -0.10935779415E+03  0.15601086312E+03  0.22497581351E+03  0.91176221503E+02 0.  0.
          5    1    1    2  502    0  0.36155904028E+02  0.12570455194E+03 -0.44813056399E+02  0.13832774920E+03  0.41800000000E+01 0. -1.
         -5    1    1    2    0  502  0.41319877607E+02 -0.16346757781E+02  0.15668004075E+02  0.47302299385E+02  0.41800000000E+01 0. -1.
        -11    1    3    3    0    0 -0.34989900395E+02 -0.42307729273E+02  0.13053443391E+03  0.14161029455E+03  0.00000000000E+00 0. -1.
         11    1    3    3    0    0 -0.42485881240E+02 -0.67050064882E+02  0.25476429212E+02  0.83365518956E+02  0.00000000000E+00 0.  1.
</event>
<event>
 7    1  0.5137842E-006  0.1679086E+03  0.7561462E-02  0.1180047E+00
          2   -1    0    0  501    0  0.00000000000E+00  0.00000000000E+00  0.51330134809E+03  0.51330134809E+03  0.00000000000E+00 0. -1.
         -2   -1    0    0    0  501 -0.00000000000E+00 -0.00000000000E+00 -0.57757554885E+02  0.57757554885E+02  0.00000000000E+00 0.  1.
         23    2    1    2    0    0  0.40451610190E+02 -0.12599936216E+03  0.23241454821E+03  0.28305391757E+03  0.92686708861E+02 0.  0.
          5    1    1    2  502    0  0.19741622851E+02  0.11972979388E+03  0.14687397216E+03  0.19056335249E+03  0.41800000000E+01 0. -1.
         -5    1    1    2    0  502 -0.60193233041E+02  0.62695682834E+01  0.76255272834E+02  0.97441632916E+02  0.41800000000E+01 0. -1.
        -11    1    3    3    0    0  0.52071959188E+02 -0.13108677768E+03  0.23048973040E+03  0.27022351496E+03  0.00000000000E+00 0. -1.
         11    1    3    3    0    0 -0.11620348998E+02  0.50874155189E+01  0.19248178064E+01  0.12830402608E+02  0.00000000000E+00 0.  1.
</event>
<event>
 7    1  0.5137842E-006  0.1368287E+03  0.7561462E-02  0.1217661E+00
          1   -1    0    0  501    0  0.00000000000E+00  0.00000000000E+00  0.27585972513E+02  0.27585972513E+02  0.00000000000E+00 0. -1.
         -1   -1    0    0    0  501 -0.00000000000E+00 -0.00000000000E+00 -0.91148897112E+03  0.91148897112E+03  0.00000000000E+00 0.  1.
         23    2    1    2    0    0  0.14843799534E+02  0.11296813900E+03 -0.36234158006E+03  0.39075888708E+03  0.91754827534E+02 0.  0.
          5    1    1    2  502    0  0.26330804365E+02 -0.55066315630E+02 -0.78253370253E+02  0.99331126701E+02  0.41800000000E+01 0.  1.
         -5    1    1    2    0  502 -0.41174603899E+02 -0.57901823369E+02 -0.44330804829E+03  0.44898492985E+03  0.41800000000E+01 0.  1.
        -11    1    3    3    0    0  0.43901594319E+02  0.29420098100E+02 -0.89519954689E+02  0.10395534832E+03  0.00000000000E+00 0. -1.
         11    1    3    3    0    0 -0.29057794785E+02  0.83548040900E+02 -0.27282162537E+03  0.28680353876E+03  0.00000000000E+00 0.  1.
</event>
<event>
 7    1  0.5137842E-006  0.8628978E+02  0.7561462E-02  0.1312094E+00
          1   -1    0    0  501    0  0.00000000000E+00  0.00000000000E+00  0.33212570328E+03  0.33212570328E+03  0.00000000000E+00 0. -1.
         -1   -1    0    0    0  501 -0.00000000000E+00 -0.00000000000E+00 -0.46710427824E+02  0.46710427824E+02  0.00000000000E+00 0.  1.
         23    2    1    2    0    0  0.25314595501E+02 -0.51794565148E+02  0.15061748207E+03  0.18611459154E+03  0.92895153554E+02 0.  0.
          5    1    1    2  502    0  0.20637639227E+02 -0.16612084261E+02 -0.78343754390E+01  0.27941426859E+02  0.41800000000E+01 0.  1.
         -5    1    1    2    0  502 -0.45952234729E+02  0.68406649410E+02  0.14263216883E+03  0.16478011271E+03  0.41800000000E+01 0.  1.
        -11    1    3    3    0    0  0.97043746294E+01 -0.45316567312E+02  0.16014309428E+03  0.16671405702E+03  0.00000000000E+00 0. -1.
         11    1    3    3    0    0  0.15610220872E+02 -0.64779978360E+01 -0.95256122150E+01  0.19400534521E+02  0.00000000000E+00 0.  1.
</event>
<event>
 7    1  0.5137842E-006  0.3280326E+03  0.7561462E-02  0.1072011E+00
         -2   -1    0    0    0  501 -0.00000000000E+00  0.00000000000E+00  0.72399989819E+03  0.72399989819E+03  0.00000000000E+00 0.  1.
          2   -1    0    0  501    0  0.00000000000E+00 -0.00000000000E+00 -0.15557004470E+03  0.15557004470E+03  0.00000000000E+00 0. -1.
         23    2    1    2    0    0 -0.69939858283E+02  0.30805196648E+03  0.24280441396E+03  0.40896683235E+03  0.92262065304E+02 0.  0.
          5    1    1    2  502    0  0.86808774368E+00 -0.24679367041E+03  0.24817543564E+03  0.35002341148E+03  0.41800000000E+01 0. -1.
         -5    1    1    2    0  502  0.69071770539E+02 -0.61258296071E+02  0.77450003895E+02  0.12057969906E+03  0.41800000000E+01 0. -1.
        -11    1    3    3    0    0 -0.21531677083E+02  0.14942272470E+03  0.17138042993E+03  0.22839005131E+03  0.00000000000E+00 0.  1.
         11    1    3    3    0    0 -0.48408181200E+02  0.15862924178E+03  0.71423984025E+02  0.18057678104E+03  0.00000000000E+00 0. -1.
</event>
<event>
 7    1  0.5137842E-006  0.9088530E+02  0.7561462E-02  0.1300722E+00
         -1   -1    0    0    0  501 -0.00000000000E+00  0.00000000000E+00  0.86030593742E+02  0.86030593742E+02  0.00000000000E+00 0.  1.
          1   -1    0    0  501    0  0.00000000000E+00 -0.00000000000E+00 -0.16193416162E+03  0.16193416162E+03  0.00000000000E+00 0. -1.
         23    2    1    2    0    0 -0.84311022302E+01  0.44293187964E+02 -0.44714097015E+02  0.11138628450E+03  0.91512752766E+02 0.  0.
          5    1    1    2  502    0 -0.22463494400E+01 -0.79099825331E+02 -0.51667566515E+02  0.94598299577E+02  0.41800000000E+01 0.  1.
         -5    1    1    2    0  502  0.10677451670E+02  0.34806637368E+02  0.20478095655E+02  0.41980171279E+02  0.41800000000E+01 0.  1.
        -11    1    3    3    0    0 -0.12584655984E+02  0.53934835327E+02 -0.66895056741E+02  0.86846350783E+02  0.00000000000E+00 0. -1.
         11    1    3    3    0    0  0.41535537538E+01 -0.96416473627E+01  0.22180959726E+02  0.24539933721E+02  0.00000000000E+00 0.  1.
</event>
<event>
 7    1  0.5137842E-006  0.9973591E+02  0.7561462E-02  0.1280852E+00
         -2   -1    0    0    0  501 -0.00000000000E+00  0.00000000000E+00  0.10308092845E+03  0.10308092845E+03  0.00000000000E+00 0.  1.
          2   -1    0    0  501    0  0.00000000000E+00 -0.00000000000E+00 -0.23224050316E+03  0.23224050316E+03  0.00000000000E+00 0. -1.
         23    2    1    2    0    0  0.30540924899E+02  0.56721999841E+02 -0.15614468740E+03  0.19205340646E+03  0.91395919879E+02 0.  0.
          5    1    1    2  502    0 -0.93069888662E+01 -0.72445665681E+02 -0.30963463571E+02  0.79443080215E+02  0.41800000000E+01 0. -1.
         -5    1    1    2    0  502 -0.21233936033E+02  0.15723665840E+02  0.57948576258E+02  0.63824944945E+02  0.41800000000E+01 0. -1.
        -11    1    3    3    0    0  0.27309204227E+02 -0.12661859806E+02 -0.94520961848E+02  0.99198425179E+02  0.00000000000E+00 0. -1.
         11    1    3    3    0    0  0.32317206719E+01  0.69383859647E+02 -0.61623725549E+02  0.92854981280E+02  0.00000000000E+00 0.  1.
</event>
<event>
 7    1  0.5137842E-006  0.1002725E+03  0.7561462E-02  0.1279724E+00
          1   -1    0    0  501    0  0.00000000000E+00  0.00000000000E+00  0.24999141242E+03  0.24999141242E+03  0.00000000000E+00 0. -1.
         -1   -1    0    0    0  501 -0.00000000000E+00 -0.00000000000E+00 -0.63469028217E+02  0.63469028217E+02  0.00000000000E+00 0.  1.
         23    2    1    2    0    0 -0.88759804176E+01  0.33063762571E+02  0.14298103216E+03  0.17665064444E+03  0.97927928595E+02 0.  0.
          5    1    1    2  502    0 -0.40786089013E+02 -0.59207610131E+02  0.34333188376E+02  0.79782744866E+02  0.41800000000E+01 0. -1.
         -5    1    1    2    0  502  0.49662069430E+02  0.26143847560E+02  0.92081636638E+01  0.57027051330E+02  0.41800000000E+01 0. -1.
        -11    1    3    3    0    0 -0.28961632345E+02 -0.48293341821E+01  0.21567798088E+01  0.29440623565E+02  0.00000000000E+00 0.  1.
         11    1    3    3    0    0  0.20085651928E+02  0.37893096753E+02  0.14082425235E+03  0.14721002087E+03  0.00000000000E+00 0. -1.
</event>
<event>
 7    1  0.5137842E-006  0.9683574E+02  0.7561462E-02  0.1287094E+00
         -1   -1    0    0    0  501 -0.00000000000E+00  0.00000000000E+00  0.75008231256E+02  0.75008231256E+02  0.00000000000E+00 0.  1.
          1   -1    0    0  501    0  0.00000000000E+00 -0.00000000000E+00 -0.17408975913E+03  0.17408975913E+03  0.00000000000E+00 0. -1.
         23    2    1    2    0    0 -0.23382007947E+02 -0.16522887367E+02 -0.61933365727E+02  0.11550627260E+03  0.93199963078E+02 0.  0.
          5    1    1    2  502    0  0.35348108630E+02  0.64409996753E+02 -0.34336006704E+01  0.73670879450E+02  0.41800000000E+01 0.  1.
         -5    1    1    2    0  502 -0.11966100683E+02 -0.47887109386E+02 -0.33714561476E+02  0.59920838332E+02  0.41800000000E+01 0.  1.
        -11    1    3    3    0    0 -0.16434089474E+02  0.24189212027E+02 -0.67755648816E+02  0.73797189797E+02  0.00000000000E+00 0. -1.
         11    1    3    3    0    0 -0.69479184731E+01 -0.40712099394E+02  0.58222830893E+01  0.41709082806E+02  0.00000000000E+00 0.  1.
</event>
<event>
 7    1  0.5137842E-006  0.4987167E+02  0.7561462E-02  0.1446035E+00
          1   -1    0    0  501    0  0.00000000000E+00  0.00000000000E+00  0.40547295290E+02  0.40547295290E+02  0.00000000000E+00 0. -1.
         -1   -1    0    0    0  501 -0.00000000000E+00 -0.00000000000E+00 -0.31459887037E+03  0.31459887037E+03  0.00000000000E+00 0.  1.
         23    2    1    2    0    0  0.22334665187E+02  0.29329196784E+00 -0.69585147788E+02  0.11441453575E+03  0.88032209495E+02 0.  0.
          5    1    1    2  502    0 -0.26863566740E+02  0.12832143907E+02 -0.21849639765E+03  0.22055489866E+03  0.41800000000E+01 0.  1.
         -5    1    1    2    0  502  0.45289015536E+01 -0.13125435875E+02  0.14029970354E+02  0.20176731259E+02  0.41800000000E+01 0.  1.
        -11    1    3    3    0    0  0.14409617508E+02  0.25207619071E+02 -0.80880560739E+02  0.85934429895E+02  0.00000000000E+00 0.  1.
         11    1    3    3    0    0  0.79250476790E+01 -0.24914327103E+02  0.11295412950E+02  0.28480105853E+02  0.00000000000E+00 0. -1.
</event>
<event>
 7    1  0.5137842E-006  0.1632263E+03  0.7561462E-02  0.1185102E+00
          1   -1    0    0  501    0  0.00000000000E+00  0.00000000000E+00  0.46645915635E+02  0.46645915635E+02  0.00000000000E+00 0. -1.
         -1   -1    0    0    0  501 -0.00000000000E+00 -0.00000000000E+00 -0.61676455440E+03  0.61676455440E+03  0.00000000000E+00 0.  1.
         23    2    1    2    0    0  0.10140157721E+03 -0.76243760537E+02 -0.29907324836E+03  0.33905219913E+03  0.97037080371E+02 0.  0.
          5    1    1    2  502    0 -0.10273795855E+03  0.30935523087E+01 -0.13379848423E+03  0.16877252435E+03  0.41800000000E+01 0.  1.
         -5    1    1    2    0  502  0.13363813370E+01  0.73150208228E+02 -0.13724690618E+03  0.15558574656E+03  0.41800000000E+01 0.  1.
        -11    1    3    3    0    0  0.30285518223E+02 -0.73089242694E+02 -0.21381561962E+03  0.22798326518E+03  0.00000000000E+00 0.  1.
         11    1    3    3    0    0  0.71116058986E+02 -0.31545178424E+01 -0.85257628745E+02  0.11106893394E+03  0.00000000000E+00 0. -1.
</event>
<event>
 7    1  0.5137842E-006  0.1047256E+03  0.7561462E-02  0.1270661E+00
         -4   -1    0    0    0  501 -0.00000000000E+00  0.00000000000E+00  0.77021830580E+02  0.77021830580E+02  0.00000000000E+00 0.  1.
          4   -1    0    0  501    0  0.00000000000E+00 -0.00000000000E+00 -0.23366569048E+03  0.23366569048E+03  0.00000000000E+00 0. -1.
         23    2    1    2    0    0 -0.40052252930E+02  0.29789042225E+02 -0.14274152123E+03  0.17527995391E+03  0.88636055627E+02 0.  0.
          5    1    1    2  502    0 -0.29478058469E+02 -0.34884074197E+02  0.28217890376E+02  0.53847713981E+02  0.41800000000E+01 0. -1.
         -5    1    1    2    0  502  0.69530311400E+02  0.50950319724E+01 -0.42120229039E+02  0.81559853166E+02  0.41800000000E+01 0. -1.
        -11    1    3    3    0    0  0.31240441722E+01  0.47119233094E+02 -0.37801553947E+02  0.60489166469E+02  0.00000000000E+00 0.  1.
         11    1    3    3    0    0 -0.43176297102E+02 -0.17330190869E+02 -0.10493996729E+03  0.11479078744E+03  0.00000000000E+00 0. -1.
</event>
<event>
 7    1  0.5137842E-006  0.3538816E+03  0.7561462E-02  0.1061033E+00
         -4   -1    0    0    0  501 -0.00000000000E+00  0.00000000000E+00  0.54604076374E+03  0.54604076374E+03  0.00000000000E+00 0.  1.
          4   -1    0    0  501    0  0.00000000000E+00 -0.00000000000E+00 -0.34546995916E+03  0.34546995916E+03  0.00000000000E+00 0. -1.
         23    2    1    2    0    0 -0.30708736787E+03 -0.16053272473E+03 -0.14485591642E+03  0.38649576969E+03  0.91226839538E+02 0.  0.
          5    1    1    2  502    0  0.17782540452E+03  0.13594202417E+03  0.27852103326E+03  0.35734233838E+03  0.41800000000E+01 0.  1.
         -5    1    1    2    0  502  0.12926196335E+03  0.24590700561E+02  0.66905687736E+02  0.14767261484E+03  0.41800000000E+01 0.  1.
        -11    1    3    3    0    0 -0.12932208002E+03 -0.10322625139E+03 -0.32806515433E+02  0.16868943895E+03  0.00000000000E+00 0.  1.
         11    1    3    3    0    0 -0.17776528784E+03 -0.57306473339E+02 -0.11204940098E+03  0.21780633074E+03  0.00000000000E+00 0. -1.
</event>
<event>
 7    1  0.5137842E-006  0.1699940E+03  0.7561462E-02  0.1177854E+00
         -2   -1    0    0    0  501 -0.00000000000E+00  0.00000000000E+00  0.72722623226E+02  0.72722623226E+02  0.00000000000E+00 0.  1.
          2   -1    0    0  501    0  0.00000000000E+00 -0.00000000000E+00 -0.52032712619E+03  0.52032712619E+03  0.00000000000E+00 0. -1.
         23    2    1    2    0    0 -0.18974931290E+02 -0.13653342543E+03 -0.33956908657E+03  0.37782644057E+03  0.91892493496E+02 0.  0.
          5    1    1    2  502    0  0.50296568678E+02  0.21202834794E+02 -0.71768565073E+02  0.90263527278E+02  0.41800000000E+01 0.  1.
         -5    1    1    2    0  502 -0.31321637388E+02  0.11533059064E+03 -0.36266851324E+02  0.12495978157E+03  0.41800000000E+01 0.  1.
        -11    1    3    3    0    0 -0.51578230617E+02 -0.11647595402E+03 -0.26210376844E+03  0.29141953807E+03  0.00000000000E+00 0. -1.
         11    1    3    3    0    0  0.32603299327E+02 -0.20057471414E+02 -0.77465318125E+02  0.86406902495E+02  0.00000000000E+00 0.  1.
</event>
<event>
 7    1  0.5137842E-006  0.1357069E+03  0.7561462E-02  0.1219225E+00
         -3   -1    0    0    0  501 -0.00000000000E+00  0.00000000000E+00  0.26026511686E+03  0.26026511686E+03  0.00000000000E+00 0.  1.
          3   -1    0    0  501    0  0.00000000000E+00 -0.00000000000E+00 -0.93810029229E+02  0.93810029229E+02  0.00000000000E+00 0. -1.
         23    2    1    2    0    0 -0.10751704385E+03  0.14511864222E+02  0.33085524332E+02  0.14612090071E+03  0.92120338598E+02 0.  0.
          5    1    1    2  502    0 -0.18772037906E+02  0.82651870099E+01 -0.24230163881E+01  0.21072402138E+02  0.41800000000E+01 0. -1.
         -5    1    1    2    0  502  0.12628908176E+03 -0.22777051232E+02  0.13579257969E+03  0.18688184324E+03  0.41800000000E+01 0.  1.
        -11    1    3    3    0    0 -0.90654757713E+02 -0.11194305071E+02  0.56563163092E+02  0.10743830314E+03  0.00000000000E+00 0.  1.
         11    1    3    3    0    0 -0.16862286138E+02  0.25706169293E+02 -0.23477638761E+02  0.38682597577E+02  0.00000000000E+00 0. -1.
</event>
<event>
 7    1  0.5137842E-006  0.1024068E+03  0.7561462E-02  0.1275315E+00
          2   -1    0    0  501    0  0.00000000000E+00  0.00000000000E+00  0.50026048484E+03  0.50026048484E+03  0.00000000000E+00 0. -1.
         -2   -1    0    0    0  501 -0.00000000000E+00 -0.00000000000E+00 -0.29293109421E+02  0.29293109421E+02  0.00000000000E+00 0.  1.
         23    2    1    2    0    0 -0.22621503347E+02 -0.49056818452E+02  0.19747153618E+03  0.22399633237E+03  0.90890293568E+02 0.  0.
          5    1    1    2  502    0  0.19717241047E+02  0.87662213150E+02  0.13922764687E+03  0.16575657834E+03  0.41800000000E+01 0.  1.
         -5    1    1    2    0  502  0.29042623001E+01 -0.38605394697E+02  0.13426819237E+03  0.13980068355E+03  0.41800000000E+01 0.  1.
        -11    1    3    3    0    0 -0.16048634595E+02 -0.60573973302E+02  0.20077792327E+03  0.21032959703E+03  0.00000000000E+00 0. -1.
         11    1    3    3    0    0 -0.65728687518E+01  0.11517154849E+02 -0.33063870872E+01  0.13666735346E+02  0.00000000000E+00 0.  1.
</event>
<event>
 7    1  0.5137842E-006  0.8062148E+02  0.7561462E-02  0.1327297E+00
         -1   -1    0    0    0  501 -0.00000000000E+00  0.00000000000E+00  0.14469787614E+03  0.14469787614E+03  0.00000000000E+00 0.  1.
          1   -1    0    0  501    0  0.00000000000E+00 -0.00000000000E+00 -0.85552363306E+02  0.85552363306E+02  0.00000000000E+00 0. -1.
         23    2    1    2    0    0 -0.60811729609E+00 -0.24081795266E+02  0.19249026794E+02  0.96759152832E+02  0.91714262546E+02 0.  0.
          5    1    1    2  502    0  0.51046686100E+02 -0.11454436831E+02 -0.10731869618E+02  0.53568775517E+02  0.41800000000E+01 0. -1.
         -5    1    1    2    0  502 -0.50438568804E+02  0.35536232097E+02  0.50628355661E+02  0.79922311101E+02  0.41800000000E+01 0. -1.
        -11    1    3    3    0    0  0.10251651119E+02  0.80289263740E+01  0.49586994371E+02  0.51268216471E+02  0.00000000000E+00 0.  1.
         11    1    3    3    0    0 -0.10859768416E+02 -0.32110721640E+02 -0.30337967577E+02  0.45490936361E+02  0.00000000000E+00 0. -1.
</event>
<event>
 7    1  0.5137842E-006  0.1110991E+03  0.7561462E-02  0.1258548E+00
          2   -1    0    0  501    0  0.00000000000E+00  0.00000000000E+00  0.31451803663E+03  0.31451803663E+03  0.00000000000E+00 0. -1.
         -2   -1    0    0    0  501 -0.00000000000E+00 -0.00000000000E+00 -0.53417221744E+02  0.53417221744E+02  0.00000000000E+00 0.  1.
         23    2    1    2    0    0 -0.94886768666E+00 -0.76100955521E+02  0.10692205559E+03  0.15530818974E+03  0.83042471353E+02 0.  0.
          5    1    1    2  502    0  0.40560789766E+02 -0.17454043327E+02  0.54081803238E+02  0.69943799842E+02  0.41800000000E+01 0.  1.
         -5    1    1    2    0  502 -0.39611922079E+02  0.93554998849E+02  0.10009695606E+03  0.14268326879E+03  0.41800000000E+01 0.  1.
        -11    1    3    3    0    0  0.65996011220E+00 -0.53619556602E+02  0.84447141971E+01  0.54284487614E+02  0.00000000000E+00 0.  1.
         11    1    3    3    0    0 -0.16088277989E+01 -0.22481398919E+02  0.98477341390E+02  0.10102370213E+03  0.00000000000E+00 0. -1.
</event>
<event>
 7    1  0.5137842E-006  0.7954857E+02  0.7561462E-02  0.1330337E+00
         -1   -1    0    0    0  501 -0.00000000000E+00  0.00000000000E+00  0.47592343304E+02  0.47592343304E+02  0.00000000000E+00 0.  1.
          1   -1    0    0  501    0  0.00000000000E+00 -0.00000000000E+00 -0.25104641284E+03  0.25104641284E+03  0.00000000000E+00 0. -1.
         23    2    1    2    0    0 -0.27926029776E+01 -0.11898065613E+02 -0.10831451263E+03  0.14100207738E+03  0.89443778894E+02 0.  0.
          5    1    1    2  502    0 -0.33825051845E+02  0.28426127287E+02 -0.10675103234E+03  0.11560897089E+03  0.41800000000E+01 0. -1.
         -5    1    1    2    0  502  0.36617654822E+02 -0.16528061674E+02  0.11611475433E+02  0.42027707873E+02  0.41800000000E+01 0. -1.
        -11    1    3    3    0    0  0.71367046877E+01 -0.42013032122E+02 -0.99265955383E+02  0.10802665097E+03  0.00000000000E+00 0. -1.
         11    1    3    3    0    0 -0.99293076653E+01  0.30114966509E+02 -0.90485572432E+01  0.32975426407E+02  0.00000000000E+00 0.  1.
</event>
<event>
 7    1  0.5137842E-006  0.1909369E+03  0.7561462E-02  0.1157619E+00
         -2   -1    0    0    0  501 -0.00000000000E+00  0.00000000000E+00  0.22314438673E+03  0.22314438673E+03  0.00000000000E+00 0.  1.
          2   -1    0    0  501    0  0.00000000000E+00 -0.00000000000E+00 -0.18505166384E+03  0.18505166384E+03  0.00000000000E+00 0. -1.
         23    2    1    2    0    0 -0.13997117458E+02  0.17088029987E+03  0.23589852391E+02  0.19546583417E+03  0.90853811199E+02 0.  0.
          5    1    1    2  502    0 -0.27841336121E+02 -0.16560598016E+03  0.12749925601E+00  0.16798205058E+03  0.41800000000E+01 0. -1.
         -5    1    1    2    0  502  0.41838453580E+02 -0.52743197090E+01  0.14375371235E+02  0.44748165822E+02  0.41800000000E+01 0. -1.
        -11    1    3    3    0    0 -0.55239783154E+01  0.95677906560E+02 -0.32576173683E+02  0.10122244431E+03  0.00000000000E+00 0. -1.
         11    1    3    3    0    0 -0.84731391431E+01  0.75202393310E+02  0.56166026075E+02  0.94243389856E+02  0.00000000000E+00 0.  1.
</event>
<event>
 7    1  0.5137842E-006  0.7727632E+02  0.7561462E-02  0.1336963E+00
          2   -1    0    0  501    0  0.00000000000E+00  0.00000000000E+00  0.15566674842E+03  0.15566674842E+03  0.00000000000E+00 0. -1.
         -2   -1    0    0    0  501 -0.00000000000E+00 -0.00000000000E+00 -0.13541158267E+03  0.13541158267E+03  0.00000000000E+00 0.  1.
         23    2    1    2    0    0  0.41045924665E+02  0.49282457423E+02  0.81624253837E+02  0.13769344010E+03  0.90462346254E+02 0.  0.
          5    1    1    2  502    0 -0.85617399119E+01  0.12633359857E+02  0.32567692985E+02  0.36208178606E+02  0.41800000000E+01 0. -1.
         -5    1    1    2    0  502 -0.32484184753E+02 -0.61915817281E+02 -0.93936781071E+02  0.11717671239E+03  0.41800000000E+01 0. -1.
        -11    1    3    3    0    0  0.16563365623E+02  0.38540824258E+02  0.97819833193E+02  0.10643523844E+03  0.00000000000E+00 0. -1.
         11    1    3    3    0    0  0.24482559042E+02  0.10741633165E+02 -0.16195579355E+02  0.31258201660E+02  0.00000000000E+00 0.  1.
</event>
<event>
 7    1  0.5137842E-006  0.1016919E+03  0.7561462E-02  0.1276778E+00
          1   -1    0    0  501    0  0.00000000000E+00  0.00000000000E+00  0.14548698639E+03  0.14548698639E+03  0.00000000000E+00 0. -1.
         -1   -1    0    0    0  501 -0.00000000000E+00 -0.00000000000E+00 -0.10575004465E+03  0.10575004465E+03  0.00000000000E+00 0.  1.
         23    2    1    2    0    0 -0.61536818068E+02 -0.80601622912E+01  0.42730037313E+02  0.11156650424E+03  0.82276865427E+02 0.  0.
          5    1    1    2  502    0  0.81330111632E+02  0.47967673663E+02 -0.68516427392E+01  0.94762345808E+02  0.41800000000E+01 0.  1.
         -5    1    1    2    0  502 -0.19793293564E+02 -0.39907511372E+02  0.38585471741E+01  0.44908180995E+02  0.41800000000E+01 0.  1.
        -11    1    3    3    0    0 -0.25841959617E+02  0.46111734257E+01 -0.23524737208E+02  0.35248873144E+02  0.00000000000E+00 0.  1.
         11    1    3    3    0    0 -0.35694858451E+02 -0.12671335717E+02  0.66254774521E+02  0.76317631092E+02  0.00000000000E+00 0. -1.
</event>
<event>
 7    1  0.5137842E-006  0.8554752E+02  0.7561462E-02  0.1314007E+00
          2   -1    0    0  501    0  0.00000000000E+00  0.00000000000E+00  0.56576090943E+03  0.56576090943E+03  0.00000000000E+00 0. -1.
         -2   -1    0    0    0  501 -0.00000000000E+00 -0.00000000000E+00 -0.21715118237E+02  0.21715118237E+02  0.00000000000E+00 0.  1.
         23    2    1    2    0    0  0.92606886484E+01 -0.13363311992E+02  0.27901160183E+03  0.29395489293E+03  0.91091529002E+02 0.  0.
          5    1    1    2  502    0 -0.49067001124E+02  0.20053054828E+02  0.44649862844E+02  0.69431824542E+02  0.41800000000E+01 0.  1.
         -5    1    1    2    0  502  0.39806312476E+02 -0.66897428360E+01  0.22038432652E+03  0.22408931020E+03  0.41800000000E+01 0.  1.
        -11    1    3    3    0    0  0.27579880673E+02  0.23464577767E+02  0.21387044323E+03  0.21691427504E+03  0.00000000000E+00 0. -1.
         11    1    3    3    0    0 -0.18319192024E+02 -0.36827889758E+02  0.65141158605E+02  0.77040617890E+02  0.00000000000E+00 0.  1.
</event>
<event>
 7    1  0.5137842E-006  0.1233709E+03  0.7561462E-02  0.1237637E+00
          1   -1    0    0  501    0  0.00000000000E+00  0.00000000000E+00  0.67705973079E+02  0.67705973079E+02  0.00000000000E+00 0. -1.
         -1   -1    0    0    0  501 -0.00000000000E+00 -0.00000000000E+00 -0.29986317842E+03  0.29986317842E+03  0.00000000000E+00 0.  1.
         23    2    1    2    0    0  0.85655207112E+01  0.78795063472E+02 -0.56230964415E+02  0.13761340708E+03  0.97434584600E+02 0.  0.
          5    1    1    2  502    0  0.16128137323E+02  0.17572205620E+02 -0.10487877313E+03  0.10763795185E+03  0.41800000000E+01 0. -1.
         -5    1    1    2    0  502 -0.24693658034E+02 -0.96367269092E+02 -0.71047467787E+02  0.12231779257E+03  0.41800000000E+01 0. -1.
        -11    1    3    3    0    0  0.51229252025E+01 -0.21754571074E+02 -0.21947288157E+02  0.31323939450E+02  0.00000000000E+00 0.  1.
         11    1    3    3    0    0  0.34425955087E+01  0.10054963455E+03 -0.34283676258E+02  0.10628946763E+03  0.00000000000E+00 0. -1.
</event>
<event>
 7    1  0.5137842E-006  0.8816483E+02  0.7561462E-02  0.1307358E+00
          1   -1    0    0  501    0  0.00000000000E+00  0.00000000000E+00  0.17868297746E+03  0.17868297746E+03  0.00000000000E+00 0. -1.
         -1   -1    0    0    0  501 -0.00000000000E+00 -0.00000000000E+00 -0.76216772708E+02  0.76216772708E+02  0.00000000000E+00 0.  1.
         23    2    1    2    0    0 -0.25922233233E+01 -0.38083033192E+02  0.67386624655E+02  0.11948450376E+03  0.90986550757E+02 0.  0.
          5    1    1    2  502    0 -0.36354714654E+02  0.47183847824E+02  0.62735460671E+02  0.86609417494E+02  0.41800000000E+01 0. -1.
         -5    1    1    2    0  502  0.38946937977E+02 -0.91008146324E+01 -0.27655880577E+02  0.48805828907E+02  0.41800000000E+01 0. -1.
        -11    1    3    3    0    0 -0.27820101697E+02 -0.42496953544E+02  0.38014789717E+01  0.50935256565E+02  0.00000000000E+00 0.  1.
         11    1    3    3    0    0  0.25227878374E+02  0.44139203521E+01  0.63585145683E+02  0.68549247200E+02  0.00000000000E+00 0. -1.
</event>
<event>
 7    1  0.5137842E-006  0.1352759E+03  0.7561462E-02  0.1219831E+00
         -2   -1    0    0    0  501 -0.00000000000E+00  0.00000000000E+00  0.40856172938E+03  0.40856172938E+03  0.00000000000E+00 0.  1.
          2   -1    0    0  501    0  0.00000000000E+00 -0.00000000000E+00 -0.62470315403E+02  0.62470315403E+02  0.00000000000E+00 0. -1.
         23    2    1    2    0    0  0.72309785331E+01  0.10301235930E+03  0.12421532170E+03  0.19618484438E+03  0.11133379452E+03 0.  0.
          5    1    1    2  502    0 -0.54900431740E+02 -0.34703552555E+02  0.44502393503E+02  0.78843702302E+02  0.41800000000E+01 0.  1.
         -5    1    1    2    0  502  0.47669453207E+02 -0.68308806749E+02  0.17737369878E+03  0.19600349810E+03  0.41800000000E+01 0.  1.
        -11    1    3    3    0    0  0.33727093093E+02  0.80564268069E+02  0.24670552942E+02  0.90756566046E+02  0.00000000000E+00 0. -1.
         11    1    3    3    0    0 -0.26496114560E+02  0.22448091235E+02  0.99544768756E+02  0.10542827834E+03  0.00000000000E+00 0.  1.
</event>
<event>
 7    1  0.5137842E-006  0.1736861E+03  0.7561462E-02  0.1174057E+00
         -2   -1    0    0    0  501 -0.00000000000E+00  0.00000000000E+00  0.98334260859E+02  0.98334260859E+02  0.00000000000E+00 0.  1.
          2   -1    0    0  501    0  0.00000000000E+00 -0.00000000000E+00 -0.54040625453E+03  0.54040625453E+03  0.00000000000E+00 0. -1.
         23    2    1    2    0    0 -0.11631143408E+03  0.48692090850E+02 -0.36609538437E+03  0.39765050376E+03  0.90558397044E+02 0.  0.
          5    1    1    2  502    0  0.11273612914E+03 -0.94840287257E+02  0.52850113594E+01  0.14747718009E+03  0.41800000000E+01 0. -1.
         -5    1    1    2    0  502  0.35753049388E+01  0.46148196407E+02 -0.81261620656E+02  0.93612831538E+02  0.41800000000E+01 0.  1.
        -11    1    3    3    0    0 -0.11561666992E+03  0.11356658258E+02 -0.24948626879E+03  0.27520825999E+03  0.00000000000E+00 0.  1.
         11    1    3    3    0    0 -0.69476415993E+00  0.37335432592E+02 -0.11660911558E+03  0.12244224377E+03  0.00000000000E+00 0. -1.
</event>
<event>
 7    1  0.5137842E-006  0.2072198E+03  0.7561462E-02  0.1143787E+00
         -2   -1    0    0    0  501 -0.00000000000E+00  0.00000000000E+00  0.70105884271E+02  0.70105884271E+02  0.00000000000E+00 0.  1.
          2   -1    0    0  501    0  0.00000000000E+00 -0.00000000000E+00 -0.11676481776E+04  0.11676481776E+04  0.00000000000E+00 0. -1.
         23    2    1    2    0    0 -0.72456019994E+02 -0.12783560724E+03 -0.43693503160E+03  0.46863296792E+03  0.84337532982E+02 0.  0.
          5    1    1    2  502    0  0.25494806423E+02  0.18491610490E+03 -0.66904338667E+03  0.69460814612E+03  0.41800000000E+01 0. -1.
         -5    1    1    2    0  502  0.46961213572E+02 -0.57080497655E+02  0.84361249305E+01  0.74512947844E+02  0.41800000000E+01 0.  1.
        -11    1    3    3    0    0  0.48766846342E+01 -0.22478239116E+02 -0.16376695016E+02  0.28235605650E+02  0.00000000000E+00 0. -1.
         11    1    3    3    0    0 -0.77332704628E+02 -0.10535736813E+03 -0.42055833659E+03  0.44039736227E+03  0.00000000000E+00 0.  1.
</event>
<event>
 7    1  0.5137842E-006  0.1162155E+03  0.7561462E-02  0.1249474E+00
          1   -1    0    0  501    0  0.00000000000E+00  0.00000000000E+00  0.49141270374E+02  0.49141270374E+02  0.00000000000E+00 0. -1.
         -1   -1    0    0    0  501 -0.00000000000E+00 -0.00000000000E+00 -0.42043598582E+03  0.42043598582E+03  0.00000000000E+00 0.  1.
         23    2    1    2    0    0  0.87654898873E+02 -0.33073315003E+02 -0.17670610513E+03  0.21999897243E+03  0.91636645608E+02 0.  0.
          5    1    1    2  502    0 -0.22277247505E+02  0.54602382970E+02 -0.16364322008E+03  0.17399503401E+03  0.41800000000E+01 0.  1.
         -5    1    1    2    0  502 -0.65377651368E+02 -0.21529067967E+02 -0.30945390232E+02  0.75583249749E+02  0.41800000000E+01 0.  1.
        -11    1    3    3    0    0  0.16215033292E+02 -0.28471444848E+02 -0.39558348297E+01  0.33003016613E+02  0.00000000000E+00 0. -1.
         11    1    3    3    0    0  0.71439865581E+02 -0.46018701552E+01 -0.17275027030E+03  0.18699595581E+03  0.00000000000E+00 0.  1.
</event>
<event>
 7    1  0.5137842E-006  0.8024594E+02  0.7561462E-02  0.1328355E+00
         -1   -1    0    0    0  501 -0.00000000000E+00  0.00000000000E+00  0.40085906747E+02  0.40085906747E+02  0.00000000000E+00 0.  1.
          1   -1    0    0  501    0  0.00000000000E+00 -0.00000000000E+00 -0.32673325409E+03  0.32673325409E+03  0.00000000000E+00 0. -1.
         23    2    1    2    0    0  0.38761686979E+02  0.28033922014E+01 -0.17024415044E+03  0.19708154916E+03  0.91365961244E+02 0.  0.
          5    1    1    2  502    0 -0.54207365423E+02 -0.20362803395E+02 -0.78138257703E+01  0.58579949653E+02  0.41800000000E+01 0. -1.
         -5    1    1    2    0  502  0.15445678444E+02  0.17559411193E+02 -0.10858937113E+03  0.11115766203E+03  0.41800000000E+01 0.  1.
        -11    1    3    3    0    0  0.15257663344E+02  0.35367584991E+02 -0.14410415394E+03  0.14916323120E+03  0.00000000000E+00 0.  1.
         11    1    3    3    0    0  0.23504023635E+02 -0.32564192790E+02 -0.26139996502E+02  0.47918317961E+02  0.00000000000E+00 0. -1.
</event>
<event>
 7    1  0.5137842E-006  0.1134391E+03  0.7561462E-02  0.1254330E+00
         -1   -1    0    0    0  501 -0.00000000000E+00  0.00000000000E+00  0.55040078782E+02  0.55040078782E+02  0.00000000000E+00 0.  1.
          1   -1    0    0  501    0  0.00000000000E+00 -0.00000000000E+00 -0.32666475061E+03  0.32666475061E+03  0.00000000000E+00 0. -1.
         23    2    1    2    0    0 -0.77360255810E+02  0.34336594508E+00 -0.14567889762E+03  0.18806776929E+03  0.90346098727E+02 0.  0.
          5    1    1    2  502    0  0.30134418792E+02  0.40017829612E+02 -0.12117795365E+03  0.13119100096E+03  0.41800000000E+01 0.  1.
         -5    1    1    2    0  502  0.47225837018E+02 -0.40361195557E+02 -0.47678205569E+01  0.62446059137E+02  0.41800000000E+01 0.  1.
        -11    1    3    3    0    0 -0.54132880071E+02  0.40737770092E+02 -0.11076829313E+03  0.12984432748E+03  0.00000000000E+00 0.  1.
         11    1    3    3    0    0 -0.23227375739E+02 -0.40394404147E+02 -0.34910604494E+02  0.58223441811E+02  0.00000000000E+00 0. -1.
</event>
<event>
 7    1  0.5137842E-006  0.1659923E+03  0.7561462E-02  0.1182093E+00
          3   -1    0    0  501    0  0.00000000000E+00  0.00000000000E+00  0.27578932242E+03  0.27578932242E+03  0.00000000000E+00 0. -1.
         -3   -1    0    0    0  501 -0.00000000000E+00 -0.00000000000E+00 -0.12984238508E+03  0.12984238508E+03  0.00000000000E+00 0.  1.
         23    2    1    2    0    0 -0.11144800627E+03  0.95547874531E+02  0.10773525197E+03  0.20901672522E+03  0.10262091636E+03 0.  0.
          5    1    1    2  502    0  0.21472678085E+02 -0.92497363663E+02  0.47053651628E+02  0.10605827040E+03  0.41800000000E+01 0. -1.
         -5    1    1    2    0  502  0.89975328189E+02 -0.30505108673E+01 -0.88419662488E+01  0.90556711880E+02  0.41800000000E+01 0. -1.
        -11    1    3    3    0    0 -0.57538896532E+02  0.50575309063E+02 -0.43831123265E+01  0.76731989252E+02  0.00000000000E+00 0.  1.
         11    1    3    3    0    0 -0.53909109742E+02  0.44972565468E+02  0.11211836430E+03  0.13228473597E+03  0.00000000000E+00 0. -1.
</event>
<event>
 7    1  0.5137842E-006  0.1472794E+03  0.7561462E-02  0.1203856E+00
          3   -1    0    0  501    0  0.00000000000E+00  0.00000000000E+00  0.87627963491E+02  0.87627963491E+02  0.00000000000E+00 0. -1.
         -3   -1    0    0    0  501 -0.00000000000E+00 -0.00000000000E+00 -0.27354141080E+03  0.27354141080E+03  0.00000000000E+00 0.  1.
         23    2    1    2    0    0  0.10823090249E+03  0.53100866004E+01 -0.62931507081E+02  0.15497585195E+03  0.91186703137E+02 0.  0.
          5    1    1    2  502    0  0.19359910580E+02 -0.15375692525E+02  0.45300404239E+01  0.25479633524E+02  0.41800000000E+01 0. -1.
         -5    1    1    2    0  502 -0.12759081307E+03  0.10065605924E+02 -0.12751198065E+03  0.18071388882E+03  0.41800000000E+01 0. -1.
        -11    1    3    3    0    0  0.71138474947E+02 -0.40990924285E+02 -0.32522518090E+02  0.88309980605E+02  0.00000000000E+00 0.  1.
         11    1    3    3    0    0  0.37092427545E+02  0.46301010886E+02 -0.30408988992E+02  0.66665871341E+02  0.00000000000E+00 0. -1.
</event>
<event>
 7    1  0.5137842E-006  0.1174699E+03  0.7561462E-02  0.1247330E+00
         -1   -1    0    0    0  501 -0.00000000000E+00  0.00000000000E+00  0.36633186750E+03  0.36633186750E+03  0.00000000000E+00 0.  1.
          1   -1    0    0  501    0  0.00000000000E+00 -0.00000000000E+00 -0.50960470794E+02  0.50960470794E+02  0.00000000000E+00 0. -1.
         23    2    1    2    0    0  0.69008523445E+02  0.39980509747E+02  0.83146905602E+02  0.14172673704E+03  0.82537522450E+02 0.  0.
          5    1    1    2  502    0 -0.87398589747E+02 -0.12100244985E+02  0.22418492475E+03  0.24095908845E+03  0.41800000000E+01 0. -1.
         -5    1    1    2    0  502  0.18390066302E+02 -0.27880264762E+02  0.80395663492E+01  0.34606512810E+02  0.41800000000E+01 0. -1.
        -11    1    3    3    0    0 -0.11203211058E+02  0.30116684250E+02  0.12821358482E+02  0.34596442614E+02  0.00000000000E+00 0. -1.
         11    1    3    3    0    0  0.80211734503E+02  0.98638254971E+01  0.70325547119E+02  0.10713029442E+03  0.00000000000E+00 0.  1.
</event>
<event>
 7    1  0.5137842E-006  0.2185608E+03  0.7561462E-02  0.1134961E+00
          1   -1    0    0  501    0  0.00000000000E+00  0.00000000000E+00  0.17666302323E+03  0.17666302323E+03  0.00000000000E+00 0. -1.
         -1   -1    0    0    0  501 -0.00000000000E+00 -0.00000000000E+00 -0.30725145583E+03  0.30725145583E+03  0.00000000000E+00 0.  1.
         23    2    1    2    0    0  0.53671036708E+02  0.19671746096E+03 -0.34998846467E+02  0.22659002362E+03  0.92410929677E+02 0.  0.
          5    1    1    2  502    0 -0.64427820980E+02 -0.19644746065E+03 -0.11359843118E+03  0.23593351792E+03  0.41800000000E+01 0.  1.
         -5    1    1    2    0  502  0.10756784272E+02 -0.27000030883E+00  0.18008845046E+02  0.21390937519E+02  0.41800000000E+01 0.  1.
        -11    1    3    3    0    0  0.28162895382E+01  0.14909547233E+03 -0.46000029341E+02  0.15605574022E+03  0.00000000000E+00 0.  1.
         11    1    3    3    0    0  0.50854747170E+02  0.47621988631E+02  0.11001182874E+02  0.70534283405E+02  0.00000000000E+00 0. -1.
</event>
<event>
 7    1  0.5137842E-006  0.8023800E+02  0.7561462E-02  0.1328377E+00
          1   -1    0    0  501    0  0.00000000000E+00  0.00000000000E+00  0.48023684720E+02  0.48023684720E+02  0.00000000000E+00 0. -1.
         -1   -1    0    0    0  501 -0.00000000000E+00 -0.00000000000E+00 -0.34942094003E+03  0.34942094003E+03  0.00000000000E+00 0.  1.
         23    2    1    2    0    0  0.28674012909E+02 -0.47154050454E+02 -0.66814812530E+02  0.12592559158E+03  0.91363734334E+02 0.  0.
          5    1    1    2  502    0 -0.41490772222E+02  0.52388530193E+02 -0.24481272998E+03  0.25380462453E+03  0.41800000000E+01 0. -1.
         -5    1    1    2    0  502  0.12816759313E+02 -0.52344797398E+01  0.10230287193E+02  0.17714408640E+02  0.41800000000E+01 0. -1.
        -11    1    3    3    0    0 -0.17352276624E+02 -0.11232989865E+02 -0.64240706491E+02  0.67484442176E+02  0.00000000000E+00 0.  1.
         11    1    3    3    0    0  0.46026289533E+02 -0.35921060589E+02 -0.25741060393E+01  0.58441149406E+02  0.00000000000E+00 0. -1.
</event>
<event>
 7    1  0.5137842E-006  0.7341540E+02  0.7561462E-02  0.1348849E+00
          3   -1    0    0  501    0  0.00000000000E+00  0.00000000000E+00  0.12332971806E+03  0.12332971806E+03  0.00000000000E+00 0. -1.
         -3   -1    0    0    0  501 -0.00000000000E+00 -0.00000000000E+00 -0.98283349211E+02  0.98283349211E+02  0.00000000000E+00 0.  1.
         23    2    1    2    0    0  0.21091822932E+01  0.17913684518E+02  0.23037462908E+02  0.95202519472E+02  0.90594957219E+02 0.  0.
          5    1    1    2  502    0  0.41153998112E+02 -0.20219863570E+02 -0.43567972910E+02  0.63388761676E+02  0.41800000000E+01 0. -1.
         -5    1    1    2    0  502 -0.43263180405E+02  0.23061790521E+01  0.45576878855E+02  0.63021786128E+02  0.41800000000E+01 0. -1.
        -11    1    3    3    0    0  0.69673379715E+01 -0.18892609209E+02 -0.26509227935E+02  0.33289842999E+02  0.00000000000E+00 0.  1.
         11    1    3    3    0    0 -0.48581556783E+01  0.36806293728E+02  0.49546690843E+02  0.61912676473E+02  0.00000000000E+00 0. -1.
</event>
<event>
 7    1  0.5137842E-006  0.1186731E+03  0.7561462E-02  0.1245302E+00
          1   -1    0    0  501    0  0.00000000000E+00  0.00000000000E+00  0.21930442754E+03  0.21930442754E+03  0.00000000000E+00 0. -1.
         -1   -1    0    0    0  501 -0.00000000000E+00 -0.00000000000E+00 -0.86481816348E+02  0.86481816348E+02  0.00000000000E+00 0.  1.
         23    2    1    2    0    0 -0.73805224334E+02 -0.30855612660E+02  0.89902533710E+02  0.15122702983E+03  0.91585310026E+02 0.  0.
          5    1    1    2  502    0  0.77512510695E+01 -0.34246498829E+02  0.50236330901E+02  0.61433426712E+02  0.41800000000E+01 0.  1.
         -5    1    1    2    0  502  0.66053973264E+02  0.65102111489E+02 -0.73162534196E+01  0.93125787344E+02  0.41800000000E+01 0.  1.
        -11    1    3    3    0    0 -0.57222245666E+02 -0.55321103126E+02  0.31170670251E+02  0.85477602529E+02  0.00000000000E+00 0.  1.
         11    1    3    3    0    0 -0.16582978667E+02  0.24465490466E+02  0.58731863458E+02  0.65749427302E+02  0.00000000000E+00 0. -1.
</event>
<event>
 7    1  0.5137842E-006  0.1366375E+03  0.7561462E-02  0.1217926E+00
          2   -1    0    0  501    0  0.00000000000E+00  0.00000000000E+00  0.50563602033E+03  0.50563602033E+03  0.00000000000E+00 0. -1.
         -2   -1    0    0    0  501 -0.00000000000E+00 -0.00000000000E+00 -0.40114835953E+02  0.40114835953E+02  0.00000000000E+00 0.  1.
         23    2    1    2    0    0 -0.32190940551E+02  0.78873307030E+02  0.18492462776E+03  0.22694210374E+03  0.10024143497E+03 0.  0.
          5    1    1    2  502    0 -0.19854232402E+02 -0.94646115762E+02  0.18044064438E+03  0.20476419687E+03  0.41800000000E+01 0.  1.
         -5    1    1    2    0  502  0.52045172953E+02  0.15772808731E+02  0.10015591223E+03  0.11404455567E+03  0.41800000000E+01 0.  1.
        -11    1    3    3    0    0  0.18633153573E+01  0.86922826290E+02  0.87184163668E+02  0.12312647184E+03  0.00000000000E+00 0.  1.
         11    1    3    3    0    0 -0.34054255908E+02 -0.80495192603E+01  0.97740464093E+02  0.10381563190E+03  0.00000000000E+00 0. -1.
</event>
<event>
 7    1  0.5137842E-006  0.1432311E+03  0.7561462E-02  0.1209046E+00
         -1   -1    0    0    0  501 -0.00000000000E+00  0.00000000000E+00  0.20233712126E+03  0.20233712126E+03  0.00000000000E+00 0.  1.
          1   -1    0    0  501    0  0.00000000000E+00 -0.00000000000E+00 -0.14386164844E+03  0.14386164844E+03  0.00000000000E+00 0. -1.
         23    2    1    2    0    0  0.18148604639E+02 -0.11530457433E+03 -0.33879927180E+02  0.15176989770E+03  0.90894090406E+02 0.  0.
          5    1    1    2  502    0 -0.47170420467E+02 -0.14082285278E+01  0.44260477665E+02  0.64834357849E+02  0.41800000000E+01 0.  1.
         -5    1    1    2    0  502  0.29021815828E+02  0.11671280285E+03  0.48094922337E+02  0.12959451415E+03  0.41800000000E+01 0.  1.
        -11    1    3    3    0    0  0.21815032319E+02 -0.70642076284E+02 -0.63990890192E+02  0.97780532849E+02  0.00000000000E+00 0. -1.
         11    1    3    3    0    0 -0.36664276799E+01 -0.44662498043E+02  0.30110963012E+02  0.53989364849E+02  0.00000000000E+00 0.  1.
</event>
<event>
 7    1  0.5137842E-006  0.1073327E+03  0.7561462E-02  0.1265591E+00
          2   -1    0    0  501    0  0.00000000000E+00  0.00000000000E+00  0.12067951262E+03  0.12067951262E+03  0.00000000000E+00 0. -1.
         -2   -1    0    0    0  501 -0.00000000000E+00 -0.00000000000E+00 -0.13760882640E+03  0.13760882640E+03  0.00000000000E+00 0.  1.
         23    2    1    2    0    0  0.76493954961E+01  0.66406382578E+02  0.23730164799E+02  0.11075480905E+03  0.85059897183E+02 0.  0.
          5    1    1    2  502    0  0.42048773527E+02 -0.84950334869E+01  0.22286032078E+02  0.48522207028E+02  0.41800000000E+01 0.  1.
         -5    1    1    2    0  502 -0.49698169023E+02 -0.57911349091E+02 -0.62945510661E+02  0.99011322939E+02  0.41800000000E+01 0.  1.
        -11    1    3    3    0    0  0.37732484797E+02  0.41424349482E+02 -0.12540669760E+02  0.57419382938E+02  0.00000000000E+00 0.  1.
         11    1    3    3    0    0 -0.30083089301E+02  0.24982033096E+02  0.36270834559E+02  0.53335426117E+02  0.00000000000E+00 0. -1.
</event>
<event>
 7    1  0.5137842E-006  0.1198452E+03  0.7561462E-02  0.1243353E+00
          2   -1    0    0  501    0  0.00000000000E+00  0.00000000000E+00  0.30786833599E+03  0.30786833599E+03  0.00000000000E+00 0. -1.
         -2   -1    0    0    0  501 -0.00000000000E+00 -0.00000000000E+00 -0.84971898284E+02  0.84971898284E+02  0.00000000000E+00 0.  1.
         23    2    1    2    0    0  0.62274685077E+02 -0.95831110343E+02  0.15029650178E+03  0.20849793677E+03  0.88434230265E+02 0.  0.
          5    1    1    2  502    0 -0.61945326897E+02  0.60098549706E+02  0.10495988422E+03  0.13595259797E+03  0.41800000000E+01 0.  1.
         -5    1    1    2    0  502 -0.32935818071E+00  0.35732560636E+02 -0.32359948290E+02  0.48389699521E+02  0.41800000000E+01 0.  1.
        -11    1    3    3    0    0  0.41205800460E+02 -0.39171678463E+02  0.13449346036E+03  0.14601653764E+03  0.00000000000E+00 0. -1.
         11    1    3    3    0    0  0.21068884617E+02 -0.56659431880E+02  0.15803041418E+02  0.62481399136E+02  0.00000000000E+00 0.  1.
</event>
<event>
 7    1  0.5137842E-006  0.1057106E+03  0.7561462E-02  0.1268726E+00
         -1   -1    0    0    0  501 -0.00000000000E+00  0.00000000000E+00  0.60737774102E+02  0.60737774102E+02  0.00000000000E+00 0.  1.
          1   -1    0    0  501    0  0.00000000000E+00 -0.00000000000E+00 -0.55861357256E+03  0.55861357256E+03  0.00000000000E+00 0. -1.
         23    2    1    2    0    0  0.57936023866E+01 -0.74799632973E+01 -0.48570479131E+03  0.49331169790E+03  0.85777452195E+02 0.  0.
          5    1    1    2  502    0 -0.64721681967E+02  0.12344682112E+02 -0.95255596263E+01  0.66704542419E+02  0.41800000000E+01 0. -1.
         -5    1    1    2    0  502  0.58928079581E+02 -0.48647188146E+01 -0.26454475238E+01  0.59335106344E+02  0.41800000000E+01 0. -1.
        -11    1    3    3    0    0  0.84117628313E+01  0.38834833604E+02 -0.20857928566E+03  0.21233045109E+03  0.00000000000E+00 0.  1.
         11    1    3    3    0    0 -0.26181604447E+01 -0.46314796901E+02 -0.27712550565E+03  0.28098124681E+03  0.00000000000E+00 0. -1.
</event>
<event>
 7    1  0.5137842E-006  0.7828307E+02  0.7561462E-02  0.1333996E+00
          2   -1    0    0  501    0  0.00000000000E+00  0.00000000000E+00  0.20677997080E+03  0.20677997080E+03  0.00000000000E+00 0. -1.
         -2   -1    0    0    0  501 -0.00000000000E+00 -0.00000000000E+00 -0.57282959058E+02  0.57282959058E+02  0.00000000000E+00 0.  1.
         23    2    1    2    0    0  0.36869733301E+01  0.50943963737E+01  0.77116940748E+02  0.11941350003E+03  0.90956114654E+02 0.  0.
          5    1    1    2  502    0  0.79080162746E+01  0.42295690063E+02 -0.13927037470E+02  0.45419124738E+02  0.41800000000E+01 0. -1.
         -5    1    1    2    0  502 -0.11594989605E+02 -0.47390086436E+02  0.86307108468E+02  0.99230305091E+02  0.41800000000E+01 0. -1.
        -11    1    3    3    0    0 -0.22297072352E+02  0.23600611772E+02 -0.35564590541E+01  0.32661854088E+02  0.00000000000E+00 0.  1.
         11    1    3    3    0    0  0.25984045683E+02 -0.18506215398E+02  0.80673399802E+02  0.86751645944E+02  0.00000000000E+00 0. -1.
</event>
<event>
 7    1  0.5137842E-006  0.9790509E+02  0.7561462E-02  0.1284764E+00
         -3   -1    0    0    0  501 -0.00000000000E+00  0.00000000000E+00  0.25264436978E+02  0.25264436978E+02  0.00000000000E+00 0.  1.
          3   -1    0    0  501    0  0.00000000000E+00 -0.00000000000E+00 -0.78816441489E+03  0.78816441489E+03  0.00000000000E+00 0. -1.
         23    2    1    2    0    0 -0.49851565811E+02 -0.61000450630E+02 -0.46532929765E+03  0.48116061749E+03  0.93690719825E+02 0.  0.
          5    1    1    2  502    0  0.18914795696E+02  0.58226138234E+02 -0.41023182928E+02  0.73813458173E+02  0.41800000000E+01 0.  1.
         -5    1    1    2    0  502  0.30936770115E+02  0.27743123961E+01 -0.25654749734E+03  0.25845477621E+03  0.41800000000E+01 0.  1.
        -11    1    3    3    0    0 -0.66433340344E+02 -0.46653176916E+02 -0.44099581452E+03  0.44840519182E+03  0.00000000000E+00 0. -1.
         11    1    3    3    0    0  0.16581774533E+02 -0.14347273715E+02 -0.24333483130E+02  0.32755425672E+02  0.00000000000E+00 0.  1.
</event>
<event>
 7    1  0.5137842E-006  0.1674806E+03  0.7561462E-02  0.1180501E+00
         -3   -1    0    0    0  501 -0.00000000000E+00  0.00000000000E+00  0.85075380659E+03  0.85075380659E+03  0.00000000000E+00 0.  1.
          3   -1    0    0  501    0  0.00000000000E+00 -0.00000000000E+00 -0.37343356908E+02  0.37343356908E+02  0.00000000000E+00 0. -1.
         23    2    1    2    0    0  0.19750373651E+02  0.13716512045E+03  0.32272524560E+03  0.36309717094E+03  0.92106589719E+02 0.  0.
          5    1    1    2  502    0  0.33368188837E+02 -0.11579047801E+03  0.39902918545E+03  0.41684845455E+03  0.41800000000E+01 0. -1.
         -5    1    1    2    0  502 -0.53118562489E+02 -0.21374642445E+02  0.91656018626E+02  0.10815153800E+03  0.41800000000E+01 0. -1.
        -11    1    3    3    0    0 -0.26700378905E+02  0.73249929465E+02  0.22062448672E+03  0.23399492845E+03  0.00000000000E+00 0.  1.
         11    1    3    3    0    0  0.46450752556E+02  0.63915190989E+02  0.10210075888E+03  0.12910224249E+03  0.00000000000E+00 0. -1.
</event>
<event>
 7    1  0.5137842E-006  0.1679784E+03  0.7561462E-02  0.1179973E+00
         -1   -1    0    0    0  501 -0.00000000000E+00  0.00000000000E+00  0.75354886615E+02  0.75354886615E+02  0.00000000000E+00 0.  1.
          1   -1    0    0  501    0  0.00000000000E+00 -0.00000000000E+00 -0.48309857996E+03  0.48309857996E+03  0.00000000000E+00 0. -1.
         23    2    1    2    0    0 -0.11841224136E+03  0.82257398302E+02 -0.28465400887E+03  0.33132722503E+03  0.89230526164E+02 0.  0.
          5    1    1    2  502    0  0.10884105361E+03 -0.84430868328E+01 -0.42179974253E+02  0.11710799842E+03  0.41800000000E+01 0. -1.
         -5    1    1    2    0  502  0.95711877484E+01 -0.73814311469E+02 -0.80909710226E+02  0.11001824313E+03  0.41800000000E+01 0. -1.
        -11    1    3    3    0    0 -0.49601731253E+02  0.68456930325E+01 -0.17271850291E+03  0.17983013236E+03  0.00000000000E+00 0. -1.
         11    1    3    3    0    0 -0.68810510106E+02  0.75411705269E+02 -0.11193550596E+03  0.15149709267E+03  0.00000000000E+00 0.  1.
</event>
<event>
 7    1  0.5137842E-006  0.1287921E+03  0.7561462E-02  0.1229259E+00
         -2   -1    0    0    0  501 -0.00000000000E+00  0.00000000000E+00  0.35006063195E+02  0.35006063195E+02  0.00000000000E+00 0. -1.
          2   -1    0    0  501    0  0.00000000000E+00 -0.00000000000E+00 -0.59578244361E+03  0.59578244361E+03  0.00000000000E+00 0.  1.
         23    2    1    2    0    0 -0.28707313664E+02 -0.79809509769E+02 -0.34594101337E+03  0.36811713960E+03  0.92959001878E+02 0.  0.
          5    1    1    2  502    0  0.19148810068E+02 -0.26180939943E+02 -0.10373573466E+03  0.10876899186E+03  0.41800000000E+01 0. -1.
         -5    1    1    2    0  502  0.95585035968E+01  0.10599044971E+03 -0.11109963237E+03  0.15390237534E+03  0.41800000000E+01 0. -1.
        -11    1    3    3    0    0 -0.51883554769E+02 -0.79820148710E+02 -0.31729793511E+03  0.33127200156E+03  0.00000000000E+00 0. -1.
         11    1    3    3    0    0  0.23176241104E+02  0.10638940749E-01 -0.28643078267E+02  0.36845138044E+02  0.00000000000E+00 0.  1.
</event>
<event>
 7    1  0.5137842E-006  0.1848361E+03  0.7561462E-02  0.1163203E+00
          1   -1    0    0  501    0  0.00000000000E+00  0.00000000000E+00  0.75197691548E+02  0.75197691548E+02  0.00000000000E+00 0. -1.
         -1   -1    0    0    0  501 -0.00000000000E+00 -0.00000000000E+00 -0.61092387211E+03  0.61092387211E+03  0.00000000000E+00 0.  1.
         23    2    1    2    0    0  0.15784470313E+03 -0.22079257381E+02 -0.11362752582E+03  0.21791525847E+03  0.95777874988E+02 0.  0.
          5    1    1    2  502    0 -0.83764807494E+02 -0.49341550666E+02 -0.16993137400E+03  0.19581949817E+03  0.41800000000E+01 0.  1.
         -5    1    1    2    0  502 -0.74079895633E+02  0.71420808048E+02 -0.25216728075E+03  0.27238680702E+03  0.41800000000E+01 0.  1.
        -11    1    3    3    0    0  0.48267977454E+02  0.19664838932E+02 -0.80793501312E+02  0.96146208412E+02  0.00000000000E+00 0.  1.
         11    1    3    3    0    0  0.10957672567E+03 -0.41744096313E+02 -0.32834024509E+02  0.12176905006E+03  0.00000000000E+00 0. -1.
</event>
<event>
 7    1  0.5137842E-006  0.3153006E+03  0.7561462E-02  0.1077833E+00
          1   -1    0    0  501    0  0.00000000000E+00  0.00000000000E+00  0.13445206988E+03  0.13445206988E+03  0.00000000000E+00 0. -1.
         -1   -1    0    0    0  501 -0.00000000000E+00 -0.00000000000E+00 -0.91104749988E+03  0.91104749988E+03  0.00000000000E+00 0.  1.
         23    2    1    2    0    0 -0.27054052556E+02  0.30775242829E+03 -0.19738232272E+03  0.37723425694E+03  0.88895581488E+02 0.  0.
          5    1    1    2  502    0  0.22280011925E+02 -0.26653845859E+03 -0.56337916529E+03  0.62366072918E+03  0.41800000000E+01 0. -1.
         -5    1    1    2    0  502  0.47740406314E+01 -0.41213969703E+02 -0.15833941988E+02  0.44604583637E+02  0.41800000000E+01 0. -1.
        -11    1    3    3    0    0 -0.59677974359E+02  0.18501586893E+03 -0.11542989792E+03  0.22608934896E+03  0.00000000000E+00 0.  1.
         11    1    3    3    0    0  0.32623921803E+02  0.12273655936E+03 -0.81952424798E+02  0.15114490798E+03  0.00000000000E+00 0. -1.
</event>
<event>
 7    1  0.5137842E-006  0.1118146E+03  0.7561462E-02  0.1257246E+00
         -1   -1    0    0    0  501 -0.00000000000E+00  0.00000000000E+00  0.48588221918E+02  0.48588221918E+02  0.00000000000E+00 0.  1.
          1   -1    0    0  501    0  0.00000000000E+00 -0.00000000000E+00 -0.51553670335E+03  0.51553670335E+03  0.00000000000E+00 0. -1.
         23    2    1    2    0    0  0.41592574326E+02 -0.84790014756E+02 -0.33206003183E+03  0.35733558979E+03  0.92225648033E+02 0.  0.
          5    1    1    2  502    0  0.27381792194E+02  0.28755615002E+02  0.57863804328E+01  0.40343556319E+02  0.41800000000E+01 0. -1.
         -5    1    1    2    0  502 -0.68974366520E+02  0.56034399753E+02 -0.14067483004E+03  0.16644577916E+03  0.41800000000E+01 0. -1.
        -11    1    3    3    0    0  0.21596997036E+02 -0.35597877804E+02 -0.31734680084E+02  0.52351973269E+02  0.00000000000E+00 0.  1.
         11    1    3    3    0    0  0.19995577290E+02 -0.49192136952E+02 -0.30032535174E+03  0.30498361652E+03  0.00000000000E+00 0. -1.
</event>
<event>
 7    1  0.5137842E-006  0.1480273E+03  0.7561462E-02  0.1202918E+00
         -1   -1    0    0    0  501 -0.00000000000E+00  0.00000000000E+00  0.13380109784E+03  0.13380109784E+03  0.00000000000E+00 0.  1.
          1   -1    0    0  501    0  0.00000000000E+00 -0.00000000000E+00 -0.19615818807E+03  0.19615818807E+03  0.00000000000E+00 0. -1.
         23    2    1    2    0    0 -0.47788255803E+02  0.10948267809E+03 -0.19494543796E+02  0.15175869816E+03  0.91545021902E+02 0.  0.
          5    1    1    2  502    0  0.61254490351E+02 -0.66016317079E+00 -0.27939209210E+02  0.67458284998E+02  0.41800000000E+01 0. -1.
         -5    1    1    2    0  502 -0.13466234548E+02 -0.10882251492E+03 -0.14923337226E+02  0.11074230275E+03  0.41800000000E+01 0. -1.
        -11    1    3    3    0    0 -0.47322515855E+02  0.64816172509E+02  0.29458262314E+02  0.85488864445E+02  0.00000000000E+00 0.  1.
         11    1    3    3    0    0 -0.46573994759E+00  0.44666505577E+02 -0.48952806110E+02  0.66269833713E+02  0.00000000000E+00 0. -1.
</event>
<event>
 7    1  0.5137842E-006  0.8617808E+02  0.7561462E-02  0.1312380E+00
          4   -1    0    0  501    0  0.00000000000E+00  0.00000000000E+00  0.14026729582E+03  0.14026729582E+03  0.00000000000E+00 0. -1.
         -4   -1    0    0    0  501 -0.00000000000E+00 -0.00000000000E+00 -0.14441075913E+03  0.14441075913E+03  0.00000000000E+00 0.  1.
         23    2    1    2    0    0 -0.25798429677E+01 -0.17947927978E+02  0.88329772334E+02  0.12806547052E+03  0.90938618581E+02 0.  0.
          5    1    1    2  502    0 -0.42465011354E+02 -0.32108712820E+02 -0.64073118384E+02  0.83409133359E+02  0.41800000000E+01 0. -1.
         -5    1    1    2    0  502  0.45044854321E+02  0.50056640798E+02 -0.28400117254E+02  0.73203451072E+02  0.41800000000E+01 0. -1.
        -11    1    3    3    0    0  0.18748655464E+02 -0.22893012078E+02  0.99272606590E+02  0.10358886283E+03  0.00000000000E+00 0. -1.
         11    1    3    3    0    0 -0.21328498432E+02  0.49450841004E+01 -0.10942834257E+02  0.24476607683E+02  0.00000000000E+00 0.  1.
</event>
<event>
 7    1  0.5137842E-006  0.1652576E+03  0.7561462E-02  0.1182886E+00
         -1   -1    0    0    0  501 -0.00000000000E+00  0.00000000000E+00  0.15954420124E+03  0.15954420124E+03  0.00000000000E+00 0.  1.
          1   -1    0    0  501    0  0.00000000000E+00 -0.00000000000E+00 -0.22648505097E+03  0.22648505097E+03  0.00000000000E+00 0. -1.
         23    2    1    2    0    0 -0.10950510461E+03 -0.10516231249E+03 -0.55118731886E+02  0.18895028858E+03  0.98049258279E+02 0.  0.
          5    1    1    2  502    0  0.10042778483E+03  0.10386130807E+03 -0.53561447035E+02  0.15414023579E+03  0.41800000000E+01 0.  1.
         -5    1    1    2    0  502  0.90773197735E+01  0.13010044107E+01  0.41739329195E+02  0.42938727839E+02  0.41800000000E+01 0.  1.
        -11    1    3    3    0    0 -0.13897800443E+02 -0.74075530570E+02 -0.23404870444E+01  0.75404316627E+02  0.00000000000E+00 0.  1.
         11    1    3    3    0    0 -0.95607304162E+02 -0.31086781916E+02 -0.52778244842E+02  0.11354597196E+03  0.00000000000E+00 0. -1.
</event>
<event>
 7    1  0.5137842E-006  0.1396380E+03  0.7561462E-02  0.1213817E+00
         -1   -1    0    0    0  501 -0.00000000000E+00  0.00000000000E+00  0.90092326116E+02  0.90092326116E+02  0.00000000000E+00 0.  1.
          1   -1    0    0  501    0  0.00000000000E+00 -0.00000000000E+00 -0.24830366954E+03  0.24830366954E+03  0.00000000000E+00 0. -1.
         23    2    1    2    0    0  0.20762778839E+02 -0.85472847497E+02 -0.13239098260E+03  0.18332047764E+03  0.91336326857E+02 0.  0.
          5    1    1    2  502    0  0.51070179323E+02  0.52426079529E+02 -0.66635012790E+01  0.73610676401E+02  0.41800000000E+01 0.  1.
         -5    1    1    2    0  502 -0.71832958163E+02  0.33046767967E+02 -0.19156859546E+02  0.81464841614E+02  0.41800000000E+01 0.  1.
        -11    1    3    3    0    0  0.49534581323E+02 -0.84560653584E+02 -0.10354046534E+03  0.14256509687E+03  0.00000000000E+00 0. -1.
         11    1    3    3    0    0 -0.28771802483E+02 -0.91219391251E+00 -0.28850517250E+02  0.40755380767E+02  0.00000000000E+00 0.  1.
</event>
<event>
 7    1  0.5137842E-006  0.8053660E+02  0.7561462E-02  0.1327536E+00
          2   -1    0    0  501    0  0.00000000000E+00  0.00000000000E+00  0.69012522774E+02  0.69012522774E+02  0.00000000000E+00 0. -1.
         -2   -1    0    0    0  501 -0.00000000000E+00 -0.00000000000E+00 -0.20799391617E+03  0.20799391617E+03  0.00000000000E+00 0.  1.
         23    2    1    2    0    0  0.24233121106E+01  0.48036671536E+02 -0.32395785334E+02  0.10576986606E+03  0.88455544796E+02 0.  0.
          5    1    1    2  502    0  0.25386396409E+02 -0.16386275952E+02  0.20852254763E+02  0.36949534380E+02  0.41800000000E+01 0.  1.
         -5    1    1    2    0  502 -0.27809708520E+02 -0.31650395585E+02 -0.12743786282E+03  0.13428703850E+03  0.41800000000E+01 0.  1.
        -11    1    3    3    0    0  0.23625052604E+02 -0.10588668824E+02 -0.34809727007E+02  0.43381794710E+02  0.00000000000E+00 0.  1.
         11    1    3    3    0    0 -0.21201740493E+02  0.58625340361E+02  0.24139416731E+01  0.62388071350E+02  0.00000000000E+00 0. -1.
</event>
<event>
 7    1  0.5137842E-006  0.1356241E+03  0.7561462E-02  0.1219341E+00
          3   -1    0    0  501    0  0.00000000000E+00  0.00000000000E+00  0.25459467957E+03  0.25459467957E+03  0.00000000000E+00 0. -1.
         -3   -1    0    0    0  501 -0.00000000000E+00 -0.00000000000E+00 -0.97742566066E+02  0.97742566066E+02  0.00000000000E+00 0.  1.
         23    2    1    2    0    0 -0.10631796150E+03 -0.29393632227E+02  0.10268836434E+03  0.17695192767E+03  0.92733974259E+02 0.  0.
          5    1    1    2  502    0  0.10045218122E+03  0.25213933623E+01  0.86553572131E+02  0.13268757058E+03  0.41800000000E+01 0.  1.
         -5    1    1    2    0  502  0.58657802811E+01  0.26872238865E+02 -0.32389822970E+02  0.42697747387E+02  0.41800000000E+01 0.  1.
        -11    1    3    3    0    0 -0.71310687312E+02 -0.62389245076E+02  0.56811372694E+02  0.11047698445E+03  0.00000000000E+00 0. -1.
         11    1    3    3    0    0 -0.35007274190E+02  0.32995612849E+02  0.45876991644E+02  0.66474943218E+02  0.00000000000E+00 0.  1.
</event>
<event>
 7    1  0.7674082E-006  0.6848085E+02  0.7561462E-02  0.1365337E+00
          2   -1    0    0  501    0  0.00000000000E+00  0.00000000000E+00  0.55839322640E+03  0.55839322640E+03  0.00000000000E+00 0. -1.
         -2   -1    0    0    0  501 -0.00000000000E+00 -0.00000000000E+00 -0.21508102346E+02  0.21508102346E+02  0.00000000000E+00 0.  1.
         23    2    1    2    0    0 -0.25329324386E+02  0.10427592271E+02  0.20984992664E+03  0.22868910303E+03  0.86668360877E+02 0.  0.
          5    1    1    2  502    0 -0.12089927522E+02 -0.19060685612E+02  0.10849797871E+01  0.22980984849E+02  0.41800000000E+01 0. -1.
         -5    1    1    2    0  502  0.37419251907E+02  0.86330933412E+01  0.32595021763E+03  0.32823124087E+03  0.41800000000E+01 0. -1.
        -11    1    3    3    0    0 -0.25750022494E+02 -0.27369055055E+02  0.40815721093E+02  0.55480193956E+02  0.00000000000E+00 0.  1.
         11    1    3    3    0    0  0.42069810816E+00  0.37796647326E+02  0.16903420555E+03  0.17320890907E+03  0.00000000000E+00 0. -1.
</event>
<event>
 7    1  0.5137842E-006  0.1077453E+03  0.7561462E-02  0.1264803E+00
         -1   -1    0    0    0  501 -0.00000000000E+00  0.00000000000E+00  0.52567656484E+03  0.52567656484E+03  0.00000000000E+00 0.  1.
          1   -1    0    0  501    0  0.00000000000E+00 -0.00000000000E+00 -0.35983690283E+02  0.35983690283E+02  0.00000000000E+00 0. -1.
         23    2    1    2    0    0  0.55685184588E+02  0.21779441630E+02  0.93144131018E+02  0.14406113897E+03  0.92209537241E+02 0.  0.
          5    1    1    2  502    0 -0.20871909861E+02 -0.56225970787E+02  0.97558221512E+02  0.11459526778E+03  0.41800000000E+01 0. -1.
         -5    1    1    2    0  502 -0.34813274727E+02  0.34446529156E+02  0.29899052203E+03  0.30300384837E+03  0.41800000000E+01 0.  1.
        -11    1    3    3    0    0  0.11452458954E+02  0.51610242820E+02  0.64860487984E+02  0.83675915779E+02  0.00000000000E+00 0. -1.
         11    1    3    3    0    0  0.44232725634E+02 -0.29830801190E+02  0.28283643035E+02  0.60385223192E+02  0.00000000000E+00 0.  1.
</event>
<event>
 7    1  0.5137842E-006  0.1274006E+03  0.7561462E-02  0.1231365E+00
          2   -1    0    0  501    0  0.00000000000E+00  0.00000000000E+00  0.87005247166E+03  0.87005247166E+03  0.00000000000E+00 0. -1.
         -2   -1    0    0    0  501 -0.00000000000E+00 -0.00000000000E+00 -0.35478761614E+02  0.35478761614E+02  0.00000000000E+00 0.  1.
         23    2    1    2    0    0  0.81308930310E+02 -0.73884871825E+02  0.60642869100E+03  0.62310050810E+03  0.91806151671E+02 0.  0.
          5    1    1    2  502    0 -0.35339473757E+02  0.44212056878E+02  0.21969833303E+03  0.22691058661E+03  0.41800000000E+01 0. -1.
         -5    1    1    2    0  502 -0.45969456553E+02  0.29672814946E+02  0.84466860168E+01  0.55520138574E+02  0.41800000000E+01 0. -1.
        -11    1    3    3    0    0  0.94002031994E+02 -0.31830850241E+02  0.42041998497E+03  0.43197517152E+03  0.00000000000E+00 0.  1.
         11    1    3    3    0    0 -0.12693101684E+02 -0.42054021584E+02  0.18600870603E+03  0.19112533658E+03  0.00000000000E+00 0. -1.
</event>
<event>
 7    1  0.5137842E-006  0.1018051E+03  0.7561462E-02  0.1276545E+00
          3   -1    0    0  501    0  0.00000000000E+00  0.00000000000E+00  0.85240089734E+02  0.85240089734E+02  0.00000000000E+00 0. -1.
         -3   -1    0    0    0  501 -0.00000000000E+00 -0.00000000000E+00 -0.16293915938E+03  0.16293915938E+03  0.00000000000E+00 0.  1.
         23    2    1    2    0    0  0.43400639954E+01 -0.33989679507E+02 -0.45116623719E+02  0.10675728178E+03  0.90484656205E+02 0.  0.
          5    1    1    2  502    0  0.79614807766E+01 -0.49152338964E+02 -0.27693241200E+02  0.57129025985E+02  0.41800000000E+01 0. -1.
         -5    1    1    2    0  502 -0.12301544772E+02  0.83142018471E+02 -0.48892047307E+01  0.84292941354E+02  0.41800000000E+01 0.  1.
        -11    1    3    3    0    0 -0.18358060240E+02 -0.41665198274E+02  0.10037249524E+02  0.46623529478E+02  0.00000000000E+00 0. -1.
         11    1    3    3    0    0  0.22698124235E+02  0.76755187676E+01 -0.55153873242E+02  0.60133752301E+02  0.00000000000E+00 0.  1.
</event>
<event>
 7    1  0.5137842E-006  0.9314597E+02  0.7561462E-02  0.1295407E+00
         -2   -1    0    0    0  501 -0.00000000000E+00  0.00000000000E+00  0.24804363836E+03  0.24804363836E+03  0.00000000000E+00 0.  1.
          2   -1    0    0  501    0  0.00000000000E+00 -0.00000000000E+00 -0.16563338751E+03  0.16563338751E+03  0.00000000000E+00 0. -1.
         23    2    1    2    0    0 -0.10550786726E+02 -0.83704196734E+02 -0.11244650795E+03  0.16723211098E+03  0.90579523847E+02 0.  0.
          5    1    1    2  502    0 -0.16095364372E+02  0.19353869502E+02  0.17071602225E+03  0.17261247253E+03  0.41800000000E+01 0. -1.
         -5    1    1    2    0  502  0.26646151098E+02  0.64350327233E+02  0.24140736553E+02  0.73832442358E+02  0.41800000000E+01 0. -1.
        -11    1    3    3    0    0 -0.16595776645E+02 -0.16083719977E+02 -0.94114457076E+02  0.96910458060E+02  0.00000000000E+00 0. -1.
         11    1    3    3    0    0  0.60449899191E+01 -0.67620476757E+02 -0.18332050878E+02  0.70321652920E+02  0.00000000000E+00 0.  1.
</event>
<event>
 7    1  0.5137842E-006  0.1199331E+03  0.7561462E-02  0.1243208E+00
         -1   -1    0    0    0  501 -0.00000000000E+00  0.00000000000E+00  0.57703975721E+02  0.57703975721E+02  0.00000000000E+00 0.  1.
          1   -1    0    0  501    0  0.00000000000E+00 -0.00000000000E+00 -0.32074444215E+03  0.32074444215E+03  0.00000000000E+00 0. -1.
         23    2    1    2    0    0  0.40027695260E+02 -0.67790613404E+02 -0.14755255870E+03  0.19087924035E+03  0.92007299509E+02 0.  0.
          5    1    1    2  502    0 -0.70840985854E+02  0.86084926852E+02 -0.90928586009E+02  0.14392546704E+03  0.41800000000E+01 0. -1.
         -5    1    1    2    0  502  0.30813290594E+02 -0.18294313448E+02 -0.24559321716E+02  0.43643710485E+02  0.41800000000E+01 0. -1.
        -11    1    3    3    0    0  0.43593394551E+02 -0.26998866529E+02 -0.14019244061E+03  0.14927572893E+03  0.00000000000E+00 0. -1.
         11    1    3    3    0    0 -0.35656992908E+01 -0.40791746875E+02 -0.73601180959E+01  0.41603511425E+02  0.00000000000E+00 0.  1.
</event>
<event>
 7    1  0.5137842E-006  0.2237648E+03  0.7561462E-02  0.1131107E+00
          2   -1    0    0  501    0  0.00000000000E+00  0.00000000000E+00  0.17494575681E+04  0.17494575681E+04  0.00000000000E+00 0. -1.
         -2   -1    0    0    0  501 -0.00000000000E+00 -0.00000000000E+00 -0.31784196497E+02  0.31784196497E+02  0.00000000000E+00 0.  1.
         23    2    1    2    0    0 -0.20547231606E+03  0.27042031986E+02  0.94089449311E+03  0.96761830247E+03  0.89736213082E+02 0.  0.
          5    1    1    2  502    0  0.21101385972E+03 -0.33041324928E+02  0.77546910049E+03  0.80435587669E+03  0.41800000000E+01 0. -1.
         -5    1    1    2    0  502 -0.55415436537E+01  0.59992929421E+01  0.13097780226E+01  0.92675854644E+01  0.41800000000E+01 0. -1.
        -11    1    3    3    0    0 -0.21010795675E+03  0.13642460482E+02  0.90115230685E+03  0.92542257935E+03  0.00000000000E+00 0.  1.
         11    1    3    3    0    0  0.46356406858E+01  0.13399571503E+02  0.39742186260E+02  0.42195723121E+02  0.00000000000E+00 0. -1.
</event>
<event>
 7    1  0.5137842E-006  0.2019812E+03  0.7561462E-02  0.1148078E+00
         -2   -1    0    0    0  501 -0.00000000000E+00  0.00000000000E+00  0.19181502881E+03  0.19181502881E+03  0.00000000000E+00 0.  1.
          2   -1    0    0  501    0  0.00000000000E+00 -0.00000000000E+00 -0.24438776903E+03  0.24438776903E+03  0.00000000000E+00 0. -1.
         23    2    1    2    0    0 -0.17789789635E+03 -0.28654731299E+02  0.22796653127E+02  0.20425883092E+03  0.93451738686E+02 0.  0.
          5    1    1    2  502    0  0.12528005898E+03  0.76504425896E+02 -0.62255566113E+02  0.15950312935E+03  0.41800000000E+01 0.  1.
         -5    1    1    2    0  502  0.52617837376E+02 -0.47849694597E+02 -0.13113827231E+02  0.72440837570E+02  0.41800000000E+01 0.  1.
        -11    1    3    3    0    0 -0.85626561635E+02 -0.36875986777E+02  0.52476200697E+02  0.10698363472E+03  0.00000000000E+00 0.  1.
         11    1    3    3    0    0 -0.92271334720E+02  0.82212554783E+01 -0.29679547570E+02  0.97275196204E+02  0.00000000000E+00 0. -1.
</event>
<event>
 7    1  0.5137842E-006  0.1378319E+03  0.7561462E-02  0.1216276E+00
          1   -1    0    0  501    0  0.00000000000E+00  0.00000000000E+00  0.64381655743E+02  0.64381655743E+02  0.00000000000E+00 0. -1.
         -1   -1    0    0    0  501 -0.00000000000E+00 -0.00000000000E+00 -0.72225529260E+03  0.72225529260E+03  0.00000000000E+00 0.  1.
         23    2    1    2    0    0  0.15811422361E-01 -0.13325540006E+03 -0.70740993484E+02  0.17171461841E+03  0.82003781138E+02 0.  0.
          5    1    1    2  502    0 -0.24524801423E+02  0.76521624844E+02 -0.12501404783E+03  0.14867080920E+03  0.41800000000E+01 0.  1.
         -5    1    1    2    0  502  0.24508990001E+02  0.56733775215E+02 -0.46211859555E+03  0.46625152074E+03  0.41800000000E+01 0.  1.
        -11    1    3    3    0    0  0.17193328723E+00 -0.10704568146E+02 -0.45303795461E+02  0.46551597431E+02  0.00000000000E+00 0.  1.
         11    1    3    3    0    0 -0.15612186487E+00 -0.12255083191E+03 -0.25437198023E+02  0.12516302098E+03  0.00000000000E+00 0. -1.
</event>
<event>
 7    1  0.5137842E-006  0.2306185E+03  0.7561462E-02  0.1126205E+00
         -1   -1    0    0    0  501 -0.00000000000E+00  0.00000000000E+00  0.45518132634E+03  0.45518132634E+03  0.00000000000E+00 0.  1.
          1   -1    0    0  501    0  0.00000000000E+00 -0.00000000000E+00 -0.12435026061E+03  0.12435026061E+03  0.00000000000E+00 0. -1.
         23    2    1    2    0    0 -0.19951775462E+03 -0.65651094052E+02  0.17282137922E+03  0.28844805912E+03  0.96008609680E+02 0.  0.
          5    1    1    2  502    0  0.60645190600E+02  0.70445010049E+02  0.19956650789E+02  0.95163432549E+02  0.41800000000E+01 0. -1.
         -5    1    1    2    0  502  0.13887256402E+03 -0.47939159976E+01  0.13805303571E+03  0.19592009529E+03  0.41800000000E+01 0. -1.
        -11    1    3    3    0    0 -0.78511515804E+01 -0.34017828459E+02  0.40154383924E+02  0.53209282860E+02  0.00000000000E+00 0.  1.
         11    1    3    3    0    0 -0.19166660304E+03 -0.31633265593E+02  0.13266699530E+03  0.23523877626E+03  0.00000000000E+00 0. -1.
</event>
<event>
 7    1  0.5137842E-006  0.1161514E+03  0.7561462E-02  0.1249585E+00
          2   -1    0    0  501    0  0.00000000000E+00  0.00000000000E+00  0.86491461217E+03  0.86491461217E+03  0.00000000000E+00 0. -1.
         -2   -1    0    0    0  501 -0.00000000000E+00 -0.00000000000E+00 -0.19084892510E+02  0.19084892510E+02  0.00000000000E+00 0.  1.
         23    2    1    2    0    0 -0.57733909222E+02 -0.23658786097E+02  0.43534328374E+03  0.45036421583E+03  0.97011389870E+02 0.  0.
          5    1    1    2  502    0  0.17927805979E+01 -0.38284666152E+02  0.47622323942E+02  0.61272243817E+02  0.41800000000E+01 0.  1.
         -5    1    1    2    0  502  0.55941128625E+02  0.61943452249E+02  0.36286411197E+03  0.37236304503E+03  0.41800000000E+01 0.  1.
        -11    1    3    3    0    0 -0.48246193172E+02 -0.57484785962E+02  0.35213648515E+03  0.36004485824E+03  0.00000000000E+00 0.  1.
         11    1    3    3    0    0 -0.94877160506E+01  0.33825999865E+02  0.83206798599E+02  0.90319357591E+02  0.00000000000E+00 0. -1.
</event>
<event>
 7    1  0.5137842E-006  0.1106712E+03  0.7561462E-02  0.1259332E+00
          2   -1    0    0  501    0  0.00000000000E+00  0.00000000000E+00  0.13994542305E+03  0.13994542305E+03  0.00000000000E+00 0. -1.
         -2   -1    0    0    0  501 -0.00000000000E+00 -0.00000000000E+00 -0.13922065919E+03  0.13922065919E+03  0.00000000000E+00 0.  1.
         23    2    1    2    0    0  0.14332961298E+02 -0.85285255624E+02  0.89869912620E+01  0.12686492861E+03  0.92384714604E+02 0.  0.
          5    1    1    2  502    0 -0.12779776754E+02  0.45737128178E+01 -0.56439197593E+02  0.58198771188E+02  0.41800000000E+01 0.  1.
         -5    1    1    2    0  502 -0.15531845447E+01  0.80711542806E+02  0.48176970192E+02  0.94102382442E+02  0.41800000000E+01 0.  1.
        -11    1    3    3    0    0  0.43019418748E+02 -0.87530751980E+02  0.10215083685E+02  0.98064523995E+02  0.00000000000E+00 0.  1.
         11    1    3    3    0    0 -0.28686457450E+02  0.22454963564E+01 -0.12280924230E+01  0.28800404614E+02  0.00000000000E+00 0. -1.
</event>
<event>
 7    1  0.5137842E-006  0.1248800E+03  0.7561462E-02  0.1235257E+00
          1   -1    0    0  501    0  0.00000000000E+00  0.00000000000E+00  0.49512725315E+03  0.49512725315E+03  0.00000000000E+00 0. -1.
         -1   -1    0    0    0  501 -0.00000000000E+00 -0.00000000000E+00 -0.60018581265E+02  0.60018581265E+02  0.00000000000E+00 0.  1.
         23    2    1    2    0    0 -0.28147210104E+02  0.98021665314E+02  0.34343402405E+03  0.36952731217E+03  0.90570377394E+02 0.  0.
          5    1    1    2  502    0 -0.24996447780E+02 -0.39894432137E+02  0.95605788643E+02  0.10665049151E+03  0.41800000000E+01 0. -1.
         -5    1    1    2    0  502  0.53143657884E+02 -0.58127233177E+02 -0.39311408022E+01  0.78968030735E+02  0.41800000000E+01 0. -1.
        -11    1    3    3    0    0 -0.11701843891E+02 -0.93647614613E+01  0.81042364387E+01  0.17038502162E+02  0.00000000000E+00 0.  1.
         11    1    3    3    0    0 -0.16445366213E+02  0.10738642678E+03  0.33532978761E+03  0.35248881001E+03  0.00000000000E+00 0. -1.
</event>
<event>
 7    1  0.5137842E-006  0.1991797E+03  0.7561462E-02  0.1150433E+00
          1   -1    0    0  501    0  0.00000000000E+00  0.00000000000E+00  0.17356107149E+03  0.17356107149E+03  0.00000000000E+00 0. -1.
         -1   -1    0    0    0  501 -0.00000000000E+00 -0.00000000000E+00 -0.29994334333E+03  0.29994334333E+03  0.00000000000E+00 0.  1.
         23    2    1    2    0    0 -0.59402306918E+02  0.71152842591E+02 -0.13996094351E+02  0.13020292404E+03  0.90363431184E+02 0.  0.
          5    1    1    2  502    0  0.61832204979E+02  0.10040563402E+03  0.28350816928E+02  0.12134971832E+03  0.41800000000E+01 0. -1.
         -5    1    1    2    0  502 -0.24298980607E+01 -0.17155847661E+03 -0.14073699441E+03  0.22195177246E+03  0.41800000000E+01 0.  1.
        -11    1    3    3    0    0 -0.47227994291E+02  0.12522071660E+02 -0.41688924269E+02  0.64228125693E+02  0.00000000000E+00 0. -1.
         11    1    3    3    0    0 -0.12174312627E+02  0.58630770931E+02  0.27692829918E+02  0.65974798346E+02  0.00000000000E+00 0.  1.
</event>
<event>
 7    1  0.5137842E-006  0.8330676E+02  0.7561462E-02  0.1319921E+00
          1   -1    0    0  501    0  0.00000000000E+00  0.00000000000E+00  0.59300807377E+02  0.59300807377E+02  0.00000000000E+00 0. -1.
         -1   -1    0    0    0  501 -0.00000000000E+00 -0.00000000000E+00 -0.22381773002E+03  0.22381773002E+03  0.00000000000E+00 0.  1.
         23    2    1    2    0    0  0.11146677862E+02 -0.52181780070E+01 -0.23907639431E+02  0.94520289326E+02  0.90614745280E+02 0.  0.
          5    1    1    2  502    0 -0.17021470683E+02 -0.32811079935E+02  0.53608744997E+01  0.37583358100E+02  0.41800000000E+01 0. -1.
         -5    1    1    2    0  502  0.58747928212E+01  0.38029257941E+02 -0.14597015771E+03  0.15101488997E+03  0.41800000000E+01 0. -1.
        -11    1    3    3    0    0 -0.19677962139E+02  0.34929835001E+02 -0.46328371754E+01  0.40358131119E+02  0.00000000000E+00 0.  1.
         11    1    3    3    0    0  0.30824640001E+02 -0.40148013008E+02 -0.19274802256E+02  0.54162158207E+02  0.00000000000E+00 0. -1.
</event>
<event>
 7    1  0.5137842E-006  0.2515405E+03  0.7561462E-02  0.1112335E+00
          1   -1    0    0  501    0  0.00000000000E+00  0.00000000000E+00  0.81847622284E+03  0.81847622284E+03  0.00000000000E+00 0. -1.
         -1   -1    0    0    0  501 -0.00000000000E+00 -0.00000000000E+00 -0.23535701769E+03  0.23535701769E+03  0.00000000000E+00 0.  1.
         23    2    1    2    0    0 -0.54889226248E+01  0.24224266749E+03  0.70800297496E+03  0.75390768638E+03  0.91634866816E+02 0.  0.
          5    1    1    2  502    0  0.38968935189E+02 -0.20431774668E+03 -0.58029966303E+02  0.21598441820E+03  0.41800000000E+01 0. -1.
         -5    1    1    2    0  502 -0.33480012564E+02 -0.37924920809E+02 -0.66853803505E+02  0.83941135940E+02  0.41800000000E+01 0. -1.
        -11    1    3    3    0    0 -0.16833619869E+02  0.86559425680E+02  0.14538815046E+03  0.17004005183E+03  0.00000000000E+00 0.  1.
         11    1    3    3    0    0  0.11344697244E+02  0.15568324180E+03  0.56261482450E+03  0.58386763456E+03  0.00000000000E+00 0. -1.
</event>
<event>
 7    1  0.5137842E-006  0.1290873E+03  0.7561462E-02  0.1228816E+00
          2   -1    0    0  501    0  0.00000000000E+00  0.00000000000E+00  0.47915906431E+03  0.47915906431E+03  0.00000000000E+00 0. -1.
         -2   -1    0    0    0  501 -0.00000000000E+00 -0.00000000000E+00 -0.57706756899E+02  0.57706756899E+02  0.00000000000E+00 0.  1.
         23    2    1    2    0    0 -0.12070281754E+02 -0.14895934822E+02  0.32979966039E+03  0.34100229426E+03  0.84540925737E+02 0.  0.
          5    1    1    2  502    0  0.13102980750E+02 -0.78235293908E+02  0.49063950021E+02  0.93365908709E+02  0.41800000000E+01 0. -1.
         -5    1    1    2    0  502 -0.10326989959E+01  0.93131228730E+02  0.42588697002E+02  0.10249761824E+03  0.41800000000E+01 0.  1.
        -11    1    3    3    0    0 -0.48134929766E+02 -0.82399920942E+01  0.21546446486E+03  0.22092941079E+03  0.00000000000E+00 0. -1.
         11    1    3    3    0    0  0.36064648011E+02 -0.66559427280E+01  0.11433519553E+03  0.12007288348E+03  0.00000000000E+00 0.  1.
</event>
<event>
 7    1  0.5137842E-006  0.3461642E+03  0.7561462E-02  0.1064200E+00
          2   -1    0    0  501    0  0.00000000000E+00  0.00000000000E+00  0.90345095485E+03  0.90345095485E+03  0.00000000000E+00 0. -1.
         -2   -1    0    0    0  501 -0.00000000000E+00 -0.00000000000E+00 -0.33781761773E+03  0.33781761773E+03  0.00000000000E+00 0.  1.
         23    2    1    2    0    0  0.97400257952E+02 -0.24121285310E+03  0.71739218264E+03  0.76851277719E+03  0.91048856293E+02 0.  0.
          5    1    1    2  502    0 -0.80902517150E+02 -0.72860220245E+02 -0.11109109230E+03  0.15560376655E+03  0.41800000000E+01 0. -1.
         -5    1    1    2    0  502 -0.16497740802E+02  0.31407307334E+03 -0.40667753217E+02  0.31715202885E+03  0.41800000000E+01 0.  1.
        -11    1    3    3    0    0  0.47169490619E+02 -0.41244314017E+02  0.24875627815E+03  0.25652629534E+03  0.00000000000E+00 0.  1.
         11    1    3    3    0    0  0.50230767333E+02 -0.19996853908E+03  0.46863590449E+03  0.51198648184E+03  0.00000000000E+00 0. -1.
</event>
<event>
 7    1  0.5137842E-006  0.2249737E+03  0.7561462E-02  0.1130228E+00
          1   -1    0    0  501    0  0.00000000000E+00  0.00000000000E+00  0.37999894562E+03  0.37999894562E+03  0.00000000000E+00 0. -1.
         -1   -1    0    0    0  501 -0.00000000000E+00 -0.00000000000E+00 -0.15434166424E+03  0.15434166424E+03  0.00000000000E+00 0.  1.
         23    2    1    2    0    0 -0.40928042073E+02 -0.20027878801E+03  0.32467758668E+02  0.22651661569E+03  0.92026758475E+02 0.  0.
          5    1    1    2  502    0 -0.84454105600E+01  0.16468223897E+03  0.18229776592E+03  0.24584855633E+03  0.41800000000E+01 0.  1.
         -5    1    1    2    0  502  0.49373452633E+02  0.35596549046E+02  0.10891756782E+02  0.61975437834E+02  0.41800000000E+01 0.  1.
        -11    1    3    3    0    0 -0.70507857789E+02 -0.13446658155E+03  0.26386970400E+02  0.15410675446E+03  0.00000000000E+00 0. -1.
         11    1    3    3    0    0  0.29579815716E+02 -0.65812206467E+02  0.60807882673E+01  0.72409861233E+02  0.00000000000E+00 0.  1.
</event>
<event>
 7    1  0.5137842E-006  0.1265397E+03  0.7561462E-02  0.1232682E+00
         -1   -1    0    0    0  501 -0.00000000000E+00  0.00000000000E+00  0.75904450142E+02  0.75904450142E+02  0.00000000000E+00 0.  1.
          1   -1    0    0  501    0  0.00000000000E+00 -0.00000000000E+00 -0.24204359294E+03  0.24204359294E+03  0.00000000000E+00 0. -1.
         23    2    1    2    0    0 -0.64989538228E+02 -0.41474369059E+02 -0.99809384569E+02  0.15673206155E+03  0.93055158378E+02 0.  0.
          5    1    1    2  502    0 -0.36272624842E+02  0.96030366771E+01 -0.38154670049E+01  0.37946697021E+02  0.41800000000E+01 0. -1.
         -5    1    1    2    0  502  0.10126216307E+03  0.31871332382E+02 -0.62514291225E+02  0.12326928451E+03  0.41800000000E+01 0. -1.
        -11    1    3    3    0    0 -0.46704347063E+02 -0.64529269930E+02 -0.37960775576E+02  0.88240258355E+02  0.00000000000E+00 0. -1.
         11    1    3    3    0    0 -0.18285191165E+02  0.23054900871E+02 -0.61848608993E+02  0.68491803192E+02  0.00000000000E+00 0.  1.
</event>
<event>
 7    1  0.5137842E-006  0.9476642E+02  0.7561462E-02  0.1291703E+00
         -2   -1    0    0    0  501 -0.00000000000E+00  0.00000000000E+00  0.33483215499E+03  0.33483215499E+03  0.00000000000E+00 0.  1.
          2   -1    0    0  501    0  0.00000000000E+00 -0.00000000000E+00 -0.61166744144E+02  0.61166744144E+02  0.00000000000E+00 0. -1.
         23    2    1    2    0    0 -0.31774948421E+02 -0.57671457181E+02  0.32513180144E+02  0.11646826909E+03  0.90399704099E+02 0.  0.
          5    1    1    2  502    0  0.43909333577E+02  0.63103772189E+02  0.25094998824E+03  0.26249473259E+03  0.41800000000E+01 0.  1.
         -5    1    1    2    0  502 -0.12134385156E+02 -0.54323150082E+01 -0.97977575355E+01  0.17035897458E+02  0.41800000000E+01 0.  1.
        -11    1    3    3    0    0  0.24050609518E+02 -0.15072994247E+02  0.36376947602E+02  0.46140105013E+02  0.00000000000E+00 0.  1.
         11    1    3    3    0    0 -0.55825557939E+02 -0.42598462933E+02 -0.38637674579E+01  0.70328164077E+02  0.00000000000E+00 0. -1.
</event>
<event>
 7    1  0.5137842E-006  0.1141704E+03  0.7561462E-02  0.1253036E+00
         -2   -1    0    0    0  501 -0.00000000000E+00  0.00000000000E+00  0.27815233889E+03  0.27815233889E+03  0.00000000000E+00 0.  1.
          2   -1    0    0  501    0  0.00000000000E+00 -0.00000000000E+00 -0.78776534854E+02  0.78776534854E+02  0.00000000000E+00 0. -1.
         23    2    1    2    0    0 -0.55523073431E+02  0.45916974761E+02  0.10757657074E+03  0.15805608855E+03  0.90652238257E+02 0.  0.
          5    1    1    2  502    0  0.50930175018E+02  0.13461246373E+02 -0.31754019621E+02  0.61651261491E+02  0.41800000000E+01 0. -1.
         -5    1    1    2    0  502  0.45928984127E+01 -0.59378221134E+02  0.12355325292E+03  0.13722152370E+03  0.41800000000E+01 0.  1.
        -11    1    3    3    0    0 -0.31840807416E+02 -0.25347224104E+02  0.38371601982E+02  0.55934771165E+02  0.00000000000E+00 0.  1.
         11    1    3    3    0    0 -0.23682266015E+02  0.71264198865E+02  0.69204968755E+02  0.10212131738E+03  0.00000000000E+00 0. -1.
</event>
<event>
 7    1  0.5137842E-006  0.8751486E+02  0.7561462E-02  0.1308984E+00
          2   -1    0    0  501    0  0.00000000000E+00  0.00000000000E+00  0.19052438337E+03  0.19052438337E+03  0.00000000000E+00 0. -1.
         -2   -1    0    0    0  501 -0.00000000000E+00 -0.00000000000E+00 -0.79685657964E+02  0.79685657964E+02  0.00000000000E+00 0.  1.
         23    2    1    2    0    0 -0.29255289808E+02 -0.36470737380E+02  0.85321901388E+02  0.13425837695E+03  0.92517556483E+02 0.  0.
          5    1    1    2  502    0 -0.42325480657E+02  0.17833344786E+02  0.39303301949E+02  0.60594524862E+02  0.41800000000E+01 0.  1.
         -5    1    1    2    0  502  0.71580770465E+02  0.18637392594E+02 -0.13786477933E+02  0.75357139522E+02  0.41800000000E+01 0.  1.
        -11    1    3    3    0    0 -0.25756313221E+02 -0.92287079651E+01 -0.14333751664E+02  0.30887103429E+02  0.00000000000E+00 0.  1.
         11    1    3    3    0    0 -0.34989765864E+01 -0.27242029415E+02  0.99655653052E+02  0.10337127352E+03  0.00000000000E+00 0. -1.
</event>
<event>
 7    1  0.5137842E-006  0.1452111E+03  0.7561462E-02  0.1206484E+00
         -2   -1    0    0    0  501 -0.00000000000E+00  0.00000000000E+00  0.71221544284E+02  0.71221544284E+02  0.00000000000E+00 0.  1.
          2   -1    0    0  501    0  0.00000000000E+00 -0.00000000000E+00 -0.36692098723E+03  0.36692098723E+03  0.00000000000E+00 0. -1.
         23    2    1    2    0    0 -0.31338018711E+02  0.11561060534E+03 -0.12937651139E+03  0.19801791155E+03  0.90138383130E+02 0.  0.
          5    1    1    2  502    0  0.21589175236E+02  0.16488100651E+02 -0.73100688363E+02  0.78096946097E+02  0.41800000000E+01 0.  1.
         -5    1    1    2    0  502  0.97488434746E+01 -0.13209870599E+03 -0.93222243193E+02  0.16202767387E+03  0.41800000000E+01 0.  1.
        -11    1    3    3    0    0 -0.26414997943E+02  0.16423964428E+02  0.43948438177E+01  0.31413585851E+02  0.00000000000E+00 0.  1.
         11    1    3    3    0    0 -0.49230207680E+01  0.99186640908E+02 -0.13377135521E+03  0.16660432570E+03  0.00000000000E+00 0. -1.
</event>
<event>
 7    1  0.5137842E-006  0.1061826E+03  0.7561462E-02  0.1267807E+00
         -1   -1    0    0    0  501 -0.00000000000E+00  0.00000000000E+00  0.45613868872E+03  0.45613868872E+03  0.00000000000E+00 0.  1.
          1   -1    0    0  501    0  0.00000000000E+00 -0.00000000000E+00 -0.26822906857E+02  0.26822906857E+02  0.00000000000E+00 0. -1.
         23    2    1    2    0    0  0.12726356484E+01  0.36491799936E+01  0.13650817210E+03  0.16452844100E+03  0.91761597262E+02 0.  0.
          5    1    1    2  502    0 -0.44703053561E+02 -0.45843476417E+02  0.13963128545E+03  0.15366963136E+03  0.41800000000E+01 0. -1.
         -5    1    1    2    0  502  0.43430417913E+02  0.42194296424E+02  0.15317632431E+03  0.16476352321E+03  0.41800000000E+01 0. -1.
        -11    1    3    3    0    0 -0.89844794622E+01 -0.40854724173E+02  0.40564114071E+02  0.58269002984E+02  0.00000000000E+00 0. -1.
         11    1    3    3    0    0  0.10257115111E+02  0.44503904167E+02  0.95944058032E+02  0.10625943802E+03  0.00000000000E+00 0.  1.
</event>
<event>
 7    1  0.5137842E-006  0.8611635E+02  0.7561462E-02  0.1312539E+00
         -1   -1    0    0    0  501 -0.00000000000E+00  0.00000000000E+00  0.10347588382E+03  0.10347588382E+03  0.00000000000E+00 0.  1.
          1   -1    0    0  501    0  0.00000000000E+00 -0.00000000000E+00 -0.13312046947E+03  0.13312046947E+03  0.00000000000E+00 0. -1.
         23    2    1    2    0    0  0.11219189028E+02  0.19878788421E+02 -0.52035794754E+02  0.10746517501E+03  0.91214053047E+02 0.  0.
          5    1    1    2  502    0  0.80836870228E+01  0.49282326847E+02 -0.85372291526E+01  0.50837490270E+02  0.41800000000E+01 0. -1.
         -5    1    1    2    0  502 -0.19302876051E+02 -0.69161115268E+02  0.30928438258E+02  0.78293688009E+02  0.41800000000E+01 0. -1.
        -11    1    3    3    0    0 -0.18942200825E+01 -0.13862509849E+02  0.21413774891E+02  0.25579425407E+02  0.00000000000E+00 0.  1.
         11    1    3    3    0    0  0.13113409110E+02  0.33741298271E+02 -0.73449569645E+02  0.81885749606E+02  0.00000000000E+00 0. -1.
</event>
<event>
 7    1  0.5137842E-006  0.9804931E+02  0.7561462E-02  0.1284452E+00
         -1   -1    0    0    0  501 -0.00000000000E+00  0.00000000000E+00  0.34793155666E+03  0.34793155666E+03  0.00000000000E+00 0.  1.
          1   -1    0    0  501    0  0.00000000000E+00 -0.00000000000E+00 -0.48745997103E+02  0.48745997103E+02  0.00000000000E+00 0. -1.
         23    2    1    2    0    0  0.23310413255E+00  0.19397822763E+02  0.25434245553E+02  0.95075988520E+02  0.89533305986E+02 0.  0.
          5    1    1    2  502    0  0.39160139044E+02 -0.58760776878E+02  0.15370068768E+03  0.16919727888E+03  0.41800000000E+01 0. -1.
         -5    1    1    2    0  502 -0.39393243176E+02  0.39362954115E+02  0.12005062633E+03  0.13240428636E+03  0.41800000000E+01 0. -1.
        -11    1    3    3    0    0  0.15986449707E+02 -0.20862109055E+02 -0.19495757140E+02  0.32724283261E+02  0.00000000000E+00 0. -1.
         11    1    3    3    0    0 -0.15753345574E+02  0.40259931818E+02  0.44930002693E+02  0.62351705260E+02  0.00000000000E+00 0.  1.
</event>
<event>
 7    1  0.5137842E-006  0.1218923E+03  0.7561462E-02  0.1240008E+00
         -2   -1    0    0    0  501 -0.00000000000E+00  0.00000000000E+00  0.22817935844E+02  0.22817935844E+02  0.00000000000E+00 0.  1.
          2   -1    0    0  501    0  0.00000000000E+00 -0.00000000000E+00 -0.71161286636E+03  0.71161286636E+03  0.00000000000E+00 0. -1.
         23    2    1    2    0    0 -0.82876700642E+01  0.64580243945E+02 -0.37657655697E+03  0.39184273637E+03  0.86553644646E+02 0.  0.
          5    1    1    2  502    0  0.17496396248E+02 -0.10051816046E+03 -0.20438511504E+03  0.22847488290E+03  0.41800000000E+01 0. -1.
         -5    1    1    2    0  502 -0.92087261833E+01  0.35937916514E+02 -0.10783325850E+03  0.11411318294E+03  0.41800000000E+01 0. -1.
        -11    1    3    3    0    0  0.45560738127E+01  0.82313668571E+02 -0.33327618177E+03  0.34332100311E+03  0.00000000000E+00 0.  1.
         11    1    3    3    0    0 -0.12843743877E+02 -0.17733424626E+02 -0.43300375208E+02  0.48521733264E+02  0.00000000000E+00 0. -1.
</event>
<event>
 6    1  0.5137842E-006  0.1563917E+03  0.7561462E-02  0.1192832E+00
          1   -1    0    0  501    0  0.00000000000E+00  0.00000000000E+00  0.70543327079E+03  0.70543327079E+03  0.00000000000E+00 0. -1.
         -1   -1    0    0    0  501 -0.00000000000E+00 -0.00000000000E+00 -0.10225448194E+03  0.10225448194E+03  0.00000000000E+00 0.  1.
          5    1    1    2  502    0  0.38985613877E+02  0.21611580763E+02 -0.27857260083E+02  0.52729857308E+02  0.41800000000E+01 0.  1.
         -5    1    1    2    0  502 -0.36493623204E+02 -0.80531146064E+02 -0.87631531991E+00  0.88517175449E+02  0.41800000000E+01 0.  1.
        -11    1    1    2    0    0 -0.80672186056E+02  0.61242786560E+02  0.16946830349E+03  0.19742894012E+03  0.00000000000E+00 0.  1.
         11    1    1    2    0    0  0.78180195383E+02 -0.23232212591E+01  0.46244406076E+03  0.46901177985E+03  0.00000000000E+00 0. -1.
</event>
<event>
 7    1  0.5137842E-006  0.7623041E+02  0.7561462E-02  0.1340103E+00
         -2   -1    0    0    0  501 -0.00000000000E+00  0.00000000000E+00  0.22813817916E+03  0.22813817916E+03  0.00000000000E+00 0.  1.
          2   -1    0    0  501    0  0.00000000000E+00 -0.00000000000E+00 -0.65531489841E+02  0.65531489841E+02  0.00000000000E+00 0. -1.
         23    2    1    2    0    0  0.16689960997E+02  0.46331383130E+02  0.21752873448E+02  0.10522508769E+03  0.90410064242E+02 0.  0.
          5    1    1    2  502    0 -0.32002800948E+02 -0.43390067719E+02  0.80617677689E+01  0.54674873066E+02  0.41800000000E+01 0. -1.
         -5    1    1    2    0  502  0.15312839951E+02 -0.29413154104E+01  0.13279204810E+03  0.13376970824E+03  0.41800000000E+01 0.  1.
        -11    1    3    3    0    0  0.23369432165E+02 -0.10068563373E+02  0.38378124214E+02  0.46047657338E+02  0.00000000000E+00 0.  1.
         11    1    3    3    0    0 -0.66794711681E+01  0.56399946503E+02 -0.16625250766E+02  0.59177430357E+02  0.00000000000E+00 0. -1.
</event>
<event>
 7    1  0.5137842E-006  0.1424835E+03  0.7561462E-02  0.1210026E+00
         -1   -1    0    0    0  501 -0.00000000000E+00  0.00000000000E+00  0.91816870043E+02  0.91816870043E+02  0.00000000000E+00 0.  1.
          1   -1    0    0  501    0  0.00000000000E+00 -0.00000000000E+00 -0.34983323709E+03  0.34983323709E+03  0.00000000000E+00 0. -1.
         23    2    1    2    0    0 -0.84005122519E+02  0.85247171372E+02 -0.22420541584E+03  0.26526541453E+03  0.75985069701E+02 0.  0.
          5    1    1    2  502    0  0.63116395405E+02 -0.10361950216E+03  0.12663499966E+02  0.12205948233E+03  0.41800000000E+01 0.  1.
         -5    1    1    2    0  502  0.20888727113E+02  0.18372330785E+02 -0.46474451168E+02  0.54325210264E+02  0.41800000000E+01 0.  1.
        -11    1    3    3    0    0 -0.80848395288E+02  0.40224560116E+02 -0.18337594720E+03  0.20440454072E+03  0.00000000000E+00 0. -1.
         11    1    3    3    0    0 -0.31567272308E+01  0.45022611256E+02 -0.40829468646E+02  0.60860873811E+02  0.00000000000E+00 0.  1.
</event>
<event>
 7    1  0.5137842E-006  0.9625113E+02  0.7561462E-02  0.1288383E+00
          1   -1    0    0  501    0  0.00000000000E+00  0.00000000000E+00  0.77386255100E+02  0.77386255100E+02  0.00000000000E+00 0. -1.
         -1   -1    0    0    0  501 -0.00000000000E+00 -0.00000000000E+00 -0.17416833994E+03  0.17416833994E+03  0.00000000000E+00 0.  1.
         23    2    1    2    0    0 -0.11027852304E+02  0.41163859611E+02 -0.32789476720E+02  0.10468450519E+03  0.89819925292E+02 0.  0.
          5    1    1    2  502    0 -0.53648000909E+02 -0.17395696646E+02 -0.62959348213E+01  0.56901928426E+02  0.41800000000E+01 0.  1.
         -5    1    1    2    0  502  0.64675853214E+02 -0.23768162965E+02 -0.57696673302E+02  0.89968161423E+02  0.41800000000E+01 0.  1.
        -11    1    3    3    0    0  0.92594227129E+01 -0.89350239834E+01 -0.47055317443E+02  0.48782932079E+02  0.00000000000E+00 0.  1.
         11    1    3    3    0    0 -0.20287275017E+02  0.50098883594E+02  0.14265840724E+02  0.55901573114E+02  0.00000000000E+00 0. -1.
</event>
<event>
 7    1  0.5137842E-006  0.2174656E+03  0.7561462E-02  0.1135787E+00
         -1   -1    0    0    0  501 -0.00000000000E+00  0.00000000000E+00  0.14987956603E+03  0.14987956603E+03  0.00000000000E+00 0.  1.
          1   -1    0    0  501    0  0.00000000000E+00 -0.00000000000E+00 -0.35023190144E+03  0.35023190144E+03  0.00000000000E+00 0. -1.
         23    2    1    2    0    0  0.15454772969E+02  0.20048377449E+03 -0.94455446424E+02  0.24070046795E+03  0.92640650212E+02 0.  0.
          5    1    1    2  502    0  0.34767534341E+02 -0.15024843952E+02 -0.42405126410E+02  0.57010477333E+02  0.41800000000E+01 0. -1.
         -5    1    1    2    0  502 -0.50222307310E+02 -0.18545893054E+03 -0.63491762577E+02  0.20240052219E+03  0.41800000000E+01 0. -1.
        -11    1    3    3    0    0  0.28164685066E+02  0.12924633150E+03 -0.10325120992E+03  0.16780547084E+03  0.00000000000E+00 0. -1.
         11    1    3    3    0    0 -0.12709912097E+02  0.71237442987E+02  0.87957635004E+01  0.72894997115E+02  0.00000000000E+00 0.  1.
</event>
<event>
 7    1  0.5137842E-006  0.1472911E+03  0.7561462E-02  0.1203842E+00
          2   -1    0    0  501    0  0.00000000000E+00  0.00000000000E+00  0.25066913120E+03  0.25066913120E+03  0.00000000000E+00 0.  1.
         -2   -1    0    0    0  501 -0.00000000000E+00 -0.00000000000E+00 -0.14100276171E+03  0.14100276171E+03  0.00000000000E+00 0. -1.
         23    2    1    2    0    0 -0.96789011253E+02  0.40868597893E+02  0.16809652303E+03  0.21818050071E+03  0.91147873503E+02 0.  0.
          5    1    1    2  502    0  0.16448870712E+02 -0.73311068638E+02 -0.16025731496E+02  0.76937472031E+02  0.41800000000E+01 0. -1.
         -5    1    1    2    0  502  0.80340140541E+02  0.32442470745E+02 -0.42404422040E+02  0.96553920163E+02  0.41800000000E+01 0. -1.
        -11    1    3    3    0    0 -0.55438666717E+02 -0.20057188491E+02  0.10837531305E+03  0.12337319424E+03  0.00000000000E+00 0. -1.
         11    1    3    3    0    0 -0.41350344535E+02  0.60925786385E+02  0.59721209975E+02  0.94807306473E+02  0.00000000000E+00 0.  1.
</event>
<event>
 7    1  0.5137842E-006  0.6557643E+02  0.7561462E-02  0.1375816E+00
         -1   -1    0    0    0  501 -0.00000000000E+00  0.00000000000E+00  0.32890036639E+02  0.32890036639E+02  0.00000000000E+00 0.  1.
          1   -1    0    0  501    0  0.00000000000E+00 -0.00000000000E+00 -0.33209447520E+03  0.33209447520E+03  0.00000000000E+00 0. -1.
         23    2    1    2    0    0  0.20860495731E+02  0.16083695948E+01 -0.15245323815E+03  0.17102290622E+03  0.74626386043E+02 0.  0.
          5    1    1    2  502    0 -0.45432831654E+01  0.26347215721E+02  0.13625470084E+02  0.30297574707E+02  0.41800000000E+01 0. -1.
         -5    1    1    2    0  502 -0.16317212566E+02 -0.27955585315E+02 -0.16037667050E+03  0.16366403092E+03  0.41800000000E+01 0. -1.
        -11    1    3    3    0    0 -0.23872816891E+02  0.10100734065E+02 -0.90488012044E+02  0.94127660859E+02  0.00000000000E+00 0. -1.
         11    1    3    3    0    0  0.44733312622E+02 -0.84923644702E+01 -0.61965226103E+02  0.76895245356E+02  0.00000000000E+00 0.  1.
</event>
<event>
 7    1  0.5137842E-006  0.1217582E+03  0.7561462E-02  0.1240224E+00
         -3   -1    0    0    0  501 -0.00000000000E+00  0.00000000000E+00  0.18235724053E+02  0.18235724053E+02  0.00000000000E+00 0.  1.
          3   -1    0    0  501    0  0.00000000000E+00 -0.00000000000E+00 -0.87324058739E+03  0.87324058739E+03  0.00000000000E+00 0. -1.
         23    2    1    2    0    0  0.61904879257E+02  0.86654186527E+01 -0.35275639087E+03  0.37012671301E+03  0.93002197972E+02 0.  0.
          5    1    1    2  502    0 -0.97559551677E+02 -0.27847017237E+01 -0.29013881292E+03  0.30614314275E+03  0.41800000000E+01 0.  1.
         -5    1    1    2    0  502  0.35654672420E+02 -0.58807169290E+01 -0.21210965954E+03  0.21520645568E+03  0.41800000000E+01 0.  1.
        -11    1    3    3    0    0  0.39195217730E+02  0.49250526948E+02 -0.16239404032E+03  0.17416573667E+03  0.00000000000E+00 0.  1.
         11    1    3    3    0    0  0.22709661528E+02 -0.40585108296E+02 -0.19036235055E+03  0.19596097634E+03  0.00000000000E+00 0. -1.
</event>
<event>
 7    1  0.5137842E-006  0.1796065E+03  0.7561462E-02  0.1168184E+00
         -1   -1    0    0    0  501 -0.00000000000E+00  0.00000000000E+00  0.99223143161E+02  0.99223143161E+02  0.00000000000E+00 0.  1.
          1   -1    0    0  501    0  0.00000000000E+00 -0.00000000000E+00 -0.37227928461E+03  0.37227928461E+03  0.00000000000E+00 0. -1.
         23    2    1    2    0    0 -0.14094716899E+03  0.72825853259E+02 -0.13227276162E+03  0.22525492448E+03  0.89855373711E+02 0.  0.
          5    1    1    2  502    0 -0.15520445346E+02 -0.36492491415E+02 -0.16709000786E+02  0.43234815377E+02  0.41800000000E+01 0. -1.
         -5    1    1    2    0  502  0.15646761434E+03 -0.36333361845E+02 -0.12407437904E+03  0.20301268792E+03  0.41800000000E+01 0. -1.
        -11    1    3    3    0    0 -0.62647172243E+02  0.31843544074E+02 -0.51952057226E+01  0.70467507773E+02  0.00000000000E+00 0.  1.
         11    1    3    3    0    0 -0.78299996751E+02  0.40982309185E+02 -0.12707755590E+03  0.15478741670E+03  0.00000000000E+00 0. -1.
</event>
<event>
 7    1  0.5137842E-006  0.5976039E+02  0.7561462E-02  0.1398840E+00
         -2   -1    0    0    0  501 -0.00000000000E+00  0.00000000000E+00  0.23572504464E+03  0.23572504464E+03  0.00000000000E+00 0.  1.
          2   -1    0    0  501    0  0.00000000000E+00 -0.00000000000E+00 -0.52991046184E+02  0.52991046184E+02  0.00000000000E+00 0. -1.
         23    2    1    2    0    0 -0.10101589792E+02 -0.10154058283E+02  0.48547852513E+02  0.10470941162E+03  0.91662532593E+02 0.  0.
          5    1    1    2  502    0  0.34098480236E+02 -0.15644619161E+02 -0.70335509714E+01  0.38397964821E+02  0.41800000000E+01 0. -1.
         -5    1    1    2    0  502 -0.23996890444E+02  0.25798677445E+02  0.14121969692E+03  0.14560871439E+03  0.41800000000E+01 0. -1.
        -11    1    3    3    0    0 -0.21515243357E+02 -0.21344964110E+02  0.70971492255E+02  0.77171665153E+02  0.00000000000E+00 0.  1.
         11    1    3    3    0    0  0.11413653565E+02  0.11190905827E+02 -0.22423639742E+02  0.27537746463E+02  0.00000000000E+00 0. -1.
</event>
<event>
 7    1  0.5137842E-006  0.9993471E+02  0.7561462E-02  0.1280433E+00
          2   -1    0    0  501    0  0.00000000000E+00  0.00000000000E+00  0.79547614949E+02  0.79547614949E+02  0.00000000000E+00 0.  1.
         -2   -1    0    0    0  501 -0.00000000000E+00 -0.00000000000E+00 -0.26090908492E+03  0.26090908492E+03  0.00000000000E+00 0. -1.
         23    2    1    2    0    0  0.24017797196E+02 -0.50220143827E+02  0.58154781346E+01  0.10859308658E+03  0.93057623223E+02 0.  0.
          5    1    1    2  502    0 -0.72007271989E+02  0.11789120983E+02 -0.12162145132E+03  0.14189179121E+03  0.41800000000E+01 0. -1.
         -5    1    1    2    0  502  0.47989474793E+02  0.38431022844E+02 -0.65555496784E+02  0.89971822069E+02  0.41800000000E+01 0. -1.
        -11    1    3    3    0    0  0.30507274866E+02 -0.25991546461E+02 -0.39833899422E+02  0.56506582363E+02  0.00000000000E+00 0. -1.
         11    1    3    3    0    0 -0.64894776695E+01 -0.24228597366E+02  0.45649377557E+02  0.52086504222E+02  0.00000000000E+00 0.  1.
</event>
<event>
 7    1  0.5137842E-006  0.1533219E+03  0.7561462E-02  0.1196450E+00
         -2   -1    0    0    0  501 -0.00000000000E+00  0.00000000000E+00  0.41515629241E+02  0.41515629241E+02  0.00000000000E+00 0.  1.
          2   -1    0    0  501    0  0.00000000000E+00 -0.00000000000E+00 -0.76907126171E+03  0.76907126171E+03  0.00000000000E+00 0. -1.
         23    2    1    2    0    0 -0.10533636971E+03 -0.43744115060E+02 -0.53353775852E+03  0.55307702645E+03  0.90677224453E+02 0.  0.
          5    1    1    2  502    0 -0.24553374563E+02  0.85611585175E+01 -0.68707514681E+02  0.73582311809E+02  0.41800000000E+01 0.  1.
         -5    1    1    2    0  502  0.12988974427E+03  0.35182956543E+02 -0.12531035926E+03  0.18392755269E+03  0.41800000000E+01 0.  1.
        -11    1    3    3    0    0 -0.69809551932E+02  0.20067616667E+02 -0.27246660387E+03  0.28198250479E+03  0.00000000000E+00 0.  1.
         11    1    3    3    0    0 -0.35526817779E+02 -0.63811731727E+02 -0.26107115465E+03  0.27109452167E+03  0.00000000000E+00 0. -1.
</event>
<event>
 7    1  0.5137842E-006  0.9567111E+02  0.7561462E-02  0.1289672E+00
          1   -1    0    0  501    0  0.00000000000E+00  0.00000000000E+00  0.11525606547E+03  0.11525606547E+03  0.00000000000E+00 0. -1.
         -1   -1    0    0    0  501 -0.00000000000E+00 -0.00000000000E+00 -0.11130575064E+03  0.11130575064E+03  0.00000000000E+00 0.  1.
         23    2    1    2    0    0 -0.13705594732E+02  0.21914060416E+02  0.21993029689E+02  0.97562174815E+02  0.91469203719E+02 0.  0.
          5    1    1    2  502    0 -0.28864228314E+02 -0.61955453973E+02 -0.16259756564E+02  0.70380920970E+02  0.41800000000E+01 0. -1.
         -5    1    1    2    0  502  0.42569823046E+02  0.40041393556E+02 -0.17829583011E+01  0.58618720324E+02  0.41800000000E+01 0. -1.
        -11    1    3    3    0    0  0.21421680054E+02 -0.23952494627E+01  0.44376610857E+02  0.49334665170E+02  0.00000000000E+00 0. -1.
         11    1    3    3    0    0 -0.35127274785E+02  0.24309309879E+02 -0.22383581168E+02  0.48227509645E+02  0.00000000000E+00 0.  1.
</event>
<event>
 7    1  0.5137842E-006  0.1019016E+03  0.7561462E-02  0.1276347E+00
          2   -1    0    0  501    0  0.00000000000E+00  0.00000000000E+00  0.81623224471E+02  0.81623224471E+02  0.00000000000E+00 0. -1.
         -2   -1    0    0    0  501 -0.00000000000E+00 -0.00000000000E+00 -0.24143306558E+03  0.24143306558E+03  0.00000000000E+00 0.  1.
         23    2    1    2    0    0  0.55610646354E+02  0.37726697870E+02 -0.46979246830E+01  0.11276579700E+03  0.90433438266E+02 0.  0.
          5    1    1    2  502    0  0.34114222141E+02  0.44600292808E+00 -0.10713620774E+02  0.36003237923E+02  0.41800000000E+01 0.  1.
         -5    1    1    2    0  502 -0.89724868495E+02 -0.38172700798E+02 -0.14439829566E+03  0.17428725513E+03  0.41800000000E+01 0.  1.
        -11    1    3    3    0    0  0.26771910521E+02  0.33781267115E+01 -0.44998782436E+02  0.52469394448E+02  0.00000000000E+00 0.  1.
         11    1    3    3    0    0  0.28838735833E+02  0.34348571159E+02  0.40300857753E+02  0.60296402552E+02  0.00000000000E+00 0. -1.
</event>
<event>
 7    1  0.5137842E-006  0.9832034E+02  0.7561462E-02  0.1283868E+00
          2   -1    0    0  501    0  0.00000000000E+00  0.00000000000E+00  0.72562313620E+02  0.72562313620E+02  0.00000000000E+00 0. -1.
         -2   -1    0    0    0  501 -0.00000000000E+00 -0.00000000000E+00 -0.21941182385E+03  0.21941182385E+03  0.00000000000E+00 0.  1.
         23    2    1    2    0    0 -0.13552114393E+02  0.49147852821E+02 -0.17698200775E+02  0.10509354084E+03  0.90179015159E+02 0.  0.
          5    1    1    2  502    0  0.16726407889E+02  0.40354628862E+02 -0.56143193958E+02  0.71258679606E+02  0.41800000000E+01 0. -1.
         -5    1    1    2    0  502 -0.31742934962E+01 -0.89502481683E+02 -0.73008115494E+02  0.11562191702E+03  0.41800000000E+01 0. -1.
        -11    1    3    3    0    0  0.12978087103E+02  0.14442196100E+02 -0.48100110837E+02  0.51871267919E+02  0.00000000000E+00 0.  1.
         11    1    3    3    0    0 -0.26530201496E+02  0.34705656720E+02  0.30401910062E+02  0.53222272924E+02  0.00000000000E+00 0. -1.
</event>
<event>
 7    1  0.5137842E-006  0.1237784E+03  0.7561462E-02  0.1236991E+00
          1   -1    0    0  501    0  0.00000000000E+00  0.00000000000E+00  0.31910176550E+02  0.31910176550E+02  0.00000000000E+00 0. -1.
         -1   -1    0    0    0  501 -0.00000000000E+00 -0.00000000000E+00 -0.59145895169E+03  0.59145895169E+03  0.00000000000E+00 0.  1.
         23    2    1    2    0    0 -0.36792338533E+02  0.71797978677E+02 -0.20152327730E+03  0.23563491831E+03  0.91670919704E+02 0.  0.
          5    1    1    2  502    0 -0.15017155347E+02 -0.91280258835E+02 -0.24205834812E+03  0.25916658137E+03  0.41800000000E+01 0. -1.
         -5    1    1    2    0  502  0.51809493880E+02  0.19482280158E+02 -0.11596714973E+03  0.12856762856E+03  0.41800000000E+01 0. -1.
        -11    1    3    3    0    0 -0.28936682964E+02  0.17826998407E+01 -0.13721437037E+03  0.14024369175E+03  0.00000000000E+00 0.  1.
         11    1    3    3    0    0 -0.78556555693E+01  0.70015278836E+02 -0.64308906922E+02  0.95391226559E+02  0.00000000000E+00 0. -1.
</event>
<event>
 7    1  0.5137842E-006  0.8432140E+02  0.7561462E-02  0.1317217E+00
          2   -1    0    0  501    0  0.00000000000E+00  0.00000000000E+00  0.12267314436E+03  0.12267314436E+03  0.00000000000E+00 0. -1.
         -2   -1    0    0    0  501 -0.00000000000E+00 -0.00000000000E+00 -0.11660313579E+03  0.11660313579E+03  0.00000000000E+00 0.  1.
         23    2    1    2    0    0 -0.35405050668E+02  0.34813817891E+02  0.14160257186E+02  0.10444884393E+03  0.90793879667E+02 0.  0.
          5    1    1    2  502    0 -0.25433224854E+02 -0.41417888707E+01  0.42490419611E+02  0.49868943244E+02  0.41800000000E+01 0. -1.
         -5    1    1    2    0  502  0.60838275522E+02 -0.30672029021E+02 -0.50580668226E+02  0.84958492989E+02  0.41800000000E+01 0. -1.
        -11    1    3    3    0    0  0.44026605298E+01  0.34181779834E+02  0.43132341160E+02  0.55210292032E+02  0.00000000000E+00 0. -1.
         11    1    3    3    0    0 -0.39807711197E+02  0.63203805725E+00 -0.28972083974E+02  0.49238551894E+02  0.00000000000E+00 0.  1.
</event>
<event>
 7    1  0.5137842E-006  0.1113958E+03  0.7561462E-02  0.1258007E+00
          2   -1    0    0  501    0  0.00000000000E+00  0.00000000000E+00  0.54557888740E+03  0.54557888740E+03  0.00000000000E+00 0. -1.
         -2   -1    0    0    0  501 -0.00000000000E+00 -0.00000000000E+00 -0.29537080030E+02  0.29537080030E+02  0.00000000000E+00 0.  1.
         23    2    1    2    0    0  0.33209579189E+02 -0.20281607686E+02  0.34781072580E+03  0.36189673763E+03  0.92101726186E+02 0.  0.
          5    1    1    2  502    0 -0.70697346658E+02 -0.22092787347E+02  0.91594251028E+02  0.11786935691E+03  0.41800000000E+01 0.  1.
         -5    1    1    2    0  502  0.37487767469E+02  0.42374395033E+02  0.76636830546E+02  0.95349872891E+02  0.41800000000E+01 0.  1.
        -11    1    3    3    0    0  0.10595300856E+01 -0.48852088924E+02  0.11199176235E+03  0.12218757724E+03  0.00000000000E+00 0.  1.
         11    1    3    3    0    0  0.32150049103E+02  0.28570481237E+02  0.23581896345E+03  0.23970916040E+03  0.00000000000E+00 0. -1.
</event>
<event>
 7    1  0.5137842E-006  0.1299208E+03  0.7561462E-02  0.1227573E+00
         -2   -1    0    0    0  501 -0.00000000000E+00  0.00000000000E+00  0.63957454231E+02  0.63957454231E+02  0.00000000000E+00 0.  1.
          2   -1    0    0  501    0  0.00000000000E+00 -0.00000000000E+00 -0.47814260649E+03  0.47814260649E+03  0.00000000000E+00 0. -1.
         23    2    1    2    0    0 -0.50368565046E+02  0.10454275138E+03 -0.31172228010E+03  0.34483370409E+03  0.90957816337E+02 0.  0.
          5    1    1    2  502    0  0.36767748441E+02 -0.29509867622E+02 -0.11075799416E+03  0.12044710574E+03  0.41800000000E+01 0. -1.
         -5    1    1    2    0  502  0.13600816605E+02 -0.75032883758E+02  0.82951220019E+01  0.76819250885E+02  0.41800000000E+01 0.  1.
        -11    1    3    3    0    0  0.10117421554E+02  0.60447188410E+02 -0.76698809828E+02  0.98178063918E+02  0.00000000000E+00 0. -1.
         11    1    3    3    0    0 -0.60485986601E+02  0.44095562971E+02 -0.23502347028E+03  0.24665564017E+03  0.00000000000E+00 0.  1.
</event>
<event>
 7    1  0.5137842E-006  0.1819356E+03  0.7561462E-02  0.1165943E+00
         -1   -1    0    0    0  501 -0.00000000000E+00  0.00000000000E+00  0.79253009783E+02  0.79253009783E+02  0.00000000000E+00 0.  1.
          1   -1    0    0  501    0  0.00000000000E+00 -0.00000000000E+00 -0.48996214996E+03  0.48996214996E+03  0.00000000000E+00 0. -1.
         23    2    1    2    0    0  0.14017395272E+02  0.15809962797E+03 -0.25941128306E+03  0.31677290644E+03  0.88650328490E+02 0.  0.
          5    1    1    2  502    0 -0.86896436687E+01  0.13078251394E+02  0.83539186215E+01  0.18270493232E+02  0.41800000000E+01 0.  1.
         -5    1    1    2    0  502 -0.53277516033E+01 -0.17117787936E+03 -0.15965177575E+03  0.23417176008E+03  0.41800000000E+01 0.  1.
        -11    1    3    3    0    0  0.38270375669E+02  0.14232085583E+03 -0.18235616724E+03  0.23446453759E+03  0.00000000000E+00 0.  1.
         11    1    3    3    0    0 -0.24252980397E+02  0.15778772138E+02 -0.77055115814E+02  0.82308368842E+02  0.00000000000E+00 0. -1.
</event>
<event>
 7    1  0.5137842E-006  0.1276930E+03  0.7561462E-02  0.1230920E+00
         -1   -1    0    0    0  501 -0.00000000000E+00  0.00000000000E+00  0.55025062980E+02  0.55025062980E+02  0.00000000000E+00 0.  1.
          1   -1    0    0  501    0  0.00000000000E+00 -0.00000000000E+00 -0.44489104028E+03  0.44489104028E+03  0.00000000000E+00 0. -1.
         23    2    1    2    0    0 -0.11008506155E+03 -0.27321815518E+01 -0.14619790842E+03  0.20470692300E+03  0.91678297909E+02 0.  0.
          5    1    1    2  502    0  0.91107566807E+02 -0.77073946270E+01 -0.25462702468E+03  0.27057787559E+03  0.41800000000E+01 0.  1.
         -5    1    1    2    0  502  0.18977494738E+02  0.10439576179E+02  0.10958955802E+02  0.24631304667E+02  0.41800000000E+01 0.  1.
        -11    1    3    3    0    0 -0.10013731609E+03  0.32428829980E+02 -0.12070240747E+03  0.16015049877E+03  0.00000000000E+00 0.  1.
         11    1    3    3    0    0 -0.99477454533E+01 -0.35161011532E+02 -0.25495500951E+02  0.44556424231E+02  0.00000000000E+00 0. -1.
</event>
<event>
 7    1  0.5137842E-006  0.2712751E+03  0.7561462E-02  0.1100552E+00
          2   -1    0    0  501    0  0.00000000000E+00  0.00000000000E+00  0.12373521973E+04  0.12373521973E+04  0.00000000000E+00 0. -1.
         -2   -1    0    0    0  501 -0.00000000000E+00 -0.00000000000E+00 -0.60039759715E+02  0.60039759715E+02  0.00000000000E+00 0.  1.
         23    2    1    2    0    0  0.20899073423E+03  0.13590229872E+03  0.62417985912E+03  0.67791568756E+03  0.88445582764E+02 0.  0.
          5    1    1    2  502    0 -0.64534995320E+02 -0.11552536023E+03  0.28305576042E+03  0.31248825640E+03  0.41800000000E+01 0. -1.
         -5    1    1    2    0  502 -0.14445573891E+03 -0.20376938492E+02  0.27007681808E+03  0.30698801310E+03  0.41800000000E+01 0. -1.
        -11    1    3    3    0    0  0.17985852790E+03  0.71544781314E+02  0.44249451686E+03  0.48297944392E+03  0.00000000000E+00 0. -1.
         11    1    3    3    0    0  0.29132206321E+02  0.64357517406E+02  0.18168534226E+03  0.19493624364E+03  0.00000000000E+00 0.  1.
</event>
<event>
 7    1  0.5137842E-006  0.9568467E+02  0.7561462E-02  0.1289641E+00
         -1   -1    0    0    0  501 -0.00000000000E+00  0.00000000000E+00  0.61924192152E+02  0.61924192152E+02  0.00000000000E+00 0.  1.
          1   -1    0    0  501    0  0.00000000000E+00 -0.00000000000E+00 -0.21180151971E+03  0.21180151971E+03  0.00000000000E+00 0. -1.
         23    2    1    2    0    0 -0.10736989148E+02 -0.86415950427E+01 -0.10148448460E+03  0.13889558544E+03  0.93823893220E+02 0.  0.
          5    1    1    2  502    0 -0.11966076180E+02 -0.53278679263E+02 -0.40839342769E+02  0.68316388670E+02  0.41800000000E+01 0.  1.
         -5    1    1    2    0  502  0.22703065328E+02  0.61920274306E+02 -0.75535001951E+01  0.66513737759E+02  0.41800000000E+01 0.  1.
        -11    1    3    3    0    0  0.56654563152E+01  0.28953609980E+02 -0.72722309994E-01  0.29502783168E+02  0.00000000000E+00 0.  1.
         11    1    3    3    0    0 -0.16402445463E+02 -0.37595205023E+02 -0.10141176229E+03  0.10939280227E+03  0.00000000000E+00 0. -1.
</event>
<event>
 7    1  0.5137842E-006  0.1229195E+03  0.7561462E-02  0.1238357E+00
          1   -1    0    0  501    0  0.00000000000E+00  0.00000000000E+00  0.35869616547E+03  0.35869616547E+03  0.00000000000E+00 0.  1.
         -1   -1    0    0    0  501 -0.00000000000E+00 -0.00000000000E+00 -0.99165145502E+02  0.99165145502E+02  0.00000000000E+00 0. -1.
         23    2    1    2    0    0  0.11430250934E+03 -0.34759986627E+01  0.25118370471E+03  0.28817212115E+03  0.82902181444E+02 0.  0.
          5    1    1    2  502    0 -0.77002618127E+02 -0.25842306540E+02 -0.49149763121E+02  0.95028414807E+02  0.41800000000E+01 0. -1.
         -5    1    1    2    0  502 -0.37299891208E+02  0.29318305202E+02  0.57497078376E+02  0.74660775015E+02  0.41800000000E+01 0. -1.
        -11    1    3    3    0    0  0.62153638343E+02 -0.13928446690E+02  0.21399714998E+03  0.22327529328E+03  0.00000000000E+00 0.  1.
         11    1    3    3    0    0  0.52148870992E+02  0.10452448027E+02  0.37186554729E+02  0.64896827874E+02  0.00000000000E+00 0. -1.
</event>
<event>
 7    1  0.5137842E-006  0.9806298E+02  0.7561462E-02  0.1284423E+00
          1   -1    0    0  501    0  0.00000000000E+00  0.00000000000E+00  0.23533741041E+03  0.23533741041E+03  0.00000000000E+00 0. -1.
         -1   -1    0    0    0  501 -0.00000000000E+00 -0.00000000000E+00 -0.65656059847E+02  0.65656059847E+02  0.00000000000E+00 0.  1.
         23    2    1    2    0    0  0.33061348265E+02  0.45775314304E+02  0.91396215003E+02  0.14299050983E+03  0.94364112019E+02 0.  0.
          5    1    1    2  502    0 -0.79802577265E+02 -0.37210528925E+02  0.39836489245E+02  0.96734136045E+02  0.41800000000E+01 0. -1.
         -5    1    1    2    0  502  0.46741229000E+02 -0.85647853790E+01  0.38448646311E+02  0.61268824374E+02  0.41800000000E+01 0. -1.
        -11    1    3    3    0    0  0.66241364584E+01  0.27116172169E+02 -0.15065565885E+02  0.31719666649E+02  0.00000000000E+00 0.  1.
         11    1    3    3    0    0  0.26437211807E+02  0.18659142135E+02  0.10646178089E+03  0.11127084319E+03  0.00000000000E+00 0. -1.
</event>
<event>
 7    1  0.5137842E-006  0.1255150E+03  0.7561462E-02  0.1234267E+00
          1   -1    0    0  501    0  0.00000000000E+00  0.00000000000E+00  0.55452762774E+02  0.55452762774E+02  0.00000000000E+00 0. -1.
         -1   -1    0    0    0  501 -0.00000000000E+00 -0.00000000000E+00 -0.60589159968E+03  0.60589159968E+03  0.00000000000E+00 0.  1.
         23    2    1    2    0    0  0.69941980417E+02  0.92290957145E+01 -0.27900542017E+02  0.11966021493E+03  0.92536857308E+02 0.  0.
          5    1    1    2  502    0 -0.47449974031E+02 -0.65727478108E+02 -0.27325290121E+03  0.28505476988E+03  0.41800000000E+01 0. -1.
         -5    1    1    2    0  502 -0.22492006387E+02  0.56498382394E+02 -0.24928539368E+03  0.25662937764E+03  0.41800000000E+01 0.  1.
        -11    1    3    3    0    0  0.88409695054E+02  0.34807230566E+00 -0.44565655314E+01  0.88522631627E+02  0.00000000000E+00 0. -1.
         11    1    3    3    0    0 -0.18467714636E+02  0.88810234088E+01 -0.23443976485E+02  0.31137583306E+02  0.00000000000E+00 0.  1.
</event>
<event>
 7    1  0.5137842E-006  0.1234688E+03  0.7561462E-02  0.1237482E+00
         -2   -1    0    0    0  501 -0.00000000000E+00  0.00000000000E+00  0.19805302879E+03  0.19805302879E+03  0.00000000000E+00 0.  1.
          2   -1    0    0  501    0  0.00000000000E+00 -0.00000000000E+00 -0.93566543097E+02  0.93566543097E+02  0.00000000000E+00 0. -1.
         23    2    1    2    0    0  0.61892555040E+02 -0.53931540091E+02  0.51299416687E+02  0.13282467815E+03  0.90947598029E+02 0.  0.
          5    1    1    2  502    0  0.32291706199E+02  0.90308907825E+01 -0.11811020797E+02  0.35795026049E+02  0.41800000000E+01 0. -1.
         -5    1    1    2    0  502 -0.94184261239E+02  0.44900649308E+02  0.64998089806E+02  0.12299986769E+03  0.41800000000E+01 0. -1.
        -11    1    3    3    0    0  0.46223091243E+02 -0.71527006302E+02  0.63557949045E+02  0.10626523270E+03  0.00000000000E+00 0.  1.
         11    1    3    3    0    0  0.15669463797E+02  0.17595466211E+02 -0.12258532358E+02  0.26559445447E+02  0.00000000000E+00 0. -1.
</event>
<event>
 7    1  0.5137842E-006  0.9374611E+02  0.7561462E-02  0.1294025E+00
         -2   -1    0    0    0  501 -0.00000000000E+00  0.00000000000E+00  0.80174922057E+02  0.80174922057E+02  0.00000000000E+00 0.  1.
          2   -1    0    0  501    0  0.00000000000E+00 -0.00000000000E+00 -0.19135694503E+03  0.19135694503E+03  0.00000000000E+00 0. -1.
         23    2    1    2    0    0  0.30466671580E+02 -0.50609333007E+02 -0.59911925993E+02  0.12399928325E+03  0.91087105051E+02 0.  0.
          5    1    1    2  502    0 -0.73760307623E+02  0.29280538193E+02 -0.58328539451E+02  0.98578008765E+02  0.41800000000E+01 0. -1.
         -5    1    1    2    0  502  0.43293636043E+02  0.21328794813E+02  0.70584424716E+01  0.48954575068E+02  0.41800000000E+01 0. -1.
        -11    1    3    3    0    0  0.20370463714E+02 -0.40267145724E+02 -0.84318204493E+02  0.95634504367E+02  0.00000000000E+00 0. -1.
         11    1    3    3    0    0  0.10096207866E+02 -0.10342187283E+02  0.24406278500E+02  0.28364778886E+02  0.00000000000E+00 0.  1.
</event>
<event>
 7    1  0.5137842E-006  0.1358121E+03  0.7561462E-02  0.1219078E+00
         -2   -1    0    0    0  501 -0.00000000000E+00  0.00000000000E+00  0.74896746099E+02  0.74896746099E+02  0.00000000000E+00 0.  1.
          2   -1    0    0  501    0  0.00000000000E+00 -0.00000000000E+00 -0.37258297109E+03  0.37258297109E+03  0.00000000000E+00 0. -1.
         23    2    1    2    0    0  0.93496388900E+02  0.66792269049E+02 -0.20846278522E+03  0.25561787199E+03  0.93171786066E+02 0.  0.
          5    1    1    2  502    0 -0.81834619009E+02 -0.84585770285E+02 -0.20166655415E+02  0.11948147887E+03  0.41800000000E+01 0. -1.
         -5    1    1    2    0  502 -0.11661769892E+02  0.17793501235E+02 -0.69056784359E+02  0.72380366324E+02  0.41800000000E+01 0. -1.
        -11    1    3    3    0    0  0.51383947463E+02  0.73348286480E+02 -0.79349340314E+02  0.11965199119E+03  0.00000000000E+00 0.  1.
         11    1    3    3    0    0  0.42112441438E+02 -0.65560174309E+01 -0.12911344490E+03  0.13596588081E+03  0.00000000000E+00 0. -1.
</event>
<event>
 7    1  0.5137842E-006  0.9866531E+02  0.7561462E-02  0.1283128E+00
          4   -1    0    0  501    0  0.00000000000E+00  0.00000000000E+00  0.32697956341E+03  0.32697956341E+03  0.00000000000E+00 0. -1.
         -4   -1    0    0    0  501 -0.00000000000E+00 -0.00000000000E+00 -0.71277536713E+02  0.71277536713E+02  0.00000000000E+00 0.  1.
         23    2    1    2    0    0 -0.73629636575E+02  0.25115646899E+02  0.19567593676E+03  0.22890234383E+03  0.89750162597E+02 0.  0.
          5    1    1    2  502    0  0.29899904678E+02 -0.14988424177E+02  0.10220420124E+03  0.10761890313E+03  0.41800000000E+01 0. -1.
         -5    1    1    2    0  502  0.43729731897E+02 -0.10127222723E+02 -0.42178111305E+02  0.61735853158E+02  0.41800000000E+01 0.  1.
        -11    1    3    3    0    0 -0.79017599376E+02 -0.12972564893E+02  0.12536310806E+03  0.14875475560E+03  0.00000000000E+00 0.  1.
         11    1    3    3    0    0  0.53879628008E+01  0.38088211792E+02  0.70312828693E+02  0.80147588232E+02  0.00000000000E+00 0. -1.
</event>
<event>
 7    1  0.5137842E-006  0.1126821E+03  0.7561462E-02  0.1255682E+00
         -1   -1    0    0    0  501 -0.00000000000E+00  0.00000000000E+00  0.71771336527E+03  0.71771336527E+03  0.00000000000E+00 0.  1.
          1   -1    0    0  501    0  0.00000000000E+00 -0.00000000000E+00 -0.26073397414E+02  0.26073397414E+02  0.00000000000E+00 0. -1.
         23    2    1    2    0    0  0.69016253940E+02  0.58952251155E+01  0.23459296947E+03  0.26489547249E+03  0.10167474138E+03 0.  0.
          5    1    1    2  502    0 -0.79320228724E+02  0.32957938044E+02  0.39899706832E+03  0.40815935281E+03  0.41800000000E+01 0.  1.
         -5    1    1    2    0  502  0.10303974784E+02 -0.38853163160E+02  0.58049930073E+02  0.70731937379E+02  0.41800000000E+01 0.  1.
        -11    1    3    3    0    0 -0.10135303591E+02 -0.14054362210E+02  0.89349411482E+00  0.17350729315E+02  0.00000000000E+00 0. -1.
         11    1    3    3    0    0  0.79151557531E+02  0.19949587326E+02  0.23369947535E+03  0.24754474318E+03  0.00000000000E+00 0.  1.
</event>
<event>
 7    1  0.5137842E-006  0.1289171E+03  0.7561462E-02  0.1229072E+00
         -2   -1    0    0    0  501 -0.00000000000E+00  0.00000000000E+00  0.27179427463E+02  0.27179427463E+02  0.00000000000E+00 0.  1.
          2   -1    0    0  501    0  0.00000000000E+00 -0.00000000000E+00 -0.72896150674E+03  0.72896150674E+03  0.00000000000E+00 0. -1.
         23    2    1    2    0    0  0.32200120240E+02 -0.83421183637E+02 -0.33490245004E+03  0.35834176371E+03  0.90847272656E+02 0.  0.
          5    1    1    2  502    0 -0.75712729784E+02  0.46643739613E+02 -0.28007561484E+03  0.29388412398E+03  0.41800000000E+01 0. -1.
         -5    1    1    2    0  502  0.43512609543E+02  0.36777444024E+02 -0.86804014388E+02  0.10391504651E+03  0.41800000000E+01 0. -1.
        -11    1    3    3    0    0  0.18487791558E+01 -0.81231205870E+02 -0.30515445465E+03  0.31578658613E+03  0.00000000000E+00 0. -1.
         11    1    3    3    0    0  0.30351341085E+02 -0.21899777675E+01 -0.29747995399E+02  0.42555177576E+02  0.00000000000E+00 0.  1.
</event>
<event>
 7    1  0.5137842E-006  0.1158086E+03  0.7561462E-02  0.1250176E+00
         -2   -1    0    0    0  501 -0.00000000000E+00  0.00000000000E+00  0.11361395399E+03  0.11361395399E+03  0.00000000000E+00 0. -1.
          2   -1    0    0  501    0  0.00000000000E+00 -0.00000000000E+00 -0.19619949988E+03  0.19619949988E+03  0.00000000000E+00 0.  1.
         23    2    1    2    0    0 -0.39978606680E+02 -0.87895906988E+02 -0.79340177946E+02  0.15175672866E+03  0.86088683340E+02 0.  0.
          5    1    1    2  502    0 -0.15338156391E+01 -0.15027974462E+01 -0.49058453387E+02  0.49283011670E+02  0.41800000000E+01 0. -1.
         -5    1    1    2    0  502  0.41512422319E+02  0.89398704434E+02  0.45813085439E+02  0.10877371355E+03  0.41800000000E+01 0. -1.
        -11    1    3    3    0    0 -0.64513414755E+02 -0.44372591550E+02 -0.57930197782E+02  0.97400284288E+02  0.00000000000E+00 0.  1.
         11    1    3    3    0    0  0.24534808075E+02 -0.43523315437E+02 -0.21409980164E+02  0.54356444370E+02  0.00000000000E+00 0. -1.
</event>
<event>
 7    1  0.5137842E-006  0.1768639E+03  0.7561462E-02  0.1170873E+00
          1   -1    0    0  501    0  0.00000000000E+00  0.00000000000E+00  0.38233268081E+02  0.38233268081E+02  0.00000000000E+00 0. -1.
         -1   -1    0    0    0  501 -0.00000000000E+00 -0.00000000000E+00 -0.16112320889E+04  0.16112320889E+04  0.00000000000E+00 0.  1.
         23    2    1    2    0    0  0.12510616251E+03 -0.12184880735E+03 -0.30491408387E+03  0.36331444723E+03  0.92336911757E+02 0.  0.
          5    1    1    2  502    0 -0.18480539290E+02  0.31416902826E+02 -0.62449347542E+02  0.72428899785E+02  0.41800000000E+01 0. -1.
         -5    1    1    2    0  502 -0.10662562322E+03  0.90431904523E+02 -0.12056353894E+04  0.12137220100E+04  0.41800000000E+01 0. -1.
        -11    1    3    3    0    0  0.66523157725E+02 -0.44081837360E+02 -0.22034410030E+03  0.23435029643E+03  0.00000000000E+00 0.  1.
         11    1    3    3    0    0  0.58583004788E+02 -0.77766969990E+02 -0.84569983573E+02  0.12896415081E+03  0.00000000000E+00 0. -1.
</event>
<event>
 7    1  0.5137842E-006  0.1118654E+03  0.7561462E-02  0.1257154E+00
          1   -1    0    0  501    0  0.00000000000E+00  0.00000000000E+00  0.96569823529E+03  0.96569823529E+03  0.00000000000E+00 0. -1.
         -1   -1    0    0    0  501 -0.00000000000E+00 -0.00000000000E+00 -0.13086088888E+02  0.13086088888E+02  0.00000000000E+00 0.  1.
         23    2    1    2    0    0  0.11405491323E+02 -0.29328289298E+02  0.38531414293E+03  0.39700690162E+03  0.90317536539E+02 0.  0.
          5    1    1    2  502    0  0.50347679842E+02 -0.14186121718E+02  0.20014026635E+03  0.20690513171E+03  0.41800000000E+01 0.  1.
         -5    1    1    2    0  502 -0.61753171164E+02  0.43514411017E+02  0.36715773713E+03  0.37487229085E+03  0.41800000000E+01 0.  1.
        -11    1    3    3    0    0  0.32041882202E+02 -0.54393037151E+02  0.24853093871E+03  0.25642330666E+03  0.00000000000E+00 0.  1.
         11    1    3    3    0    0 -0.20636390879E+02  0.25064747853E+02  0.13678320422E+03  0.14058359495E+03  0.00000000000E+00 0. -1.
</event>
<event>
 7    1  0.5137842E-006  0.1089379E+03  0.7561462E-02  0.1262549E+00
         -2   -1    0    0    0  501 -0.00000000000E+00  0.00000000000E+00  0.15371235631E+03  0.15371235631E+03  0.00000000000E+00 0.  1.
          2   -1    0    0  501    0  0.00000000000E+00 -0.00000000000E+00 -0.17256932142E+03  0.17256932142E+03  0.00000000000E+00 0. -1.
         23    2    1    2    0    0  0.58803006245E+02  0.29111076962E+02 -0.11005759196E+03  0.15814379627E+03  0.92690551869E+02 0.  0.
          5    1    1    2  502    0 -0.75960875992E+02 -0.61484081992E+01  0.10979380557E+03  0.13371615365E+03  0.41800000000E+01 0.  1.
         -5    1    1    2    0  502  0.17157869747E+02 -0.22962668763E+02 -0.18593178713E+02  0.34421727813E+02  0.41800000000E+01 0.  1.
        -11    1    3    3    0    0  0.31579262415E+02  0.62186725990E+02 -0.78025133956E+02  0.10465352470E+03  0.00000000000E+00 0. -1.
         11    1    3    3    0    0  0.27223743830E+02 -0.33075649027E+02 -0.32032458007E+02  0.53490271570E+02  0.00000000000E+00 0.  1.
</event>
<event>
 7    1  0.5137842E-006  0.7857723E+02  0.7561462E-02  0.1333138E+00
          3   -1    0    0  501    0  0.00000000000E+00  0.00000000000E+00  0.26534911375E+02  0.26534911375E+02  0.00000000000E+00 0. -1.
         -3   -1    0    0    0  501 -0.00000000000E+00 -0.00000000000E+00 -0.48496776247E+03  0.48496776247E+03  0.00000000000E+00 0.  1.
         23    2    1    2    0    0  0.17319592162E+02  0.30208630746E+02 -0.17602506956E+03  0.20067070720E+03  0.89840848021E+02 0.  0.
          5    1    1    2  502    0  0.23467656145E+02 -0.15720005568E+02 -0.26064558426E+03  0.26220496268E+03  0.41800000000E+01 0.  1.
         -5    1    1    2    0  502 -0.40787248307E+02 -0.14488625178E+02 -0.21762197283E+02  0.48627003965E+02  0.41800000000E+01 0.  1.
        -11    1    3    3    0    0  0.47597959148E+02  0.26855857861E+02 -0.62010517490E+02  0.82656561119E+02  0.00000000000E+00 0. -1.
         11    1    3    3    0    0 -0.30278366986E+02  0.33527728847E+01 -0.11401455207E+03  0.11801414608E+03  0.00000000000E+00 0.  1.
</event>
<event>
 7    1  0.5137842E-006  0.1089094E+03  0.7561462E-02  0.1262603E+00
          2   -1    0    0  501    0  0.00000000000E+00  0.00000000000E+00  0.74080771829E+02  0.74080771829E+02  0.00000000000E+00 0. -1.
         -2   -1    0    0    0  501 -0.00000000000E+00 -0.00000000000E+00 -0.19975910812E+03  0.19975910812E+03  0.00000000000E+00 0.  1.
         23    2    1    2    0    0 -0.17629257597E+02 -0.42311372931E+02 -0.21695694573E+02  0.10515805186E+03  0.92122037021E+02 0.  0.
          5    1    1    2  502    0  0.51868927592E+02 -0.99833815368E+01 -0.90085091436E+02  0.10451243780E+03  0.41800000000E+01 0.  1.
         -5    1    1    2    0  502 -0.34239669995E+02  0.52294754468E+02 -0.13897550284E+02  0.64169390290E+02  0.41800000000E+01 0.  1.
        -11    1    3    3    0    0 -0.44613834749E+02 -0.56266005206E+02 -0.95438692560E+01  0.72438546598E+02  0.00000000000E+00 0.  1.
         11    1    3    3    0    0  0.26984577151E+02  0.13954632275E+02 -0.12151825317E+02  0.32719505261E+02  0.00000000000E+00 0. -1.
</event>
<event>
 7    1  0.5137842E-006  0.1702421E+03  0.7561462E-02  0.1177596E+00
          1   -1    0    0  501    0  0.00000000000E+00  0.00000000000E+00  0.94998248465E+03  0.94998248465E+03  0.00000000000E+00 0. -1.
         -1   -1    0    0    0  501 -0.00000000000E+00 -0.00000000000E+00 -0.32940613478E+02  0.32940613478E+02  0.00000000000E+00 0.  1.
         23    2    1    2    0    0 -0.11550597598E+03 -0.71379541792E+02  0.50309460740E+03  0.52967229323E+03  0.94930947251E+02 0.  0.
          5    1    1    2  502    0  0.14650317263E+02  0.72353920149E+02  0.10646911228E+03  0.12962586866E+03  0.41800000000E+01 0.  1.
         -5    1    1    2    0  502  0.10085565872E+03 -0.97437835658E+00  0.30747815149E+03  0.32362493624E+03  0.41800000000E+01 0.  1.
        -11    1    3    3    0    0 -0.27876422291E+02 -0.72801109904E+02  0.22867332800E+03  0.24159591773E+03  0.00000000000E+00 0.  1.
         11    1    3    3    0    0 -0.87629553691E+02  0.14215681117E+01  0.27442127940E+03  0.28807637550E+03  0.00000000000E+00 0. -1.
</event>
<event>
 7    1  0.5137842E-006  0.1341633E+03  0.7561462E-02  0.1221406E+00
         -2   -1    0    0    0  501 -0.00000000000E+00  0.00000000000E+00  0.96851613472E+02  0.96851613472E+02  0.00000000000E+00 0.  1.
          2   -1    0    0  501    0  0.00000000000E+00 -0.00000000000E+00 -0.22964174827E+03  0.22964174827E+03  0.00000000000E+00 0. -1.
         23    2    1    2    0    0 -0.78543290407E+02 -0.24224875259E+02 -0.10648622593E+03  0.17451794953E+03  0.11118140738E+03 0.  0.
          5    1    1    2  502    0  0.71183201751E+02 -0.39638779402E+02 -0.31251316895E+02  0.87363597978E+02  0.41800000000E+01 0.  1.
         -5    1    1    2    0  502  0.73600886567E+01  0.63863654661E+02  0.49474080273E+01  0.64611814228E+02  0.41800000000E+01 0.  1.
        -11    1    3    3    0    0 -0.50605342976E+02 -0.58989914607E+02 -0.10402087999E+03  0.12985012220E+03  0.00000000000E+00 0. -1.
         11    1    3    3    0    0 -0.27937947432E+02  0.34765039347E+02 -0.24653459379E+01  0.44667827327E+02  0.00000000000E+00 0.  1.
</event>
<event>
 7    1  0.5137842E-006  0.8871426E+02  0.7561462E-02  0.1305996E+00
          1   -1    0    0  501    0  0.00000000000E+00  0.00000000000E+00  0.16347290689E+03  0.16347290689E+03  0.00000000000E+00 0. -1.
         -1   -1    0    0    0  501 -0.00000000000E+00 -0.00000000000E+00 -0.99544055597E+02  0.99544055597E+02  0.00000000000E+00 0.  1.
         23    2    1    2    0    0 -0.60547554542E+02  0.28451133583E+02  0.39506092994E+02  0.11907583128E+03  0.90237735174E+02 0.  0.
          5    1    1    2  502    0  0.58924023336E+02  0.10247167814E+02  0.64492095554E+02  0.88055367600E+02  0.41800000000E+01 0.  1.
         -5    1    1    2    0  502  0.16235312055E+01 -0.38698301397E+02 -0.40069337259E+02  0.55885763598E+02  0.41800000000E+01 0.  1.
        -11    1    3    3    0    0 -0.10521303593E+02  0.26433060811E+02 -0.24686315143E+02  0.37667209725E+02  0.00000000000E+00 0. -1.
         11    1    3    3    0    0 -0.50026250949E+02  0.20180727719E+01  0.64192408138E+02  0.81408621560E+02  0.00000000000E+00 0.  1.
</event>
<event>
 7    1  0.5137842E-006  0.1855131E+03  0.7561462E-02  0.1162572E+00
          1   -1    0    0  501    0  0.00000000000E+00  0.00000000000E+00  0.10199851482E+04  0.10199851482E+04  0.00000000000E+00 0. -1.
         -1   -1    0    0    0  501 -0.00000000000E+00 -0.00000000000E+00 -0.50740726865E+02  0.50740726865E+02  0.00000000000E+00 0.  1.
         23    2    1    2    0    0  0.14322778191E+03 -0.96785197284E+02  0.69031321148E+03  0.71953905475E+03  0.10640746892E+03 0.  0.
          5    1    1    2  502    0 -0.71096279426E+02  0.59975397345E+02  0.44633620707E+02  0.10325387030E+03  0.41800000000E+01 0. -1.
         -5    1    1    2    0  502 -0.72131502479E+02  0.36809799939E+02  0.23429758910E+03  0.24793294997E+03  0.41800000000E+01 0. -1.
        -11    1    3    3    0    0  0.11575778453E+03 -0.22898495344E+02  0.32344571108E+03  0.34429832091E+03  0.00000000000E+00 0. -1.
         11    1    3    3    0    0  0.27469997376E+02 -0.73886701940E+02  0.36686750040E+03  0.37524073384E+03  0.00000000000E+00 0.  1.
</event>
<event>
 7    1  0.5137842E-006  0.7546630E+02  0.7561462E-02  0.1342433E+00
         -1   -1    0    0    0  501 -0.00000000000E+00  0.00000000000E+00  0.13453543163E+03  0.13453543163E+03  0.00000000000E+00 0.  1.
          1   -1    0    0  501    0  0.00000000000E+00 -0.00000000000E+00 -0.90590572809E+02  0.90590572809E+02  0.00000000000E+00 0. -1.
         23    2    1    2    0    0 -0.12645986519E+02 -0.64488703806E+01  0.14494574491E+01  0.92254651397E+02  0.91144450589E+02 0.  0.
          5    1    1    2  502    0 -0.17608551794E+02 -0.18523779732E+02  0.76514170657E+02  0.80777981054E+02  0.41800000000E+01 0. -1.
         -5    1    1    2    0  502  0.30254538313E+02  0.24972650112E+02 -0.34018769281E+02  0.52093371992E+02  0.41800000000E+01 0. -1.
        -11    1    3    3    0    0 -0.26713543592E+01 -0.45347697280E+02  0.17943690880E+02  0.48841845022E+02  0.00000000000E+00 0.  1.
         11    1    3    3    0    0 -0.99746321596E+01  0.38898826899E+02 -0.16494233431E+02  0.43412806375E+02  0.00000000000E+00 0. -1.
</event>
<event>
 7    1  0.5137842E-006  0.8590870E+02  0.7561462E-02  0.1313073E+00
         -2   -1    0    0    0  501 -0.00000000000E+00  0.00000000000E+00  0.16041216862E+03  0.16041216862E+03  0.00000000000E+00 0.  1.
          2   -1    0    0  501    0  0.00000000000E+00 -0.00000000000E+00 -0.86622540242E+02  0.86622540242E+02  0.00000000000E+00 0. -1.
         23    2    1    2    0    0 -0.45299919472E+02  0.85389760896E+01  0.29427686426E+02  0.10653388068E+03  0.91424735098E+02 0.  0.
          5    1    1    2  502    0  0.54871817605E+02 -0.52682625494E+02  0.54933198620E+02  0.93922862535E+02  0.41800000000E+01 0.  1.
         -5    1    1    2    0  502 -0.95718981331E+01  0.44143649404E+02 -0.10571256665E+02  0.46577965649E+02  0.41800000000E+01 0.  1.
        -11    1    3    3    0    0 -0.36261746372E+02 -0.20873121853E+01 -0.28990726992E+02  0.46472931623E+02  0.00000000000E+00 0. -1.
         11    1    3    3    0    0 -0.90381730994E+01  0.10626288275E+02  0.58418413418E+02  0.60060949058E+02  0.00000000000E+00 0.  1.
</event>
<event>
 7    1  0.5137842E-006  0.1170797E+03  0.7561462E-02  0.1247994E+00
          1   -1    0    0  501    0  0.00000000000E+00  0.00000000000E+00  0.16262713410E+02  0.16262713410E+02  0.00000000000E+00 0. -1.
         -1   -1    0    0    0  501 -0.00000000000E+00 -0.00000000000E+00 -0.97676298458E+03  0.97676298458E+03  0.00000000000E+00 0.  1.
         23    2    1    2    0    0  0.31423764862E+02  0.50245071538E+02 -0.34026351760E+03  0.35752904348E+03  0.92389043209E+02 0.  0.
          5    1    1    2  502    0 -0.20256689807E+02  0.36239080638E+02 -0.10627357049E+03  0.11417157541E+03  0.41800000000E+01 0.  1.
         -5    1    1    2    0  502 -0.11167075055E+02 -0.86484152176E+02 -0.51396318307E+03  0.52132507910E+03  0.41800000000E+01 0.  1.
        -11    1    3    3    0    0  0.61048022036E+02  0.42886628712E+02 -0.18852178240E+03  0.20274759273E+03  0.00000000000E+00 0. -1.
         11    1    3    3    0    0 -0.29624257173E+02  0.73584428259E+01 -0.15174173520E+03  0.15478145075E+03  0.00000000000E+00 0.  1.
</event>
<event>
 7    1  0.5137842E-006  0.1603793E+03  0.7561462E-02  0.1188269E+00
         -1   -1    0    0    0  501 -0.00000000000E+00  0.00000000000E+00  0.53668523324E+02  0.53668523324E+02  0.00000000000E+00 0.  1.
          1   -1    0    0  501    0  0.00000000000E+00 -0.00000000000E+00 -0.67112973538E+03  0.67112973538E+03  0.00000000000E+00 0. -1.
         23    2    1    2    0    0 -0.13810986344E+03  0.69047422201E+02 -0.36689855979E+03  0.40500059306E+03  0.74626043097E+02 0.  0.
          5    1    1    2  502    0  0.71447619897E+02 -0.68716187615E+02 -0.22906471340E+03  0.24962930949E+03  0.41800000000E+01 0. -1.
         -5    1    1    2    0  502  0.66662243546E+02 -0.33123458673E+00 -0.21497938867E+02  0.70168356162E+02  0.41800000000E+01 0. -1.
        -11    1    3    3    0    0 -0.64642150464E+02  0.26623828321E+02 -0.25599556182E+03  0.26536986175E+03  0.00000000000E+00 0. -1.
         11    1    3    3    0    0 -0.73467712979E+02  0.42423593880E+02 -0.11090299797E+03  0.13963073131E+03  0.00000000000E+00 0.  1.
</event>
<event>
 7    1  0.5137842E-006  0.1430322E+03  0.7561462E-02  0.1209306E+00
         -1   -1    0    0    0  501 -0.00000000000E+00  0.00000000000E+00  0.79429989896E+02  0.79429989896E+02  0.00000000000E+00 0.  1.
          1   -1    0    0  501    0  0.00000000000E+00 -0.00000000000E+00 -0.28324502670E+03  0.28324502670E+03  0.00000000000E+00 0. -1.
         23    2    1    2    0    0 -0.96986540574E+02  0.19340378409E+02 -0.13104825908E+03  0.18739840217E+03  0.90355274546E+02 0.  0.
          5    1    1    2  502    0  0.11392993508E+03  0.15144271752E+02 -0.73735653953E+02  0.13661551207E+03  0.41800000000E+01 0.  1.
         -5    1    1    2    0  502 -0.16943394502E+02 -0.34484650162E+02  0.96887623538E+00  0.38661102354E+02  0.41800000000E+01 0.  1.
        -11    1    3    3    0    0 -0.11279145694E+03  0.82364340167E+01 -0.12101171986E+03  0.16563087861E+03  0.00000000000E+00 0.  1.
         11    1    3    3    0    0  0.15804916371E+02  0.11103944393E+02 -0.10036539227E+02  0.21767523567E+02  0.00000000000E+00 0. -1.
</event>
<event>
 7    1  0.5137842E-006  0.1099095E+03  0.7561462E-02  0.1260738E+00
          1   -1    0    0  501    0  0.00000000000E+00  0.00000000000E+00  0.48025756961E+02  0.48025756961E+02  0.00000000000E+00 0. -1.
         -1   -1    0    0    0  501 -0.00000000000E+00 -0.00000000000E+00 -0.29013614360E+03  0.29013614360E+03  0.00000000000E+00 0.  1.
         23    2    1    2    0    0 -0.13026904486E+02  0.43792576489E+02 -0.78777936515E+02  0.12741827872E+03  0.89117700113E+02 0.  0.
          5    1    1    2  502    0  0.39759754543E+02 -0.77602608618E+02 -0.12758451880E+03  0.15459070083E+03  0.41800000000E+01 0. -1.
         -5    1    1    2    0  502 -0.26732850057E+02  0.33810032129E+02 -0.35747931326E+02  0.56152921017E+02  0.41800000000E+01 0. -1.
        -11    1    3    3    0    0 -0.34754900411E+02 -0.56521518569E+01 -0.61226801480E+02  0.70629817660E+02  0.00000000000E+00 0.  1.
         11    1    3    3    0    0  0.21727995925E+02  0.49444728346E+02 -0.17551135035E+02  0.56788461057E+02  0.00000000000E+00 0. -1.
</event>
<event>
 7    1  0.5137842E-006  0.8572737E+02  0.7561462E-02  0.1313541E+00
         -2   -1    0    0    0  501 -0.00000000000E+00  0.00000000000E+00  0.81904706171E+02  0.81904706171E+02  0.00000000000E+00 0.  1.
          2   -1    0    0  501    0  0.00000000000E+00 -0.00000000000E+00 -0.37117271965E+03  0.37117271965E+03  0.00000000000E+00 0. -1.
         23    2    1    2    0    0 -0.13412626956E+02  0.52315178712E+01 -0.31167627133E+03  0.32565771117E+03  0.93292976128E+02 0.  0.
          5    1    1    2  502    0  0.26628268146E+02  0.29655238506E+02  0.61382988994E+02  0.73306490662E+02  0.41800000000E+01 0.  1.
         -5    1    1    2    0  502 -0.13215641191E+02 -0.34886756378E+02 -0.38974731147E+02  0.54113223991E+02  0.41800000000E+01 0. -1.
        -11    1    3    3    0    0 -0.12759062435E+02  0.48712031413E+02 -0.18472133701E+03  0.19146181871E+03  0.00000000000E+00 0.  1.
         11    1    3    3    0    0 -0.65356452034E+00 -0.43480513542E+02 -0.12695493432E+03  0.13419589246E+03  0.00000000000E+00 0. -1.
</event>
<event>
 7    1  0.5137842E-006  0.9756057E+02  0.7561462E-02  0.1285511E+00
         -2   -1    0    0    0  501 -0.00000000000E+00  0.00000000000E+00  0.96234594009E+02  0.96234594009E+02  0.00000000000E+00 0.  1.
          2   -1    0    0  501    0  0.00000000000E+00 -0.00000000000E+00 -0.13754518861E+03  0.13754518861E+03  0.00000000000E+00 0. -1.
         23    2    1    2    0    0  0.37453922117E+02  0.18505167099E+02 -0.39221111504E+02  0.10188184764E+03  0.84240001188E+02 0.  0.
          5    1    1    2  502    0  0.27878124246E+02  0.10173742510E+02 -0.40793720123E+02  0.50619115457E+02  0.41800000000E+01 0. -1.
         -5    1    1    2    0  502 -0.65332046362E+02 -0.28678909610E+02  0.38704237028E+02  0.81278819518E+02  0.41800000000E+01 0. -1.
        -11    1    3    3    0    0 -0.53219338501E-01  0.46735703377E+02 -0.15175952078E+02  0.49137951971E+02  0.00000000000E+00 0.  1.
         11    1    3    3    0    0  0.37507141455E+02 -0.28230536278E+02 -0.24045159426E+02  0.52743895671E+02  0.00000000000E+00 0. -1.
</event>
<event>
 7    1  0.5137842E-006  0.9512116E+02  0.7561462E-02  0.1290903E+00
          2   -1    0    0  501    0  0.00000000000E+00  0.00000000000E+00  0.81535857086E+03  0.81535857086E+03  0.00000000000E+00 0. -1.
         -2   -1    0    0    0  501 -0.00000000000E+00 -0.00000000000E+00 -0.16543820344E+02  0.16543820344E+02  0.00000000000E+00 0.  1.
         23    2    1    2    0    0  0.13063802465E+02 -0.52501425345E+02  0.40161852592E+03  0.41526272145E+03  0.90656631685E+02 0.  0.
          5    1    1    2  502    0 -0.30640425998E+02  0.15104698257E+01  0.32475889515E+03  0.32623140499E+03  0.41800000000E+01 0. -1.
         -5    1    1    2    0  502  0.17576623533E+02  0.50990955519E+02  0.72437329448E+02  0.90408264761E+02  0.41800000000E+01 0.  1.
        -11    1    3    3    0    0  0.44993271774E+02 -0.15071080280E+01  0.15448228802E+03  0.16090818249E+03  0.00000000000E+00 0. -1.
         11    1    3    3    0    0 -0.31929469309E+02 -0.50994317317E+02  0.24713623790E+03  0.25435453897E+03  0.00000000000E+00 0.  1.
</event>
<event>
 7    1  0.5137842E-006  0.1131921E+03  0.7561462E-02  0.1254770E+00
          4   -1    0    0  501    0  0.00000000000E+00  0.00000000000E+00  0.82219933187E+02  0.82219933187E+02  0.00000000000E+00 0. -1.
         -4   -1    0    0    0  501 -0.00000000000E+00 -0.00000000000E+00 -0.35053184663E+03  0.35053184663E+03  0.00000000000E+00 0.  1.
         23    2    1    2    0    0  0.40344112726E+02  0.55005615570E+02  0.16397939975E+02  0.11438146862E+03  0.90338047088E+02 0.  0.
          5    1    1    2  502    0  0.15513203901E+02  0.31158483182E+02 -0.11240030652E+03  0.11774044282E+03  0.41800000000E+01 0.  1.
         -5    1    1    2    0  502 -0.55857316627E+02 -0.86164098752E+02 -0.17230954689E+03  0.20062986838E+03  0.41800000000E+01 0.  1.
        -11    1    3    3    0    0  0.25212186224E+01 -0.11649009207E+02  0.33759227579E+02  0.35801416251E+02  0.00000000000E+00 0. -1.
         11    1    3    3    0    0  0.37822894104E+02  0.66654624777E+02 -0.17361287604E+02  0.78580052366E+02  0.00000000000E+00 0.  1.
</event>
<event>
 7    1  0.5137842E-006  0.2253734E+03  0.7561462E-02  0.1129939E+00
         -2   -1    0    0    0  501 -0.00000000000E+00  0.00000000000E+00  0.14334604458E+03  0.14334604458E+03  0.00000000000E+00 0.  1.
          2   -1    0    0  501    0  0.00000000000E+00 -0.00000000000E+00 -0.67558948800E+03  0.67558948800E+03  0.00000000000E+00 0. -1.
         23    2    1    2    0    0 -0.11533206996E+03 -0.12717438469E+03 -0.49001446048E+03  0.52717121416E+03  0.91216813602E+02 0.  0.
          5    1    1    2  502    0  0.63484491179E+02 -0.44312116727E+02 -0.76942593131E+02  0.10923131120E+03  0.41800000000E+01 0. -1.
         -5    1    1    2    0  502  0.51847578778E+02  0.17148650141E+03  0.34713610193E+02  0.18253300722E+03  0.41800000000E+01 0.  1.
        -11    1    3    3    0    0 -0.13092303686E+03 -0.11406941918E+03 -0.44814962111E+03  0.48061497779E+03  0.00000000000E+00 0. -1.
         11    1    3    3    0    0  0.15590966907E+02 -0.13104965511E+02 -0.41864839368E+02  0.46556236375E+02  0.00000000000E+00 0.  1.
</event>
<event>
 7    1  0.5137842E-006  0.1073178E+03  0.7561462E-02  0.1265619E+00
         -2   -1    0    0    0  501 -0.00000000000E+00  0.00000000000E+00  0.14771035751E+04  0.14771035751E+04  0.00000000000E+00 0.  1.
          2   -1    0    0  501    0  0.00000000000E+00 -0.00000000000E+00 -0.10555787717E+02  0.10555787717E+02  0.00000000000E+00 0. -1.
         23    2    1    2    0    0 -0.36672405452E+02 -0.27052885455E+02  0.39002413201E+03  0.40293449673E+03  0.90336377935E+02 0.  0.
          5    1    1    2  502    0  0.91238393963E+00  0.64649282326E+02  0.84221372661E+03  0.84470219358E+03  0.41800000000E+01 0.  1.
         -5    1    1    2    0  502  0.35760021512E+02 -0.37596396872E+02  0.23430992880E+03  0.24002267253E+03  0.41800000000E+01 0.  1.
        -11    1    3    3    0    0 -0.65126641251E+02 -0.14673589365E+02  0.21318365039E+03  0.22339217179E+03  0.00000000000E+00 0. -1.
         11    1    3    3    0    0  0.28454235799E+02 -0.12379296090E+02  0.17684048162E+03  0.17954232494E+03  0.00000000000E+00 0.  1.
</event>
<event>
 7    1  0.5137842E-006  0.1729256E+03  0.7561462E-02  0.1174831E+00
         -2   -1    0    0    0  501 -0.00000000000E+00  0.00000000000E+00  0.10531856848E+03  0.10531856848E+03  0.00000000000E+00 0.  1.
          2   -1    0    0  501    0  0.00000000000E+00 -0.00000000000E+00 -0.43081182808E+03  0.43081182808E+03  0.00000000000E+00 0. -1.
         23    2    1    2    0    0 -0.12789449249E+03 -0.43632674333E+02 -0.31128911385E+03  0.35144526274E+03  0.91389544394E+02 0.  0.
          5    1    1    2  502    0  0.52506623971E+02  0.83404140069E+02 -0.38249738911E+01  0.98718280814E+02  0.41800000000E+01 0.  1.
         -5    1    1    2    0  502  0.75387868520E+02 -0.39771465737E+02 -0.10379171864E+02  0.85966853004E+02  0.41800000000E+01 0.  1.
        -11    1    3    3    0    0 -0.11008373233E+02  0.24299070517E+02 -0.36603392673E+02  0.45292797047E+02  0.00000000000E+00 0.  1.
         11    1    3    3    0    0 -0.11688611926E+03 -0.67931744849E+02 -0.27468572117E+03  0.30615246569E+03  0.00000000000E+00 0. -1.
</event>
<event>
 7    1  0.5137842E-006  0.2041607E+03  0.7561462E-02  0.1146275E+00
          1   -1    0    0  501    0  0.00000000000E+00  0.00000000000E+00  0.19741624152E+03  0.19741624152E+03  0.00000000000E+00 0. -1.
         -1   -1    0    0    0  501 -0.00000000000E+00 -0.00000000000E+00 -0.27329255662E+03  0.27329255662E+03  0.00000000000E+00 0.  1.
         23    2    1    2    0    0  0.11959961885E+02  0.18681304339E+03  0.45520051709E+02  0.21492758687E+03  0.95287137744E+02 0.  0.
          5    1    1    2  502    0  0.29357614401E+02 -0.54318660863E+00 -0.11061215162E+00  0.29658880796E+02  0.41800000000E+01 0.  1.
         -5    1    1    2    0  502 -0.41317576286E+02 -0.18626985679E+03 -0.12128575465E+03  0.22612233047E+03  0.41800000000E+01 0.  1.
        -11    1    3    3    0    0 -0.37240769249E+01  0.38516545783E+02 -0.28870009916E+02  0.48279089889E+02  0.00000000000E+00 0.  1.
         11    1    3    3    0    0  0.15684038810E+02  0.14829649761E+03  0.74390061625E+02  0.16664849698E+03  0.00000000000E+00 0. -1.
</event>
<event>
 7    1  0.5137842E-006  0.1877797E+03  0.7561462E-02  0.1160479E+00
         -3   -1    0    0    0  501 -0.00000000000E+00  0.00000000000E+00  0.27218768009E+03  0.27218768009E+03  0.00000000000E+00 0.  1.
          3   -1    0    0  501    0  0.00000000000E+00 -0.00000000000E+00 -0.55700391665E+03  0.55700391665E+03  0.00000000000E+00 0. -1.
         23    2    1    2    0    0 -0.16091761794E+03  0.61292477275E+02 -0.46477117077E+03  0.50401602413E+03  0.91480401559E+02 0.  0.
          5    1    1    2  502    0  0.30240852034E+02 -0.53845315311E+02 -0.36742789681E+02  0.71981470576E+02  0.41800000000E+01 0. -1.
         -5    1    1    2    0  502  0.13067676591E+03 -0.74471619633E+01  0.21669772388E+03  0.25319410203E+03  0.41800000000E+01 0.  1.
        -11    1    3    3    0    0 -0.98890927329E+02  0.51180769335E+01 -0.16176827846E+03  0.18966967637E+03  0.00000000000E+00 0.  1.
         11    1    3    3    0    0 -0.62026690613E+02  0.56174400341E+02 -0.30300289231E+03  0.31434634776E+03  0.00000000000E+00 0. -1.
</event>
<event>
 7    1  0.5137842E-006  0.2485907E+03  0.7561462E-02  0.1114199E+00
          2   -1    0    0  501    0  0.00000000000E+00  0.00000000000E+00  0.24104653675E+03  0.24104653675E+03  0.00000000000E+00 0.  1.
         -2   -1    0    0    0  501 -0.00000000000E+00 -0.00000000000E+00 -0.29061836353E+03  0.29061836353E+03  0.00000000000E+00 0. -1.
         23    2    1    2    0    0 -0.18256542849E+03  0.15711551521E+03 -0.15124679759E+02  0.25807929117E+03  0.91437102952E+02 0.  0.
          5    1    1    2  502    0  0.13827454243E+03 -0.72324927912E+02 -0.70481177932E+02  0.17127700700E+03  0.41800000000E+01 0.  1.
         -5    1    1    2    0  502  0.44290886055E+02 -0.84790587298E+02  0.36034030917E+02  0.10230860211E+03  0.41800000000E+01 0.  1.
        -11    1    3    3    0    0 -0.15186179112E+03  0.15072700626E+03 -0.40468657649E+02  0.21775754010E+03  0.00000000000E+00 0. -1.
         11    1    3    3    0    0 -0.30703637371E+02  0.63885089458E+01  0.25343977890E+02  0.40321751074E+02  0.00000000000E+00 0.  1.
</event>
<event>
 7    1  0.5137842E-006  0.2232620E+03  0.7561462E-02  0.1131474E+00
         -2   -1    0    0    0  501 -0.00000000000E+00  0.00000000000E+00  0.63597481485E+03  0.63597481485E+03  0.00000000000E+00 0.  1.
          2   -1    0    0  501    0  0.00000000000E+00 -0.00000000000E+00 -0.90337581390E+02  0.90337581390E+02  0.00000000000E+00 0. -1.
         23    2    1    2    0    0  0.18172997467E+02 -0.21249818860E+03  0.26273944800E+03  0.35059485757E+03  0.91646050764E+02 0.  0.
          5    1    1    2  502    0 -0.21739557059E+02  0.18724025947E+03  0.29261855012E+03  0.34810143835E+03  0.41800000000E+01 0. -1.
         -5    1    1    2    0  502  0.35665595913E+01  0.25257929131E+02 -0.97207646615E+01  0.27616100320E+02  0.41800000000E+01 0. -1.
        -11    1    3    3    0    0 -0.37415933380E+02 -0.74822650312E+02  0.94745399866E+02  0.12639253090E+03  0.00000000000E+00 0. -1.
         11    1    3    3    0    0  0.55588930847E+02 -0.13767553829E+03  0.16799404814E+03  0.22420232668E+03  0.00000000000E+00 0.  1.
</event>
<event>
 7    1  0.5137842E-006  0.1285039E+03  0.7561462E-02  0.1229693E+00
          3   -1    0    0  501    0  0.00000000000E+00  0.00000000000E+00  0.39974705728E+03  0.39974705728E+03  0.00000000000E+00 0. -1.
         -3   -1    0    0    0  501 -0.00000000000E+00 -0.00000000000E+00 -0.61394425354E+02  0.61394425354E+02  0.00000000000E+00 0.  1.
         23    2    1    2    0    0 -0.19538237806E+02 -0.71616408387E+02  0.27409434077E+03  0.30212316274E+03  0.10315059446E+03 0.  0.
          5    1    1    2  502    0 -0.87360586461E+01  0.10247639146E+03  0.39784396448E+02  0.11035397650E+03  0.41800000000E+01 0. -1.
         -5    1    1    2    0  502  0.28274296452E+02 -0.30859983077E+02  0.24473894706E+02  0.48664343389E+02  0.41800000000E+01 0. -1.
        -11    1    3    3    0    0  0.32400582191E+02 -0.38909550918E+02  0.19793657630E+03  0.20431015421E+03  0.00000000000E+00 0. -1.
         11    1    3    3    0    0 -0.51938819997E+02 -0.32706857469E+02  0.76157764474E+02  0.97813008531E+02  0.00000000000E+00 0.  1.
</event>
<event>
 7    1  0.5137842E-006  0.1833778E+03  0.7561462E-02  0.1164573E+00
         -3   -1    0    0    0  501 -0.00000000000E+00  0.00000000000E+00  0.17470329682E+03  0.17470329682E+03  0.00000000000E+00 0.  1.
          3   -1    0    0  501    0  0.00000000000E+00 -0.00000000000E+00 -0.25622053930E+03  0.25622053930E+03  0.00000000000E+00 0. -1.
         23    2    1    2    0    0  0.14314006905E+03  0.96260156015E+02 -0.96590068541E+02  0.21731172122E+03  0.90219985789E+02 0.  0.
          5    1    1    2  502    0 -0.14542604286E+03 -0.71250094361E+02  0.50770237513E+02  0.16976571887E+03  0.41800000000E+01 0.  1.
         -5    1    1    2    0  502  0.22859738094E+01 -0.25010061654E+02 -0.35697411450E+02  0.43846396025E+02  0.41800000000E+01 0.  1.
        -11    1    3    3    0    0  0.32145890217E+02 -0.35223687633E+00 -0.56154181447E+02  0.64705288985E+02  0.00000000000E+00 0. -1.
         11    1    3    3    0    0  0.11099417883E+03  0.96612392891E+02 -0.40435887094E+02  0.15260643223E+03  0.00000000000E+00 0.  1.
</event>
<event>
 7    1  0.5137842E-006  0.1489766E+03  0.7561462E-02  0.1201736E+00
         -1   -1    0    0    0  501 -0.00000000000E+00  0.00000000000E+00  0.45684622821E+03  0.45684622821E+03  0.00000000000E+00 0.  1.
          1   -1    0    0  501    0  0.00000000000E+00 -0.00000000000E+00 -0.89429554170E+02  0.89429554170E+02  0.00000000000E+00 0. -1.
         23    2    1    2    0    0 -0.11708906107E+03  0.43816227329E+01  0.69673309188E+01  0.14715185288E+03  0.88747266240E+02 0.  0.
          5    1    1    2  502    0 -0.26769767727E+02 -0.34704218006E+01  0.51466266589E+02  0.58265884428E+02  0.41800000000E+01 0.  1.
         -5    1    1    2    0  502  0.14385882880E+03 -0.91120093237E+00  0.30898307653E+03  0.34085804507E+03  0.41800000000E+01 0.  1.
        -11    1    3    3    0    0 -0.98623153265E+02 -0.15214036093E+02  0.37354271015E+02  0.10655202869E+03  0.00000000000E+00 0.  1.
         11    1    3    3    0    0 -0.18465907804E+02  0.19595658826E+02 -0.30386940096E+02  0.40599824190E+02  0.00000000000E+00 0. -1.
</event>
<event>
 7    1  0.5137842E-006  0.1235425E+03  0.7561462E-02  0.1237365E+00
          2   -1    0    0  501    0  0.00000000000E+00  0.00000000000E+00  0.86631684727E+03  0.86631684727E+03  0.00000000000E+00 0. -1.
         -2   -1    0    0    0  501 -0.00000000000E+00 -0.00000000000E+00 -0.25541945213E+02  0.25541945213E+02  0.00000000000E+00 0.  1.
         23    2    1    2    0    0  0.69672418293E+02  0.45940507649E+02  0.55713262206E+03  0.57082066460E+03  0.92058114548E+02 0.  0.
          5    1    1    2  502    0 -0.98542285318E+02 -0.26777571258E+02  0.25865301359E+03  0.27811234089E+03  0.41800000000E+01 0. -1.
         -5    1    1    2    0  502  0.28869867025E+02 -0.19162936391E+02  0.24989266404E+02  0.42925786988E+02  0.41800000000E+01 0. -1.
        -11    1    3    3    0    0  0.12355627029E+02 -0.19440100763E+02  0.37840837139E+02  0.44300203073E+02  0.00000000000E+00 0.  1.
         11    1    3    3    0    0  0.57316791264E+02  0.65380608412E+02  0.51929178492E+03  0.52652046152E+03  0.00000000000E+00 0. -1.
</event>
<event>
 7    1  0.5137842E-006  0.9581233E+02  0.7561462E-02  0.1289357E+00
          2   -1    0    0  501    0  0.00000000000E+00  0.00000000000E+00  0.10131079258E+03  0.10131079258E+03  0.00000000000E+00 0.  1.
         -2   -1    0    0    0  501 -0.00000000000E+00 -0.00000000000E+00 -0.13137123143E+03  0.13137123143E+03  0.00000000000E+00 0. -1.
         23    2    1    2    0    0 -0.17979259313E+02 -0.19679474770E+02  0.14554199580E+02  0.97222776240E+02  0.92357501059E+02 0.  0.
          5    1    1    2  502    0 -0.41354805625E+02 -0.22852744482E+02  0.40760921344E+01  0.47608348068E+02  0.41800000000E+01 0. -1.
         -5    1    1    2    0  502  0.59334064938E+02  0.42532219252E+02 -0.48690730565E+02  0.87850899708E+02  0.41800000000E+01 0. -1.
        -11    1    3    3    0    0  0.21950798695E+01 -0.41380088955E+02  0.40423204749E+02  0.57889253059E+02  0.00000000000E+00 0.  1.
         11    1    3    3    0    0 -0.20174339182E+02  0.21700614185E+02 -0.25869005169E+02  0.39333523182E+02  0.00000000000E+00 0. -1.
</event>
<event>
 7    1  0.5137842E-006  0.1721115E+03  0.7561462E-02  0.1175664E+00
         -1   -1    0    0    0  501 -0.00000000000E+00  0.00000000000E+00  0.22071272232E+03  0.22071272232E+03  0.00000000000E+00 0.  1.
          1   -1    0    0  501    0  0.00000000000E+00 -0.00000000000E+00 -0.16831277754E+03  0.16831277754E+03  0.00000000000E+00 0. -1.
         23    2    1    2    0    0 -0.11125294348E+03  0.81886639076E+02 -0.54761591290E+02  0.17405047028E+03  0.90620611518E+02 0.  0.
          5    1    1    2  502    0  0.13179818464E+03 -0.48269195246E+02  0.10492504274E+03  0.17529236629E+03  0.41800000000E+01 0.  1.
         -5    1    1    2    0  502 -0.20545241164E+02 -0.33617443830E+02  0.22364933354E+01  0.39682663300E+02  0.41800000000E+01 0.  1.
        -11    1    3    3    0    0 -0.11634137317E+02  0.61382214970E+02 -0.30339773883E+02  0.69452367454E+02  0.00000000000E+00 0.  1.
         11    1    3    3    0    0 -0.99618806161E+02  0.20504424106E+02 -0.24421817407E+02  0.10459810282E+03  0.00000000000E+00 0. -1.
</event>
<event>
 7    1  0.5137842E-006  0.1888675E+03  0.7561462E-02  0.1159487E+00
         -1   -1    0    0    0  501 -0.00000000000E+00  0.00000000000E+00  0.11089490396E+04  0.11089490396E+04  0.00000000000E+00 0.  1.
          1   -1    0    0  501    0  0.00000000000E+00 -0.00000000000E+00 -0.44701959613E+02  0.44701959613E+02  0.00000000000E+00 0. -1.
         23    2    1    2    0    0 -0.17868986664E+03  0.52352554278E+02  0.37868013453E+03  0.43231745605E+03  0.93962120763E+02 0.  0.
          5    1    1    2  502    0  0.69134484346E+02 -0.22301796404E+02  0.48800851375E+03  0.49340321132E+03  0.41800000000E+01 0.  1.
         -5    1    1    2    0  502  0.10955538229E+03 -0.30050757874E+02  0.19755843174E+03  0.22793033187E+03  0.41800000000E+01 0.  1.
        -11    1    3    3    0    0 -0.10690435288E+03  0.86558818214E+01  0.12307346696E+03  0.16324994096E+03  0.00000000000E+00 0.  1.
         11    1    3    3    0    0 -0.71785513763E+02  0.43696672456E+02  0.25560666757E+03  0.26906751509E+03  0.00000000000E+00 0. -1.
</event>
<event>
 7    1  0.5137842E-006  0.1104388E+03  0.7561462E-02  0.1259759E+00
          2   -1    0    0  501    0  0.00000000000E+00  0.00000000000E+00  0.35101677368E+03  0.35101677368E+03  0.00000000000E+00 0. -1.
         -2   -1    0    0    0  501 -0.00000000000E+00 -0.00000000000E+00 -0.52469288624E+02  0.52469288624E+02  0.00000000000E+00 0.  1.
         23    2    1    2    0    0  0.47862653129E+02 -0.87201575580E+01  0.23080481627E+03  0.25314784119E+03  0.91902620035E+02 0.  0.
          5    1    1    2  502    0  0.41845175359E+02  0.49786907720E+01  0.34083411952E+02  0.54359520168E+02  0.41800000000E+01 0. -1.
         -5    1    1    2    0  502 -0.89707828488E+02  0.37414667860E+01  0.33659256831E+02  0.95978700951E+02  0.41800000000E+01 0. -1.
        -11    1    3    3    0    0  0.29769755868E+02 -0.41578518228E+02  0.62701598428E+02  0.80910456605E+02  0.00000000000E+00 0.  1.
         11    1    3    3    0    0  0.18092897261E+02  0.32858360670E+02  0.16810321785E+03  0.17223738458E+03  0.00000000000E+00 0. -1.
</event>
<event>
 7    1  0.5137842E-006  0.1222686E+03  0.7561462E-02  0.1239401E+00
          2   -1    0    0  501    0  0.00000000000E+00  0.00000000000E+00  0.48271589348E+02  0.48271589348E+02  0.00000000000E+00 0. -1.
         -2   -1    0    0    0  501 -0.00000000000E+00 -0.00000000000E+00 -0.46819418774E+03  0.46819418774E+03  0.00000000000E+00 0.  1.
         23    2    1    2    0    0 -0.44965764211E+01 -0.88108795135E+02 -0.11536931503E+03  0.17561006549E+03  0.98718981310E+02 0.  0.
          5    1    1    2  502    0 -0.56096459166E+02  0.48531610769E+02 -0.10567923727E+03  0.12918089473E+03  0.41800000000E+01 0.  1.
         -5    1    1    2    0  502  0.60593035587E+02  0.39577184366E+02 -0.19887404610E+03  0.21167481687E+03  0.41800000000E+01 0.  1.
        -11    1    3    3    0    0  0.13921550171E+02 -0.91226932188E+01  0.14779022656E+02  0.22258764597E+02  0.00000000000E+00 0. -1.
         11    1    3    3    0    0 -0.18418126592E+02 -0.78986101916E+02 -0.13014833768E+03  0.15335130089E+03  0.00000000000E+00 0.  1.
</event>
<event>
 7    1  0.5137842E-006  0.2112399E+03  0.7561462E-02  0.1140588E+00
          2   -1    0    0  501    0  0.00000000000E+00  0.00000000000E+00  0.88597306825E+03  0.88597306825E+03  0.00000000000E+00 0. -1.
         -2   -1    0    0    0  501 -0.00000000000E+00 -0.00000000000E+00 -0.60903994201E+02  0.60903994201E+02  0.00000000000E+00 0.  1.
         23    2    1    2    0    0  0.20356994556E+03  0.47273142008E+00  0.44751633219E+03  0.50007290394E+03  0.91439025920E+02 0.  0.
          5    1    1    2  502    0 -0.10987707739E+03  0.24646123212E+02  0.30630695096E+03  0.32637681310E+03  0.41800000000E+01 0.  1.
         -5    1    1    2    0  502 -0.93692868164E+02 -0.25118854632E+02  0.71245790898E+02  0.12042734541E+03  0.41800000000E+01 0.  1.
        -11    1    3    3    0    0  0.29510895405E+02  0.22699125042E+02  0.32255366828E+02  0.49260043793E+02  0.00000000000E+00 0.  1.
         11    1    3    3    0    0  0.17405905015E+03 -0.22226393622E+02  0.41526096537E+03  0.45081286014E+03  0.00000000000E+00 0. -1.
</event>
<event>
 7    1  0.5137842E-006  0.1421536E+03  0.7561462E-02  0.1210460E+00
          2   -1    0    0  501    0  0.00000000000E+00  0.00000000000E+00  0.23265622206E+03  0.23265622206E+03  0.00000000000E+00 0. -1.
         -2   -1    0    0    0  501 -0.00000000000E+00 -0.00000000000E+00 -0.12353032693E+03  0.12353032693E+03  0.00000000000E+00 0.  1.
         23    2    1    2    0    0 -0.37552343281E+02  0.12295227563E+03  0.71596966520E+02  0.17292760330E+03  0.90831656382E+02 0.  0.
          5    1    1    2  502    0  0.26723210091E+02 -0.11981705949E+03  0.74991063516E+02  0.14391452223E+03  0.41800000000E+01 0. -1.
         -5    1    1    2    0  502  0.10829133190E+02 -0.31352161408E+01 -0.37462134905E+02  0.39344423462E+02  0.41800000000E+01 0. -1.
        -11    1    3    3    0    0 -0.28605139699E+02  0.25516473559E+01 -0.60936932724E+01  0.29358099719E+02  0.00000000000E+00 0.  1.
         11    1    3    3    0    0 -0.89472035826E+01  0.12040062827E+03  0.77690659792E+02  0.14356950358E+03  0.00000000000E+00 0. -1.
</event>
<event>
 7    1  0.5137842E-006  0.9287820E+02  0.7561462E-02  0.1296028E+00
         -1   -1    0    0    0  501 -0.00000000000E+00  0.00000000000E+00  0.15674905894E+03  0.15674905894E+03  0.00000000000E+00 0.  1.
          1   -1    0    0  501    0  0.00000000000E+00 -0.00000000000E+00 -0.84571182491E+02  0.84571182491E+02  0.00000000000E+00 0. -1.
         23    2    1    2    0    0 -0.25817967063E+02  0.71594536349E+01  0.64784301099E+01  0.97589278751E+02  0.93615554642E+02 0.  0.
          5    1    1    2  502    0 -0.50307309525E+02 -0.80454484989E+01  0.32476718667E+02  0.60562069719E+02  0.41800000000E+01 0.  1.
         -5    1    1    2    0  502  0.76125276588E+02  0.88599486403E+00  0.33222727673E+02  0.83168892962E+02  0.41800000000E+01 0.  1.
        -11    1    3    3    0    0 -0.38207959626E+02  0.17716733209E+02 -0.33892938158E+02  0.54059800882E+02  0.00000000000E+00 0. -1.
         11    1    3    3    0    0  0.12389992563E+02 -0.10557279574E+02  0.40371368268E+02  0.43529477869E+02  0.00000000000E+00 0.  1.
</event>
<event>
 7    1  0.5137842E-006  0.1297250E+03  0.7561462E-02  0.1227864E+00
         -2   -1    0    0    0  501 -0.00000000000E+00  0.00000000000E+00  0.18563442474E+03  0.18563442474E+03  0.00000000000E+00 0. -1.
          2   -1    0    0  501    0  0.00000000000E+00 -0.00000000000E+00 -0.32108162729E+03  0.32108162729E+03  0.00000000000E+00 0.  1.
         23    2    1    2    0    0  0.29205256399E+02 -0.11044200120E+03 -0.25864087176E+03  0.29725309731E+03  0.91727426031E+02 0.  0.
          5    1    1    2  502    0  0.16426419734E+02  0.82385232544E+02  0.13048060687E+03  0.15524115104E+03  0.41800000000E+01 0.  1.
         -5    1    1    2    0  502 -0.45631676134E+02  0.28056768651E+02 -0.72869376546E+01  0.54221803680E+02  0.41800000000E+01 0.  1.
        -11    1    3    3    0    0 -0.98688404116E+01 -0.11065913478E+02  0.25796904526E+01  0.15050025083E+02  0.00000000000E+00 0. -1.
         11    1    3    3    0    0  0.39074096811E+02 -0.99376087717E+02 -0.26122056221E+03  0.28220307223E+03  0.00000000000E+00 0.  1.
</event>
<event>
 7    1  0.5137842E-006  0.1301498E+03  0.7561462E-02  0.1227234E+00
         -2   -1    0    0    0  501 -0.00000000000E+00  0.00000000000E+00  0.66065641564E+02  0.66065641564E+02  0.00000000000E+00 0. -1.
          2   -1    0    0  501    0  0.00000000000E+00 -0.00000000000E+00 -0.29779784424E+03  0.29779784424E+03  0.00000000000E+00 0.  1.
         23    2    1    2    0    0  0.26238516963E+02 -0.70491194884E+02 -0.16280794243E+03  0.20244306319E+03  0.93911124927E+02 0.  0.
          5    1    1    2  502    0  0.20442516880E+02 -0.27588713401E+02 -0.30529712326E+02  0.46136420952E+02  0.41800000000E+01 0. -1.
         -5    1    1    2    0  502 -0.46681033843E+02  0.98079908285E+02 -0.38394547916E+02  0.11528400166E+03  0.41800000000E+01 0. -1.
        -11    1    3    3    0    0  0.59562472869E+02 -0.39277452768E+02 -0.75259370517E+02  0.10370332358E+03  0.00000000000E+00 0.  1.
         11    1    3    3    0    0 -0.33323955906E+02 -0.31213742115E+02 -0.87548571914E+02  0.98739739610E+02  0.00000000000E+00 0. -1.
</event>
<event>
 7    1  0.5137842E-006  0.1025414E+03  0.7561462E-02  0.1275041E+00
          1   -1    0    0  501    0  0.00000000000E+00  0.00000000000E+00  0.17133693042E+03  0.17133693042E+03  0.00000000000E+00 0. -1.
         -1   -1    0    0    0  501 -0.00000000000E+00 -0.00000000000E+00 -0.86739262091E+02  0.86739262091E+02  0.00000000000E+00 0.  1.
         23    2    1    2    0    0 -0.15935121415E+02 -0.41403346636E+02  0.73630166333E+02  0.12489842408E+03  0.90609324772E+02 0.  0.
          5    1    1    2  502    0  0.47866997544E+02  0.63027184589E+02 -0.22021682820E+02  0.82256321127E+02  0.41800000000E+01 0. -1.
         -5    1    1    2    0  502 -0.31931876129E+02 -0.21623837953E+02  0.32989184813E+02  0.50921447304E+02  0.41800000000E+01 0. -1.
        -11    1    3    3    0    0 -0.46244813887E+02 -0.25528193032E+02  0.11636673134E+02  0.54089588763E+02  0.00000000000E+00 0.  1.
         11    1    3    3    0    0  0.30309692472E+02 -0.15875153604E+02  0.61993493199E+02  0.70808835315E+02  0.00000000000E+00 0. -1.
</event>
<event>
 7    1  0.6573078E-006  0.3380050E+03  0.7561462E-02  0.1067649E+00
         -1   -1    0    0    0  501 -0.00000000000E+00  0.00000000000E+00  0.31317082692E+03  0.31317082692E+03  0.00000000000E+00 0.  1.
          1   -1    0    0  501    0  0.00000000000E+00 -0.00000000000E+00 -0.38619797514E+03  0.38619797514E+03  0.00000000000E+00 0. -1.
         23    2    1    2    0    0 -0.91350228372E+02 -0.30940848215E+03 -0.10569766285E+03  0.35181525634E+03  0.92322833649E+02 0.  0.
          5    1    1    2  502    0 -0.43725873375E+01  0.18160498300E+03 -0.10757689680E+02  0.18202387112E+03  0.41800000000E+01 0. -1.
         -5    1    1    2    0  502  0.95722815710E+02  0.12780349915E+03  0.43428204305E+02  0.16552967460E+03  0.41800000000E+01 0. -1.
        -11    1    3    3    0    0 -0.20552078326E+01 -0.16347458323E+03 -0.65147938185E+02  0.17598982099E+03  0.00000000000E+00 0.  1.
         11    1    3    3    0    0 -0.89295020540E+02 -0.14593389892E+03 -0.40549724668E+02  0.17582543535E+03  0.00000000000E+00 0. -1.
</event>
<event>
 7    1  0.5137842E-006  0.1286510E+03  0.7561462E-02  0.1229471E+00
          1   -1    0    0  501    0  0.00000000000E+00  0.00000000000E+00  0.87619759709E+03  0.87619759709E+03  0.00000000000E+00 0. -1.
         -1   -1    0    0    0  501 -0.00000000000E+00 -0.00000000000E+00 -0.33111481164E+02  0.33111481164E+02  0.00000000000E+00 0.  1.
         23    2    1    2    0    0  0.90805315050E+02 -0.59544903069E+00  0.64918825902E+03  0.66201364892E+03  0.92578161055E+02 0.  0.
          5    1    1    2  502    0 -0.11615283100E+02 -0.38540695090E+02  0.13527135550E+03  0.14119529737E+03  0.41800000000E+01 0. -1.
         -5    1    1    2    0  502 -0.79190031950E+02  0.39136144121E+02  0.58626501406E+02  0.10610013197E+03  0.41800000000E+01 0.  1.
        -11    1    3    3    0    0  0.53453392427E+02  0.44707538995E+02  0.30558588167E+03  0.31343063073E+03  0.00000000000E+00 0.  1.
         11    1    3    3    0    0  0.37351922623E+02 -0.45302988026E+02  0.34360237735E+03  0.34858301819E+03  0.00000000000E+00 0. -1.
</event>
<event>
 7    1  0.5137842E-006  0.1201529E+03  0.7561462E-02  0.1242845E+00
         -2   -1    0    0    0  501 -0.00000000000E+00  0.00000000000E+00  0.11442449550E+03  0.11442449550E+03  0.00000000000E+00 0.  1.
          2   -1    0    0  501    0  0.00000000000E+00 -0.00000000000E+00 -0.18047581114E+03  0.18047581114E+03  0.00000000000E+00 0. -1.
         23    2    1    2    0    0  0.69695401207E+02 -0.11814379365E+01 -0.95192518405E+02  0.14876135681E+03  0.90606186191E+02 0.  0.
          5    1    1    2  502    0 -0.12237377916E+02  0.49475463004E+02 -0.21526233498E+02  0.55483565011E+02  0.41800000000E+01 0.  1.
         -5    1    1    2    0  502 -0.57458023291E+02 -0.48294025067E+02  0.50667436269E+02  0.90655384814E+02  0.41800000000E+01 0.  1.
        -11    1    3    3    0    0  0.68132064132E+02  0.35809672429E+02 -0.69416763607E+02  0.10364843401E+03  0.00000000000E+00 0.  1.
         11    1    3    3    0    0  0.15633370753E+01 -0.36991110365E+02 -0.25775754798E+02  0.45112922808E+02  0.00000000000E+00 0. -1.
</event>
<event>
 7    1  0.5137842E-006  0.1402716E+03  0.7561462E-02  0.1212964E+00
          2   -1    0    0  501    0  0.00000000000E+00  0.00000000000E+00  0.83490585615E+02  0.83490585615E+02  0.00000000000E+00 0. -1.
         -2   -1    0    0    0  501 -0.00000000000E+00 -0.00000000000E+00 -0.26698741590E+03  0.26698741590E+03  0.00000000000E+00 0.  1.
         23    2    1    2    0    0 -0.95327619697E+02 -0.18108303343E+01 -0.35716962724E+02  0.13466032164E+03  0.88130962859E+02 0.  0.
          5    1    1    2  502    0  0.57957423682E+02  0.59268345255E+02 -0.51928487306E+02  0.97907302603E+02  0.41800000000E+01 0.  1.
         -5    1    1    2    0  502  0.37370196015E+02 -0.57457514921E+02 -0.95851380252E+02  0.11791037727E+03  0.41800000000E+01 0.  1.
        -11    1    3    3    0    0 -0.41689397584E+01 -0.32439526317E+02 -0.16340209753E+02  0.36560981676E+02  0.00000000000E+00 0.  1.
         11    1    3    3    0    0 -0.91158679939E+02  0.30628695982E+02 -0.19376752971E+02  0.98099339964E+02  0.00000000000E+00 0. -1.
</event>
<event>
 6    1  0.5137842E-006  0.7134975E+02  0.7561462E-02  0.1355562E+00
         -1   -1    0    0    0  501 -0.00000000000E+00  0.00000000000E+00  0.16652618633E+03  0.16652618633E+03  0.00000000000E+00 0.  1.
          1   -1    0    0  501    0  0.00000000000E+00 -0.00000000000E+00 -0.80724304843E+02  0.80724304843E+02  0.00000000000E+00 0. -1.
          5    1    1    2  502    0 -0.48161568807E+02 -0.28397444560E+02  0.12428772541E+03  0.13634831373E+03  0.41800000000E+01 0. -1.
         -5    1    1    2    0  502 -0.10137856454E+02  0.23052672511E+02 -0.23446379703E+02  0.34661317986E+02  0.41800000000E+01 0. -1.
        -11    1    1    2    0    0  0.33670523105E+02  0.11741966593E+02  0.13386710890E+02  0.38089131444E+02  0.00000000000E+00 0.  1.
         11    1    1    2    0    0  0.24628902155E+02 -0.63971945443E+01 -0.28426175111E+02  0.38151728019E+02  0.00000000000E+00 0. -1.
</event>
<event>
 7    1  0.5137842E-006  0.3460168E+03  0.7561462E-02  0.1064262E+00
         -2   -1    0    0    0  501 -0.00000000000E+00  0.00000000000E+00  0.80144306489E+02  0.80144306489E+02  0.00000000000E+00 0.  1.
          2   -1    0    0  501    0  0.00000000000E+00 -0.00000000000E+00 -0.15948189780E+04  0.15948189780E+04  0.00000000000E+00 0. -1.
         23    2    1    2    0    0  0.11534060514E+03  0.31962263610E+03 -0.79156195351E+03  0.86625845450E+03  0.91494803448E+02 0.  0.
          5    1    1    2  502    0 -0.13444459024E+02 -0.96820768413E+02 -0.10361608625E+03  0.14250887833E+03  0.41800000000E+01 0. -1.
         -5    1    1    2    0  502 -0.10189614612E+03 -0.22280186768E+03 -0.61949663172E+03  0.66619595161E+03  0.41800000000E+01 0. -1.
        -11    1    3    3    0    0  0.79574134599E+02  0.10588592144E+03 -0.35411124292E+03  0.37807227301E+03  0.00000000000E+00 0. -1.
         11    1    3    3    0    0  0.35766470545E+02  0.21373671466E+03 -0.43745071059E+03  0.48818618150E+03  0.00000000000E+00 0.  1.
</event>
<event>
 7    1  0.5137842E-006  0.1375385E+03  0.7561462E-02  0.1216680E+00
         -1   -1    0    0    0  501 -0.00000000000E+00  0.00000000000E+00  0.93600877887E+02  0.93600877887E+02  0.00000000000E+00 0.  1.
          1   -1    0    0  501    0  0.00000000000E+00 -0.00000000000E+00 -0.27495298668E+03  0.27495298668E+03  0.00000000000E+00 0. -1.
         23    2    1    2    0    0  0.10913546256E+02  0.92684959265E+02 -0.16646855300E+03  0.21177822797E+03  0.91807578878E+02 0.  0.
          5    1    1    2  502    0  0.56631003806E+02 -0.32294990750E+02 -0.79894223906E+01  0.65812918867E+02  0.41800000000E+01 0.  1.
         -5    1    1    2    0  502 -0.67544550063E+02 -0.60389968515E+02 -0.68941334004E+01  0.90962717724E+02  0.41800000000E+01 0.  1.
        -11    1    3    3    0    0  0.31807375777E+02  0.92858598295E+02 -0.92347045994E+02  0.13476796851E+03  0.00000000000E+00 0.  1.
         11    1    3    3    0    0 -0.20893829520E+02 -0.17363902975E+00 -0.74121507004E+02  0.77010259466E+02  0.00000000000E+00 0. -1.
</event>
<event>
 7    1  0.5137842E-006  0.1929513E+03  0.7561462E-02  0.1155826E+00
          2   -1    0    0  501    0  0.00000000000E+00  0.00000000000E+00  0.23160697552E+03  0.23160697552E+03  0.00000000000E+00 0.  1.
         -2   -1    0    0    0  501 -0.00000000000E+00 -0.00000000000E+00 -0.19222306389E+03  0.19222306389E+03  0.00000000000E+00 0. -1.
         23    2    1    2    0    0 -0.73475257600E+01  0.17392894012E+03  0.67841002535E+02  0.20758428175E+03  0.90463086722E+02 0.  0.
          5    1    1    2  502    0  0.33974216050E+02 -0.16416379828E+03 -0.55695464346E+02  0.17670160489E+03  0.41800000000E+01 0. -1.
         -5    1    1    2    0  502 -0.26626690290E+02 -0.97651418400E+01  0.27238373436E+02  0.39544152771E+02  0.41800000000E+01 0. -1.
        -11    1    3    3    0    0  0.29762596103E+02  0.36015937479E+02  0.41219418006E+02  0.62305700382E+02  0.00000000000E+00 0.  1.
         11    1    3    3    0    0 -0.37110121863E+02  0.13791300264E+03  0.26621584529E+02  0.14527858137E+03  0.00000000000E+00 0. -1.
</event>
<event>
 7    1  0.5137842E-006  0.1130810E+03  0.7561462E-02  0.1254968E+00
         -1   -1    0    0    0  501 -0.00000000000E+00  0.00000000000E+00  0.58247189151E+02  0.58247189151E+02  0.00000000000E+00 0.  1.
          1   -1    0    0  501    0  0.00000000000E+00 -0.00000000000E+00 -0.23170763860E+03  0.23170763860E+03  0.00000000000E+00 0. -1.
         23    2    1    2    0    0 -0.17824152245E+02  0.40443589956E+02 -0.10212136346E+03  0.13932516088E+03  0.83841178461E+02 0.  0.
          5    1    1    2  502    0  0.18626646222E+02  0.43685171346E+02 -0.33606181236E+02  0.58328328986E+02  0.41800000000E+01 0.  1.
         -5    1    1    2    0  502 -0.80249397697E+00 -0.84128761302E+02 -0.37732904745E+02  0.92301337885E+02  0.41800000000E+01 0.  1.
        -11    1    3    3    0    0  0.49866112192E+00 -0.25655248069E+02 -0.34592514649E+02  0.43070668513E+02  0.00000000000E+00 0. -1.
         11    1    3    3    0    0 -0.18322813367E+02  0.66098838025E+02 -0.67528848815E+02  0.96254492364E+02  0.00000000000E+00 0.  1.
</event>
<event>
 7    1  0.5137842E-006  0.1397152E+03  0.7561462E-02  0.1213713E+00
         -1   -1    0    0    0  501 -0.00000000000E+00  0.00000000000E+00  0.61795591405E+02  0.61795591405E+02  0.00000000000E+00 0.  1.
          1   -1    0    0  501    0  0.00000000000E+00 -0.00000000000E+00 -0.40768367080E+03  0.40768367080E+03  0.00000000000E+00 0. -1.
         23    2    1    2    0    0 -0.91313341583E+02  0.33441236897E+02 -0.25556068900E+03  0.28709954528E+03  0.87512516036E+02 0.  0.
          5    1    1    2  502    0  0.11868696373E+03 -0.41068758611E+02 -0.88306869077E+02  0.15358650273E+03  0.41800000000E+01 0. -1.
         -5    1    1    2    0  502 -0.27373622152E+02  0.76275217145E+01 -0.20205213181E+01  0.28793214194E+02  0.41800000000E+01 0. -1.
        -11    1    3    3    0    0 -0.10584074122E+03  0.27525701361E+02 -0.24468480981E+03  0.26801228123E+03  0.00000000000E+00 0. -1.
         11    1    3    3    0    0  0.14527399637E+02  0.59155355353E+01 -0.10875879187E+02  0.19087264052E+02  0.00000000000E+00 0.  1.
</event>
<event>
 7    1  0.5137842E-006  0.1272414E+03  0.7561462E-02  0.1231607E+00
         -2   -1    0    0    0  501 -0.00000000000E+00  0.00000000000E+00  0.86528000451E+02  0.86528000451E+02  0.00000000000E+00 0.  1.
          2   -1    0    0  501    0  0.00000000000E+00 -0.00000000000E+00 -0.26868583597E+03  0.26868583597E+03  0.00000000000E+00 0. -1.
         23    2    1    2    0    0  0.32746315327E+02  0.71343780381E+02 -0.15182357780E+03  0.20444853986E+03  0.11218979681E+03 0.  0.
          5    1    1    2  502    0  0.46806684561E+02 -0.24340747590E+02 -0.23832822347E+02  0.58041481147E+02  0.41800000000E+01 0.  1.
         -5    1    1    2    0  502 -0.79552999888E+02 -0.47003032791E+02 -0.65014353687E+01  0.92723815412E+02  0.41800000000E+01 0.  1.
        -11    1    3    3    0    0  0.13448758460E+02 -0.15257867427E+02  0.78325688040E+01  0.21794970902E+02  0.00000000000E+00 0.  1.
         11    1    3    3    0    0  0.19297556867E+02  0.86601647808E+02 -0.15965614661E+03  0.18265356896E+03  0.00000000000E+00 0. -1.
</event>
<event>
 7    1  0.5137842E-006  0.1448426E+03  0.7561462E-02  0.1206958E+00
          1   -1    0    0  501    0  0.00000000000E+00  0.00000000000E+00  0.51524111445E+03  0.51524111445E+03  0.00000000000E+00 0. -1.
         -1   -1    0    0    0  501 -0.00000000000E+00 -0.00000000000E+00 -0.52995189090E+02  0.52995189090E+02  0.00000000000E+00 0.  1.
         23    2    1    2    0    0  0.86711181596E+02  0.87570030977E+02  0.24569132152E+03  0.28943466714E+03  0.90668967876E+02 0.  0.
          5    1    1    2  502    0  0.15606389661E+01  0.70537329021E+01 -0.12885103702E+02  0.15352167249E+02  0.41800000000E+01 0.  1.
         -5    1    1    2    0  502 -0.88271820562E+02 -0.94623763879E+02  0.22943970754E+03  0.26344946915E+03  0.41800000000E+01 0.  1.
        -11    1    3    3    0    0  0.10502921460E+03  0.80083539924E+02  0.20040957699E+03  0.24001772400E+03  0.00000000000E+00 0.  1.
         11    1    3    3    0    0 -0.18318033008E+02  0.74864910532E+01  0.45281744532E+02  0.49416943141E+02  0.00000000000E+00 0. -1.
</event>
<event>
 7    1  0.5137842E-006  0.1316235E+03  0.7561462E-02  0.1225066E+00
          2   -1    0    0  501    0  0.00000000000E+00  0.00000000000E+00  0.31397407429E+03  0.31397407429E+03  0.00000000000E+00 0. -1.
         -2   -1    0    0    0  501 -0.00000000000E+00 -0.00000000000E+00 -0.71063900669E+02  0.71063900669E+02  0.00000000000E+00 0.  1.
         23    2    1    2    0    0 -0.52303203840E+02  0.80228841824E+02  0.14197146861E+03  0.19793124302E+03  0.99240046722E+02 0.  0.
          5    1    1    2  502    0 -0.21733209970E+02 -0.77805091310E+02  0.36131121722E+02  0.88593989673E+02  0.41800000000E+01 0. -1.
         -5    1    1    2    0  502  0.74036413809E+02 -0.24237505133E+01  0.64807583287E+02  0.98512742261E+02  0.41800000000E+01 0. -1.
        -11    1    3    3    0    0 -0.28972799318E+02  0.50038556748E+01 -0.62731652839E+01  0.30063504031E+02  0.00000000000E+00 0.  1.
         11    1    3    3    0    0 -0.23330404522E+02  0.75224986149E+02  0.14824463389E+03  0.16786773899E+03  0.00000000000E+00 0. -1.
</event>
<event>
 7    1  0.5137842E-006  0.1729421E+03  0.7561462E-02  0.1174814E+00
          2   -1    0    0  501    0  0.00000000000E+00  0.00000000000E+00  0.12161587654E+04  0.12161587654E+04  0.00000000000E+00 0.  1.
         -2   -1    0    0    0  501 -0.00000000000E+00 -0.00000000000E+00 -0.33510277940E+02  0.33510277940E+02  0.00000000000E+00 0. -1.
         23    2    1    2    0    0 -0.16087065821E+03 -0.51071222255E+02  0.61534955974E+03  0.64471960524E+03  0.92307368517E+02 0.  0.
          5    1    1    2  502    0  0.23744312947E+02  0.29554439319E+02  0.31203476839E+03  0.31435716370E+03  0.41800000000E+01 0.  1.
         -5    1    1    2    0  502  0.13712634527E+03  0.21516782936E+02  0.25526415937E+03  0.29059227445E+03  0.41800000000E+01 0.  1.
        -11    1    3    3    0    0 -0.11633772027E+03 -0.34284256430E+02  0.55375215988E+03  0.56687858486E+03  0.00000000000E+00 0.  1.
         11    1    3    3    0    0 -0.44532937948E+02 -0.16786965825E+02  0.61597399858E+02  0.77841020376E+02  0.00000000000E+00 0. -1.
</event>
<event>
 7    1  0.5137842E-006  0.1172319E+03  0.7561462E-02  0.1247735E+00
          1   -1    0    0  501    0  0.00000000000E+00  0.00000000000E+00  0.16605887005E+03  0.16605887005E+03  0.00000000000E+00 0. -1.
         -1   -1    0    0    0  501 -0.00000000000E+00 -0.00000000000E+00 -0.18201329820E+03  0.18201329820E+03  0.00000000000E+00 0.  1.
         23    2    1    2    0    0 -0.17663171708E+02 -0.10270739674E+03  0.79130279097E+02  0.15952494365E+03  0.91245874403E+02 0.  0.
          5    1    1    2  502    0 -0.11490032253E+02  0.30041208625E+02 -0.10464758070E+03  0.10955858525E+03  0.41800000000E+01 0. -1.
         -5    1    1    2    0  502  0.29153203960E+02  0.72666188119E+02  0.95628734474E+01  0.78988639344E+02  0.41800000000E+01 0. -1.
        -11    1    3    3    0    0 -0.83203025531E+01 -0.11089050541E+03  0.39524459267E+02  0.11801743305E+03  0.00000000000E+00 0.  1.
         11    1    3    3    0    0 -0.93428691544E+01  0.81831086640E+01  0.39605819830E+02  0.41507510595E+02  0.00000000000E+00 0. -1.
</event>
<event>
 7    1  0.5137842E-006  0.1262613E+03  0.7561462E-02  0.1233111E+00
         -4   -1    0    0    0  501 -0.00000000000E+00  0.00000000000E+00  0.38574016310E+03  0.38574016310E+03  0.00000000000E+00 0.  1.
          4   -1    0    0  501    0  0.00000000000E+00 -0.00000000000E+00 -0.55111460482E+02  0.55111460482E+02  0.00000000000E+00 0. -1.
         23    2    1    2    0    0 -0.48686096353E+02  0.82564203411E+02  0.12395332771E+03  0.18094645339E+03  0.90498662317E+02 0.  0.
          5    1    1    2  502    0 -0.21352444021E+02 -0.14755010973E+02 -0.50570347272E+01  0.26770939743E+02  0.41800000000E+01 0.  1.
         -5    1    1    2    0  502  0.70038540374E+02 -0.67809192439E+02  0.21173240963E+03  0.23313423044E+03  0.41800000000E+01 0.  1.
        -11    1    3    3    0    0 -0.72429627052E+02  0.73647181091E+02  0.11362944193E+03  0.15356304318E+03  0.00000000000E+00 0.  1.
         11    1    3    3    0    0  0.23743530699E+02  0.89170223201E+01  0.10323885778E+02  0.27383410209E+02  0.00000000000E+00 0. -1.
</event>
<event>
 7    1  0.5137842E-006  0.3478216E+03  0.7561462E-02  0.1063513E+00
          3   -1    0    0  501    0  0.00000000000E+00  0.00000000000E+00  0.73929979018E+03  0.73929979018E+03  0.00000000000E+00 0. -1.
         -3   -1    0    0    0  501 -0.00000000000E+00 -0.00000000000E+00 -0.17719146702E+03  0.17719146702E+03  0.00000000000E+00 0.  1.
         23    2    1    2    0    0  0.19062526436E+03  0.28453496239E+03  0.33179082409E+03  0.48522295185E+03  0.89766507182E+02 0.  0.
          5    1    1    2  502    0  0.76616100213E-02 -0.32605208960E+02  0.69187828521E+02  0.76599789331E+02  0.41800000000E+01 0. -1.
         -5    1    1    2    0  502 -0.19063292597E+03 -0.25192975343E+03  0.16112967054E+03  0.35466851602E+03  0.41800000000E+01 0. -1.
        -11    1    3    3    0    0  0.11090188143E+03  0.21094553250E+03  0.27089384292E+03  0.36080565283E+03  0.00000000000E+00 0. -1.
         11    1    3    3    0    0  0.79723382929E+02  0.73589429889E+02  0.60896981175E+02  0.12441729901E+03  0.00000000000E+00 0.  1.
</event>
<event>
 7    1  0.5137842E-006  0.1116533E+03  0.7561462E-02  0.1257539E+00
         -1   -1    0    0    0  501 -0.00000000000E+00  0.00000000000E+00  0.29138730704E+02  0.29138730704E+02  0.00000000000E+00 0.  1.
          1   -1    0    0  501    0  0.00000000000E+00 -0.00000000000E+00 -0.51137882829E+03  0.51137882829E+03  0.00000000000E+00 0. -1.
         23    2    1    2    0    0  0.45769938515E+02  0.24429446912E+02 -0.23958461879E+03  0.26263564520E+03  0.94260317341E+02 0.  0.
          5    1    1    2  502    0  0.33084825263E+02 -0.18335261242E+02 -0.23195009672E+02  0.44567570511E+02  0.41800000000E+01 0.  1.
         -5    1    1    2    0  502 -0.78854763779E+02 -0.60941856693E+01 -0.21946046913E+03  0.23331434328E+03  0.41800000000E+01 0.  1.
        -11    1    3    3    0    0  0.65128518883E+02 -0.10640563205E+02 -0.16977037067E+03  0.18214533844E+03  0.00000000000E+00 0. -1.
         11    1    3    3    0    0 -0.19358580367E+02  0.35070010117E+02 -0.69814248115E+02  0.80490306766E+02  0.00000000000E+00 0.  1.
</event>
<event>
 7    1  0.5137842E-006  0.8971069E+02  0.7561462E-02  0.1303554E+00
         -1   -1    0    0    0  501 -0.00000000000E+00  0.00000000000E+00  0.48892319766E+02  0.48892319766E+02  0.00000000000E+00 0.  1.
          1   -1    0    0  501    0  0.00000000000E+00 -0.00000000000E+00 -0.35521271345E+03  0.35521271345E+03  0.00000000000E+00 0. -1.
         23    2    1    2    0    0 -0.22224544572E+01  0.67334449867E+01 -0.25727773914E+03  0.26956013029E+03  0.80128335785E+02 0.  0.
          5    1    1    2  502    0  0.17662838298E+02  0.47095216766E+02 -0.58861659124E+02  0.77537749604E+02  0.41800000000E+01 0.  1.
         -5    1    1    2    0  502 -0.15440383840E+02 -0.53828661752E+02  0.98190045844E+01  0.57007153325E+02  0.41800000000E+01 0.  1.
        -11    1    3    3    0    0  0.33878756019E+01  0.39452546291E+02 -0.80728658309E+02  0.89917169564E+02  0.00000000000E+00 0.  1.
         11    1    3    3    0    0 -0.56103300591E+01 -0.32719101305E+02 -0.17654908083E+03  0.17964296072E+03  0.00000000000E+00 0. -1.
</event>
<event>
 7    1  0.5137842E-006  0.1127623E+03  0.7561462E-02  0.1255538E+00
          2   -1    0    0  501    0  0.00000000000E+00  0.00000000000E+00  0.62143101946E+03  0.62143101946E+03  0.00000000000E+00 0. -1.
         -2   -1    0    0    0  501 -0.00000000000E+00 -0.00000000000E+00 -0.20506362508E+02  0.20506362508E+02  0.00000000000E+00 0.  1.
         23    2    1    2    0    0 -0.63562423871E+01 -0.30276972459E+02  0.25828845873E+03  0.27587158687E+03  0.91842842115E+02 0.  0.
          5    1    1    2  502    0 -0.58466902321E+02  0.46138053915E+01  0.14605566576E+03  0.15744648541E+03  0.41800000000E+01 0.  1.
         -5    1    1    2    0  502  0.64823144708E+02  0.25663167067E+02  0.19658053246E+03  0.20861930969E+03  0.41800000000E+01 0.  1.
        -11    1    3    3    0    0  0.37503745173E+02  0.83697224019E+01  0.99120312182E+02  0.10630813441E+03  0.00000000000E+00 0. -1.
         11    1    3    3    0    0 -0.43859987560E+02 -0.38646694860E+02  0.15916814655E+03  0.16956345245E+03  0.00000000000E+00 0.  1.
</event>
<event>
 7    1  0.5137842E-006  0.2332625E+03  0.7561462E-02  0.1124364E+00
         -2   -1    0    0    0  501 -0.00000000000E+00  0.00000000000E+00  0.45536316310E+02  0.45536316310E+02  0.00000000000E+00 0.  1.
          2   -1    0    0  501    0  0.00000000000E+00 -0.00000000000E+00 -0.12546266867E+04  0.12546266867E+04  0.00000000000E+00 0. -1.
         23    2    1    2    0    0  0.21255589278E+03 -0.30747402205E+01 -0.60271068070E+03  0.64553844948E+03  0.90940989380E+02 0.  0.
          5    1    1    2  502    0 -0.13024161265E+03 -0.56250411620E+02 -0.30059096505E+03  0.33241448094E+03  0.41800000000E+01 0. -1.
         -5    1    1    2    0  502 -0.82314280130E+02  0.59325151840E+02 -0.30578872468E+03  0.32221007261E+03  0.41800000000E+01 0. -1.
        -11    1    3    3    0    0  0.17551730103E+03  0.24018096976E+02 -0.39638016917E+03  0.43416636265E+03  0.00000000000E+00 0.  1.
         11    1    3    3    0    0  0.37038591757E+02 -0.27092837196E+02 -0.20633051152E+03  0.21137208683E+03  0.00000000000E+00 0. -1.
</event>
<event>
 7    1  0.5137842E-006  0.1274105E+03  0.7561462E-02  0.1231349E+00
          3   -1    0    0  501    0  0.00000000000E+00  0.00000000000E+00  0.74154577405E+03  0.74154577405E+03  0.00000000000E+00 0. -1.
         -3   -1    0    0    0  501 -0.00000000000E+00 -0.00000000000E+00 -0.34812347154E+02  0.34812347154E+02  0.00000000000E+00 0.  1.
         23    2    1    2    0    0 -0.97310481828E+02  0.54058172479E+01  0.49187473227E+03  0.50933933652E+03  0.89371442596E+02 0.  0.
          5    1    1    2  502    0  0.85011337919E+00 -0.34581283430E+02  0.63796487460E+01  0.35422594125E+02  0.41800000000E+01 0. -1.
         -5    1    1    2    0  502  0.96460368449E+02  0.29175466182E+02  0.20847904588E+03  0.23159619055E+03  0.41800000000E+01 0. -1.
        -11    1    3    3    0    0 -0.12307581650E+02  0.28488840882E+02  0.50592200187E+02  0.59352012103E+02  0.00000000000E+00 0.  1.
         11    1    3    3    0    0 -0.85002900178E+02 -0.23083023634E+02  0.44128253208E+03  0.44998732442E+03  0.00000000000E+00 0. -1.
</event>
<event>
 7    1  0.5137842E-006  0.2859454E+03  0.7561462E-02  0.1092485E+00
         -1   -1    0    0    0  501 -0.00000000000E+00  0.00000000000E+00  0.16743769782E+03  0.16743769782E+03  0.00000000000E+00 0.  1.
          1   -1    0    0  501    0  0.00000000000E+00 -0.00000000000E+00 -0.74154703654E+03  0.74154703654E+03  0.00000000000E+00 0. -1.
         23    2    1    2    0    0 -0.27278064008E+03 -0.77040635921E+02 -0.51976147284E+03  0.59922173361E+03  0.92575159734E+02 0.  0.
          5    1    1    2  502    0  0.11890151431E+03  0.17073969168E+02 -0.77399381535E+02  0.14295883041E+03  0.41800000000E+01 0. -1.
         -5    1    1    2    0  502  0.15387912577E+03  0.59966666753E+02  0.23051515649E+02  0.16680417034E+03  0.41800000000E+01 0.  1.
        -11    1    3    3    0    0 -0.28950143793E+02 -0.22428621467E+02 -0.23244987460E+02  0.43376068616E+02  0.00000000000E+00 0.  1.
         11    1    3    3    0    0 -0.24383049629E+03 -0.54612014454E+02 -0.49651648538E+03  0.55584566499E+03  0.00000000000E+00 0. -1.
</event>
<event>
 7    1  0.5137842E-006  0.1163751E+03  0.7561462E-02  0.1249200E+00
          1   -1    0    0  501    0  0.00000000000E+00  0.00000000000E+00  0.66652530423E+03  0.66652530423E+03  0.00000000000E+00 0. -1.
         -1   -1    0    0    0  501 -0.00000000000E+00 -0.00000000000E+00 -0.30533612968E+02  0.30533612968E+02  0.00000000000E+00 0.  1.
         23    2    1    2    0    0 -0.15596954072E+02 -0.85916090592E+02  0.36318587054E+03  0.38449728564E+03  0.91155616976E+02 0.  0.
          5    1    1    2  502    0  0.42539939686E+02  0.77868036412E+02  0.26971468194E+03  0.28396577191E+03  0.41800000000E+01 0.  1.
         -5    1    1    2    0  502 -0.26942985614E+02  0.80480541804E+01  0.30911387811E+01  0.28595859645E+02  0.41800000000E+01 0.  1.
        -11    1    3    3    0    0 -0.36416935281E+02 -0.11454874124E+02  0.56308490895E+02  0.68029798348E+02  0.00000000000E+00 0. -1.
         11    1    3    3    0    0  0.20819981208E+02 -0.74461216468E+02  0.30687737965E+03  0.31646748729E+03  0.00000000000E+00 0.  1.
</event>
<event>
 7    1  0.5137842E-006  0.1737616E+03  0.7561462E-02  0.1173981E+00
         -2   -1    0    0    0  501 -0.00000000000E+00  0.00000000000E+00  0.88978523113E+02  0.88978523113E+02  0.00000000000E+00 0.  1.
          2   -1    0    0  501    0  0.00000000000E+00 -0.00000000000E+00 -0.50151065530E+03  0.50151065530E+03  0.00000000000E+00 0. -1.
         23    2    1    2    0    0 -0.73675709293E+02  0.11876831803E+03 -0.35845930283E+03  0.39525486617E+03  0.90550063164E+02 0.  0.
          5    1    1    2  502    0  0.10062165600E+03 -0.11694592147E+03 -0.26832290033E+02  0.15664772706E+03  0.41800000000E+01 0. -1.
         -5    1    1    2    0  502 -0.26945946706E+02 -0.18223965569E+01 -0.27240539321E+02  0.38586585177E+02  0.41800000000E+01 0. -1.
        -11    1    3    3    0    0 -0.69240357394E+02  0.27525466210E+02 -0.17882147046E+03  0.19372402194E+03  0.00000000000E+00 0. -1.
         11    1    3    3    0    0 -0.44353518986E+01  0.91242851821E+02 -0.17963783237E+03  0.20153084423E+03  0.00000000000E+00 0.  1.
</event>
<event>
 7    1  0.5137842E-006  0.2281178E+03  0.7561462E-02  0.1127972E+00
         -2   -1    0    0    0  501 -0.00000000000E+00  0.00000000000E+00  0.55920222602E+02  0.55920222602E+02  0.00000000000E+00 0.  1.
          2   -1    0    0  501    0  0.00000000000E+00 -0.00000000000E+00 -0.12164312844E+04  0.12164312844E+04  0.00000000000E+00 0. -1.
         23    2    1    2    0    0 -0.20149140467E+03 -0.45805791294E+02 -0.84678868267E+03  0.87641419480E+03  0.91399185258E+02 0.  0.
          5    1    1    2  502    0  0.72351430053E+02 -0.40625725675E+02 -0.14019064606E+03  0.16296032848E+03  0.41800000000E+01 0.  1.
         -5    1    1    2    0  502  0.12913997461E+03  0.86431516969E+02 -0.17353173311E+03  0.23297698377E+03  0.41800000000E+01 0.  1.
        -11    1    3    3    0    0 -0.10603304334E+03 -0.58990274269E+02 -0.58504158647E+03  0.59749185488E+03  0.00000000000E+00 0.  1.
         11    1    3    3    0    0 -0.95458361323E+02  0.13184482975E+02 -0.26174709620E+03  0.27892233992E+03  0.00000000000E+00 0. -1.
</event>
<event>
 7    1  0.5137842E-006  0.8786535E+02  0.7561462E-02  0.1308105E+00
          1   -1    0    0  501    0  0.00000000000E+00  0.00000000000E+00  0.70930756624E+02  0.70930756624E+02  0.00000000000E+00 0. -1.
         -1   -1    0    0    0  501 -0.00000000000E+00 -0.00000000000E+00 -0.21320053244E+03  0.21320053244E+03  0.00000000000E+00 0.  1.
         23    2    1    2    0    0  0.48524931221E+01 -0.54418685693E+02 -0.51178857289E+02  0.12002717983E+03  0.93820618319E+02 0.  0.
          5    1    1    2  502    0 -0.22608219316E+02  0.54514212068E+02 -0.11776365870E+03  0.13179029785E+03  0.41800000000E+01 0. -1.
         -5    1    1    2    0  502  0.17755726194E+02 -0.95526374964E-01  0.26672740171E+02  0.32313811384E+02  0.41800000000E+01 0. -1.
        -11    1    3    3    0    0 -0.36221508749E+02 -0.41899486929E+02 -0.53526245305E+02  0.77023526518E+02  0.00000000000E+00 0.  1.
         11    1    3    3    0    0  0.41074001871E+02 -0.12519198765E+02  0.23473880160E+01  0.43003653309E+02  0.00000000000E+00 0. -1.
</event>
<event>
 7    1  0.5137842E-006  0.8841411E+02  0.7561462E-02  0.1306738E+00
         -1   -1    0    0    0  501 -0.00000000000E+00  0.00000000000E+00  0.20245337335E+03  0.20245337335E+03  0.00000000000E+00 0.  1.
          1   -1    0    0  501    0  0.00000000000E+00 -0.00000000000E+00 -0.58185759936E+02  0.58185759936E+02  0.00000000000E+00 0. -1.
         23    2    1    2    0    0  0.10495398491E+02 -0.42595073917E+01  0.15266925675E+02  0.80596121700E+02  0.78322148980E+02 0.  0.
          5    1    1    2  502    0  0.47088401541E+01 -0.47876080354E+02  0.10203883505E+02  0.49354674391E+02  0.41800000000E+01 0. -1.
         -5    1    1    2    0  502 -0.15204238645E+02  0.52135587746E+02  0.11879680424E+03  0.13068833720E+03  0.41800000000E+01 0. -1.
        -11    1    3    3    0    0  0.40891980024E+02 -0.12166840347E+02  0.22690764181E+02  0.48322425575E+02  0.00000000000E+00 0.  1.
         11    1    3    3    0    0 -0.30396581533E+02  0.79073329557E+01 -0.74238385064E+01  0.32273696125E+02  0.00000000000E+00 0. -1.
</event>
<event>
 7    1  0.5137842E-006  0.1089524E+03  0.7561462E-02  0.1262522E+00
         -3   -1    0    0    0  501 -0.00000000000E+00  0.00000000000E+00  0.68623666624E+03  0.68623666624E+03  0.00000000000E+00 0.  1.
          3   -1    0    0  501    0  0.00000000000E+00 -0.00000000000E+00 -0.24485569192E+02  0.24485569192E+02  0.00000000000E+00 0. -1.
         23    2    1    2    0    0 -0.84316531346E+01 -0.70808971772E+02  0.22739658477E+03  0.25490090683E+03  0.90444802392E+02 0.  0.
          5    1    1    2  502    0 -0.18546202882E+02  0.95836834718E+02  0.35584388559E+03  0.36901355509E+03  0.41800000000E+01 0. -1.
         -5    1    1    2    0  502  0.26977856016E+02 -0.25027862946E+02  0.78510626691E+02  0.86807773513E+02  0.41800000000E+01 0.  1.
        -11    1    3    3    0    0 -0.25715728577E+02 -0.35315445025E+02  0.28583848575E+02  0.52206472328E+02  0.00000000000E+00 0.  1.
         11    1    3    3    0    0  0.17284075442E+02 -0.35493526747E+02  0.19881273620E+03  0.20269443450E+03  0.00000000000E+00 0. -1.
</event>
<event>
 7    1  0.5137842E-006  0.1248663E+03  0.7561462E-02  0.1235278E+00
          3   -1    0    0  501    0  0.00000000000E+00  0.00000000000E+00  0.21977976709E+02  0.21977976709E+02  0.00000000000E+00 0. -1.
         -3   -1    0    0    0  501 -0.00000000000E+00 -0.00000000000E+00 -0.10051209588E+04  0.10051209588E+04  0.00000000000E+00 0.  1.
         23    2    1    2    0    0 -0.41934413832E+02 -0.84694661832E+02 -0.45003264925E+03  0.47141401451E+03  0.10377912543E+03 0.  0.
          5    1    1    2  502    0  0.80887748199E+01  0.78131008110E+02 -0.13638745240E+03  0.15744488648E+03  0.41800000000E+01 0.  1.
         -5    1    1    2    0  502  0.33845639012E+02  0.65636537215E+01 -0.39672288041E+03  0.39824003449E+03  0.41800000000E+01 0.  1.
        -11    1    3    3    0    0  0.32110734508E+02 -0.32962138241E+02 -0.10288216214E+03  0.11270466323E+03  0.00000000000E+00 0. -1.
         11    1    3    3    0    0 -0.74045148340E+02 -0.51732523591E+02 -0.34715048711E+03  0.35870935128E+03  0.00000000000E+00 0.  1.
</event>
<event>
 7    1  0.5137842E-006  0.9310830E+02  0.7561462E-02  0.1295494E+00
          1   -1    0    0  501    0  0.00000000000E+00  0.00000000000E+00  0.26451100494E+03  0.26451100494E+03  0.00000000000E+00 0. -1.
         -1   -1    0    0    0  501 -0.00000000000E+00 -0.00000000000E+00 -0.69782065775E+02  0.69782065775E+02  0.00000000000E+00 0.  1.
         23    2    1    2    0    0  0.50126122016E+02 -0.74089773363E+02  0.70590238665E+02  0.14557727156E+03  0.90597116805E+02 0.  0.
          5    1    1    2  502    0  0.20023580201E+01  0.18934055345E+02 -0.18637345150E+02  0.26969073468E+02  0.41800000000E+01 0. -1.
         -5    1    1    2    0  502 -0.52128480036E+02  0.55155718018E+02  0.14277604565E+03  0.16174672569E+03  0.41800000000E+01 0.  1.
        -11    1    3    3    0    0  0.21257789478E+02 -0.18953384594E+02  0.77871440429E+02  0.82916136159E+02  0.00000000000E+00 0. -1.
         11    1    3    3    0    0  0.28868332538E+02 -0.55136388769E+02 -0.72812017640E+01  0.62661135396E+02  0.00000000000E+00 0.  1.
</event>
<event>
 7    1  0.5137842E-006  0.7772541E+02  0.7561462E-02  0.1335633E+00
          1   -1    0    0  501    0  0.00000000000E+00  0.00000000000E+00  0.62221523757E+02  0.62221523757E+02  0.00000000000E+00 0. -1.
         -1   -1    0    0    0  501 -0.00000000000E+00 -0.00000000000E+00 -0.20188175668E+03  0.20188175668E+03  0.00000000000E+00 0.  1.
         23    2    1    2    0    0 -0.21184476938E+02 -0.41361497863E+01 -0.32583041648E+02  0.98032370938E+02  0.89904401174E+02 0.  0.
          5    1    1    2  502    0 -0.25364306138E+02 -0.24946893841E+01 -0.11529886581E+03  0.11815613551E+03  0.41800000000E+01 0.  1.
         -5    1    1    2    0  502  0.46548783076E+02  0.66308391704E+01  0.82216745394E+01  0.47914773986E+02  0.41800000000E+01 0.  1.
        -11    1    3    3    0    0 -0.51353253629E+02  0.29211550845E+01  0.21591068570E+01  0.51481565125E+02  0.00000000000E+00 0. -1.
         11    1    3    3    0    0  0.30168776691E+02 -0.70573048708E+01 -0.34742148505E+02  0.46550805813E+02  0.00000000000E+00 0.  1.
</event>
<event>
 7    1  0.5137842E-006  0.1225536E+03  0.7561462E-02  0.1238943E+00
          2   -1    0    0  501    0  0.00000000000E+00  0.00000000000E+00  0.80076562699E+02  0.80076562699E+02  0.00000000000E+00 0. -1.
         -2   -1    0    0    0  501 -0.00000000000E+00 -0.00000000000E+00 -0.19805517333E+03  0.19805517333E+03  0.00000000000E+00 0.  1.
         23    2    1    2    0    0  0.60784255709E+02 -0.10896261563E+02 -0.25791493535E+02  0.11095151873E+03  0.88496237841E+02 0.  0.
          5    1    1    2  502    0 -0.67252472595E+02  0.59326468008E+02 -0.51786906024E+02  0.10364304565E+03  0.41800000000E+01 0.  1.
         -5    1    1    2    0  502  0.64682168858E+01 -0.48430206445E+02 -0.40400211070E+02  0.63537171644E+02  0.41800000000E+01 0.  1.
        -11    1    3    3    0    0  0.77189586138E+02  0.12007523712E+02 -0.27266827847E+02  0.82739910169E+02  0.00000000000E+00 0. -1.
         11    1    3    3    0    0 -0.16405330429E+02 -0.22903785275E+02  0.14753343121E+01  0.28211608563E+02  0.00000000000E+00 0.  1.
</event>
<event>
 7    1  0.5137842E-006  0.1223919E+03  0.7561462E-02  0.1239203E+00
         -2   -1    0    0    0  501 -0.00000000000E+00  0.00000000000E+00  0.52736141980E+02  0.52736141980E+02  0.00000000000E+00 0. -1.
          2   -1    0    0  501    0  0.00000000000E+00 -0.00000000000E+00 -0.34892903406E+03  0.34892903406E+03  0.00000000000E+00 0.  1.
         23    2    1    2    0    0 -0.32793931455E+02  0.68575837386E+02 -0.18044547757E+03  0.21505459968E+03  0.88937186014E+02 0.  0.
          5    1    1    2  502    0  0.73209889133E+02 -0.33498305281E+02 -0.31163621327E+02  0.86431869225E+02  0.41800000000E+01 0. -1.
         -5    1    1    2    0  502 -0.40415957678E+02 -0.35077532105E+02 -0.84583793187E+02  0.10017870714E+03  0.41800000000E+01 0. -1.
        -11    1    3    3    0    0  0.24681065268E-01  0.76682356473E+02 -0.15435143543E+03  0.17235007984E+03  0.00000000000E+00 0.  1.
         11    1    3    3    0    0 -0.32818612520E+02 -0.81065190871E+01 -0.26094042142E+02  0.42704519840E+02  0.00000000000E+00 0. -1.
</event>
<event>
 7    1  0.5137842E-006  0.8590297E+02  0.7561462E-02  0.1313088E+00
         -2   -1    0    0    0  501 -0.00000000000E+00  0.00000000000E+00  0.23628365768E+02  0.23628365768E+02  0.00000000000E+00 0.  1.
          2   -1    0    0  501    0  0.00000000000E+00 -0.00000000000E+00 -0.88378425960E+03  0.88378425960E+03  0.00000000000E+00 0. -1.
         23    2    1    2    0    0  0.39544112983E+02  0.45788155907E+02 -0.37256301766E+03  0.38866312090E+03  0.92712066768E+02 0.  0.
          5    1    1    2  502    0 -0.29255314940E+02 -0.21619427283E+02 -0.49061568906E+03  0.49198018236E+03  0.41800000000E+01 0. -1.
         -5    1    1    2    0  502 -0.10288798043E+02 -0.24168728623E+02  0.30228128849E+01  0.26769322109E+02  0.41800000000E+01 0.  1.
        -11    1    3    3    0    0  0.49411829477E+02  0.68133347332E+02 -0.25305666367E+03  0.26668587690E+03  0.00000000000E+00 0. -1.
         11    1    3    3    0    0 -0.98677164944E+01 -0.22345191425E+02 -0.11950635399E+03  0.12197724400E+03  0.00000000000E+00 0.  1.
</event>
<event>
 7    1  0.5137842E-006  0.1000148E+03  0.7561462E-02  0.1280265E+00
         -3   -1    0    0    0  501 -0.00000000000E+00  0.00000000000E+00  0.34429534712E+03  0.34429534712E+03  0.00000000000E+00 0.  1.
          3   -1    0    0  501    0  0.00000000000E+00 -0.00000000000E+00 -0.58954388196E+02  0.58954388196E+02  0.00000000000E+00 0. -1.
         23    2    1    2    0    0 -0.78222325091E+02  0.76578159520E+01  0.63751461874E+02  0.13693347265E+03  0.92245068992E+02 0.  0.
          5    1    1    2  502    0  0.43419508586E+02 -0.25932923035E+02  0.10840434286E+02  0.51891787775E+02  0.41800000000E+01 0.  1.
         -5    1    1    2    0  502  0.34802816505E+02  0.18275107083E+02  0.21074906276E+03  0.21442447489E+03  0.41800000000E+01 0.  1.
        -11    1    3    3    0    0 -0.93847849554E+02  0.71093178484E+01  0.72693896339E+02  0.11892167099E+03  0.00000000000E+00 0.  1.
         11    1    3    3    0    0  0.15625524463E+02  0.54849810353E+00 -0.89424344646E+01  0.18011801661E+02  0.00000000000E+00 0. -1.
</event>
<event>
 7    1  0.5137842E-006  0.9421645E+02  0.7561462E-02  0.1292951E+00
          2   -1    0    0  501    0  0.00000000000E+00  0.00000000000E+00  0.82516064876E+02  0.82516064876E+02  0.00000000000E+00 0. -1.
         -2   -1    0    0    0  501 -0.00000000000E+00 -0.00000000000E+00 -0.21265537226E+03  0.21265537226E+03  0.00000000000E+00 0.  1.
         23    2    1    2    0    0 -0.30125337398E+02  0.47506132647E+02  0.24024482824E+01  0.10443890165E+03  0.87962172706E+02 0.  0.
          5    1    1    2  502    0 -0.71111836069E+01 -0.54637371462E+02 -0.14119332535E+03  0.15162070708E+03  0.41800000000E+01 0.  1.
         -5    1    1    2    0  502  0.37236521005E+02  0.71312388147E+01  0.86515696805E+01  0.39111828409E+02  0.41800000000E+01 0.  1.
        -11    1    3    3    0    0 -0.55023746819E+02  0.21626489047E+02  0.22532684232E+02  0.63269578797E+02  0.00000000000E+00 0. -1.
         11    1    3    3    0    0  0.24898409421E+02  0.25879643600E+02 -0.20130235950E+02  0.41169322851E+02  0.00000000000E+00 0.  1.
</event>
<event>
 7    1  0.5137842E-006  0.1283089E+03  0.7561462E-02  0.1229987E+00
         -1   -1    0    0    0  501 -0.00000000000E+00  0.00000000000E+00  0.11555432749E+03  0.11555432749E+03  0.00000000000E+00 0.  1.
          1   -1    0    0  501    0  0.00000000000E+00 -0.00000000000E+00 -0.20934160456E+03  0.20934160456E+03  0.00000000000E+00 0. -1.
         23    2    1    2    0    0 -0.18193842378E+02  0.86694118409E+02 -0.11372913878E+03  0.17032894742E+03  0.90723465834E+02 0.  0.
          5    1    1    2  502    0  0.13957653168E+01  0.25087606300E+02  0.31900844994E+02  0.40822450465E+02  0.41800000000E+01 0.  1.
         -5    1    1    2    0  502  0.16798077062E+02 -0.11178172471E+03 -0.11958983272E+02  0.11374453417E+03  0.41800000000E+01 0.  1.
        -11    1    3    3    0    0 -0.48993676633E+02  0.48149646160E+02 -0.34193974853E+02  0.76733282815E+02  0.00000000000E+00 0.  1.
         11    1    3    3    0    0  0.30799834255E+02  0.38544472249E+02 -0.79535163931E+02  0.93595664604E+02  0.00000000000E+00 0. -1.
</event>
<event>
 7    1  0.5137842E-006  0.1042105E+03  0.7561462E-02  0.1271683E+00
          2   -1    0    0  501    0  0.00000000000E+00  0.00000000000E+00  0.68606306586E+02  0.68606306586E+02  0.00000000000E+00 0. -1.
         -2   -1    0    0    0  501 -0.00000000000E+00 -0.00000000000E+00 -0.18961696637E+03  0.18961696637E+03  0.00000000000E+00 0.  1.
         23    2    1    2    0    0 -0.15883961156E+02 -0.15779980578E+02 -0.17911387559E+02  0.94583694117E+02  0.90132953904E+02 0.  0.
          5    1    1    2  502    0 -0.25199047385E+02 -0.44822153340E+02 -0.57653475885E+02  0.77365451597E+02  0.41800000000E+01 0. -1.
         -5    1    1    2    0  502  0.41083008542E+02  0.60602133918E+02 -0.45445796340E+02  0.86274127241E+02  0.41800000000E+01 0. -1.
        -11    1    3    3    0    0  0.10778029352E+02  0.29246284924E+02  0.13040357453E+02  0.33787009650E+02  0.00000000000E+00 0.  1.
         11    1    3    3    0    0 -0.26661990508E+02 -0.45026265502E+02 -0.30951745012E+02  0.60796684467E+02  0.00000000000E+00 0. -1.
</event>
<event>
 7    1  0.5137842E-006  0.9563745E+02  0.7561462E-02  0.1289747E+00
          2   -1    0    0  501    0  0.00000000000E+00  0.00000000000E+00  0.32602801373E+02  0.32602801373E+02  0.00000000000E+00 0. -1.
         -2   -1    0    0    0  501 -0.00000000000E+00 -0.00000000000E+00 -0.72208162568E+03  0.72208162568E+03  0.00000000000E+00 0.  1.
         23    2    1    2    0    0  0.38059089371E+01 -0.14467948313E+02 -0.56434344995E+02  0.10922553126E+03  0.92312376813E+02 0.  0.
          5    1    1    2  502    0  0.91729916117E+01  0.63389692041E+02 -0.21604484094E+03  0.22537799922E+03  0.41800000000E+01 0. -1.
         -5    1    1    2    0  502 -0.12978900549E+02 -0.48921743728E+02 -0.41699963837E+03  0.42008089658E+03  0.41800000000E+01 0. -1.
        -11    1    3    3    0    0 -0.30107754125E+02  0.12868835929E+02 -0.56917332676E+02  0.65663281639E+02  0.00000000000E+00 0.  1.
         11    1    3    3    0    0  0.33913663062E+02 -0.27336784242E+02  0.48298768112E+00  0.43562249621E+02  0.00000000000E+00 0. -1.
</event>
<event>
 7    1  0.5137842E-006  0.1032687E+03  0.7561462E-02  0.1273569E+00
          2   -1    0    0  501    0  0.00000000000E+00  0.00000000000E+00  0.84652886328E+03  0.84652886328E+03  0.00000000000E+00 0. -1.
         -2   -1    0    0    0  501 -0.00000000000E+00 -0.00000000000E+00 -0.20811945592E+02  0.20811945592E+02  0.00000000000E+00 0.  1.
         23    2    1    2    0    0  0.30740474361E+02  0.54863913582E+02  0.51493286351E+03  0.52648626295E+03  0.89871604964E+02 0.  0.
          5    1    1    2  502    0  0.26305458307E+01 -0.64694574118E+02  0.29565165143E+03  0.30268742803E+03  0.41800000000E+01 0.  1.
         -5    1    1    2    0  502 -0.33371020192E+02  0.98306605362E+01  0.15132402748E+02  0.38167117892E+02  0.41800000000E+01 0.  1.
        -11    1    3    3    0    0  0.58842767994E+02  0.20697985623E+02  0.35988625578E+03  0.36525196106E+03  0.00000000000E+00 0. -1.
         11    1    3    3    0    0 -0.28102293632E+02  0.34165927959E+02  0.15504660773E+03  0.16123430190E+03  0.00000000000E+00 0.  1.
</event>
<event>
 7    1  0.5137842E-006  0.1349879E+03  0.7561462E-02  0.1220237E+00
         -2   -1    0    0    0  501 -0.00000000000E+00  0.00000000000E+00  0.22644032732E+02  0.22644032732E+02  0.00000000000E+00 0. -1.
          2   -1    0    0  501    0  0.00000000000E+00 -0.00000000000E+00 -0.91987192829E+03  0.91987192829E+03  0.00000000000E+00 0.  1.
         23    2    1    2    0    0  0.58234864109E+02 -0.74039451317E+02 -0.45455225325E+03  0.47296035337E+03  0.90557192819E+02 0.  0.
          5    1    1    2  502    0  0.13520251164E+02  0.76062095433E+02 -0.15780548944E+03  0.17575063144E+03  0.41800000000E+01 0.  1.
         -5    1    1    2    0  502 -0.71755115273E+02 -0.20226441157E+01 -0.28487015287E+03  0.29380497622E+03  0.41800000000E+01 0.  1.
        -11    1    3    3    0    0 -0.12328339608E+02 -0.40952440837E+02 -0.25800048114E+03  0.26152120113E+03  0.00000000000E+00 0.  1.
         11    1    3    3    0    0  0.70563203717E+02 -0.33087010480E+02 -0.19655177211E+03  0.21143915224E+03  0.00000000000E+00 0. -1.
</event>
<event>
 7    1  0.5137842E-006  0.9712309E+02  0.7561462E-02  0.1286465E+00
          2   -1    0    0  501    0  0.00000000000E+00  0.00000000000E+00  0.42664488999E+03  0.42664488999E+03  0.00000000000E+00 0. -1.
         -2   -1    0    0    0  501 -0.00000000000E+00 -0.00000000000E+00 -0.37047887427E+02  0.37047887427E+02  0.00000000000E+00 0.  1.
         23    2    1    2    0    0 -0.23668616220E+02 -0.37897624669E+02  0.25489997206E+03  0.27451790063E+03  0.91595025311E+02 0.  0.
          5    1    1    2  502    0  0.56366791827E+02  0.13252486902E+02  0.11365053143E+02  0.59156406778E+02  0.41800000000E+01 0. -1.
         -5    1    1    2    0  502 -0.32698175607E+02  0.24645137768E+02  0.12333197737E+03  0.13001847002E+03  0.41800000000E+01 0. -1.
        -11    1    3    3    0    0 -0.54519277636E+02 -0.14794972298E+02  0.19717995118E+03  0.20511259343E+03  0.00000000000E+00 0. -1.
         11    1    3    3    0    0  0.30850661416E+02 -0.23102652371E+02  0.57720020878E+02  0.69405307192E+02  0.00000000000E+00 0.  1.
</event>
<event>
 7    1  0.5137842E-006  0.2239804E+03  0.7561462E-02  0.1130950E+00
          1   -1    0    0  501    0  0.00000000000E+00  0.00000000000E+00  0.56160869432E+03  0.56160869432E+03  0.00000000000E+00 0. -1.
         -1   -1    0    0    0  501 -0.00000000000E+00 -0.00000000000E+00 -0.10871819638E+03  0.10871819638E+03  0.00000000000E+00 0.  1.
         23    2    1    2    0    0 -0.16271433701E+03 -0.13243788652E+03  0.31981886581E+03  0.39217254527E+03  0.86599359590E+02 0.  0.
          5    1    1    2  502    0  0.10633729560E+02  0.73725046518E+02  0.13202976981E+02  0.75764435520E+02  0.41800000000E+01 0. -1.
         -5    1    1    2    0  502  0.15208060745E+03  0.58712840002E+02  0.11986865515E+03  0.20238990990E+03  0.41800000000E+01 0. -1.
        -11    1    3    3    0    0 -0.55036717470E+02 -0.36286532719E+02  0.39458760976E+02  0.76829333879E+02  0.00000000000E+00 0.  1.
         11    1    3    3    0    0 -0.10767761954E+03 -0.96151353801E+02  0.28036010484E+03  0.31534321140E+03  0.00000000000E+00 0. -1.
</event>
<event>
 7    1  0.5137842E-006  0.1348609E+03  0.7561462E-02  0.1220416E+00
         -2   -1    0    0    0  501 -0.00000000000E+00  0.00000000000E+00  0.30196756405E+03  0.30196756405E+03  0.00000000000E+00 0.  1.
          2   -1    0    0  501    0  0.00000000000E+00 -0.00000000000E+00 -0.74824894927E+02  0.74824894927E+02  0.00000000000E+00 0. -1.
         23    2    1    2    0    0 -0.28522819615E+02 -0.97867409179E+02  0.82244736241E+02  0.15991859119E+03  0.91750630251E+02 0.  0.
          5    1    1    2  502    0  0.60205410383E+02  0.61747123042E+02  0.28571383771E+02  0.90946110494E+02  0.41800000000E+01 0. -1.
         -5    1    1    2    0  502 -0.31682590768E+02  0.36120286137E+02  0.11632654911E+03  0.12592775729E+03  0.41800000000E+01 0. -1.
        -11    1    3    3    0    0 -0.63871639847E+01 -0.10981334240E+03  0.55512145896E+02  0.12321267944E+03  0.00000000000E+00 0.  1.
         11    1    3    3    0    0 -0.22135655630E+02  0.11945933224E+02  0.26732590345E+02  0.36705911749E+02  0.00000000000E+00 0. -1.
</event>
<event>
 7    1  0.5137842E-006  0.1739968E+03  0.7561462E-02  0.1173743E+00
         -2   -1    0    0    0  501 -0.00000000000E+00  0.00000000000E+00  0.17747025444E+03  0.17747025444E+03  0.00000000000E+00 0.  1.
          2   -1    0    0  501    0  0.00000000000E+00 -0.00000000000E+00 -0.24349997201E+03  0.24349997201E+03  0.00000000000E+00 0. -1.
         23    2    1    2    0    0 -0.13624259023E+03 -0.10124319428E+03 -0.81213607216E+02  0.20958527536E+03  0.92293606870E+02 0.  0.
          5    1    1    2  502    0  0.52428807802E+02  0.32011778825E+02  0.66906454555E+02  0.90925683568E+02  0.41800000000E+01 0. -1.
         -5    1    1    2    0  502  0.83813782430E+02  0.69231415458E+02 -0.51722564915E+02  0.12045926753E+03  0.41800000000E+01 0. -1.
        -11    1    3    3    0    0 -0.32879930842E+02  0.95177417354E-01 -0.52600971644E+02  0.62031936362E+02  0.00000000000E+00 0. -1.
         11    1    3    3    0    0 -0.10336265939E+03 -0.10133837170E+03 -0.28612635572E+02  0.14755333900E+03  0.00000000000E+00 0.  1.
</event>
<event>
 7    1  0.5137842E-006  0.1138406E+03  0.7561462E-02  0.1253619E+00
         -2   -1    0    0    0  501 -0.00000000000E+00  0.00000000000E+00  0.63239566747E+02  0.63239566747E+02  0.00000000000E+00 0.  1.
          2   -1    0    0  501    0  0.00000000000E+00 -0.00000000000E+00 -0.36565999462E+03  0.36565999462E+03  0.00000000000E+00 0. -1.
         23    2    1    2    0    0  0.52081765810E+02 -0.52063363806E+02 -0.24614741159E+03  0.27321700995E+03  0.92929446952E+02 0.  0.
          5    1    1    2  502    0  0.27766904798E+02  0.29704277336E+02 -0.59969209354E+02  0.72574951358E+02  0.41800000000E+01 0.  1.
         -5    1    1    2    0  502 -0.79848670608E+02  0.22359086470E+02  0.36961930684E+01  0.83107600066E+02  0.41800000000E+01 0.  1.
        -11    1    3    3    0    0 -0.31218709402E+01 -0.48351239294E+02 -0.18278610657E+03  0.18909878153E+03  0.00000000000E+00 0. -1.
         11    1    3    3    0    0  0.55203636750E+02 -0.37121245117E+01 -0.63361305022E+02  0.84118228422E+02  0.00000000000E+00 0.  1.
</event>
<event>
 7    1  0.5137842E-006  0.9798221E+02  0.7561462E-02  0.1284597E+00
          1   -1    0    0  501    0  0.00000000000E+00  0.00000000000E+00  0.60300674435E+03  0.60300674435E+03  0.00000000000E+00 0.  1.
         -1   -1    0    0    0  501 -0.00000000000E+00 -0.00000000000E+00 -0.34481388290E+02  0.34481388290E+02  0.00000000000E+00 0. -1.
         23    2    1    2    0    0  0.23210708877E+02 -0.43537861374E+02  0.43905149317E+03  0.45081785736E+03  0.89645102924E+02 0.  0.
          5    1    1    2  502    0  0.20840036871E+02 -0.10607974129E+02  0.11213854614E+03  0.11462705693E+03  0.41800000000E+01 0.  1.
         -5    1    1    2    0  502 -0.44050745749E+02  0.54145835502E+02  0.17335316757E+02  0.72043218351E+02  0.41800000000E+01 0.  1.
        -11    1    3    3    0    0 -0.16689339545E+02  0.20744188597E+02  0.10864959978E+03  0.11186416292E+03  0.00000000000E+00 0. -1.
         11    1    3    3    0    0  0.39900048422E+02 -0.64282049971E+02  0.33040189339E+03  0.33895369443E+03  0.00000000000E+00 0.  1.
</event>
<event>
 7    1  0.5137842E-006  0.1245509E+03  0.7561462E-02  0.1235773E+00
          1   -1    0    0  501    0  0.00000000000E+00  0.00000000000E+00  0.83022103186E+03  0.83022103186E+03  0.00000000000E+00 0. -1.
         -1   -1    0    0    0  501 -0.00000000000E+00 -0.00000000000E+00 -0.23993847227E+02  0.23993847227E+02  0.00000000000E+00 0.  1.
         23    2    1    2    0    0 -0.10859860762E+02  0.62087912692E+02  0.56129939407E+03  0.57206268519E+03  0.90696529884E+02 0.  0.
          5    1    1    2  502    0  0.40282310823E+02  0.25277124776E+02  0.87164294074E+02  0.99381508157E+02  0.41800000000E+01 0. -1.
         -5    1    1    2    0  502 -0.29422450061E+02 -0.87365037468E+02  0.15776349650E+03  0.18277068574E+03  0.41800000000E+01 0. -1.
        -11    1    3    3    0    0 -0.49403857661E+02  0.24120084147E+02  0.23798558012E+03  0.24425326191E+03  0.00000000000E+00 0. -1.
         11    1    3    3    0    0  0.38543996899E+02  0.37967828545E+02  0.32331381395E+03  0.32780942328E+03  0.00000000000E+00 0.  1.
</event>
<event>
 7    1  0.5137842E-006  0.1417424E+03  0.7561462E-02  0.1211003E+00
         -2   -1    0    0    0  501 -0.00000000000E+00  0.00000000000E+00  0.74620058864E+02  0.74620058864E+02  0.00000000000E+00 0.  1.
          2   -1    0    0  501    0  0.00000000000E+00 -0.00000000000E+00 -0.62867231213E+03  0.62867231213E+03  0.00000000000E+00 0. -1.
         23    2    1    2    0    0  0.10618199969E+03  0.63987494816E+02 -0.49328976713E+03  0.51700783430E+03  0.92699999073E+02 0.  0.
          5    1    1    2  502    0 -0.27504602793E+02 -0.53375478985E+02  0.28631841528E+02  0.66653579656E+02  0.41800000000E+01 0. -1.
         -5    1    1    2    0  502 -0.78677396893E+02 -0.10612015831E+02 -0.89394327664E+02  0.11963095703E+03  0.41800000000E+01 0. -1.
        -11    1    3    3    0    0  0.29715962409E+02  0.60317691455E+02 -0.32840635306E+03  0.33521932380E+03  0.00000000000E+00 0.  1.
         11    1    3    3    0    0  0.76466037277E+02  0.36698033608E+01 -0.16488341407E+03  0.18178851050E+03  0.00000000000E+00 0. -1.
</event>
<event>
 7    1  0.5137842E-006  0.8898541E+02  0.7561462E-02  0.1305327E+00
          1   -1    0    0  501    0  0.00000000000E+00  0.00000000000E+00  0.57770787348E+03  0.57770787348E+03  0.00000000000E+00 0. -1.
         -1   -1    0    0    0  501 -0.00000000000E+00 -0.00000000000E+00 -0.22646428904E+02  0.22646428904E+02  0.00000000000E+00 0.  1.
         23    2    1    2    0    0  0.26719603420E+02 -0.19939011919E+02  0.27985899947E+03  0.29622525216E+03  0.91196705159E+02 0.  0.
          5    1    1    2  502    0  0.24521353585E+02 -0.25866656202E+02  0.19565731065E+03  0.19892118111E+03  0.41800000000E+01 0.  1.
         -5    1    1    2    0  502 -0.51240957004E+02  0.45805668121E+02  0.79545134463E+02  0.10520786911E+03  0.41800000000E+01 0.  1.
        -11    1    3    3    0    0  0.40724274996E+01 -0.41653393815E+02  0.24801428051E+03  0.25152072126E+03  0.00000000000E+00 0. -1.
         11    1    3    3    0    0  0.22647175920E+02  0.21714381896E+02  0.31844718955E+02  0.44704530908E+02  0.00000000000E+00 0.  1.
</event>
<event>
 7    1  0.5137842E-006  0.1457337E+03  0.7561462E-02  0.1205816E+00
          2   -1    0    0  501    0  0.00000000000E+00  0.00000000000E+00  0.60548238168E+02  0.60548238168E+02  0.00000000000E+00 0. -1.
         -2   -1    0    0    0  501 -0.00000000000E+00 -0.00000000000E+00 -0.38074596250E+03  0.38074596250E+03  0.00000000000E+00 0.  1.
         23    2    1    2    0    0 -0.28610874158E+02 -0.94873788667E+02 -0.93312146740E+02  0.16390661105E+03  0.91315948892E+02 0.  0.
          5    1    1    2  502    0 -0.48607179385E+02  0.51306000244E+02 -0.98229917663E+02  0.12108489862E+03  0.41800000000E+01 0. -1.
         -5    1    1    2    0  502  0.77218053543E+02  0.43567788423E+02 -0.12865565992E+03  0.15630269099E+03  0.41800000000E+01 0. -1.
        -11    1    3    3    0    0  0.13392574869E+01 -0.10127416544E+03 -0.56344741694E+02  0.11590073387E+03  0.00000000000E+00 0. -1.
         11    1    3    3    0    0 -0.29950131645E+02  0.64003767685E+01 -0.36967405046E+02  0.48005877183E+02  0.00000000000E+00 0.  1.
</event>
<event>
 7    1  0.5137842E-006  0.1123286E+03  0.7561462E-02  0.1256318E+00
         -4   -1    0    0    0  501 -0.00000000000E+00  0.00000000000E+00  0.40151053069E+03  0.40151053069E+03  0.00000000000E+00 0.  1.
          4   -1    0    0  501    0  0.00000000000E+00 -0.00000000000E+00 -0.34339018158E+02  0.34339018158E+02  0.00000000000E+00 0. -1.
         23    2    1    2    0    0  0.22498563624E+02  0.36578465437E+02  0.13488770792E+03  0.16855254655E+03  0.91493703068E+02 0.  0.
          5    1    1    2  502    0 -0.50428566730E+02 -0.67057401486E+02  0.19130761201E+03  0.20893972875E+03  0.41800000000E+01 0. -1.
         -5    1    1    2    0  502  0.27930003105E+02  0.30478936049E+02  0.40976192594E+02  0.58357273545E+02  0.41800000000E+01 0. -1.
        -11    1    3    3    0    0  0.46633047549E+02  0.52473063907E+02  0.10958732748E+03  0.13014394302E+03  0.00000000000E+00 0. -1.
         11    1    3    3    0    0 -0.24134483925E+02 -0.15894598470E+02  0.25300380438E+02  0.38408603530E+02  0.00000000000E+00 0.  1.
</event>
<event>
 7    1  0.5137842E-006  0.1146021E+03  0.7561462E-02  0.1252277E+00
         -2   -1    0    0    0  501 -0.00000000000E+00  0.00000000000E+00  0.29658866653E+02  0.29658866653E+02  0.00000000000E+00 0. -1.
          2   -1    0    0  501    0  0.00000000000E+00 -0.00000000000E+00 -0.51968945781E+03  0.51968945781E+03  0.00000000000E+00 0.  1.
         23    2    1    2    0    0  0.23647058982E+02 -0.48267761156E+02 -0.28053256029E+03  0.29949584746E+03  0.90057121291E+02 0.  0.
          5    1    1    2  502    0  0.16408249560E+01  0.88376242475E+02 -0.13976359775E+03  0.16542184921E+03  0.41800000000E+01 0.  1.
         -5    1    1    2    0  502 -0.25287883938E+02 -0.40108481319E+02 -0.69734433116E+02  0.84430627795E+02  0.41800000000E+01 0.  1.
        -11    1    3    3    0    0  0.29720363573E+02  0.12357076580E+02 -0.17240399710E+03  0.17538282575E+03  0.00000000000E+00 0.  1.
         11    1    3    3    0    0 -0.60733045910E+01 -0.60624837736E+02 -0.10812856319E+03  0.12411302170E+03  0.00000000000E+00 0. -1.
</event>
<event>
 7    1  0.5137842E-006  0.2352211E+03  0.7561462E-02  0.1123018E+00
         -1   -1    0    0    0  501 -0.00000000000E+00  0.00000000000E+00  0.61371531328E+03  0.61371531328E+03  0.00000000000E+00 0.  1.
          1   -1    0    0  501    0  0.00000000000E+00 -0.00000000000E+00 -0.10188098059E+03  0.10188098059E+03  0.00000000000E+00 0. -1.
         23    2    1    2    0    0 -0.44313023502E+00  0.22403082678E+03  0.27332134169E+03  0.36527444817E+03  0.92362649117E+02 0.  0.
          5    1    1    2  502    0  0.16015791014E+02 -0.18866481361E+03  0.24628501741E+03  0.31068424430E+03  0.41800000000E+01 0.  1.
         -5    1    1    2    0  502 -0.15572660779E+02 -0.35366013167E+02 -0.77720264052E+01  0.39637601410E+02  0.41800000000E+01 0.  1.
        -11    1    3    3    0    0  0.33990836383E+02  0.19255574889E+03  0.22546182409E+03  0.29843948718E+03  0.00000000000E+00 0.  1.
         11    1    3    3    0    0 -0.34433966618E+02  0.31475077884E+02  0.47859517597E+02  0.66834960983E+02  0.00000000000E+00 0. -1.
</event>
<event>
 7    1  0.5137842E-006  0.8397086E+02  0.7561462E-02  0.1318146E+00
         -3   -1    0    0    0  501 -0.00000000000E+00  0.00000000000E+00  0.24532798731E+03  0.24532798731E+03  0.00000000000E+00 0.  1.
          3   -1    0    0  501    0  0.00000000000E+00 -0.00000000000E+00 -0.52203332042E+02  0.52203332042E+02  0.00000000000E+00 0. -1.
         23    2    1    2    0    0  0.25549057885E+02  0.17163679076E+02  0.69792000702E+02  0.11918086786E+03  0.91574066547E+02 0.  0.
          5    1    1    2  502    0 -0.25552293974E+02  0.30826063068E+02 -0.56632736153E+01  0.40653547934E+02  0.41800000000E+01 0.  1.
         -5    1    1    2    0  502  0.32360888152E-02 -0.47989742145E+02  0.12899592818E+03  0.13769690356E+03  0.41800000000E+01 0.  1.
        -11    1    3    3    0    0  0.11541391475E+02  0.46015433443E+02  0.72879696656E+02  0.86960186389E+02  0.00000000000E+00 0.  1.
         11    1    3    3    0    0  0.14007666410E+02 -0.28851754367E+02 -0.30876959534E+01  0.32220681473E+02  0.00000000000E+00 0. -1.
</event>
<event>
 7    1  0.5137842E-006  0.1084341E+03  0.7561462E-02  0.1263497E+00
         -2   -1    0    0    0  501 -0.00000000000E+00  0.00000000000E+00  0.67049669626E+02  0.67049669626E+02  0.00000000000E+00 0.  1.
          2   -1    0    0  501    0  0.00000000000E+00 -0.00000000000E+00 -0.38326730924E+03  0.38326730924E+03  0.00000000000E+00 0. -1.
         23    2    1    2    0    0  0.10198186323E+03  0.25515420143E+01 -0.22987798364E+03  0.26726315501E+03  0.90437248256E+02 0.  0.
          5    1    1    2  502    0  0.12791967938E+01 -0.28292101146E+01 -0.79297385895E+02  0.79468160820E+02  0.41800000000E+01 0. -1.
         -5    1    1    2    0  502 -0.10326106003E+03  0.27766810031E+00 -0.70422700809E+01  0.10358566303E+03  0.41800000000E+01 0. -1.
        -11    1    3    3    0    0  0.69873912227E+02  0.18759406045E+02 -0.21751399749E+03  0.22923049106E+03  0.00000000000E+00 0. -1.
         11    1    3    3    0    0  0.32107951006E+02 -0.16207864030E+02 -0.12363986143E+02  0.38032663956E+02  0.00000000000E+00 0.  1.
</event>
<event>
 7    1  0.5137842E-006  0.8421557E+02  0.7561462E-02  0.1317497E+00
          1   -1    0    0  501    0  0.00000000000E+00  0.00000000000E+00  0.67873049198E+02  0.67873049198E+02  0.00000000000E+00 0. -1.
         -1   -1    0    0    0  501 -0.00000000000E+00 -0.00000000000E+00 -0.22881129306E+03  0.22881129306E+03  0.00000000000E+00 0.  1.
         23    2    1    2    0    0 -0.11792633446E+02  0.17455013024E+02  0.67233080630E+01  0.86444589774E+02  0.83568657681E+02 0.  0.
          5    1    1    2  502    0 -0.39139412443E+02 -0.24682178615E+02 -0.14584125840E+02  0.48695715151E+02  0.41800000000E+01 0. -1.
         -5    1    1    2    0  502  0.50932045889E+02  0.72271655912E+01 -0.15307742609E+03  0.16154403734E+03  0.41800000000E+01 0. -1.
        -11    1    3    3    0    0  0.26583889540E+02  0.17778631943E+02 -0.21734014790E+02  0.38667173878E+02  0.00000000000E+00 0. -1.
         11    1    3    3    0    0 -0.38376522987E+02 -0.32361891855E+00  0.28457322853E+02  0.47777415896E+02  0.00000000000E+00 0.  1.
</event>
<event>
 7    1  0.5137842E-006  0.1016496E+03  0.7561462E-02  0.1276865E+00
          1   -1    0    0  501    0  0.00000000000E+00  0.00000000000E+00  0.52213252868E+03  0.52213252868E+03  0.00000000000E+00 0. -1.
         -1   -1    0    0    0  501 -0.00000000000E+00 -0.00000000000E+00 -0.25605034959E+02  0.25605034959E+02  0.00000000000E+00 0.  1.
         23    2    1    2    0    0  0.15615241647E+02 -0.35729404246E+02  0.24188498526E+03  0.26136412152E+03  0.91007866826E+02 0.  0.
          5    1    1    2  502    0  0.37375330794E+02 -0.45800976376E+01  0.18908096481E+03  0.19283924989E+03  0.41800000000E+01 0. -1.
         -5    1    1    2    0  502 -0.52990572440E+02  0.40309501883E+02  0.65561543657E+02  0.93534192231E+02  0.41800000000E+01 0. -1.
        -11    1    3    3    0    0  0.27262523979E+02  0.24925252104E+02  0.10067256895E+03  0.10723562628E+03  0.00000000000E+00 0.  1.
         11    1    3    3    0    0 -0.11647282333E+02 -0.60654656350E+02  0.14121241631E+03  0.15412849523E+03  0.00000000000E+00 0. -1.
</event>
<event>
 7    1  0.5137842E-006  0.1794069E+03  0.7561462E-02  0.1168378E+00
         -2   -1    0    0    0  501 -0.00000000000E+00  0.00000000000E+00  0.15921087031E+03  0.15921087031E+03  0.00000000000E+00 0.  1.
          2   -1    0    0  501    0  0.00000000000E+00 -0.00000000000E+00 -0.24298153219E+03  0.24298153219E+03  0.00000000000E+00 0. -1.
         23    2    1    2    0    0  0.51394586164E+02  0.15394723632E+03 -0.61853067003E+02  0.19611177470E+03  0.91065203135E+02 0.  0.
          5    1    1    2  502    0 -0.58603285285E+02 -0.16717115633E+03 -0.40534720581E+02  0.18177204551E+03  0.41800000000E+01 0. -1.
         -5    1    1    2    0  502  0.72086991205E+01  0.13223920012E+02  0.18617125699E+02  0.24308582286E+02  0.41800000000E+01 0. -1.
        -11    1    3    3    0    0  0.20642052647E+02  0.11250277849E+03  0.15106361225E+01  0.11439078428E+03  0.00000000000E+00 0.  1.
         11    1    3    3    0    0  0.30752533517E+02  0.41444457826E+02 -0.63363703126E+02  0.81720990425E+02  0.00000000000E+00 0. -1.
</event>
<event>
 7    1  0.5137842E-006  0.9559094E+02  0.7561462E-02  0.1289851E+00
         -1   -1    0    0    0  501 -0.00000000000E+00  0.00000000000E+00  0.12440763533E+03  0.12440763533E+03  0.00000000000E+00 0.  1.
          1   -1    0    0  501    0  0.00000000000E+00 -0.00000000000E+00 -0.10810770444E+03  0.10810770444E+03  0.00000000000E+00 0. -1.
         23    2    1    2    0    0 -0.69488552577E+01  0.41856295464E+02  0.81030226259E+01  0.10017577784E+03  0.90384132624E+02 0.  0.
          5    1    1    2  502    0 -0.32723353147E+02  0.19531949286E+02 -0.30993421384E+02  0.49298878823E+02  0.41800000000E+01 0.  1.
         -5    1    1    2    0  502  0.39672208405E+02 -0.61388244750E+02  0.39190329650E+02  0.83040683110E+02  0.41800000000E+01 0.  1.
        -11    1    3    3    0    0 -0.16933599947E+02 -0.14564503497E+02  0.31223132292E+02  0.38389524084E+02  0.00000000000E+00 0. -1.
         11    1    3    3    0    0  0.99847446893E+01  0.56420798961E+02 -0.23120109666E+02  0.61786253753E+02  0.00000000000E+00 0.  1.
</event>
<event>
 7    1  0.5137842E-006  0.1246304E+03  0.7561462E-02  0.1235648E+00
         -2   -1    0    0    0  501 -0.00000000000E+00  0.00000000000E+00  0.51445420396E+02  0.51445420396E+02  0.00000000000E+00 0.  1.
          2   -1    0    0  501    0  0.00000000000E+00 -0.00000000000E+00 -0.56022967066E+03  0.56022967066E+03  0.00000000000E+00 0. -1.
         23    2    1    2    0    0  0.15717765987E+02  0.55443111933E+02 -0.38124571957E+03  0.39600321991E+03  0.90273277680E+02 0.  0.
          5    1    1    2  502    0  0.59505480379E+02 -0.18117321248E+02 -0.11479740801E+03  0.13063329136E+03  0.41800000000E+01 0. -1.
         -5    1    1    2    0  502 -0.75223246366E+02 -0.37325790685E+02 -0.12741122676E+02  0.85038579781E+02  0.41800000000E+01 0.  1.
        -11    1    3    3    0    0  0.50151801497E+02  0.43513260466E+02 -0.18873798669E+03  0.20007657196E+03  0.00000000000E+00 0. -1.
         11    1    3    3    0    0 -0.34434035509E+02  0.11929851467E+02 -0.19250773288E+03  0.19592664795E+03  0.00000000000E+00 0.  1.
</event>
<event>
 7    1  0.5137842E-006  0.8991778E+02  0.7561462E-02  0.1303051E+00
         -1   -1    0    0    0  501 -0.00000000000E+00  0.00000000000E+00  0.19817739172E+02  0.19817739172E+02  0.00000000000E+00 0.  1.
          1   -1    0    0  501    0  0.00000000000E+00 -0.00000000000E+00 -0.69395275239E+03  0.69395275239E+03  0.00000000000E+00 0. -1.
         23    2    1    2    0    0  0.99772582377E+01  0.43071273785E+02 -0.30575738647E+03  0.32222465640E+03  0.91577669251E+02 0.  0.
          5    1    1    2  502    0 -0.20105080037E+02 -0.60885357461E+02 -0.80919905424E+02  0.10332833343E+03  0.41800000000E+01 0.  1.
         -5    1    1    2    0  502  0.10127821799E+02  0.17814083676E+02 -0.28745772133E+03  0.28821750173E+03  0.41800000000E+01 0.  1.
        -11    1    3    3    0    0  0.10802760339E+02 -0.24664177909E+02 -0.41864485676E+02  0.49776063161E+02  0.00000000000E+00 0. -1.
         11    1    3    3    0    0 -0.82550210099E+00  0.67735451695E+02 -0.26389290079E+03  0.27244859324E+03  0.00000000000E+00 0.  1.
</event>
<event>
 7    1  0.5137842E-006  0.9929097E+02  0.7561462E-02  0.1281794E+00
          1   -1    0    0  501    0  0.00000000000E+00  0.00000000000E+00  0.47079669653E+03  0.47079669653E+03  0.00000000000E+00 0. -1.
         -1   -1    0    0    0  501 -0.00000000000E+00 -0.00000000000E+00 -0.40902220822E+02  0.40902220822E+02  0.00000000000E+00 0.  1.
         23    2    1    2    0    0  0.63314628060E+02  0.63396950305E-01  0.30913661911E+03  0.32665685928E+03  0.84442337094E+02 0.  0.
          5    1    1    2  502    0 -0.55005589747E+02 -0.40969170537E+02  0.13710023260E+02  0.70068002510E+02  0.41800000000E+01 0.  1.
         -5    1    1    2    0  502 -0.83090383134E+01  0.40905773587E+02  0.10704783334E+03  0.11497405556E+03  0.41800000000E+01 0.  1.
        -11    1    3    3    0    0  0.34662911255E+02  0.30461490142E+02  0.25018742233E+03  0.25440748041E+03  0.00000000000E+00 0. -1.
         11    1    3    3    0    0  0.28651716805E+02 -0.30398093192E+02  0.58949196786E+02  0.72249378872E+02  0.00000000000E+00 0.  1.
</event>
<event>
 7    1  0.5137842E-006  0.1328955E+03  0.7561462E-02  0.1223222E+00
         -2   -1    0    0    0  501 -0.00000000000E+00  0.00000000000E+00  0.69725223219E+02  0.69725223219E+02  0.00000000000E+00 0.  1.
          2   -1    0    0  501    0  0.00000000000E+00 -0.00000000000E+00 -0.39694168288E+03  0.39694168288E+03  0.00000000000E+00 0. -1.
         23    2    1    2    0    0  0.10239650101E+03 -0.71012225889E+02 -0.17860179463E+03  0.23588084432E+03  0.90627766318E+02 0.  0.
          5    1    1    2  502    0 -0.10822254851E+03  0.60074553804E+02 -0.16719211879E+03  0.20806669365E+03  0.41800000000E+01 0. -1.
         -5    1    1    2    0  502  0.58260475003E+01  0.10937672084E+02  0.18577453761E+02  0.22719368132E+02  0.41800000000E+01 0. -1.
        -11    1    3    3    0    0  0.22197096341E+02 -0.33834877686E+02 -0.46184741168E+01  0.40728863686E+02  0.00000000000E+00 0.  1.
         11    1    3    3    0    0  0.80199404665E+02 -0.37177348202E+02 -0.17398332052E+03  0.19515198063E+03  0.00000000000E+00 0. -1.
</event>
<event>
 7    1  0.5137842E-006  0.1027386E+03  0.7561462E-02  0.1274640E+00
         -4   -1    0    0    0  501 -0.00000000000E+00  0.00000000000E+00  0.20168909454E+02  0.20168909454E+02  0.00000000000E+00 0.  1.
          4   -1    0    0  501    0  0.00000000000E+00 -0.00000000000E+00 -0.68205034682E+03  0.68205034682E+03  0.00000000000E+00 0. -1.
         23    2    1    2    0    0 -0.39104667637E+02 -0.95412907054E+01 -0.23826715969E+03  0.25869261931E+03  0.92360276327E+02 0.  0.
          5    1    1    2  502    0  0.34723428319E+02 -0.49404632605E+02 -0.30483849683E+03  0.31079014744E+03  0.41800000000E+01 0.  1.
         -5    1    1    2    0  502  0.43812393181E+01  0.58945923311E+02 -0.11877578085E+03  0.13273648951E+03  0.41800000000E+01 0.  1.
        -11    1    3    3    0    0 -0.22207547519E+02  0.33079184942E+02 -0.45185764591E+02  0.60242517917E+02  0.00000000000E+00 0.  1.
         11    1    3    3    0    0 -0.16897120119E+02 -0.42620475648E+02 -0.19308139509E+03  0.19845010140E+03  0.00000000000E+00 0. -1.
</event>
<event>
 7    1  0.5137842E-006  0.1877863E+03  0.7561462E-02  0.1160473E+00
         -1   -1    0    0    0  501 -0.00000000000E+00  0.00000000000E+00  0.25375952546E+03  0.25375952546E+03  0.00000000000E+00 0.  1.
          1   -1    0    0  501    0  0.00000000000E+00 -0.00000000000E+00 -0.15846692814E+03  0.15846692814E+03  0.00000000000E+00 0. -1.
         23    2    1    2    0    0  0.39075427289E+02 -0.15658638313E+03 -0.37779917515E+01  0.18527100540E+03  0.90911428435E+02 0.  0.
          5    1    1    2  502    0 -0.76516817153E+02  0.54761383482E+02  0.59457548202E+02  0.11138359334E+03  0.41800000000E+01 0. -1.
         -5    1    1    2    0  502  0.37441389864E+02  0.10182499965E+03  0.39613040865E+02  0.11557185486E+03  0.41800000000E+01 0. -1.
        -11    1    3    3    0    0  0.38424985196E+02 -0.37381659998E+02 -0.32450116634E+02  0.62664807197E+02  0.00000000000E+00 0. -1.
         11    1    3    3    0    0  0.65044209343E+00 -0.11920472313E+03  0.28672124883E+02  0.12260619820E+03  0.00000000000E+00 0.  1.
</event>
<event>
 7    1  0.5137842E-006  0.6512341E+02  0.7561462E-02  0.1377508E+00
         -1   -1    0    0    0  501 -0.00000000000E+00  0.00000000000E+00  0.59621986690E+02  0.59621986690E+02  0.00000000000E+00 0.  1.
          1   -1    0    0  501    0  0.00000000000E+00 -0.00000000000E+00 -0.20862934409E+03  0.20862934409E+03  0.00000000000E+00 0. -1.
         23    2    1    2    0    0 -0.18861892947E+02 -0.20576769217E+02 -0.67175189748E+02  0.11618912940E+03  0.90599300422E+02 0.  0.
          5    1    1    2  502    0 -0.27847106283E+02  0.55900912815E+01 -0.96509362598E+02  0.10068882718E+03  0.41800000000E+01 0. -1.
         -5    1    1    2    0  502  0.46708999230E+02  0.14986677936E+02  0.14677194951E+02  0.51373374195E+02  0.41800000000E+01 0. -1.
        -11    1    3    3    0    0 -0.31766297825E+02 -0.51292018292E+01  0.12115850773E+02  0.34383138729E+02  0.00000000000E+00 0.  1.
         11    1    3    3    0    0  0.12904404878E+02 -0.15447567388E+02 -0.79291040521E+02  0.81805990675E+02  0.00000000000E+00 0. -1.
</event>
<event>
 7    1  0.5137842E-006  0.1276595E+03  0.7561462E-02  0.1230970E+00
         -1   -1    0    0    0  501 -0.00000000000E+00  0.00000000000E+00  0.11839211838E+03  0.11839211838E+03  0.00000000000E+00 0.  1.
          1   -1    0    0  501    0  0.00000000000E+00 -0.00000000000E+00 -0.18067218317E+03  0.18067218317E+03  0.00000000000E+00 0. -1.
         23    2    1    2    0    0  0.79990654619E+00 -0.82781982348E+02 -0.80328166622E+02  0.14797401227E+03  0.92683318355E+02 0.  0.
          5    1    1    2  502    0  0.41350524274E+02  0.94069624666E+02 -0.20611896018E+01  0.10286243748E+03  0.41800000000E+01 0.  1.
         -5    1    1    2    0  502 -0.42150430821E+02 -0.11287642318E+02  0.20109291437E+02  0.48227851803E+02  0.41800000000E+01 0.  1.
        -11    1    3    3    0    0 -0.32909095534E+02 -0.23472795003E+02 -0.67322840607E+02  0.78526081919E+02  0.00000000000E+00 0. -1.
         11    1    3    3    0    0  0.33709002080E+02 -0.59309187345E+02 -0.13005326015E+02  0.69447930347E+02  0.00000000000E+00 0.  1.
</event>
<event>
 7    1  0.7649576E-006  0.2361836E+03  0.7561462E-02  0.1122362E+00
          2   -1    0    0  501    0  0.00000000000E+00  0.00000000000E+00  0.14664149018E+04  0.14664149018E+04  0.00000000000E+00 0. -1.
         -2   -1    0    0    0  501 -0.00000000000E+00 -0.00000000000E+00 -0.43506042739E+02  0.43506042739E+02  0.00000000000E+00 0.  1.
         23    2    1    2    0    0  0.17011923546E+03  0.14991911184E+03  0.71003997775E+03  0.75147160743E+03  0.95585105532E+02 0.  0.
          5    1    1    2  502    0 -0.13767493345E+03 -0.14964158684E+03  0.45340309651E+03  0.49692940358E+03  0.41800000000E+01 0. -1.
         -5    1    1    2    0  502 -0.32444302011E+02 -0.27752499565E+00  0.25946578478E+03  0.26151993351E+03  0.41800000000E+01 0. -1.
        -11    1    3    3    0    0  0.12388380565E+03  0.65778673146E+02  0.31303934660E+03  0.34302720543E+03  0.00000000000E+00 0. -1.
         11    1    3    3    0    0  0.46235429813E+02  0.84140438691E+02  0.39700063114E+03  0.40844440199E+03  0.00000000000E+00 0.  1.
</event>
<event>
 7    1  0.5137842E-006  0.1022191E+03  0.7561462E-02  0.1275697E+00
         -3   -1    0    0    0  501 -0.00000000000E+00  0.00000000000E+00  0.27442661862E+02  0.27442661862E+02  0.00000000000E+00 0.  1.
          3   -1    0    0  501    0  0.00000000000E+00 -0.00000000000E+00 -0.49512088048E+03  0.49512088048E+03  0.00000000000E+00 0. -1.
         23    2    1    2    0    0  0.13055770270E+02 -0.27404121817E+02 -0.26914498503E+03  0.28595834445E+03  0.91715390005E+02 0.  0.
          5    1    1    2  502    0 -0.51197842312E+02  0.42689282315E+02 -0.17872611381E+03  0.19079855879E+03  0.41800000000E+01 0.  1.
         -5    1    1    2    0  502  0.38142072042E+02 -0.15285160498E+02 -0.19807119775E+02  0.45806639092E+02  0.41800000000E+01 0.  1.
        -11    1    3    3    0    0 -0.39525087002E+02 -0.15336850417E+02 -0.10803702416E+03  0.11605795997E+03  0.00000000000E+00 0.  1.
         11    1    3    3    0    0  0.52580857271E+02 -0.12067271401E+02 -0.16110796088E+03  0.16990038449E+03  0.00000000000E+00 0. -1.
</event>
<event>
 7    1  0.5137842E-006  0.9003808E+02  0.7561462E-02  0.1302760E+00
          2   -1    0    0  501    0  0.00000000000E+00  0.00000000000E+00  0.43670063410E+03  0.43670063410E+03  0.00000000000E+00 0. -1.
         -2   -1    0    0    0  501 -0.00000000000E+00 -0.00000000000E+00 -0.33489559041E+02  0.33489559041E+02  0.00000000000E+00 0.  1.
         23    2    1    2    0    0  0.40129730058E+02 -0.77469879160E+01  0.24267364586E+03  0.26261105334E+03  0.91671456238E+02 0.  0.
          5    1    1    2  502    0  0.34326256712E+02 -0.14372104696E+02  0.10643221559E+03  0.11282791414E+03  0.41800000000E+01 0.  1.
         -5    1    1    2    0  502 -0.74455986771E+02  0.22119092612E+02  0.54105213613E+02  0.94751225660E+02  0.41800000000E+01 0.  1.
        -11    1    3    3    0    0  0.52131970347E+02 -0.84906285751E+01  0.24477034095E+03  0.25040437879E+03  0.00000000000E+00 0. -1.
         11    1    3    3    0    0 -0.12002240288E+02  0.74364065910E+00 -0.20966950972E+01  0.12206674555E+02  0.00000000000E+00 0.  1.
</event>
<event>
 7    1  0.5137842E-006  0.9909377E+02  0.7561462E-02  0.1282213E+00
          1   -1    0    0  501    0  0.00000000000E+00  0.00000000000E+00  0.40734646313E+03  0.40734646313E+03  0.00000000000E+00 0. -1.
         -1   -1    0    0    0  501 -0.00000000000E+00 -0.00000000000E+00 -0.30806536672E+02  0.30806536672E+02  0.00000000000E+00 0.  1.
         23    2    1    2    0    0 -0.45890334837E+01 -0.11029073733E+01  0.21770645256E+03  0.23591838671E+03  0.90769543711E+02 0.  0.
          5    1    1    2  502    0  0.46071484106E+02  0.45062535617E+02  0.83548832799E+02  0.10559873875E+03  0.41800000000E+01 0.  1.
         -5    1    1    2    0  502 -0.41482450623E+02 -0.43959628244E+02  0.75284641096E+02  0.96635874343E+02  0.41800000000E+01 0.  1.
        -11    1    3    3    0    0 -0.11580372857E+02 -0.35799699881E+02  0.40779841340E+02  0.55486205554E+02  0.00000000000E+00 0.  1.
         11    1    3    3    0    0  0.69913393729E+01  0.34696792508E+02  0.17692661122E+03  0.18043218115E+03  0.00000000000E+00 0. -1.
</event>
<event>
 7    1  0.5137842E-006  0.1255716E+03  0.7561462E-02  0.1234179E+00
          1   -1    0    0  501    0  0.00000000000E+00  0.00000000000E+00  0.42480268760E+02  0.42480268760E+02  0.00000000000E+00 0. -1.
         -1   -1    0    0    0  501 -0.00000000000E+00 -0.00000000000E+00 -0.43286753335E+03  0.43286753335E+03  0.00000000000E+00 0.  1.
         23    2    1    2    0    0  0.80331670223E+02 -0.82610211775E+01 -0.18070616097E+03  0.21818153618E+03  0.91798934666E+02 0.  0.
          5    1    1    2  502    0 -0.94714510865E+02 -0.21394075545E+02 -0.88271477979E+02  0.13129307393E+03  0.41800000000E+01 0. -1.
         -5    1    1    2    0  502  0.14382840643E+02  0.29655096723E+02 -0.12140962564E+03  0.12587319201E+03  0.41800000000E+01 0. -1.
        -11    1    3    3    0    0  0.62757519976E+02 -0.46857292515E+02 -0.13302734154E+03  0.15437093565E+03  0.00000000000E+00 0. -1.
         11    1    3    3    0    0  0.17574150247E+02  0.38596271338E+02 -0.47678819427E+02  0.63810600530E+02  0.00000000000E+00 0.  1.
</event>
<event>
 7    1  0.5137842E-006  0.7918886E+02  0.7561462E-02  0.1331369E+00
         -2   -1    0    0    0  501 -0.00000000000E+00  0.00000000000E+00  0.73648732670E+02  0.73648732670E+02  0.00000000000E+00 0.  1.
          2   -1    0    0  501    0  0.00000000000E+00 -0.00000000000E+00 -0.20330559770E+03  0.20330559770E+03  0.00000000000E+00 0. -1.
         23    2    1    2    0    0  0.38380603741E+02  0.18515248149E+01 -0.10481871725E+03  0.14376060820E+03  0.90574003427E+02 0.  0.
          5    1    1    2  502    0 -0.36962585580E+02 -0.41958502817E+02 -0.58215525351E+02  0.80828636530E+02  0.41800000000E+01 0. -1.
         -5    1    1    2    0  502 -0.14180181606E+01  0.40106978002E+02  0.33377377574E+02  0.52365085636E+02  0.41800000000E+01 0. -1.
        -11    1    3    3    0    0  0.46422114516E+02 -0.10140334493E+02 -0.11609354972E+03  0.12544142612E+03  0.00000000000E+00 0. -1.
         11    1    3    3    0    0 -0.80415107747E+01  0.11991859308E+02  0.11274832466E+02  0.18319182087E+02  0.00000000000E+00 0.  1.
</event>
<event>
 7    1  0.5137842E-006  0.1129656E+03  0.7561462E-02  0.1255175E+00
          2   -1    0    0  501    0  0.00000000000E+00  0.00000000000E+00  0.20756428724E+03  0.20756428724E+03  0.00000000000E+00 0. -1.
         -2   -1    0    0    0  501 -0.00000000000E+00 -0.00000000000E+00 -0.81746238100E+02  0.81746238100E+02  0.00000000000E+00 0.  1.
         23    2    1    2    0    0 -0.34965366677E+02  0.45393489287E+02  0.90623135659E+02  0.14729234114E+03  0.10099175860E+03 0.  0.
          5    1    1    2  502    0  0.54468414624E+02  0.12464048408E+02  0.54178933516E+02  0.77942221750E+02  0.41800000000E+01 0. -1.
         -5    1    1    2    0  502 -0.19503047947E+02 -0.57857537695E+02 -0.18984020034E+02  0.64075962451E+02  0.41800000000E+01 0. -1.
        -11    1    3    3    0    0 -0.66677914211E+02  0.35138678234E+02  0.36531537432E+02  0.83756935108E+02  0.00000000000E+00 0.  1.
         11    1    3    3    0    0  0.31712547534E+02  0.10254811053E+02  0.54091598227E+02  0.63535406031E+02  0.00000000000E+00 0. -1.
</event>
<event>
 7    1  0.5137842E-006  0.2146090E+03  0.7561462E-02  0.1137967E+00
          2   -1    0    0  501    0  0.00000000000E+00  0.00000000000E+00  0.17262719470E+03  0.17262719470E+03  0.00000000000E+00 0. -1.
         -2   -1    0    0    0  501 -0.00000000000E+00 -0.00000000000E+00 -0.28321872718E+03  0.28321872718E+03  0.00000000000E+00 0.  1.
         23    2    1    2    0    0 -0.66697932858E+00 -0.19059309848E+03 -0.33736249227E+02  0.21526143178E+03  0.94197534197E+02 0.  0.
          5    1    1    2  502    0  0.42255244084E+02  0.18205543801E+02 -0.35969520328E+02  0.58551056953E+02  0.41800000000E+01 0.  1.
         -5    1    1    2    0  502 -0.41588264755E+02  0.17238755468E+03 -0.40885762934E+02  0.18203343315E+03  0.41800000000E+01 0.  1.
        -11    1    3    3    0    0 -0.35177652584E+02 -0.51793605397E+02 -0.35991938795E+02  0.72218172641E+02  0.00000000000E+00 0. -1.
         11    1    3    3    0    0  0.34510673256E+02 -0.13879949308E+03  0.22556895676E+01  0.14304325914E+03  0.00000000000E+00 0.  1.
</event>
<event>
 7    1  0.5137842E-006  0.7403778E+02  0.7561462E-02  0.1346877E+00
          1   -1    0    0  501    0  0.00000000000E+00  0.00000000000E+00  0.54877885981E+02  0.54877885981E+02  0.00000000000E+00 0. -1.
         -1   -1    0    0    0  501 -0.00000000000E+00 -0.00000000000E+00 -0.24675309764E+03  0.24675309764E+03  0.00000000000E+00 0.  1.
         23    2    1    2    0    0 -0.76458877239E+01  0.16641522849E+02 -0.34072789407E+02  0.99415745989E+02  0.91581306448E+02 0.  0.
          5    1    1    2  502    0 -0.28341913093E+02 -0.88442532388E+01 -0.16215281745E+03  0.16490146591E+03  0.41800000000E+01 0.  1.
         -5    1    1    2    0  502  0.35987800817E+02 -0.77972696106E+01  0.43503952056E+01  0.37313771714E+02  0.41800000000E+01 0.  1.
        -11    1    3    3    0    0 -0.35097730716E+02 -0.15838991183E+02  0.82907748023E+01  0.39388593399E+02  0.00000000000E+00 0. -1.
         11    1    3    3    0    0  0.27451842992E+02  0.32480514032E+02 -0.42363564210E+02  0.60027152590E+02  0.00000000000E+00 0.  1.
</event>
<event>
 7    1  0.5137842E-006  0.1144218E+03  0.7561462E-02  0.1252594E+00
         -2   -1    0    0    0  501 -0.00000000000E+00  0.00000000000E+00  0.21929529742E+03  0.21929529742E+03  0.00000000000E+00 0.  1.
          2   -1    0    0  501    0  0.00000000000E+00 -0.00000000000E+00 -0.77762103705E+02  0.77762103705E+02  0.00000000000E+00 0. -1.
         23    2    1    2    0    0 -0.43604102926E+02 -0.20813724128E+02  0.14158806293E+01  0.10311130867E+03  0.91079132367E+02 0.  0.
          5    1    1    2  502    0  0.33480686710E+02 -0.51081906594E+02  0.59432259145E+02  0.85322818700E+02  0.41800000000E+01 0.  1.
         -5    1    1    2    0  502  0.10123416216E+02  0.71895630722E+02  0.80685053941E+02  0.10862327376E+03  0.41800000000E+01 0.  1.
        -11    1    3    3    0    0  0.24227947836E+02 -0.10001014795E+02  0.18801330056E+02  0.32256840595E+02  0.00000000000E+00 0.  1.
         11    1    3    3    0    0 -0.67832050762E+02 -0.10812709333E+02 -0.17385449427E+02  0.70854468070E+02  0.00000000000E+00 0. -1.
</event>
<event>
 7    1  0.5137842E-006  0.1936330E+03  0.7561462E-02  0.1155225E+00
         -2   -1    0    0    0  501 -0.00000000000E+00  0.00000000000E+00  0.18696063405E+03  0.18696063405E+03  0.00000000000E+00 0.  1.
          2   -1    0    0  501    0  0.00000000000E+00 -0.00000000000E+00 -0.21680214966E+03  0.21680214966E+03  0.00000000000E+00 0. -1.
         23    2    1    2    0    0  0.11979940917E+03  0.11641833006E+03  0.75203783608E+01  0.19175278194E+03  0.93848000939E+02 0.  0.
          5    1    1    2  502    0 -0.46761342024E+02 -0.11915321851E+03  0.36030976834E+01  0.12811934789E+03  0.41800000000E+01 0.  1.
         -5    1    1    2    0  502 -0.73038067147E+02  0.27348884510E+01 -0.40964991653E+02  0.83890653881E+02  0.41800000000E+01 0.  1.
        -11    1    3    3    0    0  0.84694594952E+02  0.25378762483E+02  0.26603359291E+02  0.92330897997E+02  0.00000000000E+00 0.  1.
         11    1    3    3    0    0  0.35104814218E+02  0.91039567580E+02 -0.19082980930E+02  0.99421883947E+02  0.00000000000E+00 0. -1.
</event>
<event>
 7    1  0.5137842E-006  0.1072667E+03  0.7561462E-02  0.1265717E+00
         -2   -1    0    0    0  501 -0.00000000000E+00  0.00000000000E+00  0.53796022820E+02  0.53796022820E+02  0.00000000000E+00 0.  1.
          2   -1    0    0  501    0  0.00000000000E+00 -0.00000000000E+00 -0.44338745503E+03  0.44338745503E+03  0.00000000000E+00 0. -1.
         23    2    1    2    0    0 -0.87432865708E+02 -0.48937944946E+02 -0.25208688665E+03  0.28601473459E+03  0.90648781119E+02 0.  0.
          5    1    1    2  502    0  0.43305181904E+02 -0.39990325441E+01  0.12999987603E+02  0.45582925736E+02  0.41800000000E+01 0. -1.
         -5    1    1    2    0  502  0.44127683804E+02  0.52936977490E+02 -0.15050453316E+03  0.16558581753E+03  0.41800000000E+01 0. -1.
        -11    1    3    3    0    0 -0.52603374701E+02 -0.39295490729E+02 -0.23855268647E+03  0.24742399811E+03  0.00000000000E+00 0. -1.
         11    1    3    3    0    0 -0.34829491006E+02 -0.96424542168E+01 -0.13534200185E+02  0.38590736476E+02  0.00000000000E+00 0.  1.
</event>
<event>
 7    1  0.5137842E-006  0.1140365E+03  0.7561462E-02  0.1253272E+00
         -2   -1    0    0    0  501 -0.00000000000E+00  0.00000000000E+00  0.55639354540E+02  0.55639354540E+02  0.00000000000E+00 0.  1.
          2   -1    0    0  501    0  0.00000000000E+00 -0.00000000000E+00 -0.65155893321E+03  0.65155893321E+03  0.00000000000E+00 0. -1.
         23    2    1    2    0    0  0.51920016366E+02  0.67035905455E+02 -0.52749398844E+03  0.54130595466E+03  0.87021422640E+02 0.  0.
          5    1    1    2  502    0 -0.14398510401E+02 -0.70313253010E+02  0.15732973450E+02  0.73595308983E+02  0.41800000000E+01 0. -1.
         -5    1    1    2    0  502 -0.37521505965E+02  0.32773475552E+01 -0.84158563682E+02  0.92297024101E+02  0.41800000000E+01 0. -1.
        -11    1    3    3    0    0 -0.88542213888E+01  0.55776572403E+02 -0.19067135584E+03  0.19885921956E+03  0.00000000000E+00 0.  1.
         11    1    3    3    0    0  0.60774237755E+02  0.11259333052E+02 -0.33682263259E+03  0.34244673510E+03  0.00000000000E+00 0. -1.
</event>
<event>
 7    1  0.5137842E-006  0.2831540E+03  0.7561462E-02  0.1093979E+00
          2   -1    0    0  501    0  0.00000000000E+00  0.00000000000E+00  0.76620403133E+03  0.76620403133E+03  0.00000000000E+00 0. -1.
         -2   -1    0    0    0  501 -0.00000000000E+00 -0.00000000000E+00 -0.19031423858E+03  0.19031423858E+03  0.00000000000E+00 0.  1.
         23    2    1    2    0    0 -0.27114398415E+03 -0.53055411375E+02  0.58472160126E+03  0.65308430423E+03  0.91026483139E+02 0.  0.
          5    1    1    2  502    0  0.19347050993E+03  0.55501085037E+02  0.48130128945E+02  0.20699079778E+03  0.41800000000E+01 0.  1.
         -5    1    1    2    0  502  0.77673474222E+02 -0.24456736625E+01 -0.56961937455E+02  0.96443167907E+02  0.41800000000E+01 0.  1.
        -11    1    3    3    0    0 -0.14414368873E+03 -0.67836943787E+02  0.27175660059E+03  0.31500937114E+03  0.00000000000E+00 0.  1.
         11    1    3    3    0    0 -0.12700029542E+03  0.14781532412E+02  0.31296500067E+03  0.33807493309E+03  0.00000000000E+00 0. -1.
</event>
<event>
 7    1  0.5137842E-006  0.2264222E+03  0.7561462E-02  0.1129184E+00
          1   -1    0    0  501    0  0.00000000000E+00  0.00000000000E+00  0.46152482291E+03  0.46152482291E+03  0.00000000000E+00 0.  1.
         -1   -1    0    0    0  501 -0.00000000000E+00 -0.00000000000E+00 -0.12786893663E+03  0.12786893663E+03  0.00000000000E+00 0. -1.
         23    2    1    2    0    0  0.35926994883E+02 -0.21357982068E+03  0.14456598355E+03  0.27585048317E+03  0.91033382336E+02 0.  0.
          5    1    1    2  502    0  0.58162055466E+01  0.55050992982E+02 -0.91546296040E+01  0.56264728902E+02  0.41800000000E+01 0. -1.
         -5    1    1    2    0  502 -0.41743200429E+02  0.15852882770E+03  0.19824453233E+03  0.25727854747E+03  0.41800000000E+01 0. -1.
        -11    1    3    3    0    0 -0.17481837524E+02 -0.14677991042E+03  0.10676885427E+03  0.18234457762E+03  0.00000000000E+00 0.  1.
         11    1    3    3    0    0  0.53408832407E+02 -0.66799910264E+02  0.37797129288E+02  0.93505905550E+02  0.00000000000E+00 0. -1.
</event>
<event>
 7    1  0.5137842E-006  0.1357981E+03  0.7561462E-02  0.1219097E+00
         -1   -1    0    0    0  501 -0.00000000000E+00  0.00000000000E+00  0.87204995492E+02  0.87204995492E+02  0.00000000000E+00 0.  1.
          1   -1    0    0  501    0  0.00000000000E+00 -0.00000000000E+00 -0.23876772787E+03  0.23876772787E+03  0.00000000000E+00 0. -1.
         23    2    1    2    0    0 -0.83935613138E+02 -0.10558824246E+02 -0.11712683628E+03  0.17108759911E+03  0.91627478781E+02 0.  0.
          5    1    1    2  502    0  0.23426824020E+02  0.65171314978E+02 -0.14864808603E+02  0.70954572188E+02  0.41800000000E+01 0.  1.
         -5    1    1    2    0  502  0.60508789118E+02 -0.54612490732E+02 -0.19571087490E+02  0.83930552065E+02  0.41800000000E+01 0.  1.
        -11    1    3    3    0    0 -0.98999356612E+02 -0.22324610391E+02 -0.79618499971E+02  0.12898979175E+03  0.00000000000E+00 0.  1.
         11    1    3    3    0    0  0.15063743474E+02  0.11765786145E+02 -0.37508336311E+02  0.42097807352E+02  0.00000000000E+00 0. -1.
</event>
<event>
 7    1  0.5137842E-006  0.1270525E+03  0.7561462E-02  0.1231896E+00
         -1   -1    0    0    0  501 -0.00000000000E+00  0.00000000000E+00  0.74092533119E+03  0.74092533119E+03  0.00000000000E+00 0. -1.
          1   -1    0    0  501    0  0.00000000000E+00 -0.00000000000E+00 -0.70382772937E+02  0.70382772937E+02  0.00000000000E+00 0.  1.
         23    2    1    2    0    0 -0.88503044338E+02  0.32679508469E+01  0.72181924377E+00  0.12417550954E+03  0.87037737711E+02 0.  0.
          5    1    1    2  502    0  0.76682671162E+02  0.54490785112E+02  0.41249137233E+03  0.42310292172E+03  0.41800000000E+01 0.  1.
         -5    1    1    2    0  502  0.11820373176E+02 -0.57758735959E+02  0.25732936668E+03  0.26402967287E+03  0.41800000000E+01 0.  1.
        -11    1    3    3    0    0 -0.85841366453E+01  0.17656729297E+02 -0.31249067851E+02  0.36904630237E+02  0.00000000000E+00 0.  1.
         11    1    3    3    0    0 -0.79918907693E+02 -0.14388778451E+02  0.31970887094E+02  0.87270879300E+02  0.00000000000E+00 0. -1.
</event>
<event>
 7    1  0.5137842E-006  0.9303804E+02  0.7561462E-02  0.1295657E+00
          2   -1    0    0  501    0  0.00000000000E+00  0.00000000000E+00  0.34839324012E+03  0.34839324012E+03  0.00000000000E+00 0.  1.
         -2   -1    0    0    0  501 -0.00000000000E+00 -0.00000000000E+00 -0.38874193602E+02  0.38874193602E+02  0.00000000000E+00 0. -1.
         23    2    1    2    0    0  0.91307429995E+01  0.57270120114E+01  0.20671490234E+03  0.22499479536E+03  0.88178443811E+02 0.  0.
          5    1    1    2  502    0 -0.56977344511E+02  0.21139943203E+02  0.22537247470E+02  0.64951635158E+02  0.41800000000E+01 0.  1.
         -5    1    1    2    0  502  0.47846601512E+02 -0.26866955214E+02  0.80266896708E+02  0.97321003210E+02  0.41800000000E+01 0.  1.
        -11    1    3    3    0    0 -0.18999170506E+02 -0.23059628707E+02  0.16241864599E+03  0.16514397210E+03  0.00000000000E+00 0.  1.
         11    1    3    3    0    0  0.28129913506E+02  0.28786640718E+02  0.44296256355E+02  0.59850823259E+02  0.00000000000E+00 0. -1.
</event>
<event>
 7    1  0.5137842E-006  0.1500691E+03  0.7561462E-02  0.1200388E+00
         -1   -1    0    0    0  501 -0.00000000000E+00  0.00000000000E+00  0.11807218386E+03  0.11807218386E+03  0.00000000000E+00 0.  1.
          1   -1    0    0  501    0  0.00000000000E+00 -0.00000000000E+00 -0.29765082160E+03  0.29765082160E+03  0.00000000000E+00 0. -1.
         23    2    1    2    0    0 -0.52684964821E+02 -0.13053632133E+03 -0.14951262685E+03  0.22502405227E+03  0.92012835006E+02 0.  0.
          5    1    1    2  502    0 -0.18276973664E+01  0.15730581585E+02  0.41618840442E+02  0.44725741519E+02  0.41800000000E+01 0. -1.
         -5    1    1    2    0  502  0.54512662187E+02  0.11480573975E+03 -0.71684851329E+02  0.14597321168E+03  0.41800000000E+01 0. -1.
        -11    1    3    3    0    0  0.14145345740E+02 -0.49918145153E+02 -0.13949363726E+02  0.53726127443E+02  0.00000000000E+00 0.  1.
         11    1    3    3    0    0 -0.66830310561E+02 -0.80618176181E+02 -0.13556326313E+03  0.17129792483E+03  0.00000000000E+00 0. -1.
</event>
<event>
 7    1  0.5137842E-006  0.1219175E+03  0.7561462E-02  0.1239967E+00
          2   -1    0    0  501    0  0.00000000000E+00  0.00000000000E+00  0.59843076128E+03  0.59843076128E+03  0.00000000000E+00 0. -1.
         -2   -1    0    0    0  501 -0.00000000000E+00 -0.00000000000E+00 -0.27063085399E+02  0.27063085399E+02  0.00000000000E+00 0.  1.
         23    2    1    2    0    0  0.38956508709E+02 -0.52019898837E+02  0.28243513399E+03  0.30400864009E+03  0.91803969903E+02 0.  0.
          5    1    1    2  502    0 -0.20693979921E+02  0.93109097321E+02  0.20621113970E+03  0.22724007425E+03  0.41800000000E+01 0.  1.
         -5    1    1    2    0  502 -0.18262528788E+02 -0.41089198484E+02  0.82721402191E+02  0.94245132342E+02  0.41800000000E+01 0.  1.
        -11    1    3    3    0    0  0.63383343610E+02 -0.45179336388E+02  0.14819549704E+03  0.16739332731E+03  0.00000000000E+00 0.  1.
         11    1    3    3    0    0 -0.24426834901E+02 -0.68405624488E+01  0.13423963695E+03  0.13661531278E+03  0.00000000000E+00 0. -1.
</event>
<event>
 7    1  0.5137842E-006  0.5884898E+02  0.7561462E-02  0.1402726E+00
          2   -1    0    0  501    0  0.00000000000E+00  0.00000000000E+00  0.82271485812E+02  0.82271485812E+02  0.00000000000E+00 0. -1.
         -2   -1    0    0    0  501 -0.00000000000E+00 -0.00000000000E+00 -0.19191307784E+03  0.19191307784E+03  0.00000000000E+00 0.  1.
         23    2    1    2    0    0  0.16761774406E+02  0.12231540071E+02  0.17997294068E+02  0.94265398247E+02  0.90174802795E+02 0.  0.
          5    1    1    2  502    0 -0.12143538028E+02 -0.44992418651E+02 -0.13741946311E+03  0.14516667831E+03  0.41800000000E+01 0. -1.
         -5    1    1    2    0  502 -0.46182363777E+01  0.32760878580E+02  0.97805770100E+01  0.34752487094E+02  0.41800000000E+01 0. -1.
        -11    1    3    3    0    0  0.14574646160E+02  0.22639606177E+02 -0.32760438886E+02  0.42405405723E+02  0.00000000000E+00 0.  1.
         11    1    3    3    0    0  0.21871282458E+01 -0.10408066106E+02  0.50757732953E+02  0.51859992524E+02  0.00000000000E+00 0. -1.
</event>
<event>
 7    1  0.5137842E-006  0.1038601E+03  0.7561462E-02  0.1272382E+00
          1   -1    0    0  501    0  0.00000000000E+00  0.00000000000E+00  0.10604364844E+03  0.10604364844E+03  0.00000000000E+00 0. -1.
         -1   -1    0    0    0  501 -0.00000000000E+00 -0.00000000000E+00 -0.13357190663E+03  0.13357190663E+03  0.00000000000E+00 0.  1.
         23    2    1    2    0    0 -0.39554221745E+02 -0.30106203778E+02 -0.16228855464E+02  0.10456020912E+03  0.90545798453E+02 0.  0.
          5    1    1    2  502    0  0.73010953642E+02 -0.13175957562E+02  0.12319714985E+02  0.75322327278E+02  0.41800000000E+01 0. -1.
         -5    1    1    2    0  502 -0.33456731897E+02  0.43282161339E+02 -0.23619117710E+02  0.59733018682E+02  0.41800000000E+01 0. -1.
        -11    1    3    3    0    0  0.23102088421E+01  0.16060287837E+02 -0.35744251856E+02  0.39254572358E+02  0.00000000000E+00 0.  1.
         11    1    3    3    0    0 -0.41864430587E+02 -0.46166491615E+02  0.19515396391E+02  0.65305636760E+02  0.00000000000E+00 0. -1.
</event>
<event>
 7    1  0.5137842E-006  0.9889886E+02  0.7561462E-02  0.1282629E+00
         -1   -1    0    0    0  501 -0.00000000000E+00  0.00000000000E+00  0.36911916510E+03  0.36911916510E+03  0.00000000000E+00 0.  1.
          1   -1    0    0  501    0  0.00000000000E+00 -0.00000000000E+00 -0.34148420227E+02  0.34148420227E+02  0.00000000000E+00 0. -1.
         23    2    1    2    0    0 -0.17843615136E+02 -0.42294277987E+01  0.10238735231E+03  0.13854422839E+03  0.91515302800E+02 0.  0.
          5    1    1    2  502    0 -0.44288935504E+02 -0.23495424156E+02  0.14663348833E+03  0.15502385966E+03  0.41800000000E+01 0.  1.
         -5    1    1    2    0  502  0.62132550640E+02  0.27724851955E+02  0.85949904233E+02  0.10969949728E+03  0.41800000000E+01 0.  1.
        -11    1    3    3    0    0 -0.66877440287E+00  0.35778103341E+02  0.11199944276E+02  0.37496115661E+02  0.00000000000E+00 0. -1.
         11    1    3    3    0    0 -0.17174840733E+02 -0.40007531140E+02  0.91187408034E+02  0.10104811273E+03  0.00000000000E+00 0.  1.
</event>
<event>
 7    1  0.5137842E-006  0.4895396E+03  0.7561462E-02  0.1016546E+00
         -1   -1    0    0    0  501 -0.00000000000E+00  0.00000000000E+00  0.39178434143E+03  0.39178434143E+03  0.00000000000E+00 0.  1.
          1   -1    0    0  501    0  0.00000000000E+00 -0.00000000000E+00 -0.95345548744E+03  0.95345548744E+03  0.00000000000E+00 0. -1.
         23    2    1    2    0    0 -0.37791784695E+03 -0.30594442223E+03 -0.66871560763E+03  0.83188647894E+03  0.91818633225E+02 0.  0.
          5    1    1    2  502    0  0.30702899552E+02  0.17366967590E+02 -0.24416794869E+02  0.43103733897E+02  0.41800000000E+01 0.  1.
         -5    1    1    2    0  502  0.34721494740E+03  0.28857745464E+03  0.13146125649E+03  0.47024961604E+03  0.41800000000E+01 0.  1.
        -11    1    3    3    0    0 -0.47458070397E+02 -0.75520907774E+02 -0.89604722078E+02  0.12643054289E+03  0.00000000000E+00 0.  1.
         11    1    3    3    0    0 -0.33045977656E+03 -0.23042351445E+03 -0.57911088556E+03  0.70545593605E+03  0.00000000000E+00 0. -1.
</event>
<event>
 7    1  0.5137842E-006  0.1252840E+03  0.7561462E-02  0.1234626E+00
         -2   -1    0    0    0  501 -0.00000000000E+00  0.00000000000E+00  0.15808642148E+03  0.15808642148E+03  0.00000000000E+00 0. -1.
          2   -1    0    0  501    0  0.00000000000E+00 -0.00000000000E+00 -0.10652046835E+03  0.10652046835E+03  0.00000000000E+00 0.  1.
         23    2    1    2    0    0 -0.11503022057E+02  0.63169107024E+02  0.37633703099E+02  0.12331108222E+03  0.98319234080E+02 0.  0.
          5    1    1    2  502    0  0.64974408889E+02 -0.22795883536E+02  0.24767248005E+02  0.73295396107E+02  0.41800000000E+01 0. -1.
         -5    1    1    2    0  502 -0.53471386832E+02 -0.40373223487E+02 -0.10834997969E+02  0.68000411509E+02  0.41800000000E+01 0. -1.
        -11    1    3    3    0    0  0.40818803086E+02  0.40267332404E+02  0.50600094428E+01  0.57560719592E+02  0.00000000000E+00 0. -1.
         11    1    3    3    0    0 -0.52321825143E+02  0.22901774619E+02  0.32573693657E+02  0.65750362626E+02  0.00000000000E+00 0.  1.
</event>
<event>
 7    1  0.5137842E-006  0.7482341E+02  0.7561462E-02  0.1344419E+00
         -1   -1    0    0    0  501 -0.00000000000E+00  0.00000000000E+00  0.53064621854E+02  0.53064621854E+02  0.00000000000E+00 0.  1.
          1   -1    0    0  501    0  0.00000000000E+00 -0.00000000000E+00 -0.24515405577E+03  0.24515405577E+03  0.00000000000E+00 0. -1.
         23    2    1    2    0    0 -0.25201389863E+01 -0.43605167060E+02 -0.10687835933E+03  0.14723471735E+03  0.91363650353E+02 0.  0.
          5    1    1    2  502    0  0.26681332719E+02  0.49170666663E+02 -0.10496012268E+03  0.11901154452E+03  0.41800000000E+01 0. -1.
         -5    1    1    2    0  502 -0.24161193733E+02 -0.55654996032E+01  0.19749048095E+02  0.31972415753E+02  0.41800000000E+01 0.  1.
        -11    1    3    3    0    0  0.13710771390E+02  0.69039544573E+01 -0.90381829138E+02  0.91676195807E+02  0.00000000000E+00 0.  1.
         11    1    3    3    0    0 -0.16230910376E+02 -0.50509121517E+02 -0.16496530195E+02  0.55558521548E+02  0.00000000000E+00 0. -1.
</event>
<event>
 7    1  0.5137842E-006  0.9955075E+02  0.7561462E-02  0.1281244E+00
         -2   -1    0    0    0  501 -0.00000000000E+00  0.00000000000E+00  0.23956871276E+03  0.23956871276E+03  0.00000000000E+00 0. -1.
          2   -1    0    0  501    0  0.00000000000E+00 -0.00000000000E+00 -0.65997852858E+02  0.65997852858E+02  0.00000000000E+00 0.  1.
         23    2    1    2    0    0  0.55722446604E+02  0.85669667121E+01  0.45930095137E+02  0.11816727274E+03  0.93142615027E+02 0.  0.
          5    1    1    2  502    0 -0.52190801710E+02 -0.35170055312E+02  0.66795182569E+01  0.63426342619E+02  0.41800000000E+01 0.  1.
         -5    1    1    2    0  502 -0.35316448941E+01  0.26603088600E+02  0.12096124651E+03  0.12397295026E+03  0.41800000000E+01 0.  1.
        -11    1    3    3    0    0  0.41180424592E+02  0.50105875916E+02  0.28063940759E+02  0.70668316393E+02  0.00000000000E+00 0. -1.
         11    1    3    3    0    0  0.14542022012E+02 -0.41538909204E+02  0.17866154378E+02  0.47498956350E+02  0.00000000000E+00 0.  1.
</event>
<event>
 7    1  0.5137842E-006  0.9928422E+02  0.7561462E-02  0.1281808E+00
         -1   -1    0    0    0  501 -0.00000000000E+00  0.00000000000E+00  0.38133264625E+03  0.38133264625E+03  0.00000000000E+00 0.  1.
          1   -1    0    0  501    0  0.00000000000E+00 -0.00000000000E+00 -0.42229167321E+02  0.42229167321E+02  0.00000000000E+00 0. -1.
         23    2    1    2    0    0  0.37316036232E+01 -0.46896378220E+02  0.75596765144E+02  0.12810137321E+03  0.92097208220E+02 0.  0.
          5    1    1    2  502    0 -0.40915161564E+01 -0.23924334880E+02  0.19596316176E+03  0.19750480366E+03  0.41800000000E+01 0. -1.
         -5    1    1    2    0  502  0.35991253326E+00  0.70820713100E+02  0.67543552031E+02  0.97955636703E+02  0.41800000000E+01 0. -1.
        -11    1    3    3    0    0 -0.34984700307E+02  0.79338201538E+01  0.31937200452E+02  0.48029777540E+02  0.00000000000E+00 0.  1.
         11    1    3    3    0    0  0.38716303931E+02 -0.54830198374E+02  0.43659564691E+02  0.80071595668E+02  0.00000000000E+00 0. -1.
</event>
<event>
 7    1  0.5137842E-006  0.1478909E+03  0.7561462E-02  0.1203089E+00
          1   -1    0    0  501    0  0.00000000000E+00  0.00000000000E+00  0.28549993504E+03  0.28549993504E+03  0.00000000000E+00 0. -1.
         -1   -1    0    0    0  501 -0.00000000000E+00 -0.00000000000E+00 -0.22876070766E+03  0.22876070766E+03  0.00000000000E+00 0.  1.
         23    2    1    2    0    0 -0.86445122104E+02  0.42191878806E+02  0.22443366052E+03  0.25959424881E+03  0.88123732731E+02 0.  0.
          5    1    1    2  502    0 -0.43364774637E+02  0.14194469070E+02 -0.65980537352E+02  0.80329884481E+02  0.41800000000E+01 0. -1.
         -5    1    1    2    0  502  0.12980989674E+03 -0.56386347875E+02 -0.10171389578E+03  0.17433650941E+03  0.41800000000E+01 0.  1.
        -11    1    3    3    0    0 -0.56481528770E+02 -0.17388394487E+00  0.43286119901E+02  0.71160954911E+02  0.00000000000E+00 0.  1.
         11    1    3    3    0    0 -0.29963593334E+02  0.42365762751E+02  0.18114754062E+03  0.18843329390E+03  0.00000000000E+00 0. -1.
</event>
<event>
 7    1  0.5137842E-006  0.8854214E+02  0.7561462E-02  0.1306421E+00
         -1   -1    0    0    0  501 -0.00000000000E+00  0.00000000000E+00  0.12475980606E+03  0.12475980606E+03  0.00000000000E+00 0.  1.
          1   -1    0    0  501    0  0.00000000000E+00 -0.00000000000E+00 -0.11240210216E+03  0.11240210216E+03  0.00000000000E+00 0. -1.
         23    2    1    2    0    0  0.92693385264E+01 -0.36513507791E+02 -0.97027911834E+01  0.10467326658E+03  0.97176086011E+02 0.  0.
          5    1    1    2  502    0  0.13754919457E+02  0.58411877818E+02  0.58535062158E+02  0.83934326597E+02  0.41800000000E+01 0. -1.
         -5    1    1    2    0  502 -0.23024257983E+02 -0.21898370027E+02 -0.36474567073E+02  0.48554315036E+02  0.41800000000E+01 0. -1.
        -11    1    3    3    0    0  0.42368724303E+02 -0.27726355392E+02 -0.35464877788E+02  0.61819229523E+02  0.00000000000E+00 0. -1.
         11    1    3    3    0    0 -0.33099385776E+02 -0.87871523989E+01  0.25762086604E+02  0.42854037059E+02  0.00000000000E+00 0.  1.
</event>
<event>
 7    1  0.5137842E-006  0.1087236E+03  0.7561462E-02  0.1262952E+00
         -2   -1    0    0    0  501 -0.00000000000E+00  0.00000000000E+00  0.58252640046E+02  0.58252640046E+02  0.00000000000E+00 0. -1.
          2   -1    0    0  501    0  0.00000000000E+00 -0.00000000000E+00 -0.22767947530E+03  0.22767947530E+03  0.00000000000E+00 0.  1.
         23    2    1    2    0    0  0.36700268729E+02 -0.14509635817E+02 -0.76139711011E+02  0.12497385329E+03  0.90905275735E+02 0.  0.
          5    1    1    2  502    0  0.43429544069E+02  0.24612312199E+02 -0.31372207912E+02  0.59106505895E+02  0.41800000000E+01 0. -1.
         -5    1    1    2    0  502 -0.80129812798E+02 -0.10102676382E+02 -0.61914916333E+02  0.10185175616E+03  0.41800000000E+01 0. -1.
        -11    1    3    3    0    0  0.59919603632E+02 -0.16578688922E+01 -0.77997322062E+02  0.98370166603E+02  0.00000000000E+00 0.  1.
         11    1    3    3    0    0 -0.23219334903E+02 -0.12851766924E+02  0.18576110508E+01  0.26603686685E+02  0.00000000000E+00 0. -1.
</event>
<event>
 7    1  0.5137842E-006  0.7596212E+02  0.7561462E-02  0.1340917E+00
         -2   -1    0    0    0  501 -0.00000000000E+00  0.00000000000E+00  0.66354774523E+02  0.66354774523E+02  0.00000000000E+00 0.  1.
          2   -1    0    0  501    0  0.00000000000E+00 -0.00000000000E+00 -0.28024499854E+03  0.28024499854E+03  0.00000000000E+00 0. -1.
         23    2    1    2    0    0 -0.29698344615E+02 -0.54659014885E+02 -0.18491312597E+03  0.20391854441E+03  0.59332192082E+02 0.  0.
          5    1    1    2  502    0  0.20221095231E+02  0.54453405148E+02  0.41459203181E+02  0.71487089415E+02  0.41800000000E+01 0. -1.
         -5    1    1    2    0  502  0.94772493838E+01  0.20560973712E+00 -0.70436301224E+02  0.71194139235E+02  0.41800000000E+01 0. -1.
        -11    1    3    3    0    0 -0.45604940115E+02 -0.32289040026E+02 -0.98443283841E+02  0.11319661127E+03  0.00000000000E+00 0.  1.
         11    1    3    3    0    0  0.15906595500E+02 -0.22369974859E+02 -0.86469842133E+02  0.90721933148E+02  0.00000000000E+00 0. -1.
</event>
<event>
 7    1  0.5137842E-006  0.1865913E+03  0.7561462E-02  0.1161572E+00
         -2   -1    0    0    0  501 -0.00000000000E+00  0.00000000000E+00  0.86633608789E+02  0.86633608789E+02  0.00000000000E+00 0.  1.
          2   -1    0    0  501    0  0.00000000000E+00 -0.00000000000E+00 -0.58224596844E+03  0.58224596844E+03  0.00000000000E+00 0. -1.
         23    2    1    2    0    0 -0.27015679422E+02  0.16907116910E+03 -0.38101533903E+03  0.42785250927E+03  0.92575234023E+02 0.  0.
          5    1    1    2  502    0  0.54867348013E+02 -0.11892184280E+03 -0.23252215368E+02  0.13308256269E+03  0.41800000000E+01 0.  1.
         -5    1    1    2    0  502 -0.27851668590E+02 -0.50149326299E+02 -0.91344805254E+02  0.10794450527E+03  0.41800000000E+01 0.  1.
        -11    1    3    3    0    0  0.17319665079E+02  0.11136582860E+02 -0.11552859726E+02  0.23610651073E+02  0.00000000000E+00 0.  1.
         11    1    3    3    0    0 -0.44335344501E+02  0.15793458624E+03 -0.36946247931E+03  0.40424185820E+03  0.00000000000E+00 0. -1.
</event>
<event>
 7    1  0.5137842E-006  0.1495333E+03  0.7561462E-02  0.1201048E+00
         -2   -1    0    0    0  501 -0.00000000000E+00  0.00000000000E+00  0.14110226342E+03  0.14110226342E+03  0.00000000000E+00 0.  1.
          2   -1    0    0  501    0  0.00000000000E+00 -0.00000000000E+00 -0.24377568418E+03  0.24377568418E+03  0.00000000000E+00 0. -1.
         23    2    1    2    0    0  0.10061479059E+03 -0.92037973135E+02 -0.12413955294E+03  0.20614250426E+03  0.92139996058E+02 0.  0.
          5    1    1    2  502    0  0.52474884581E+01  0.23129410400E+02  0.44189464929E+02  0.50325808203E+02  0.41800000000E+01 0. -1.
         -5    1    1    2    0  502 -0.10586227905E+03  0.68908562735E+02 -0.22723332745E+02  0.12840963513E+03  0.41800000000E+01 0.  1.
        -11    1    3    3    0    0 -0.35292771642E+01 -0.23872021571E+02 -0.63008969612E+02  0.67471916104E+02  0.00000000000E+00 0.  1.
         11    1    3    3    0    0  0.10414406776E+03 -0.68165951564E+02 -0.61130583328E+02  0.13867058816E+03  0.00000000000E+00 0. -1.
</event>
<event>
 7    1  0.5137842E-006  0.1085542E+03  0.7561462E-02  0.1263271E+00
          1   -1    0    0  501    0  0.00000000000E+00  0.00000000000E+00  0.54394147967E+03  0.54394147967E+03  0.00000000000E+00 0. -1.
         -1   -1    0    0    0  501 -0.00000000000E+00 -0.00000000000E+00 -0.29835011058E+02  0.29835011058E+02  0.00000000000E+00 0.  1.
         23    2    1    2    0    0 -0.38448183780E+02  0.31017648710E+02  0.32807489736E+03  0.34422120805E+03  0.91731916086E+02 0.  0.
          5    1    1    2  502    0  0.25414424854E+02 -0.69622599462E+02  0.55328786955E+02  0.92584806596E+02  0.41800000000E+01 0. -1.
         -5    1    1    2    0  502  0.13033758926E+02  0.38604950752E+02  0.13070278430E+03  0.13697047608E+03  0.41800000000E+01 0. -1.
        -11    1    3    3    0    0 -0.41823608483E+02 -0.23041302295E+02  0.11847275128E+03  0.12773374118E+03  0.00000000000E+00 0.  1.
         11    1    3    3    0    0  0.33754247028E+01  0.54058951005E+02  0.20960214607E+03  0.21648746688E+03  0.00000000000E+00 0. -1.
</event>
<event>
 7    1  0.5137842E-006  0.1305884E+03  0.7561462E-02  0.1226585E+00
          2   -1    0    0  501    0  0.00000000000E+00  0.00000000000E+00  0.19091847638E+03  0.19091847638E+03  0.00000000000E+00 0. -1.
         -2   -1    0    0    0  501 -0.00000000000E+00 -0.00000000000E+00 -0.11597306909E+03  0.11597306909E+03  0.00000000000E+00 0.  1.
         23    2    1    2    0    0 -0.26885524018E+02  0.96898373969E+02  0.46132273498E+02  0.14382882451E+03  0.91904395005E+02 0.  0.
          5    1    1    2  502    0  0.18178716272E+02 -0.12666574246E+03  0.30867935549E+02  0.13170033365E+03  0.41800000000E+01 0.  1.
         -5    1    1    2    0  502  0.87068077459E+01  0.29767368488E+02 -0.20548017617E+01  0.31362387315E+02  0.41800000000E+01 0.  1.
        -11    1    3    3    0    0 -0.13418319668E+02  0.74624641508E+02 -0.15085341329E+02  0.77307541326E+02  0.00000000000E+00 0.  1.
         11    1    3    3    0    0 -0.13467204351E+02  0.22273732461E+02  0.61217614828E+02  0.66521283180E+02  0.00000000000E+00 0. -1.
</event>
<event>
 7    1  0.5137842E-006  0.1273556E+03  0.7561462E-02  0.1231433E+00
          2   -1    0    0  501    0  0.00000000000E+00  0.00000000000E+00  0.70104847884E+03  0.70104847884E+03  0.00000000000E+00 0.  1.
         -2   -1    0    0    0  501 -0.00000000000E+00 -0.00000000000E+00 -0.36491728253E+02  0.36491728253E+02  0.00000000000E+00 0. -1.
         23    2    1    2    0    0 -0.34171066482E+02 -0.11057345881E+03  0.27931290107E+03  0.31628729067E+03  0.92885962137E+02 0.  0.
          5    1    1    2  502    0 -0.49261954325E+01  0.39507947175E+02  0.15883623306E+02  0.43068633374E+02  0.41800000000E+01 0. -1.
         -5    1    1    2    0  502  0.39097261914E+02  0.71065511634E+02  0.36936022621E+03  0.37818428304E+03  0.41800000000E+01 0. -1.
        -11    1    3    3    0    0  0.17932104861E+02 -0.10885524352E+02  0.11664652966E+03  0.11851779574E+03  0.00000000000E+00 0. -1.
         11    1    3    3    0    0 -0.52103171342E+02 -0.99687934456E+02  0.16266637141E+03  0.19776949494E+03  0.00000000000E+00 0.  1.
</event>
<event>
 7    1  0.5137842E-006  0.1322281E+03  0.7561462E-02  0.1224187E+00
         -1   -1    0    0    0  501 -0.00000000000E+00  0.00000000000E+00  0.75702624037E+02  0.75702624037E+02  0.00000000000E+00 0.  1.
          1   -1    0    0  501    0  0.00000000000E+00 -0.00000000000E+00 -0.26966406612E+03  0.26966406612E+03  0.00000000000E+00 0. -1.
         23    2    1    2    0    0  0.72370256973E+02  0.55241702247E+02 -0.98892659849E+02  0.16377697489E+03  0.93563024593E+02 0.  0.
          5    1    1    2  502    0 -0.97013338802E+02 -0.36576361919E+02 -0.10619165453E+03  0.14847073128E+03  0.41800000000E+01 0. -1.
         -5    1    1    2    0  502  0.24643081829E+02 -0.18665340328E+02  0.11122872298E+02  0.33118983978E+02  0.41800000000E+01 0. -1.
        -11    1    3    3    0    0  0.54333987654E+02  0.81312716106E+02 -0.65330207294E+02  0.11760942139E+03  0.00000000000E+00 0. -1.
         11    1    3    3    0    0  0.18036269320E+02 -0.26071013859E+02 -0.33562452555E+02  0.46167553499E+02  0.00000000000E+00 0.  1.
</event>
<event>
 7    1  0.5137842E-006  0.1152364E+03  0.7561462E-02  0.1251169E+00
          1   -1    0    0  501    0  0.00000000000E+00  0.00000000000E+00  0.69744073653E+03  0.69744073653E+03  0.00000000000E+00 0. -1.
         -1   -1    0    0    0  501 -0.00000000000E+00 -0.00000000000E+00 -0.22872950199E+02  0.22872950199E+02  0.00000000000E+00 0.  1.
         23    2    1    2    0    0  0.56440038700E+01  0.64417058622E+02  0.30531233484E+03  0.32594715013E+03  0.94045258498E+02 0.  0.
          5    1    1    2  502    0  0.51296539475E+01 -0.90666677728E+02  0.16746964126E+03  0.19055265137E+03  0.41800000000E+01 0. -1.
         -5    1    1    2    0  502 -0.10773657817E+02  0.26249619106E+02  0.20178581022E+03  0.20381388523E+03  0.41800000000E+01 0.  1.
        -11    1    3    3    0    0  0.45096219826E+02  0.14733761459E+02  0.17008000580E+03  0.17657282107E+03  0.00000000000E+00 0.  1.
         11    1    3    3    0    0 -0.39452215956E+02  0.49683297164E+02  0.13523232905E+03  0.14937432905E+03  0.00000000000E+00 0. -1.
</event>
<event>
 7    1  0.5137842E-006  0.9534710E+02  0.7561462E-02  0.1290396E+00
          1   -1    0    0  501    0  0.00000000000E+00  0.00000000000E+00  0.25798877869E+03  0.25798877869E+03  0.00000000000E+00 0. -1.
         -1   -1    0    0    0  501 -0.00000000000E+00 -0.00000000000E+00 -0.47846401885E+02  0.47846401885E+02  0.00000000000E+00 0.  1.
         23    2    1    2    0    0  0.19061952143E+02 -0.63350806629E+01  0.11242603076E+03  0.14584439975E+03  0.90705486499E+02 0.  0.
          5    1    1    2  502    0  0.41561933636E+02  0.46210656070E+01  0.89200777518E+02  0.98605272094E+02  0.41800000000E+01 0. -1.
         -5    1    1    2    0  502 -0.60623885779E+02  0.17140150560E+01  0.85155685321E+01  0.61385508729E+02  0.41800000000E+01 0. -1.
        -11    1    3    3    0    0 -0.76579281278E+01  0.36552254243E+02  0.25243850994E+02  0.45077302121E+02  0.00000000000E+00 0.  1.
         11    1    3    3    0    0  0.26719880271E+02 -0.42887334906E+02  0.87182179761E+02  0.10076709763E+03  0.00000000000E+00 0. -1.
</event>
<event>
 7    1  0.5137842E-006  0.1321781E+03  0.7561462E-02  0.1224259E+00
         -2   -1    0    0    0  501 -0.00000000000E+00  0.00000000000E+00  0.49012908039E+03  0.49012908039E+03  0.00000000000E+00 0.  1.
          2   -1    0    0  501    0  0.00000000000E+00 -0.00000000000E+00 -0.61538873384E+02  0.61538873384E+02  0.00000000000E+00 0. -1.
         23    2    1    2    0    0  0.58758454722E+02  0.94202530347E+02  0.78288214383E+02  0.16348583666E+03  0.90949994796E+02 0.  0.
          5    1    1    2  502    0 -0.76065354346E+02 -0.83953298710E+02  0.15623585735E+03  0.19303162958E+03  0.41800000000E+01 0. -1.
         -5    1    1    2    0  502  0.17306899623E+02 -0.10249231637E+02  0.19406613527E+03  0.19515048753E+03  0.41800000000E+01 0. -1.
        -11    1    3    3    0    0  0.18589680328E+02  0.87830843605E+02  0.83347248670E+02  0.12250141699E+03  0.00000000000E+00 0.  1.
         11    1    3    3    0    0  0.40168774394E+02  0.63716867420E+01 -0.50590342874E+01  0.40984419676E+02  0.00000000000E+00 0. -1.
</event>
<event>
 7    1  0.5137842E-006  0.1323389E+03  0.7561462E-02  0.1224026E+00
         -1   -1    0    0    0  501 -0.00000000000E+00  0.00000000000E+00  0.10757503531E+03  0.10757503531E+03  0.00000000000E+00 0.  1.
          1   -1    0    0  501    0  0.00000000000E+00 -0.00000000000E+00 -0.18225564723E+03  0.18225564723E+03  0.00000000000E+00 0. -1.
         23    2    1    2    0    0  0.79080835019E+02 -0.14671000361E+02 -0.70643642039E+02  0.14106009653E+03  0.91860818381E+02 0.  0.
          5    1    1    2  502    0  0.31003862849E+02 -0.85512020644E+01 -0.14844903914E+02  0.35667998830E+02  0.41800000000E+01 0. -1.
         -5    1    1    2    0  502 -0.11008469787E+03  0.23222202425E+02  0.10807934033E+02  0.11310258719E+03  0.41800000000E+01 0. -1.
        -11    1    3    3    0    0  0.35841191237E+02  0.37518126820E+02 -0.16920358276E+02  0.54575629667E+02  0.00000000000E+00 0.  1.
         11    1    3    3    0    0  0.43239643783E+02 -0.52189127181E+02 -0.53723283763E+02  0.86484466863E+02  0.00000000000E+00 0. -1.
</event>
<event>
 7    1  0.5137842E-006  0.1261689E+03  0.7561462E-02  0.1233254E+00
          2   -1    0    0  501    0  0.00000000000E+00  0.00000000000E+00  0.29333994249E+02  0.29333994249E+02  0.00000000000E+00 0. -1.
         -2   -1    0    0    0  501 -0.00000000000E+00 -0.00000000000E+00 -0.66703531795E+03  0.66703531795E+03  0.00000000000E+00 0.  1.
         23    2    1    2    0    0  0.55982438659E+02 -0.46080073372E+02 -0.16394490281E+03  0.20104114802E+03  0.91006623049E+02 0.  0.
          5    1    1    2  502    0 -0.85597579789E+02  0.65964858384E+02 -0.37301074807E+03  0.38837198506E+03  0.41800000000E+01 0.  1.
         -5    1    1    2    0  502  0.29615141130E+02 -0.19884785012E+02 -0.10074567282E+03  0.10695617912E+03  0.41800000000E+01 0.  1.
        -11    1    3    3    0    0  0.25412406033E+02 -0.66715994452E+02 -0.13975243751E+03  0.15693169880E+03  0.00000000000E+00 0.  1.
         11    1    3    3    0    0  0.30570032627E+02  0.20635921080E+02 -0.24192465302E+02  0.44109449226E+02  0.00000000000E+00 0. -1.
</event>
<event>
 7    1  0.5137842E-006  0.1080015E+03  0.7561462E-02  0.1264316E+00
         -2   -1    0    0    0  501 -0.00000000000E+00  0.00000000000E+00  0.48139562049E+02  0.48139562049E+02  0.00000000000E+00 0.  1.
          2   -1    0    0  501    0  0.00000000000E+00 -0.00000000000E+00 -0.27499318755E+03  0.27499318755E+03  0.00000000000E+00 0. -1.
         23    2    1    2    0    0 -0.86517570331E+01 -0.33412164295E+02 -0.76839931500E+02  0.12478480705E+03  0.92063279190E+02 0.  0.
          5    1    1    2  502    0 -0.52839603002E+02 -0.16664152789E+00 -0.96457552630E+02  0.11006172484E+03  0.41800000000E+01 0. -1.
         -5    1    1    2    0  502  0.61491360035E+02  0.33578805823E+02 -0.53556141376E+02  0.88286217715E+02  0.41800000000E+01 0. -1.
        -11    1    3    3    0    0  0.34721117463E+02  0.47438468894E+01 -0.10003651127E+02  0.36443560707E+02  0.00000000000E+00 0. -1.
         11    1    3    3    0    0 -0.43372874496E+02 -0.38156011184E+02 -0.66836280373E+02  0.88341246344E+02  0.00000000000E+00 0.  1.
</event>
<event>
 7    1  0.5137842E-006  0.9568203E+02  0.7561462E-02  0.1289647E+00
          1   -1    0    0  501    0  0.00000000000E+00  0.00000000000E+00  0.37761840693E+03  0.37761840693E+03  0.00000000000E+00 0. -1.
         -1   -1    0    0    0  501 -0.00000000000E+00 -0.00000000000E+00 -0.88924278800E+02  0.88924278800E+02  0.00000000000E+00 0.  1.
         23    2    1    2    0    0  0.35831598133E+02  0.53374944305E+02  0.30643384768E+03  0.32612545272E+03  0.91232230069E+02 0.  0.
          5    1    1    2  502    0 -0.44560380903E+02 -0.21596907460E+02  0.46525206500E+02  0.68074379894E+02  0.41800000000E+01 0. -1.
         -5    1    1    2    0  502  0.87287827702E+01 -0.31778036845E+02 -0.64264926059E+02  0.72342853107E+02  0.41800000000E+01 0.  1.
        -11    1    3    3    0    0  0.38056984574E+02  0.76381152536E+02  0.20425763644E+03  0.22136755991E+03  0.00000000000E+00 0. -1.
         11    1    3    3    0    0 -0.22253864414E+01 -0.23006208232E+02  0.10217621124E+03  0.10475789281E+03  0.00000000000E+00 0.  1.
</event>
<event>
 7    1  0.5137842E-006  0.7382120E+02  0.7561462E-02  0.1347561E+00
          2   -1    0    0  501    0  0.00000000000E+00  0.00000000000E+00  0.52015422580E+03  0.52015422580E+03  0.00000000000E+00 0. -1.
         -2   -1    0    0    0  501 -0.00000000000E+00 -0.00000000000E+00 -0.27225857344E+02  0.27225857344E+02  0.00000000000E+00 0.  1.
         23    2    1    2    0    0  0.24913010649E+02 -0.58089062214E+01  0.30653526714E+03  0.32089358680E+03  0.91402530397E+02 0.  0.
          5    1    1    2  502    0 -0.38823533904E+02  0.22063595786E+02  0.19714354049E+03  0.20218090167E+03  0.41800000000E+01 0. -1.
         -5    1    1    2    0  502  0.13910523255E+02 -0.16254689564E+02 -0.10750439166E+02  0.24305594671E+02  0.41800000000E+01 0.  1.
        -11    1    3    3    0    0  0.48925848567E+02 -0.20274131609E+02  0.26833247059E+03  0.27350885515E+03  0.00000000000E+00 0.  1.
         11    1    3    3    0    0 -0.24012837918E+02  0.14465225387E+02  0.38202796545E+02  0.47384731657E+02  0.00000000000E+00 0. -1.
</event>
<event>
 7    1  0.5137842E-006  0.1464258E+03  0.7561462E-02  0.1204935E+00
         -1   -1    0    0    0  501 -0.00000000000E+00  0.00000000000E+00  0.26012570574E+03  0.26012570574E+03  0.00000000000E+00 0.  1.
          1   -1    0    0  501    0  0.00000000000E+00 -0.00000000000E+00 -0.11513383279E+03  0.11513383279E+03  0.00000000000E+00 0. -1.
         23    2    1    2    0    0  0.86610824472E+01 -0.13229849472E+03  0.86811268904E+02  0.18392003247E+03  0.93340644311E+02 0.  0.
          5    1    1    2  502    0 -0.40990712951E+02  0.98551743762E+02  0.85697083039E+02  0.13694578193E+03  0.41800000000E+01 0.  1.
         -5    1    1    2    0  502  0.32329630504E+02  0.33746750957E+02 -0.27516478990E+02  0.54393724130E+02  0.41800000000E+01 0.  1.
        -11    1    3    3    0    0  0.22141272646E+02 -0.39009408939E+02 -0.12935615993E+02  0.46682974426E+02  0.00000000000E+00 0.  1.
         11    1    3    3    0    0 -0.13480190198E+02 -0.93289085780E+02  0.99746884897E+02  0.13723705804E+03  0.00000000000E+00 0. -1.
</event>
<event>
 7    1  0.5137842E-006  0.8098955E+02  0.7561462E-02  0.1326266E+00
          1   -1    0    0  501    0  0.00000000000E+00  0.00000000000E+00  0.11611198466E+03  0.11611198466E+03  0.00000000000E+00 0. -1.
         -1   -1    0    0    0  501 -0.00000000000E+00 -0.00000000000E+00 -0.12945163919E+03  0.12945163919E+03  0.00000000000E+00 0.  1.
         23    2    1    2    0    0  0.14727221286E+02 -0.24928521543E+02  0.49669602196E+02  0.10897476834E+03  0.92574880605E+02 0.  0.
          5    1    1    2  502    0  0.47583094937E+02  0.28734916023E+02 -0.44543972673E+02  0.71354637019E+02  0.41800000000E+01 0. -1.
         -5    1    1    2    0  502 -0.62310316223E+02 -0.38063944792E+01 -0.18465284060E+02  0.65234218491E+02  0.41800000000E+01 0.  1.
        -11    1    3    3    0    0  0.25145703947E+02 -0.20073537095E+02  0.74752889859E+02  0.81383338963E+02  0.00000000000E+00 0. -1.
         11    1    3    3    0    0 -0.10418482661E+02 -0.48549844482E+01 -0.25083287664E+02  0.27591429375E+02  0.00000000000E+00 0.  1.
</event>
<event>
 7    1  0.5137842E-006  0.1001971E+03  0.7561462E-02  0.1279882E+00
         -1   -1    0    0    0  501 -0.00000000000E+00  0.00000000000E+00  0.33402355321E+03  0.33402355321E+03  0.00000000000E+00 0.  1.
          1   -1    0    0  501    0  0.00000000000E+00 -0.00000000000E+00 -0.55804836639E+02  0.55804836639E+02  0.00000000000E+00 0. -1.
         23    2    1    2    0    0  0.16577668572E+02  0.97545162781E+01  0.97404280398E+01  0.93014673595E+02  0.90481400755E+02 0.  0.
          5    1    1    2  502    0  0.50944782871E+02  0.16851801610E+02  0.11037442102E+03  0.12279796144E+03  0.41800000000E+01 0.  1.
         -5    1    1    2    0  502 -0.67522451443E+02 -0.26606317888E+02  0.15810386751E+03  0.17401575481E+03  0.41800000000E+01 0.  1.
        -11    1    3    3    0    0  0.16945879291E+02  0.40097514506E+02  0.33127559069E+02  0.54702912759E+02  0.00000000000E+00 0.  1.
         11    1    3    3    0    0 -0.36821071906E+00 -0.30342998228E+02 -0.23387131029E+02  0.38311760836E+02  0.00000000000E+00 0. -1.
</event>
<event>
 7    1  0.5137842E-006  0.1420263E+03  0.7561462E-02  0.1210628E+00
         -1   -1    0    0    0  501 -0.00000000000E+00  0.00000000000E+00  0.13380695892E+03  0.13380695892E+03  0.00000000000E+00 0.  1.
          1   -1    0    0  501    0  0.00000000000E+00 -0.00000000000E+00 -0.21571762858E+03  0.21571762858E+03  0.00000000000E+00 0. -1.
         23    2    1    2    0    0  0.36906758489E+01  0.12841828136E+03 -0.58197671022E+02  0.16864566566E+03  0.92463590454E+02 0.  0.
          5    1    1    2  502    0  0.55023655512E+01 -0.97752132742E+01 -0.56194994027E+02  0.57455901132E+02  0.41800000000E+01 0. -1.
         -5    1    1    2    0  502 -0.91930414001E+01 -0.11864306808E+03  0.32481995395E+02  0.12342302070E+03  0.41800000000E+01 0. -1.
        -11    1    3    3    0    0 -0.32929862779E+02  0.19892815421E+02 -0.34514850951E+02  0.51685345158E+02  0.00000000000E+00 0. -1.
         11    1    3    3    0    0  0.36620538628E+02  0.10852546594E+03 -0.23682820072E+02  0.11696032051E+03  0.00000000000E+00 0.  1.
</event>
<event>
 7    1  0.5137842E-006  0.9201190E+02  0.7561462E-02  0.1298051E+00
         -1   -1    0    0    0  501 -0.00000000000E+00  0.00000000000E+00  0.40952172279E+02  0.40952172279E+02  0.00000000000E+00 0.  1.
          1   -1    0    0  501    0  0.00000000000E+00 -0.00000000000E+00 -0.22002949543E+03  0.22002949543E+03  0.00000000000E+00 0. -1.
         23    2    1    2    0    0  0.27354740030E+01 -0.15089511030E+00 -0.50811696898E+02  0.87171312569E+02  0.70777846859E+02 0.  0.
          5    1    1    2  502    0  0.26663384388E+01 -0.57056933095E+02 -0.81469580555E+02  0.99585982601E+02  0.41800000000E+01 0. -1.
         -5    1    1    2    0  502 -0.54018124418E+01  0.57207828205E+02 -0.46796045696E+02  0.74224372536E+02  0.41800000000E+01 0.  1.
        -11    1    3    3    0    0 -0.12038855548E+02 -0.31912623698E+02 -0.15611042526E+02  0.37510721707E+02  0.00000000000E+00 0. -1.
         11    1    3    3    0    0  0.14774329551E+02  0.31761728588E+02 -0.35200654372E+02  0.49660590862E+02  0.00000000000E+00 0.  1.
</event>
<event>
 7    1  0.5137842E-006  0.8580165E+02  0.7561462E-02  0.1313349E+00
         -3   -1    0    0    0  501 -0.00000000000E+00  0.00000000000E+00  0.69692851185E+02  0.69692851185E+02  0.00000000000E+00 0.  1.
          3   -1    0    0  501    0  0.00000000000E+00 -0.00000000000E+00 -0.24635026153E+03  0.24635026153E+03  0.00000000000E+00 0. -1.
         23    2    1    2    0    0 -0.54519866989E+02  0.49501344123E+02 -0.94996069310E+02  0.14949379622E+03  0.88889498570E+02 0.  0.
          5    1    1    2  502    0  0.18258711406E+02 -0.31234979830E+02  0.30301935704E+02  0.47378098470E+02  0.41800000000E+01 0.  1.
         -5    1    1    2    0  502  0.36261155583E+02 -0.18266364293E+02 -0.11196327674E+03  0.11917121803E+03  0.41800000000E+01 0.  1.
        -11    1    3    3    0    0 -0.20598058754E+02  0.56140845818E+02 -0.13980732001E+02  0.61412828146E+02  0.00000000000E+00 0.  1.
         11    1    3    3    0    0 -0.33921808235E+02 -0.66395016949E+01 -0.81015337310E+02  0.88080968070E+02  0.00000000000E+00 0. -1.
</event>
<event>
 7    1  0.5137842E-006  0.2484311E+03  0.7561462E-02  0.1114300E+00
         -3   -1    0    0    0  501 -0.00000000000E+00  0.00000000000E+00  0.37888728385E+03  0.37888728385E+03  0.00000000000E+00 0.  1.
          3   -1    0    0  501    0  0.00000000000E+00 -0.00000000000E+00 -0.25894781221E+03  0.25894781221E+03  0.00000000000E+00 0. -1.
         23    2    1    2    0    0  0.45643338551E+02 -0.14414485004E+03 -0.95686999621E+02  0.20251044004E+03  0.94833666392E+02 0.  0.
          5    1    1    2  502    0  0.11770932821E+03  0.27627618593E+02 -0.23393667046E+02  0.12322137523E+03  0.41800000000E+01 0. -1.
         -5    1    1    2    0  502 -0.16335266676E+03  0.11651723145E+03  0.23902013831E+03  0.31210328079E+03  0.41800000000E+01 0.  1.
        -11    1    3    3    0    0 -0.26750712219E+02 -0.32023475924E+02 -0.40305253484E+02  0.58013938609E+02  0.00000000000E+00 0.  1.
         11    1    3    3    0    0  0.72394050770E+02 -0.11212137412E+03 -0.55381746137E+02  0.14449650143E+03  0.00000000000E+00 0. -1.
</event>
<event>
 7    1  0.5137842E-006  0.9426915E+02  0.7561462E-02  0.1292831E+00
         -2   -1    0    0    0  501 -0.00000000000E+00  0.00000000000E+00  0.12772747104E+03  0.12772747104E+03  0.00000000000E+00 0.  1.
          2   -1    0    0  501    0  0.00000000000E+00 -0.00000000000E+00 -0.11430954087E+03  0.11430954087E+03  0.00000000000E+00 0. -1.
         23    2    1    2    0    0 -0.30358989078E+02  0.68152419458E+01 -0.34753898823E+02  0.10442749494E+03  0.93429933514E+02 0.  0.
          5    1    1    2  502    0  0.70808128639E+02  0.15336560120E+02  0.25662211425E+01  0.72615831941E+02  0.41800000000E+01 0.  1.
         -5    1    1    2    0  502 -0.40449139561E+02 -0.22151802066E+02  0.45605607844E+02  0.64993685022E+02  0.41800000000E+01 0.  1.
        -11    1    3    3    0    0  0.15242553426E+02 -0.12911164109E+02  0.21517312088E+02  0.29360318682E+02  0.00000000000E+00 0.  1.
         11    1    3    3    0    0 -0.45601542504E+02  0.19726406055E+02 -0.56271210911E+02  0.75067176262E+02  0.00000000000E+00 0. -1.
</event>
<event>
 7    1  0.5137842E-006  0.1652215E+03  0.7561462E-02  0.1182925E+00
         -2   -1    0    0    0  501 -0.00000000000E+00  0.00000000000E+00  0.63209016528E+02  0.63209016528E+02  0.00000000000E+00 0.  1.
          2   -1    0    0  501    0  0.00000000000E+00 -0.00000000000E+00 -0.47735721912E+03  0.47735721912E+03  0.00000000000E+00 0. -1.
         23    2    1    2    0    0 -0.91379426097E+01  0.12769747574E+03 -0.25951918503E+03  0.30403014579E+03  0.93241486718E+02 0.  0.
          5    1    1    2  502    0  0.25174607230E+02  0.15144156954E+02 -0.70864960664E+01  0.30508968608E+02  0.41800000000E+01 0. -1.
         -5    1    1    2    0  502 -0.16036664620E+02 -0.14284163269E+03 -0.14754252150E+03  0.20602712126E+03  0.41800000000E+01 0. -1.
        -11    1    3    3    0    0 -0.49286721158E+02  0.54481529539E+02 -0.14181782516E+03  0.15971760541E+03  0.00000000000E+00 0.  1.
         11    1    3    3    0    0  0.40148778549E+02  0.73215946199E+02 -0.11770135987E+03  0.14431254038E+03  0.00000000000E+00 0. -1.
</event>
<event>
 7    1  0.5137842E-006  0.1411737E+03  0.7561462E-02  0.1211758E+00
         -2   -1    0    0    0  501 -0.00000000000E+00  0.00000000000E+00  0.54314078271E+02  0.54314078271E+02  0.00000000000E+00 0.  1.
          2   -1    0    0  501    0  0.00000000000E+00 -0.00000000000E+00 -0.40875848246E+03  0.40875848246E+03  0.00000000000E+00 0. -1.
         23    2    1    2    0    0  0.46972564608E+02  0.78609582775E+02 -0.23099202585E+03  0.26476601824E+03  0.91421223363E+02 0.  0.
          5    1    1    2  502    0 -0.78717396889E+02 -0.10081322090E+02 -0.59995779397E+02  0.99574231473E+02  0.41800000000E+01 0. -1.
         -5    1    1    2    0  502  0.31744832281E+02 -0.68528260685E+02 -0.63456598950E+02  0.98732311020E+02  0.41800000000E+01 0.  1.
        -11    1    3    3    0    0 -0.15003027070E+02  0.60986948346E+02 -0.89982711058E+02  0.10973325375E+03  0.00000000000E+00 0. -1.
         11    1    3    3    0    0  0.61975591679E+02  0.17622634429E+02 -0.14100931479E+03  0.15503276449E+03  0.00000000000E+00 0.  1.
</event>
<event>
 7    1  0.5137842E-006  0.9471358E+02  0.7561462E-02  0.1291822E+00
          3   -1    0    0  501    0  0.00000000000E+00  0.00000000000E+00  0.15067733341E+03  0.15067733341E+03  0.00000000000E+00 0. -1.
         -3   -1    0    0    0  501 -0.00000000000E+00 -0.00000000000E+00 -0.97154296563E+02  0.97154296563E+02  0.00000000000E+00 0.  1.
         23    2    1    2    0    0 -0.37896296498E+02  0.19838847020E+02  0.58289546399E+02  0.11554418052E+03  0.90128115997E+02 0.  0.
          5    1    1    2  502    0  0.59458474082E+02  0.17506473942E+01 -0.49826571854E+02  0.77708008398E+02  0.41800000000E+01 0. -1.
         -5    1    1    2    0  502 -0.21562177584E+02 -0.21589494415E+02  0.45060062300E+02  0.54579441053E+02  0.41800000000E+01 0. -1.
        -11    1    3    3    0    0  0.24669573866E+02  0.26348564035E+02  0.28252125333E+02  0.45836855120E+02  0.00000000000E+00 0.  1.
         11    1    3    3    0    0 -0.62565870365E+02 -0.65097170146E+01  0.30037421066E+02  0.69707325400E+02  0.00000000000E+00 0. -1.
</event>
<event>
 7    1  0.5137842E-006  0.1656568E+03  0.7561462E-02  0.1182454E+00
          2   -1    0    0  501    0  0.00000000000E+00  0.00000000000E+00  0.20484412634E+03  0.20484412634E+03  0.00000000000E+00 0. -1.
         -2   -1    0    0    0  501 -0.00000000000E+00 -0.00000000000E+00 -0.19036775530E+03  0.19036775530E+03  0.00000000000E+00 0.  1.
         23    2    1    2    0    0 -0.12603484669E+03  0.56397191680E+02  0.96344623712E+02  0.19170287389E+03  0.91663948917E+02 0.  0.
          5    1    1    2  502    0 -0.17837450705E+02  0.16755433304E+02 -0.96306034165E+01  0.26629684846E+02  0.41800000000E+01 0. -1.
         -5    1    1    2    0  502  0.14387229739E+03 -0.73152624984E+02 -0.72237649261E+02  0.17687932290E+03  0.41800000000E+01 0. -1.
        -11    1    3    3    0    0 -0.37076939239E+02  0.40059852863E+02  0.84342052509E+02  0.10046428747E+03  0.00000000000E+00 0. -1.
         11    1    3    3    0    0 -0.88957907450E+02  0.16337338817E+02  0.12002571203E+02  0.91238586425E+02  0.00000000000E+00 0.  1.
</event>
<event>
 7    1  0.5137842E-006  0.8316097E+02  0.7561462E-02  0.1320313E+00
          3   -1    0    0  501    0  0.00000000000E+00  0.00000000000E+00  0.14383866910E+03  0.14383866910E+03  0.00000000000E+00 0. -1.
         -3   -1    0    0    0  501 -0.00000000000E+00 -0.00000000000E+00 -0.90820823023E+02  0.90820823023E+02  0.00000000000E+00 0.  1.
         23    2    1    2    0    0  0.12667414784E+02  0.56465049076E+01  0.25717098304E+02  0.97290323189E+02  0.92799199491E+02 0.  0.
          5    1    1    2  502    0 -0.34986501826E+02 -0.26095720176E+02  0.71357571174E+02  0.83752118095E+02  0.41800000000E+01 0. -1.
         -5    1    1    2    0  502  0.22319087042E+02  0.20449215269E+02 -0.44056823406E+02  0.53617050834E+02  0.41800000000E+01 0.  1.
        -11    1    3    3    0    0 -0.29157684293E+02  0.31359759122E+02  0.21764984256E+02  0.48034566566E+02  0.00000000000E+00 0.  1.
         11    1    3    3    0    0  0.41825099077E+02 -0.25713254214E+02  0.39521140485E+01  0.49255756623E+02  0.00000000000E+00 0. -1.
</event>
<event>
 7    1  0.5137842E-006  0.1054407E+03  0.7561462E-02  0.1269254E+00
          2   -1    0    0  501    0  0.00000000000E+00  0.00000000000E+00  0.14745062373E+03  0.14745062373E+03  0.00000000000E+00 0. -1.
         -2   -1    0    0    0  501 -0.00000000000E+00 -0.00000000000E+00 -0.98196454403E+02  0.98196454403E+02  0.00000000000E+00 0.  1.
         23    2    1    2    0    0 -0.21311804155E+02 -0.58215838052E+01  0.69707950060E+02  0.11699471415E+03  0.91326233921E+02 0.  0.
          5    1    1    2  502    0  0.63606213760E+02 -0.20638853001E+02  0.13251592586E+02  0.68299266381E+02  0.41800000000E+01 0. -1.
         -5    1    1    2    0  502 -0.42294409605E+02  0.26460436806E+02 -0.33705373320E+02  0.60353097605E+02  0.41800000000E+01 0. -1.
        -11    1    3    3    0    0 -0.37028734511E+02 -0.41024011451E+02  0.37848323381E+02  0.66982029514E+02  0.00000000000E+00 0.  1.
         11    1    3    3    0    0  0.15716930356E+02  0.35202427646E+02  0.31859626679E+02  0.50012684632E+02  0.00000000000E+00 0. -1.
</event>
<event>
 7    1  0.5137842E-006  0.1121715E+03  0.7561462E-02  0.1256601E+00
         -4   -1    0    0    0  501 -0.00000000000E+00  0.00000000000E+00  0.50789550230E+02  0.50789550230E+02  0.00000000000E+00 0.  1.
          4   -1    0    0  501    0  0.00000000000E+00 -0.00000000000E+00 -0.29846906362E+03  0.29846906362E+03  0.00000000000E+00 0. -1.
         23    2    1    2    0    0  0.50843157731E+02  0.16781488105E+02 -0.14065830847E+03  0.17614925015E+03  0.91526791472E+02 0.  0.
          5    1    1    2  502    0  0.27616991604E+02  0.19563228182E+02 -0.72106319554E+02  0.79763474359E+02  0.41800000000E+01 0. -1.
         -5    1    1    2    0  502 -0.78460149336E+02 -0.36344716287E+02 -0.34914885367E+02  0.93345889336E+02  0.41800000000E+01 0. -1.
        -11    1    3    3    0    0  0.88885785052E+01  0.49609831397E+02 -0.49975336334E+02  0.70976590794E+02  0.00000000000E+00 0.  1.
         11    1    3    3    0    0  0.41954579226E+02 -0.32828343292E+02 -0.90682972133E+02  0.10517265936E+03  0.00000000000E+00 0. -1.
</event>
<event>
 7    1  0.5137842E-006  0.7997415E+02  0.7561462E-02  0.1329125E+00
          1   -1    0    0  501    0  0.00000000000E+00  0.00000000000E+00  0.40813385069E+03  0.40813385069E+03  0.00000000000E+00 0. -1.
         -1   -1    0    0    0  501 -0.00000000000E+00 -0.00000000000E+00 -0.47551708114E+02  0.47551708114E+02  0.00000000000E+00 0.  1.
         23    2    1    2    0    0 -0.62717412642E+02  0.42791938232E+02  0.23469095150E+03  0.26263142711E+03  0.90170948555E+02 0.  0.
          5    1    1    2  502    0  0.60071953252E+01  0.52339541865E+01 -0.24037655693E+02  0.25666358591E+02  0.41800000000E+01 0.  1.
         -5    1    1    2    0  502  0.56710217317E+02 -0.48025892419E+02  0.14992884677E+03  0.16738777310E+03  0.41800000000E+01 0.  1.
        -11    1    3    3    0    0 -0.26371987168E+02  0.23740796918E+02  0.13980721140E+02  0.38138795328E+02  0.00000000000E+00 0.  1.
         11    1    3    3    0    0 -0.36345425474E+02  0.19051141314E+02  0.22071023036E+03  0.22449263178E+03  0.00000000000E+00 0. -1.
</event>
<event>
 7    1  0.5137842E-006  0.2365276E+03  0.7561462E-02  0.1122128E+00
          1   -1    0    0  501    0  0.00000000000E+00  0.00000000000E+00  0.47261902965E+03  0.47261902965E+03  0.00000000000E+00 0. -1.
         -1   -1    0    0    0  501 -0.00000000000E+00 -0.00000000000E+00 -0.14201010232E+03  0.14201010232E+03  0.00000000000E+00 0.  1.
         23    2    1    2    0    0 -0.21519378961E+03 -0.58279204914E+02  0.25481195165E+03  0.34798689847E+03  0.80379835734E+02 0.  0.
          5    1    1    2  502    0  0.20683745950E+02  0.48133984162E+02  0.45431292151E+02  0.69470659162E+02  0.41800000000E+01 0. -1.
         -5    1    1    2    0  502  0.19451004366E+03  0.10145220752E+02  0.30365683535E+02  0.19717157434E+03  0.41800000000E+01 0. -1.
        -11    1    3    3    0    0 -0.12059906958E+03 -0.14574140578E+02  0.83273114090E+02  0.14727848685E+03  0.00000000000E+00 0.  1.
         11    1    3    3    0    0 -0.94594720028E+02 -0.43705064337E+02  0.17153883756E+03  0.20070841162E+03  0.00000000000E+00 0. -1.
</event>
<event>
 7    1  0.5137842E-006  0.9757430E+02  0.7561462E-02  0.1285481E+00
          1   -1    0    0  501    0  0.00000000000E+00  0.00000000000E+00  0.17620342052E+02  0.17620342052E+02  0.00000000000E+00 0. -1.
         -1   -1    0    0    0  501 -0.00000000000E+00 -0.00000000000E+00 -0.93596900118E+03  0.93596900118E+03  0.00000000000E+00 0.  1.
         23    2    1    2    0    0 -0.11250397000E+02  0.13446744697E+01 -0.18825631476E+03  0.21277178757E+03  0.98503877876E+02 0.  0.
          5    1    1    2  502    0  0.60708536457E+02 -0.12376630835E+02 -0.23305414993E+03  0.24118544025E+03  0.41800000000E+01 0.  1.
         -5    1    1    2    0  502 -0.49458139457E+02  0.11031956365E+02 -0.49703819444E+03  0.49963211541E+03  0.41800000000E+01 0.  1.
        -11    1    3    3    0    0 -0.46570453199E+02 -0.27302480853E+01 -0.16197330368E+03  0.16855744561E+03  0.00000000000E+00 0.  1.
         11    1    3    3    0    0  0.35320056199E+02  0.40749225551E+01 -0.26283011090E+02  0.44214341968E+02  0.00000000000E+00 0. -1.
</event>
<event>
 7    1  0.5137842E-006  0.1336185E+03  0.7561462E-02  0.1222183E+00
          2   -1    0    0  501    0  0.00000000000E+00  0.00000000000E+00  0.10629023956E+04  0.10629023956E+04  0.00000000000E+00 0. -1.
         -2   -1    0    0    0  501 -0.00000000000E+00 -0.00000000000E+00 -0.24140970691E+02  0.24140970691E+02  0.00000000000E+00 0.  1.
         23    2    1    2    0    0  0.95066291705E+02 -0.66612644811E+02  0.53333690684E+03  0.55358552644E+03  0.92378756319E+02 0.  0.
          5    1    1    2  502    0 -0.62751203879E+02  0.27195598887E+02  0.45994103419E+03  0.46501671101E+03  0.41800000000E+01 0. -1.
         -5    1    1    2    0  502 -0.32315087826E+02  0.39417045924E+02  0.45483483864E+02  0.68441128826E+02  0.41800000000E+01 0. -1.
        -11    1    3    3    0    0  0.94760246421E+01 -0.61077382072E+02  0.25172682941E+03  0.25920385469E+03  0.00000000000E+00 0. -1.
         11    1    3    3    0    0  0.85590267063E+02 -0.55352627389E+01  0.28161007743E+03  0.29438167175E+03  0.00000000000E+00 0.  1.
</event>
<event>
 7    1  0.5137842E-006  0.1152478E+03  0.7561462E-02  0.1251149E+00
         -2   -1    0    0    0  501 -0.00000000000E+00  0.00000000000E+00  0.11790552424E+03  0.11790552424E+03  0.00000000000E+00 0.  1.
          2   -1    0    0  501    0  0.00000000000E+00 -0.00000000000E+00 -0.15360203566E+03  0.15360203566E+03  0.00000000000E+00 0. -1.
         23    2    1    2    0    0 -0.22408482307E+02  0.67232701344E+02  0.19855151681E+02  0.11737705644E+03  0.91437246904E+02 0.  0.
          5    1    1    2  502    0  0.22940166516E+02 -0.96370583578E+02 -0.96787455327E+01  0.99622744059E+02  0.41800000000E+01 0.  1.
         -5    1    1    2    0  502 -0.53168420817E+00  0.29137882234E+02 -0.45872917569E+02  0.54507759406E+02  0.41800000000E+01 0.  1.
        -11    1    3    3    0    0 -0.49365348333E+02  0.47391304032E+02 -0.13912234245E+02  0.69831393911E+02  0.00000000000E+00 0. -1.
         11    1    3    3    0    0  0.26956866026E+02  0.19841397312E+02  0.33767385926E+02  0.47545662531E+02  0.00000000000E+00 0.  1.
</event>
<event>
 7    1  0.5137842E-006  0.8274115E+02  0.7561462E-02  0.1321448E+00
          2   -1    0    0  501    0  0.00000000000E+00  0.00000000000E+00  0.22143442663E+03  0.22143442663E+03  0.00000000000E+00 0. -1.
         -2   -1    0    0    0  501 -0.00000000000E+00 -0.00000000000E+00 -0.53600924539E+02  0.53600924539E+02  0.00000000000E+00 0.  1.
         23    2    1    2    0    0  0.27911033947E+02 -0.11837710373E+02  0.75436328288E+02  0.11659336263E+03  0.83571618269E+02 0.  0.
          5    1    1    2  502    0  0.30983804028E+02 -0.14761080708E+02 -0.11137176619E+02  0.36323473385E+02  0.41800000000E+01 0. -1.
         -5    1    1    2    0  502 -0.58894837974E+02  0.26598791081E+02  0.10353435042E+03  0.12211851515E+03  0.41800000000E+01 0. -1.
        -11    1    3    3    0    0  0.42167431432E+02  0.67719879626E+01  0.81821213300E+02  0.92296603624E+02  0.00000000000E+00 0. -1.
         11    1    3    3    0    0 -0.14256397486E+02 -0.18609698336E+02 -0.63848850118E+01  0.24296759003E+02  0.00000000000E+00 0.  1.
</event>
<event>
 7    1  0.5137842E-006  0.1594315E+03  0.7561462E-02  0.1189340E+00
         -2   -1    0    0    0  501 -0.00000000000E+00  0.00000000000E+00  0.51232305763E+02  0.51232305763E+02  0.00000000000E+00 0.  1.
          2   -1    0    0  501    0  0.00000000000E+00 -0.00000000000E+00 -0.79853565393E+03  0.79853565393E+03  0.00000000000E+00 0. -1.
         23    2    1    2    0    0  0.92435706123E+02 -0.12160024588E+03 -0.51757506355E+03  0.54685976215E+03  0.88547577530E+02 0.  0.
          5    1    1    2  502    0 -0.19099322909E+02  0.66551197980E+02 -0.17289785975E+02  0.71486048899E+02  0.41800000000E+01 0. -1.
         -5    1    1    2    0  502 -0.73336383213E+02  0.55049047899E+02 -0.21243849864E+03  0.23142214864E+03  0.41800000000E+01 0. -1.
        -11    1    3    3    0    0  0.62282644640E+02 -0.10790113952E+03 -0.48369025243E+03  0.49947777131E+03  0.00000000000E+00 0. -1.
         11    1    3    3    0    0  0.30153061482E+02 -0.13699106359E+02 -0.33884811122E+02  0.47381990846E+02  0.00000000000E+00 0.  1.
</event>
<event>
 7    1  0.5137842E-006  0.1382185E+03  0.7561462E-02  0.1215746E+00
         -2   -1    0    0    0  501 -0.00000000000E+00  0.00000000000E+00  0.23648227164E+02  0.23648227164E+02  0.00000000000E+00 0.  1.
          2   -1    0    0  501    0  0.00000000000E+00 -0.00000000000E+00 -0.10425857612E+04  0.10425857612E+04  0.00000000000E+00 0. -1.
         23    2    1    2    0    0 -0.10687046236E+03  0.34874557585E+02 -0.42621276920E+03  0.45011589527E+03  0.91156261772E+02 0.  0.
          5    1    1    2  502    0  0.14891370477E+02  0.22325507782E+02 -0.34058277282E+03  0.34166398516E+03  0.41800000000E+01 0.  1.
         -5    1    1    2    0  502  0.91979091886E+02 -0.57200065367E+02 -0.25214199205E+03  0.27445410796E+03  0.41800000000E+01 0.  1.
        -11    1    3    3    0    0 -0.30403239632E+02  0.54079724483E+02 -0.13781778458E+03  0.15113806710E+03  0.00000000000E+00 0. -1.
         11    1    3    3    0    0 -0.76467222731E+02 -0.19205166898E+02 -0.28839498462E+03  0.29897782817E+03  0.00000000000E+00 0.  1.
</event>
<event>
 7    1  0.5137842E-006  0.1836094E+03  0.7561462E-02  0.1164355E+00
         -2   -1    0    0    0  501 -0.00000000000E+00  0.00000000000E+00  0.28802058603E+03  0.28802058603E+03  0.00000000000E+00 0.  1.
          2   -1    0    0  501    0  0.00000000000E+00 -0.00000000000E+00 -0.12717607095E+03  0.12717607095E+03  0.00000000000E+00 0. -1.
         23    2    1    2    0    0  0.14019644291E+03  0.70886332222E+02  0.77341074426E+02  0.19770982487E+03  0.91802060744E+02 0.  0.
          5    1    1    2  502    0 -0.45520962675E+02  0.35546003900E+02  0.30437470772E+02  0.65418563598E+02  0.41800000000E+01 0.  1.
         -5    1    1    2    0  502 -0.94675480230E+02 -0.10643233612E+03  0.53065969875E+02  0.15206826851E+03  0.41800000000E+01 0.  1.
        -11    1    3    3    0    0  0.10126664325E+03  0.20822918688E+02  0.84985882984E+02  0.13383245975E+03  0.00000000000E+00 0.  1.
         11    1    3    3    0    0  0.38929799660E+02  0.50063413534E+02 -0.76448085579E+01  0.63877365116E+02  0.00000000000E+00 0. -1.
</event>
<event>
 7    1  0.5137842E-006  0.1155254E+03  0.7561462E-02  0.1250667E+00
          3   -1    0    0  501    0  0.00000000000E+00  0.00000000000E+00  0.28285319634E+03  0.28285319634E+03  0.00000000000E+00 0. -1.
         -3   -1    0    0    0  501 -0.00000000000E+00 -0.00000000000E+00 -0.59063688769E+02  0.59063688769E+02  0.00000000000E+00 0.  1.
         23    2    1    2    0    0  0.45116521811E+02 -0.52908432365E+02  0.85891483242E+02  0.14317503368E+03  0.91032634921E+02 0.  0.
          5    1    1    2  502    0 -0.74133095253E+02  0.47982911348E+02  0.14344736381E+03  0.16850131803E+03  0.41800000000E+01 0.  1.
         -5    1    1    2    0  502  0.29016573442E+02  0.49255210169E+01 -0.55493394793E+01  0.30240533399E+02  0.41800000000E+01 0.  1.
        -11    1    3    3    0    0 -0.26820619478E+02 -0.75044435200E+01  0.32231670700E+02  0.42597451777E+02  0.00000000000E+00 0.  1.
         11    1    3    3    0    0  0.71937141289E+02 -0.45403988845E+02  0.53659812541E+02  0.10057758191E+03  0.00000000000E+00 0. -1.
</event>
<event>
 7    1  0.5137842E-006  0.1249663E+03  0.7561462E-02  0.1235122E+00
          1   -1    0    0  501    0  0.00000000000E+00  0.00000000000E+00  0.72726688537E+02  0.72726688537E+02  0.00000000000E+00 0. -1.
         -1   -1    0    0    0  501 -0.00000000000E+00 -0.00000000000E+00 -0.25696177528E+03  0.25696177528E+03  0.00000000000E+00 0.  1.
         23    2    1    2    0    0 -0.32400177129E+02  0.71960596115E+02 -0.11353770427E+03  0.16575705601E+03  0.91413852637E+02 0.  0.
          5    1    1    2  502    0  0.11274815166E+02 -0.97804475211E+02 -0.82256652666E+02  0.12836068766E+03  0.41800000000E+01 0.  1.
         -5    1    1    2    0  502  0.21125361962E+02  0.25843879096E+02  0.11559270193E+02  0.35570720152E+02  0.41800000000E+01 0.  1.
        -11    1    3    3    0    0  0.22033978766E+02  0.57281065511E+02 -0.77445914059E+02  0.98815415248E+02  0.00000000000E+00 0.  1.
         11    1    3    3    0    0 -0.54434155895E+02  0.14679530604E+02 -0.36091790210E+02  0.66941640758E+02  0.00000000000E+00 0. -1.
</event>
<event>
 7    1  0.5137842E-006  0.1149628E+03  0.7561462E-02  0.1251646E+00
         -1   -1    0    0    0  501 -0.00000000000E+00  0.00000000000E+00  0.32219148349E+02  0.32219148349E+02  0.00000000000E+00 0.  1.
          1   -1    0    0  501    0  0.00000000000E+00 -0.00000000000E+00 -0.67373149443E+03  0.67373149443E+03  0.00000000000E+00 0. -1.
         23    2    1    2    0    0 -0.93071282145E+02  0.12906974093E+02 -0.36814095028E+03  0.39097728598E+03  0.92231368505E+02 0.  0.
          5    1    1    2  502    0  0.56983572801E+02  0.87220622121E+01 -0.26581126918E+03  0.27202261884E+03  0.41800000000E+01 0. -1.
         -5    1    1    2    0  502  0.36087709344E+02 -0.21629036305E+02 -0.75601266255E+01  0.42950737965E+02  0.41800000000E+01 0. -1.
        -11    1    3    3    0    0 -0.10240010317E+02 -0.33411013318E+02 -0.13022310827E+03  0.13483030650E+03  0.00000000000E+00 0. -1.
         11    1    3    3    0    0 -0.82831271828E+02  0.46317987412E+02 -0.23791784201E+03  0.25614697948E+03  0.00000000000E+00 0.  1.
</event>
<event>
 7    1  0.5137842E-006  0.1250402E+03  0.7561462E-02  0.1235006E+00
         -1   -1    0    0    0  501 -0.00000000000E+00  0.00000000000E+00  0.38871736064E+03  0.38871736064E+03  0.00000000000E+00 0.  1.
          1   -1    0    0  501    0  0.00000000000E+00 -0.00000000000E+00 -0.62995573307E+02  0.62995573307E+02  0.00000000000E+00 0. -1.
         23    2    1    2    0    0  0.54136843139E+02 -0.62638920512E+02  0.42758423227E+02  0.13144738102E+03  0.92712993010E+02 0.  0.
          5    1    1    2  502    0 -0.68453218027E+02  0.85734277953E+02  0.26648003151E+03  0.28821049438E+03  0.41800000000E+01 0.  1.
         -5    1    1    2    0  502  0.14316374888E+02 -0.23095357441E+02  0.16483332599E+02  0.32055058553E+02  0.41800000000E+01 0.  1.
        -11    1    3    3    0    0  0.71261594453E+02 -0.32917476450E+02  0.24718869584E+01  0.78535885587E+02  0.00000000000E+00 0. -1.
         11    1    3    3    0    0 -0.17124751314E+02 -0.29721444062E+02  0.40286536269E+02  0.52911495436E+02  0.00000000000E+00 0.  1.
</event>
<event>
 7    1  0.5137842E-006  0.9425523E+02  0.7561462E-02  0.1292862E+00
          2   -1    0    0  501    0  0.00000000000E+00  0.00000000000E+00  0.15260809866E+03  0.15260809866E+03  0.00000000000E+00 0. -1.
         -2   -1    0    0    0  501 -0.00000000000E+00 -0.00000000000E+00 -0.16448318077E+03  0.16448318077E+03  0.00000000000E+00 0.  1.
         23    2    1    2    0    0  0.24114684215E+02  0.38133460496E+02  0.10052146142E+03  0.14297763406E+03  0.91117291615E+02 0.  0.
          5    1    1    2  502    0  0.24644751201E+02 -0.26026137505E+00  0.17306912921E+02  0.30404491981E+02  0.41800000000E+01 0.  1.
         -5    1    1    2    0  502 -0.48759435416E+02 -0.37873199121E+02 -0.12970345645E+03  0.14370915339E+03  0.41800000000E+01 0.  1.
        -11    1    3    3    0    0  0.55606603890E+02  0.42296619244E+02  0.67105316304E+02  0.96872193492E+02  0.00000000000E+00 0.  1.
         11    1    3    3    0    0 -0.31491919675E+02 -0.41631587478E+01  0.33416145119E+02  0.46105440570E+02  0.00000000000E+00 0. -1.
</event>
<event>
 7    1  0.5137842E-006  0.1342573E+03  0.7561462E-02  0.1221272E+00
          1   -1    0    0  501    0  0.00000000000E+00  0.00000000000E+00  0.11095661906E+03  0.11095661906E+03  0.00000000000E+00 0. -1.
         -1   -1    0    0    0  501 -0.00000000000E+00 -0.00000000000E+00 -0.17768112640E+03  0.17768112640E+03  0.00000000000E+00 0.  1.
         23    2    1    2    0    0  0.88355792536E+01  0.85856381522E+02 -0.11805524859E+02  0.12704240772E+03  0.92471710455E+02 0.  0.
          5    1    1    2  502    0 -0.63804946078E+02 -0.22248880206E+02 -0.21538632455E+02  0.71045541045E+02  0.41800000000E+01 0. -1.
         -5    1    1    2    0  502  0.54969366824E+02 -0.63607501316E+02 -0.33380350030E+02  0.90549796692E+02  0.41800000000E+01 0. -1.
        -11    1    3    3    0    0 -0.29701429648E+02  0.96256596371E+01  0.18637243129E+02  0.36361725455E+02  0.00000000000E+00 0.  1.
         11    1    3    3    0    0  0.38537008902E+02  0.76230721885E+02 -0.30442767988E+02  0.90680682270E+02  0.00000000000E+00 0. -1.
</event>
<event>
 7    1  0.5137842E-006  0.1030232E+03  0.7561462E-02  0.1274064E+00
         -4   -1    0    0    0  501 -0.00000000000E+00  0.00000000000E+00  0.82149168979E+02  0.82149168979E+02  0.00000000000E+00 0. -1.
          4   -1    0    0  501    0  0.00000000000E+00 -0.00000000000E+00 -0.18052992783E+03  0.18052992783E+03  0.00000000000E+00 0.  1.
         23    2    1    2    0    0 -0.25926429531E+01  0.54125183030E+02 -0.53007456203E+02  0.11900356390E+03  0.91737672592E+02 0.  0.
          5    1    1    2  502    0 -0.29728028831E+02 -0.85784053163E+02 -0.29872638771E+02  0.95668732731E+02  0.41800000000E+01 0.  1.
         -5    1    1    2    0  502  0.32320671784E+02  0.31658870133E+02 -0.15500663880E+02  0.48006800179E+02  0.41800000000E+01 0.  1.
        -11    1    3    3    0    0 -0.20935296100E+02  0.44112152450E+02 -0.74468341084E+02  0.89048876693E+02  0.00000000000E+00 0.  1.
         11    1    3    3    0    0  0.18342653147E+02  0.10013030580E+02  0.21460884881E+02  0.29954687208E+02  0.00000000000E+00 0. -1.
</event>
<event>
 7    1  0.5137842E-006  0.7697973E+02  0.7561462E-02  0.1337848E+00
          2   -1    0    0  501    0  0.00000000000E+00  0.00000000000E+00  0.15300235691E+03  0.15300235691E+03  0.00000000000E+00 0.  1.
         -2   -1    0    0    0  501 -0.00000000000E+00 -0.00000000000E+00 -0.96577744885E+02  0.96577744885E+02  0.00000000000E+00 0. -1.
         23    2    1    2    0    0  0.50989297556E+02  0.16358705716E+02  0.38509444339E+02  0.11233427424E+03  0.90931271560E+02 0.  0.
          5    1    1    2  502    0 -0.54051547655E+02 -0.15984289996E+02 -0.46151309166E+02  0.72969055554E+02  0.41800000000E+01 0.  1.
         -5    1    1    2    0  502  0.30622500994E+01 -0.37441572066E+00  0.64066476852E+02  0.64276772002E+02  0.41800000000E+01 0.  1.
        -11    1    3    3    0    0  0.68285085643E+02 -0.22047228570E+00  0.51081652942E+02  0.85277410823E+02  0.00000000000E+00 0.  1.
         11    1    3    3    0    0 -0.17295788087E+02  0.16579178002E+02 -0.12572208603E+02  0.27056863416E+02  0.00000000000E+00 0. -1.
</event>
<event>
 7    1  0.5137842E-006  0.1423826E+03  0.7561462E-02  0.1210159E+00
         -4   -1    0    0    0  501 -0.00000000000E+00  0.00000000000E+00  0.11646712460E+03  0.11646712460E+03  0.00000000000E+00 0.  1.
          4   -1    0    0  501    0  0.00000000000E+00 -0.00000000000E+00 -0.30495563352E+03  0.30495563352E+03  0.00000000000E+00 0. -1.
         23    2    1    2    0    0  0.95129972918E+02 -0.20087532242E+02 -0.21709380481E+03  0.25455674365E+03  0.90643228956E+02 0.  0.
          5    1    1    2  502    0  0.20589190080E+02 -0.28034111822E+02  0.21850390899E+02  0.41288474860E+02  0.41800000000E+01 0. -1.
         -5    1    1    2    0  502 -0.11571916300E+03  0.48121644064E+02  0.67549049890E+01  0.12557753961E+03  0.41800000000E+01 0.  1.
        -11    1    3    3    0    0 -0.11779400927E+02  0.74500543808E+01 -0.38977279987E+01  0.14472383357E+02  0.00000000000E+00 0.  1.
         11    1    3    3    0    0  0.10690937385E+03 -0.27537586622E+02 -0.21319607681E+03  0.24008436030E+03  0.00000000000E+00 0. -1.
</event>
<event>
 7    1  0.5137842E-006  0.8711338E+02  0.7561462E-02  0.1309997E+00
          1   -1    0    0  501    0  0.00000000000E+00  0.00000000000E+00  0.32802287931E+03  0.32802287931E+03  0.00000000000E+00 0. -1.
         -1   -1    0    0    0  501 -0.00000000000E+00 -0.00000000000E+00 -0.58032652202E+02  0.58032652202E+02  0.00000000000E+00 0.  1.
         23    2    1    2    0    0 -0.79211026107E+02 -0.85549534106E+01  0.16237187800E+03  0.20280721679E+03  0.91752746717E+02 0.  0.
          5    1    1    2  502    0  0.19496718298E+01 -0.37245996135E+01 -0.26918483837E+02  0.27563581672E+02  0.41800000000E+01 0.  1.
         -5    1    1    2    0  502  0.77261354278E+02  0.12279553024E+02  0.13453683294E+03  0.15568473305E+03  0.41800000000E+01 0.  1.
        -11    1    3    3    0    0 -0.37273947880E+02 -0.25030334156E+02  0.12933697203E+02  0.46724140889E+02  0.00000000000E+00 0.  1.
         11    1    3    3    0    0 -0.41937078228E+02  0.16475380745E+02  0.14943818080E+03  0.15608307590E+03  0.00000000000E+00 0. -1.
</event>
<event>
 7    1  0.5137842E-006  0.2973507E+03  0.7561462E-02  0.1086572E+00
         -1   -1    0    0    0  501 -0.00000000000E+00  0.00000000000E+00  0.21781836375E+03  0.21781836375E+03  0.00000000000E+00 0.  1.
          1   -1    0    0  501    0  0.00000000000E+00 -0.00000000000E+00 -0.57462657323E+03  0.57462657323E+03  0.00000000000E+00 0. -1.
         23    2    1    2    0    0  0.20553603465E+03 -0.21032223724E+03 -0.35947257897E+03  0.47285812076E+03  0.88846847578E+02 0.  0.
          5    1    1    2  502    0 -0.18412690143E+03  0.15471945378E+03 -0.43065615123E+02  0.24436232282E+03  0.41800000000E+01 0.  1.
         -5    1    1    2    0  502 -0.21409133220E+02  0.55602783462E+02  0.45729984611E+02  0.75224493395E+02  0.41800000000E+01 0.  1.
        -11    1    3    3    0    0  0.12610798868E+03 -0.13905189056E+03 -0.16009206778E+03  0.24671465956E+03  0.00000000000E+00 0.  1.
         11    1    3    3    0    0  0.79428045974E+02 -0.71270346685E+02 -0.19938051119E+03  0.22614346120E+03  0.00000000000E+00 0. -1.
</event>
<event>
 7    1  0.5137842E-006  0.1623721E+03  0.7561462E-02  0.1186044E+00
         -4   -1    0    0    0  501 -0.00000000000E+00  0.00000000000E+00  0.10533484985E+04  0.10533484985E+04  0.00000000000E+00 0.  1.
          4   -1    0    0  501    0  0.00000000000E+00 -0.00000000000E+00 -0.35447640782E+02  0.35447640782E+02  0.00000000000E+00 0. -1.
         23    2    1    2    0    0  0.10879606947E+03 -0.10554926664E+03  0.35094852537E+03  0.39349046916E+03  0.93234379067E+02 0.  0.
          5    1    1    2  502    0 -0.11382026699E+03  0.71400961918E+02  0.63150292580E+03  0.64565204888E+03  0.41800000000E+01 0.  1.
         -5    1    1    2    0  502  0.50241975170E+01  0.34148304722E+02  0.35449406513E+02  0.49653621199E+02  0.41800000000E+01 0.  1.
        -11    1    3    3    0    0  0.45295179928E+02 -0.68223033609E+02  0.27804659370E+03  0.28985503948E+03  0.00000000000E+00 0.  1.
         11    1    3    3    0    0  0.63500889544E+02 -0.37326233031E+02  0.72901931665E+02  0.10363542968E+03  0.00000000000E+00 0. -1.
</event>
<event>
 7    1  0.5137842E-006  0.1455002E+03  0.7561462E-02  0.1206114E+00
         -2   -1    0    0    0  501 -0.00000000000E+00  0.00000000000E+00  0.11310610121E+03  0.11310610121E+03  0.00000000000E+00 0.  1.
          2   -1    0    0  501    0  0.00000000000E+00 -0.00000000000E+00 -0.25986270266E+03  0.25986270266E+03  0.00000000000E+00 0. -1.
         23    2    1    2    0    0 -0.13152697490E+03  0.19051277164E+01 -0.63673140046E+02  0.17333400510E+03  0.93206404957E+02 0.  0.
          5    1    1    2  502    0  0.11698999511E+03 -0.32786577004E+02 -0.10348578567E+03  0.15965086540E+03  0.41800000000E+01 0. -1.
         -5    1    1    2    0  502  0.14536979784E+02  0.30881449288E+02  0.20402324268E+02  0.39983933359E+02  0.41800000000E+01 0. -1.
        -11    1    3    3    0    0 -0.81280847486E+02 -0.13706817044E+02 -0.83288265674E+02  0.11718100614E+03  0.00000000000E+00 0. -1.
         11    1    3    3    0    0 -0.50246127410E+02  0.15611944761E+02  0.19615125628E+02  0.56152998961E+02  0.00000000000E+00 0.  1.
</event>
<event>
 7    1  0.5137842E-006  0.1406262E+03  0.7561462E-02  0.1212489E+00
         -2   -1    0    0    0  501 -0.00000000000E+00  0.00000000000E+00  0.48890599104E+03  0.48890599104E+03  0.00000000000E+00 0.  1.
          2   -1    0    0  501    0  0.00000000000E+00 -0.00000000000E+00 -0.47746776825E+02  0.47746776825E+02  0.00000000000E+00 0. -1.
         23    2    1    2    0    0 -0.45635466828E+02  0.10222092802E+03  0.25501265764E+03  0.28599304488E+03  0.65029625621E+02 0.  0.
          5    1    1    2  502    0  0.20559512846E+02 -0.11962427594E+03  0.94233631343E+02  0.15372088550E+03  0.41800000000E+01 0. -1.
         -5    1    1    2    0  502  0.25075953982E+02  0.17403347923E+02  0.91912925237E+02  0.96938837484E+02  0.41800000000E+01 0. -1.
        -11    1    3    3    0    0  0.94392338019E+01  0.56876112085E+02  0.10198757149E+03  0.11715569128E+03  0.00000000000E+00 0. -1.
         11    1    3    3    0    0 -0.55074700630E+02  0.45344815934E+02  0.15302508614E+03  0.16883735360E+03  0.00000000000E+00 0.  1.
</event>
<event>
 7    1  0.5137842E-006  0.1079169E+03  0.7561462E-02  0.1264477E+00
         -2   -1    0    0    0  501 -0.00000000000E+00  0.00000000000E+00  0.20029783735E+02  0.20029783735E+02  0.00000000000E+00 0.  1.
          2   -1    0    0  501    0  0.00000000000E+00 -0.00000000000E+00 -0.74875914592E+03  0.74875914592E+03  0.00000000000E+00 0. -1.
         23    2    1    2    0    0  0.23458456653E+02  0.43548731253E+02 -0.40920052639E+03  0.42210029726E+03  0.90976914494E+02 0.  0.
          5    1    1    2  502    0  0.34851799225E+02  0.93885707135E+01 -0.20140499738E+03  0.20465639140E+03  0.41800000000E+01 0. -1.
         -5    1    1    2    0  502 -0.58310255878E+02 -0.52937301966E+02 -0.11812383842E+03  0.14203224099E+03  0.41800000000E+01 0. -1.
        -11    1    3    3    0    0  0.53286457265E+02  0.46414685720E+02 -0.23696528831E+03  0.24727781430E+03  0.00000000000E+00 0.  1.
         11    1    3    3    0    0 -0.29828000612E+02 -0.28659544670E+01 -0.17223523808E+03  0.17482248297E+03  0.00000000000E+00 0. -1.
</event>
<event>
 7    1  0.5137842E-006  0.8213677E+02  0.7561462E-02  0.1323095E+00
         -2   -1    0    0    0  501 -0.00000000000E+00  0.00000000000E+00  0.14321901483E+03  0.14321901483E+03  0.00000000000E+00 0.  1.
          2   -1    0    0  501    0  0.00000000000E+00 -0.00000000000E+00 -0.17413870268E+03  0.17413870268E+03  0.00000000000E+00 0. -1.
         23    2    1    2    0    0 -0.25096299708E+02 -0.21586434146E+01 -0.12752233759E+03  0.15731736136E+03  0.88613326314E+02 0.  0.
          5    1    1    2  502    0  0.30028020031E+02  0.44087906692E+02 -0.11074241564E+01  0.53517513879E+02  0.41800000000E+01 0.  1.
         -5    1    1    2    0  502 -0.49317203233E+01 -0.41929263278E+02  0.97710073900E+02  0.10652284227E+03  0.41800000000E+01 0.  1.
        -11    1    3    3    0    0  0.44091910356E+01 -0.28470185403E+02 -0.58684381351E+01  0.29401207265E+02  0.00000000000E+00 0.  1.
         11    1    3    3    0    0 -0.29505490744E+02  0.26311541989E+02 -0.12165389946E+03  0.12791615410E+03  0.00000000000E+00 0. -1.
</event>
<event>
 7    1  0.5137842E-006  0.1169949E+03  0.7561462E-02  0.1248139E+00
         -1   -1    0    0    0  501 -0.00000000000E+00  0.00000000000E+00  0.73883320664E+03  0.73883320664E+03  0.00000000000E+00 0.  1.
          1   -1    0    0  501    0  0.00000000000E+00 -0.00000000000E+00 -0.32393990701E+02  0.32393990701E+02  0.00000000000E+00 0. -1.
         23    2    1    2    0    0 -0.90794115215E+02 -0.30828298317E+02  0.19363836846E+03  0.23475142251E+03  0.91752151468E+02 0.  0.
          5    1    1    2  502    0  0.54209640109E+02 -0.14335530717E+02  0.43830111958E+03  0.44189312774E+03  0.41800000000E+01 0.  1.
         -5    1    1    2    0  502  0.36584475106E+02  0.45163829034E+02  0.74499727904E+02  0.94582647085E+02  0.41800000000E+01 0.  1.
        -11    1    3    3    0    0 -0.53229075988E+02  0.19498607839E+02  0.41783334783E+02  0.70422846462E+02  0.00000000000E+00 0. -1.
         11    1    3    3    0    0 -0.37565039227E+02 -0.50326906156E+02  0.15185503367E+03  0.16432857605E+03  0.00000000000E+00 0.  1.
</event>
<event>
 7    1  0.5137842E-006  0.7562017E+02  0.7561462E-02  0.1341961E+00
          3   -1    0    0  501    0  0.00000000000E+00  0.00000000000E+00  0.52718154313E+02  0.52718154313E+02  0.00000000000E+00 0. -1.
         -3   -1    0    0    0  501 -0.00000000000E+00 -0.00000000000E+00 -0.20585119694E+03  0.20585119694E+03  0.00000000000E+00 0.  1.
         23    2    1    2    0    0 -0.16439036346E+02 -0.98944649706E+01 -0.68129978278E+02  0.11519019233E+03  0.90878733020E+02 0.  0.
          5    1    1    2  502    0  0.21179912615E+02  0.30301743249E+02  0.15738344603E+02  0.40397428546E+02  0.41800000000E+01 0. -1.
         -5    1    1    2    0  502 -0.47408762692E+01 -0.20407278278E+02 -0.10074140895E+03  0.10298173038E+03  0.41800000000E+01 0.  1.
        -11    1    3    3    0    0 -0.44743454580E+02  0.22141766160E+02 -0.40558511830E+02  0.64321282778E+02  0.00000000000E+00 0.  1.
         11    1    3    3    0    0  0.28304418234E+02 -0.32036231131E+02 -0.27571466448E+02  0.50868909549E+02  0.00000000000E+00 0. -1.
</event>
<event>
 7    1  0.5137842E-006  0.8057007E+02  0.7561462E-02  0.1327441E+00
          1   -1    0    0  501    0  0.00000000000E+00  0.00000000000E+00  0.33847173685E+02  0.33847173685E+02  0.00000000000E+00 0.  1.
         -1   -1    0    0    0  501 -0.00000000000E+00 -0.00000000000E+00 -0.53706550721E+03  0.53706550721E+03  0.00000000000E+00 0. -1.
         23    2    1    2    0    0  0.61130860926E+01 -0.46285837643E+02 -0.88198424601E+02  0.13494414291E+03  0.90836176801E+02 0.  0.
          5    1    1    2  502    0  0.84381208972E+01 -0.13269221884E+02 -0.33343031020E+03  0.33382707843E+03  0.41800000000E+01 0. -1.
         -5    1    1    2    0  502 -0.14551206990E+02  0.59555059527E+02 -0.81589598729E+02  0.10214145956E+03  0.41800000000E+01 0. -1.
        -11    1    3    3    0    0 -0.25085790819E+02  0.28172738587E+01 -0.69332881646E+02  0.73785380736E+02  0.00000000000E+00 0. -1.
         11    1    3    3    0    0  0.31198876912E+02 -0.49103111502E+02 -0.18865542955E+02  0.61158762174E+02  0.00000000000E+00 0.  1.
</event>
<event>
 7    1  0.5137842E-006  0.9323982E+02  0.7561462E-02  0.1295190E+00
         -1   -1    0    0    0  501 -0.00000000000E+00  0.00000000000E+00  0.74181534518E+03  0.74181534518E+03  0.00000000000E+00 0.  1.
          1   -1    0    0  501    0  0.00000000000E+00 -0.00000000000E+00 -0.21047131495E+02  0.21047131495E+02  0.00000000000E+00 0. -1.
         23    2    1    2    0    0 -0.43368721828E+02  0.58940922039E+01  0.16634829803E+03  0.19282112983E+03  0.87135787680E+02 0.  0.
          5    1    1    2  502    0 -0.28108056486E+02  0.10398600300E+02  0.38728513871E+02  0.49148386691E+02  0.41800000000E+01 0.  1.
         -5    1    1    2    0  502  0.71476778314E+02 -0.16292692504E+02  0.51569140178E+03  0.52089296016E+03  0.41800000000E+01 0.  1.
        -11    1    3    3    0    0 -0.17831955482E+02 -0.32270910391E+02  0.12733548778E+03  0.13256589584E+03  0.00000000000E+00 0.  1.
         11    1    3    3    0    0 -0.25536766346E+02  0.38165002595E+02  0.39012810252E+02  0.60255233982E+02  0.00000000000E+00 0. -1.
</event>
<event>
 7    1  0.5137842E-006  0.9586299E+02  0.7561462E-02  0.1289244E+00
          1   -1    0    0  501    0  0.00000000000E+00  0.00000000000E+00  0.38965209604E+03  0.38965209604E+03  0.00000000000E+00 0. -1.
         -1   -1    0    0    0  501 -0.00000000000E+00 -0.00000000000E+00 -0.35068933969E+02  0.35068933969E+02  0.00000000000E+00 0.  1.
         23    2    1    2    0    0  0.35211227289E+02  0.23730029572E+02  0.14976618956E+03  0.18099478196E+03  0.92337721071E+02 0.  0.
          5    1    1    2  502    0 -0.64866322305E+02  0.42495415835E+01  0.46097782341E+02  0.79800854066E+02  0.41800000000E+01 0.  1.
         -5    1    1    2    0  502  0.29655095015E+02 -0.27979571155E+02  0.15871919017E+03  0.16392539398E+03  0.41800000000E+01 0.  1.
        -11    1    3    3    0    0 -0.14566018641E+02  0.31983986393E+02  0.17153439167E+02  0.39107349180E+02  0.00000000000E+00 0.  1.
         11    1    3    3    0    0  0.49777245930E+02 -0.82539568211E+01  0.13261275039E+03  0.14188743278E+03  0.00000000000E+00 0. -1.
</event>
<event>
 7    1  0.5137842E-006  0.1128822E+03  0.7561462E-02  0.1255324E+00
          2   -1    0    0  501    0  0.00000000000E+00  0.00000000000E+00  0.36933461150E+03  0.36933461150E+03  0.00000000000E+00 0. -1.
         -2   -1    0    0    0  501 -0.00000000000E+00 -0.00000000000E+00 -0.58064410206E+02  0.58064410206E+02  0.00000000000E+00 0.  1.
         23    2    1    2    0    0 -0.92991240966E+02 -0.20273665809E+02  0.11681415703E+03  0.17736254791E+03  0.93560321154E+02 0.  0.
          5    1    1    2  502    0  0.57407639789E+02  0.39446662686E+02  0.19732495938E+03  0.20929951815E+03  0.41800000000E+01 0.  1.
         -5    1    1    2    0  502  0.35583601177E+02 -0.19172996877E+02 -0.28689151164E+01  0.40736955653E+02  0.41800000000E+01 0.  1.
        -11    1    3    3    0    0 -0.86793886310E+02  0.72881196786E+01  0.12070186693E+03  0.14884635054E+03  0.00000000000E+00 0. -1.
         11    1    3    3    0    0 -0.61973546554E+01 -0.27561785488E+02 -0.38877098936E+01  0.28516197366E+02  0.00000000000E+00 0.  1.
</event>
<event>
 7    1  0.5137842E-006  0.1467028E+03  0.7561462E-02  0.1204584E+00
          2   -1    0    0  501    0  0.00000000000E+00  0.00000000000E+00  0.73868155862E+02  0.73868155862E+02  0.00000000000E+00 0. -1.
         -2   -1    0    0    0  501 -0.00000000000E+00 -0.00000000000E+00 -0.38496259103E+03  0.38496259103E+03  0.00000000000E+00 0.  1.
         23    2    1    2    0    0  0.92797714147E+02  0.89464837726E+02 -0.13396690391E+03  0.20656773846E+03  0.90042913601E+02 0.  0.
          5    1    1    2  502    0 -0.10697217249E+03 -0.60154354824E+02 -0.18151065815E+03  0.21914648871E+03  0.41800000000E+01 0.  1.
         -5    1    1    2    0  502  0.14174458342E+02 -0.29310482902E+02  0.43831268910E+01  0.33116519723E+02  0.41800000000E+01 0.  1.
        -11    1    3    3    0    0  0.19332958734E+02  0.51666983524E+02 -0.10573213948E+03  0.11925823158E+03  0.00000000000E+00 0.  1.
         11    1    3    3    0    0  0.73464755412E+02  0.37797854202E+02 -0.28234764430E+02  0.87309506885E+02  0.00000000000E+00 0. -1.
</event>
<event>
 7    1  0.5137842E-006  0.1279925E+03  0.7561462E-02  0.1230465E+00
          3   -1    0    0  501    0  0.00000000000E+00  0.00000000000E+00  0.20370337644E+03  0.20370337644E+03  0.00000000000E+00 0. -1.
         -3   -1    0    0    0  501 -0.00000000000E+00 -0.00000000000E+00 -0.12690312753E+03  0.12690312753E+03  0.00000000000E+00 0.  1.
         23    2    1    2    0    0  0.75388313542E+02  0.36172889673E+02  0.12167133156E+03  0.17359474086E+03  0.91320016242E+02 0.  0.
          5    1    1    2  502    0 -0.19748282327E+02  0.42361528661E+02 -0.38085086372E+02  0.60435419824E+02  0.41800000000E+01 0.  1.
         -5    1    1    2    0  502 -0.55640031214E+02 -0.78534418334E+02 -0.67859962754E+01  0.96576343284E+02  0.41800000000E+01 0.  1.
        -11    1    3    3    0    0  0.56134013764E+02  0.59949116747E+02  0.51229142873E+02  0.96795398545E+02  0.00000000000E+00 0.  1.
         11    1    3    3    0    0  0.19254299777E+02 -0.23776227073E+02  0.70442188686E+02  0.76799342319E+02  0.00000000000E+00 0. -1.
</event>
<event>
 7    1  0.5137842E-006  0.1533721E+03  0.7561462E-02  0.1196390E+00
          1   -1    0    0  501    0  0.00000000000E+00  0.00000000000E+00  0.31300321347E+03  0.31300321347E+03  0.00000000000E+00 0. -1.
         -1   -1    0    0    0  501 -0.00000000000E+00 -0.00000000000E+00 -0.11095401432E+03  0.11095401432E+03  0.00000000000E+00 0.  1.
         23    2    1    2    0    0  0.88494445606E+02 -0.11195438525E+03  0.15175749733E+03  0.22767023540E+03  0.91860474711E+02 0.  0.
          5    1    1    2  502    0 -0.68866155312E+02  0.10210387596E+03 -0.17902466383E+02  0.12452196407E+03  0.41800000000E+01 0. -1.
         -5    1    1    2    0  502 -0.19628290294E+02  0.98505092898E+01  0.68194168205E+02  0.71765028324E+02  0.41800000000E+01 0. -1.
        -11    1    3    3    0    0  0.81979483370E+02 -0.44281484701E+02  0.12186421461E+03  0.15340264791E+03  0.00000000000E+00 0. -1.
         11    1    3    3    0    0  0.65149622364E+01 -0.67672900546E+02  0.29893282711E+02  0.74267587496E+02  0.00000000000E+00 0.  1.
</event>
<event>
 7    1  0.5137842E-006  0.1124166E+03  0.7561462E-02  0.1256159E+00
          1   -1    0    0  501    0  0.00000000000E+00  0.00000000000E+00  0.18821275008E+03  0.18821275008E+03  0.00000000000E+00 0. -1.
         -1   -1    0    0    0  501 -0.00000000000E+00 -0.00000000000E+00 -0.12099234263E+03  0.12099234263E+03  0.00000000000E+00 0.  1.
         23    2    1    2    0    0 -0.78830348025E+02  0.25706332553E+02  0.96882259591E+02  0.15622755407E+03  0.90254291442E+02 0.  0.
          5    1    1    2  502    0  0.98339031688E+02 -0.12569961792E+02  0.16890069947E+02  0.10065443833E+03  0.41800000000E+01 0.  1.
         -5    1    1    2    0  502 -0.19508683663E+02 -0.13136370761E+02 -0.46551922093E+02  0.52323100305E+02  0.41800000000E+01 0.  1.
        -11    1    3    3    0    0 -0.76025323617E+02  0.16717214202E+00  0.25221176010E+02  0.80099847047E+02  0.00000000000E+00 0. -1.
         11    1    3    3    0    0 -0.28050244082E+01  0.25539160411E+02  0.71661083581E+02  0.76127707022E+02  0.00000000000E+00 0.  1.
</event>
<event>
 7    1  0.5137842E-006  0.9689794E+02  0.7561462E-02  0.1286958E+00
         -2   -1    0    0    0  501 -0.00000000000E+00  0.00000000000E+00  0.11852924679E+03  0.11852924679E+03  0.00000000000E+00 0.  1.
          2   -1    0    0  501    0  0.00000000000E+00 -0.00000000000E+00 -0.13674132839E+03  0.13674132839E+03  0.00000000000E+00 0. -1.
         23    2    1    2    0    0  0.77547251444E+00  0.62394570390E+02 -0.33553863294E+02  0.11464020124E+03  0.90126745349E+02 0.  0.
          5    1    1    2  502    0 -0.50033149676E+02 -0.43695934871E+02  0.44695079809E+02  0.80173395524E+02  0.41800000000E+01 0. -1.
         -5    1    1    2    0  502  0.49257677162E+02 -0.18698635519E+02 -0.29353298116E+02  0.60456978422E+02  0.41800000000E+01 0. -1.
        -11    1    3    3    0    0 -0.19447130347E+02  0.38082184351E+02 -0.59819770932E+02  0.73531276597E+02  0.00000000000E+00 0. -1.
         11    1    3    3    0    0  0.20222602862E+02  0.24312386039E+02  0.26265907638E+02  0.41108924645E+02  0.00000000000E+00 0.  1.
</event>
<event>
 7    1  0.5137842E-006  0.1704365E+03  0.7561462E-02  0.1177393E+00
          2   -1    0    0  501    0  0.00000000000E+00  0.00000000000E+00  0.49331982524E+03  0.49331982524E+03  0.00000000000E+00 0. -1.
         -2   -1    0    0    0  501 -0.00000000000E+00 -0.00000000000E+00 -0.63908437313E+02  0.63908437313E+02  0.00000000000E+00 0.  1.
         23    2    1    2    0    0  0.86016381907E+02  0.11006515647E+03  0.21855170283E+03  0.27505077149E+03  0.91514607912E+02 0.  0.
          5    1    1    2  502    0 -0.86482902229E+02 -0.13050225861E+03  0.14624847926E+03  0.21428070833E+03  0.41800000000E+01 0.  1.
         -5    1    1    2    0  502  0.46652032280E+00  0.20437102136E+02  0.64611205839E+02  0.67896782729E+02  0.41800000000E+01 0.  1.
        -11    1    3    3    0    0  0.36003381201E+01  0.72896018692E+02  0.12637570092E+03  0.14593700613E+03  0.00000000000E+00 0. -1.
         11    1    3    3    0    0  0.82416043787E+02  0.37169137780E+02  0.92176001914E+02  0.12911376536E+03  0.00000000000E+00 0.  1.
</event>
<event>
 7    1  0.5137842E-006  0.7117636E+02  0.7561462E-02  0.1356138E+00
         -4   -1    0    0    0  501 -0.00000000000E+00  0.00000000000E+00  0.21470153188E+03  0.21470153188E+03  0.00000000000E+00 0.  1.
          4   -1    0    0  501    0  0.00000000000E+00 -0.00000000000E+00 -0.78644625430E+02  0.78644625430E+02  0.00000000000E+00 0. -1.
         23    2    1    2    0    0  0.47624189350E+01  0.10060341593E+02 -0.18488724913E+02  0.94245147551E+02  0.91741069216E+02 0.  0.
          5    1    1    2  502    0  0.20371914440E+02 -0.12891338685E+02  0.16825805847E+03  0.17002778641E+03  0.41800000000E+01 0.  1.
         -5    1    1    2    0  502 -0.25134333375E+02  0.28309970925E+01 -0.13712427108E+02  0.29073223350E+02  0.41800000000E+01 0.  1.
        -11    1    3    3    0    0  0.22637734770E+01  0.51091388115E+02 -0.74461904450E+01  0.51680754271E+02  0.00000000000E+00 0.  1.
         11    1    3    3    0    0  0.24986454580E+01 -0.41031046522E+02 -0.11042534468E+02  0.42564393280E+02  0.00000000000E+00 0. -1.
</event>
<event>
 7    1  0.5137842E-006  0.3228763E+03  0.7561462E-02  0.1074333E+00
          2   -1    0    0  501    0  0.00000000000E+00  0.00000000000E+00  0.11102628714E+04  0.11102628714E+04  0.00000000000E+00 0. -1.
         -2   -1    0    0    0  501 -0.00000000000E+00 -0.00000000000E+00 -0.10772010001E+03  0.10772010001E+03  0.00000000000E+00 0.  1.
         23    2    1    2    0    0 -0.26881631306E+03  0.17658650510E+03  0.60671444932E+03  0.69285314452E+03  0.92184884402E+02 0.  0.
          5    1    1    2  502    0  0.22760675528E+02 -0.13369583352E+02 -0.50817753857E+01  0.27204612671E+02  0.41800000000E+01 0.  1.
         -5    1    1    2    0  502  0.24605563753E+03 -0.16321692175E+03  0.40091009747E+03  0.49792521422E+03  0.41800000000E+01 0.  1.
        -11    1    3    3    0    0 -0.17149158325E+03  0.13333341869E+03  0.48306732336E+03  0.52966140369E+03  0.00000000000E+00 0. -1.
         11    1    3    3    0    0 -0.97324729814E+02  0.43253086409E+02  0.12364712596E+03  0.16319174083E+03  0.00000000000E+00 0.  1.
</event>
<event>
 7    1  0.5137842E-006  0.8490329E+02  0.7561462E-02  0.1315686E+00
         -2   -1    0    0    0  501 -0.00000000000E+00  0.00000000000E+00  0.17784687727E+02  0.17784687727E+02  0.00000000000E+00 0.  1.
          2   -1    0    0  501    0  0.00000000000E+00 -0.00000000000E+00 -0.69838358286E+03  0.69838358286E+03  0.00000000000E+00 0. -1.
         23    2    1    2    0    0 -0.82791816963E+01 -0.19783298253E+01 -0.37646577337E+03  0.38720881791E+03  0.90176113854E+02 0.  0.
          5    1    1    2  502    0  0.34340443073E+02 -0.25138170211E+02 -0.28178579474E+03  0.28501210527E+03  0.41800000000E+01 0. -1.
         -5    1    1    2    0  502 -0.26061261377E+02  0.27116500037E+02 -0.22347327014E+02  0.43947347399E+02  0.41800000000E+01 0. -1.
        -11    1    3    3    0    0  0.18027312716E+02 -0.39475881896E+02 -0.14971543883E+03  0.15587829188E+03  0.00000000000E+00 0.  1.
         11    1    3    3    0    0 -0.26306494413E+02  0.37497552070E+02 -0.22675033454E+03  0.23133052603E+03  0.00000000000E+00 0. -1.
</event>
<event>
 7    1  0.5137842E-006  0.1215389E+03  0.7561462E-02  0.1240580E+00
          1   -1    0    0  501    0  0.00000000000E+00  0.00000000000E+00  0.80155615379E+03  0.80155615379E+03  0.00000000000E+00 0. -1.
         -1   -1    0    0    0  501 -0.00000000000E+00 -0.00000000000E+00 -0.20301571658E+02  0.20301571658E+02  0.00000000000E+00 0.  1.
         23    2    1    2    0    0 -0.66798852710E+01 -0.66896130636E+02  0.36376684971E+03  0.38087777595E+03  0.90674396072E+02 0.  0.
          5    1    1    2  502    0  0.41324549781E+02  0.89574287816E+02  0.32248184754E+03  0.33725848521E+03  0.41800000000E+01 0.  1.
         -5    1    1    2    0  502 -0.34644664510E+02 -0.22678157180E+02  0.95005884889E+02  0.10372146430E+03  0.41800000000E+01 0.  1.
        -11    1    3    3    0    0 -0.42243713769E+02 -0.39471157602E+02  0.12238453706E+03  0.13535316231E+03  0.00000000000E+00 0.  1.
         11    1    3    3    0    0  0.35563828498E+02 -0.27424973033E+02  0.24138231265E+03  0.24552461364E+03  0.00000000000E+00 0. -1.
</event>
<event>
 7    1  0.5137842E-006  0.1397720E+03  0.7561462E-02  0.1213636E+00
          1   -1    0    0  501    0  0.00000000000E+00  0.00000000000E+00  0.12911965588E+04  0.12911965588E+04  0.00000000000E+00 0. -1.
         -1   -1    0    0    0  501 -0.00000000000E+00 -0.00000000000E+00 -0.18238472520E+02  0.18238472520E+02  0.00000000000E+00 0.  1.
         23    2    1    2    0    0 -0.59376506544E+02  0.90379691566E+02  0.59943375165E+03  0.61591664113E+03  0.91314993453E+02 0.  0.
          5    1    1    2  502    0 -0.12373450050E+00  0.17483946536E+02  0.29254112258E+03  0.29309296221E+03  0.41800000000E+01 0.  1.
         -5    1    1    2    0  502  0.59500241044E+02 -0.10786363810E+03  0.38098321208E+03  0.40042542801E+03  0.41800000000E+01 0.  1.
        -11    1    3    3    0    0 -0.29933184279E+00  0.77935703506E+02  0.27118610330E+03  0.28216301336E+03  0.00000000000E+00 0.  1.
         11    1    3    3    0    0 -0.59077174701E+02  0.12443988060E+02  0.32824764835E+03  0.33375362778E+03  0.00000000000E+00 0. -1.
</event>
<event>
 7    1  0.5137842E-006  0.2012486E+03  0.7561462E-02  0.1148690E+00
         -2   -1    0    0    0  501 -0.00000000000E+00  0.00000000000E+00  0.55278808582E+02  0.55278808582E+02  0.00000000000E+00 0. -1.
          2   -1    0    0  501    0  0.00000000000E+00 -0.00000000000E+00 -0.85138967116E+03  0.85138967116E+03  0.00000000000E+00 0.  1.
         23    2    1    2    0    0 -0.26540119572E+02 -0.18468553320E+03 -0.36230343638E+03  0.41814967073E+03  0.93660253035E+02 0.  0.
          5    1    1    2  502    0 -0.32123450460E+02  0.13844831644E+02 -0.13329754289E+03  0.13787422810E+03  0.41800000000E+01 0.  1.
         -5    1    1    2    0  502  0.58663570032E+02  0.17084070156E+03 -0.30050988331E+03  0.35064458092E+03  0.41800000000E+01 0.  1.
        -11    1    3    3    0    0 -0.92318876929E+01 -0.68958035699E+02 -0.53027980530E+02  0.87478026709E+02  0.00000000000E+00 0. -1.
         11    1    3    3    0    0 -0.17308231879E+02 -0.11572749751E+03 -0.30927545585E+03  0.33067164402E+03  0.00000000000E+00 0.  1.
</event>
<event>
 7    1  0.6979475E-006  0.1677680E+03  0.7561462E-02  0.1180196E+00
          2   -1    0    0  501    0  0.00000000000E+00  0.00000000000E+00  0.15773971233E+04  0.15773971233E+04  0.00000000000E+00 0. -1.
         -2   -1    0    0    0  501 -0.00000000000E+00 -0.00000000000E+00 -0.19840959889E+02  0.19840959889E+02  0.00000000000E+00 0.  1.
         23    2    1    2    0    0  0.10079720842E+02 -0.13853049413E+03  0.66673499359E+03  0.68701710743E+03  0.90358484123E+02 0.  0.
          5    1    1    2  502    0  0.14947483875E+02 -0.11177224975E+02  0.28570597738E+03  0.28634548284E+03  0.41800000000E+01 0.  1.
         -5    1    1    2    0  502 -0.25027204717E+02  0.14970771911E+03  0.60511519244E+03  0.62387549292E+03  0.41800000000E+01 0.  1.
        -11    1    3    3    0    0 -0.39109417730E+02 -0.52492071499E+02  0.22683971655E+03  0.23609578804E+03  0.00000000000E+00 0.  1.
         11    1    3    3    0    0  0.49189138572E+02 -0.86038422633E+02  0.43989527704E+03  0.45092131939E+03  0.00000000000E+00 0. -1.
</event>
<event>
 7    1  0.5137842E-006  0.1145525E+03  0.7561462E-02  0.1252364E+00
          2   -1    0    0  501    0  0.00000000000E+00  0.00000000000E+00  0.68065934643E+03  0.68065934643E+03  0.00000000000E+00 0. -1.
         -2   -1    0    0    0  501 -0.00000000000E+00 -0.00000000000E+00 -0.38578069929E+02  0.38578069929E+02  0.00000000000E+00 0.  1.
         23    2    1    2    0    0 -0.55866717273E+02  0.70842702026E+02  0.47405901348E+03  0.49116059484E+03  0.91471324053E+02 0.  0.
          5    1    1    2  502    0  0.34327964313E+02 -0.71577149033E+02  0.24930495617E+02  0.83310860092E+02  0.41800000000E+01 0.  1.
         -5    1    1    2    0  502  0.21538752959E+02  0.73444700792E+00  0.14309176740E+03  0.14476596143E+03  0.41800000000E+01 0.  1.
        -11    1    3    3    0    0 -0.80514499453E+02  0.61437471572E+02  0.35181730970E+03  0.36610458470E+03  0.00000000000E+00 0.  1.
         11    1    3    3    0    0  0.24647782181E+02  0.94052304540E+01  0.12224170378E+03  0.12505601013E+03  0.00000000000E+00 0. -1.
</event>
<event>
 7    1  0.5137842E-006  0.1677770E+03  0.7561462E-02  0.1180186E+00
          2   -1    0    0  501    0  0.00000000000E+00  0.00000000000E+00  0.13488644180E+03  0.13488644180E+03  0.00000000000E+00 0.  1.
         -2   -1    0    0    0  501 -0.00000000000E+00 -0.00000000000E+00 -0.46830207515E+03  0.46830207515E+03  0.00000000000E+00 0. -1.
         23    2    1    2    0    0 -0.77499068356E+02  0.13377509805E+03  0.36778855778E+02  0.18296144353E+03  0.90665997669E+02 0.  0.
          5    1    1    2  502    0 -0.11781777800E+02 -0.69046901829E+02 -0.64829766701E+02  0.95533533331E+02  0.41800000000E+01 0.  1.
         -5    1    1    2    0  502  0.89280846156E+02 -0.64728196217E+02 -0.30536472242E+03  0.32469354009E+03  0.41800000000E+01 0.  1.
        -11    1    3    3    0    0 -0.92946619542E+01  0.24638196532E+02  0.46985082899E+02  0.53861205744E+02  0.00000000000E+00 0.  1.
         11    1    3    3    0    0 -0.68204406401E+02  0.10913690151E+03 -0.10206227120E+02  0.12910023779E+03  0.00000000000E+00 0. -1.
</event>
<event>
 7    1  0.5137842E-006  0.1124043E+03  0.7561462E-02  0.1256181E+00
         -2   -1    0    0    0  501 -0.00000000000E+00  0.00000000000E+00  0.25049746643E+02  0.25049746643E+02  0.00000000000E+00 0.  1.
          2   -1    0    0  501    0  0.00000000000E+00 -0.00000000000E+00 -0.70315339227E+03  0.70315339227E+03  0.00000000000E+00 0. -1.
         23    2    1    2    0    0 -0.59899757927E+02 -0.45123225489E+02 -0.34503693480E+03  0.36460150452E+03  0.90882804998E+02 0.  0.
          5    1    1    2  502    0  0.33804258049E+02 -0.22489285041E+02 -0.26751280387E+02  0.48801631184E+02  0.41800000000E+01 0.  1.
         -5    1    1    2    0  502  0.26095499877E+02  0.67612510530E+02 -0.30631543044E+03  0.31480000321E+03  0.41800000000E+01 0.  1.
        -11    1    3    3    0    0 -0.21808095955E+02  0.24028408880E+02 -0.53570031353E+02  0.62631507579E+02  0.00000000000E+00 0.  1.
         11    1    3    3    0    0 -0.38091661972E+02 -0.69151634370E+02 -0.29146690345E+03  0.30196999695E+03  0.00000000000E+00 0. -1.
</event>
<event>
 7    1  0.5137842E-006  0.1015838E+03  0.7561462E-02  0.1277000E+00
          1   -1    0    0  501    0  0.00000000000E+00  0.00000000000E+00  0.30297898449E+03  0.30297898449E+03  0.00000000000E+00 0. -1.
         -1   -1    0    0    0  501 -0.00000000000E+00 -0.00000000000E+00 -0.54120938182E+02  0.54120938182E+02  0.00000000000E+00 0.  1.
         23    2    1    2    0    0 -0.66719509372E+02  0.67771407250E+01  0.99507104360E+02  0.15106636825E+03  0.91771244023E+02 0.  0.
          5    1    1    2  502    0 -0.14714492391E+02 -0.32195334882E+02  0.10270608536E+03  0.10871553819E+03  0.41800000000E+01 0. -1.
         -5    1    1    2    0  502  0.81434001764E+02  0.25418194157E+02  0.46644856584E+02  0.97318016231E+02  0.41800000000E+01 0. -1.
        -11    1    3    3    0    0 -0.25839902884E+02 -0.20485881171E+02 -0.70546290855E+01  0.33721502042E+02  0.00000000000E+00 0.  1.
         11    1    3    3    0    0 -0.40879606488E+02  0.27263021896E+02  0.10656173345E+03  0.11734486620E+03  0.00000000000E+00 0. -1.
</event>
<event>
 7    1  0.5137842E-006  0.1602346E+03  0.7561462E-02  0.1188432E+00
          2   -1    0    0  501    0  0.00000000000E+00  0.00000000000E+00  0.86392591433E+03  0.86392591433E+03  0.00000000000E+00 0. -1.
         -2   -1    0    0    0  501 -0.00000000000E+00 -0.00000000000E+00 -0.37260363119E+02  0.37260363119E+02  0.00000000000E+00 0.  1.
         23    2    1    2    0    0 -0.12217079830E+03 -0.70364643507E+02  0.44228915979E+03  0.47308638745E+03  0.91181917666E+02 0.  0.
          5    1    1    2  502    0  0.44171077312E+02  0.60799177854E+02  0.31278213227E+03  0.32171067556E+03  0.41800000000E+01 0.  1.
         -5    1    1    2    0  502  0.77999720986E+02  0.95654656532E+01  0.71594259152E+02  0.10638921445E+03  0.41800000000E+01 0.  1.
        -11    1    3    3    0    0 -0.50609729880E+02 -0.79626921842E+02  0.28028679214E+03  0.29574055739E+03  0.00000000000E+00 0. -1.
         11    1    3    3    0    0 -0.71561068418E+02  0.92622783352E+01  0.16200236765E+03  0.17734583005E+03  0.00000000000E+00 0.  1.
</event>
<event>
 7    1  0.5137842E-006  0.1434587E+03  0.7561462E-02  0.1208749E+00
          1   -1    0    0  501    0  0.00000000000E+00  0.00000000000E+00  0.43305684590E+03  0.43305684590E+03  0.00000000000E+00 0. -1.
         -1   -1    0    0    0  501 -0.00000000000E+00 -0.00000000000E+00 -0.59451797177E+02  0.59451797177E+02  0.00000000000E+00 0.  1.
         23    2    1    2    0    0  0.98929970542E+02  0.34572626850E+02  0.25621895436E+03  0.29148745581E+03  0.91292818591E+02 0.  0.
          5    1    1    2  502    0 -0.35945013863E+02 -0.71434932173E+02  0.95679208064E+02  0.12476769138E+03  0.41800000000E+01 0. -1.
         -5    1    1    2    0  502 -0.62984956679E+02  0.36862305323E+02  0.21706886299E+02  0.76253495883E+02  0.41800000000E+01 0. -1.
        -11    1    3    3    0    0  0.79401183654E+02 -0.14689954274E+02  0.11387091546E+03  0.13959558772E+03  0.00000000000E+00 0.  1.
         11    1    3    3    0    0  0.19528786888E+02  0.49262581124E+02  0.14234803890E+03  0.15189186810E+03  0.00000000000E+00 0. -1.
</event>
<event>
 7    1  0.5137842E-006  0.2490235E+03  0.7561462E-02  0.1113924E+00
          2   -1    0    0  501    0  0.00000000000E+00  0.00000000000E+00  0.38761894791E+03  0.38761894791E+03  0.00000000000E+00 0.  1.
         -2   -1    0    0    0  501 -0.00000000000E+00 -0.00000000000E+00 -0.16982981396E+03  0.16982981396E+03  0.00000000000E+00 0. -1.
         23    2    1    2    0    0  0.21610625682E+03 -0.68139669271E+02  0.16094618600E+03  0.29245144207E+03  0.90990342423E+02 0.  0.
          5    1    1    2  502    0 -0.15716944353E+03  0.10041041963E+03  0.64159916273E+02  0.19727760543E+03  0.41800000000E+01 0.  1.
         -5    1    1    2    0  502 -0.58936813291E+02 -0.32270750356E+02 -0.73169683255E+01  0.67719714374E+02  0.41800000000E+01 0.  1.
        -11    1    3    3    0    0  0.32396901053E+02 -0.49986460788E+02  0.40387450425E+02  0.71967712286E+02  0.00000000000E+00 0.  1.
         11    1    3    3    0    0  0.18370935577E+03 -0.18153208483E+02  0.12055873558E+03  0.22048372978E+03  0.00000000000E+00 0. -1.
</event>
<event>
 7    1  0.5137842E-006  0.1388864E+03  0.7561462E-02  0.1214835E+00
         -1   -1    0    0    0  501 -0.00000000000E+00  0.00000000000E+00  0.25842769361E+02  0.25842769361E+02  0.00000000000E+00 0.  1.
          1   -1    0    0  501    0  0.00000000000E+00 -0.00000000000E+00 -0.79402033804E+03  0.79402033804E+03  0.00000000000E+00 0. -1.
         23    2    1    2    0    0  0.35276256294E+02  0.82303653045E+02 -0.43016985713E+03  0.44849373851E+03  0.89901178766E+02 0.  0.
          5    1    1    2  502    0 -0.58488764272E+02 -0.10474839867E+03 -0.28365530608E+03  0.30801131089E+03  0.41800000000E+01 0.  1.
         -5    1    1    2    0  502  0.23212507978E+02  0.22444745620E+02 -0.54352405475E+02  0.63358058000E+02  0.41800000000E+01 0.  1.
        -11    1    3    3    0    0  0.42662850751E+02  0.12804359707E+00 -0.18337578984E+03  0.18827324698E+03  0.00000000000E+00 0.  1.
         11    1    3    3    0    0 -0.73865944577E+01  0.82175609448E+02 -0.24679406728E+03  0.26022049153E+03  0.00000000000E+00 0. -1.
</event>
<event>
 7    1  0.5137842E-006  0.9907919E+02  0.7561462E-02  0.1282244E+00
          4   -1    0    0  501    0  0.00000000000E+00  0.00000000000E+00  0.40049690149E+03  0.40049690149E+03  0.00000000000E+00 0. -1.
         -4   -1    0    0    0  501 -0.00000000000E+00 -0.00000000000E+00 -0.33877986612E+02  0.33877986612E+02  0.00000000000E+00 0.  1.
         23    2    1    2    0    0  0.94281998001E+01 -0.24827214709E+02  0.22334600119E+03  0.24233563980E+03  0.90210002392E+02 0.  0.
          5    1    1    2  502    0 -0.30511774511E+02  0.60141882885E+02  0.13339870574E+03  0.14953495094E+03  0.41800000000E+01 0. -1.
         -5    1    1    2    0  502  0.21083574711E+02 -0.35314668177E+02  0.98742079557E+01  0.42504297357E+02  0.41800000000E+01 0. -1.
        -11    1    3    3    0    0  0.47283112530E+02 -0.18954482329E+02  0.16374081970E+03  0.17148183918E+03  0.00000000000E+00 0.  1.
         11    1    3    3    0    0 -0.37854912730E+02 -0.58727323798E+01  0.59605181482E+02  0.70853800625E+02  0.00000000000E+00 0. -1.
</event>
<event>
 7    1  0.5137842E-006  0.1204131E+03  0.7561462E-02  0.1242417E+00
         -1   -1    0    0    0  501 -0.00000000000E+00  0.00000000000E+00  0.32180702695E+02  0.32180702695E+02  0.00000000000E+00 0.  1.
          1   -1    0    0  501    0  0.00000000000E+00 -0.00000000000E+00 -0.55585321256E+03  0.55585321256E+03  0.00000000000E+00 0. -1.
         23    2    1    2    0    0 -0.86360103987E+01 -0.55917719780E+02 -0.34947407418E+03  0.36623522526E+03  0.93780273155E+02 0.  0.
          5    1    1    2  502    0 -0.52587434637E+02 -0.19990413524E+01 -0.62533933474E+02  0.81837642217E+02  0.41800000000E+01 0.  1.
         -5    1    1    2    0  502  0.61223445035E+02  0.57916761133E+02 -0.11166450221E+03  0.13996104778E+03  0.41800000000E+01 0.  1.
        -11    1    3    3    0    0  0.14818906350E+02 -0.73094950790E+02 -0.18964191988E+03  0.20378059180E+03  0.00000000000E+00 0.  1.
         11    1    3    3    0    0 -0.23454916748E+02  0.17177231010E+02 -0.15983215430E+03  0.16245463346E+03  0.00000000000E+00 0. -1.
</event>
<event>
 7    1  0.5137842E-006  0.9708773E+02  0.7561462E-02  0.1286542E+00
          1   -1    0    0  501    0  0.00000000000E+00  0.00000000000E+00  0.35438800395E+03  0.35438800395E+03  0.00000000000E+00 0. -1.
         -1   -1    0    0    0  501 -0.00000000000E+00 -0.00000000000E+00 -0.73799647633E+02  0.73799647633E+02  0.00000000000E+00 0.  1.
         23    2    1    2    0    0 -0.33241615992E+02 -0.58863092351E+02  0.24588074514E+03  0.28182630101E+03  0.11999522672E+03 0.  0.
          5    1    1    2  502    0  0.38855467279E+02  0.30343975118E+02  0.79002379328E+02  0.93216696482E+02  0.41800000000E+01 0.  1.
         -5    1    1    2    0  502 -0.56138512877E+01  0.28519117233E+02 -0.44294768145E+02  0.53144654096E+02  0.41800000000E+01 0.  1.
        -11    1    3    3    0    0 -0.64501944956E+02 -0.53097436691E+02  0.23300477077E+03  0.24752992120E+03  0.00000000000E+00 0. -1.
         11    1    3    3    0    0  0.31260328964E+02 -0.57656556593E+01  0.12875974364E+02  0.34296379808E+02  0.00000000000E+00 0.  1.
</event>
<event>
 7    1  0.5137842E-006  0.1268538E+03  0.7561462E-02  0.1232200E+00
          2   -1    0    0  501    0  0.00000000000E+00  0.00000000000E+00  0.84801508763E+02  0.84801508763E+02  0.00000000000E+00 0. -1.
         -2   -1    0    0    0  501 -0.00000000000E+00 -0.00000000000E+00 -0.20925903230E+03  0.20925903230E+03  0.00000000000E+00 0.  1.
         23    2    1    2    0    0  0.54841484998E+02 -0.53971511055E+02 -0.65022495735E+02  0.13562724030E+03  0.90809200407E+02 0.  0.
          5    1    1    2  502    0 -0.94358366458E+02  0.46551328908E+02 -0.51576070760E+02  0.11725225379E+03  0.41800000000E+01 0. -1.
         -5    1    1    2    0  502  0.39516881460E+02  0.74201821471E+01 -0.78589570368E+01  0.41181046965E+02  0.41800000000E+01 0. -1.
        -11    1    3    3    0    0  0.39310931940E+02 -0.73307841361E+02 -0.22122708700E+02  0.86074405111E+02  0.00000000000E+00 0. -1.
         11    1    3    3    0    0  0.15530553058E+02  0.19336330306E+02 -0.42899787036E+02  0.49552835193E+02  0.00000000000E+00 0.  1.
</event>
<event>
 7    1  0.5137842E-006  0.1261612E+03  0.7561462E-02  0.1233266E+00
         -1   -1    0    0    0  501 -0.00000000000E+00  0.00000000000E+00  0.12485881887E+03  0.12485881887E+03  0.00000000000E+00 0. -1.
          1   -1    0    0  501    0  0.00000000000E+00 -0.00000000000E+00 -0.17802929469E+03  0.17802929469E+03  0.00000000000E+00 0.  1.
         23    2    1    2    0    0 -0.91735977767E+02 -0.27285912907E+02 -0.49823632797E+02  0.14534746014E+03  0.97383156257E+02 0.  0.
          5    1    1    2  502    0  0.41135873224E+02  0.75223414713E+02 -0.13783346291E+02  0.86937766373E+02  0.41800000000E+01 0.  1.
         -5    1    1    2    0  502  0.50600104544E+02 -0.47937501806E+02  0.10436503275E+02  0.70602887050E+02  0.41800000000E+01 0.  1.
        -11    1    3    3    0    0 -0.15513564267E+02  0.51666987614E+00 -0.61453467934E+02  0.63383486375E+02  0.00000000000E+00 0.  1.
         11    1    3    3    0    0 -0.76222413500E+02 -0.27802582784E+02  0.11629835137E+02  0.81963973760E+02  0.00000000000E+00 0. -1.
</event>
<event>
 7    1  0.5137842E-006  0.7346232E+02  0.7561462E-02  0.1348700E+00
         -1   -1    0    0    0  501 -0.00000000000E+00  0.00000000000E+00  0.10033265373E+03  0.10033265373E+03  0.00000000000E+00 0.  1.
          1   -1    0    0  501    0  0.00000000000E+00 -0.00000000000E+00 -0.17826471962E+03  0.17826471962E+03  0.00000000000E+00 0. -1.
         23    2    1    2    0    0 -0.25680407102E+02  0.24994035608E+00 -0.10905708443E+03  0.14716267663E+03  0.95414149632E+02 0.  0.
          5    1    1    2  502    0 -0.84954633710E+01  0.26474810868E+02 -0.39474879930E+02  0.48464699049E+02  0.41800000000E+01 0. -1.
         -5    1    1    2    0  502  0.34175870473E+02 -0.26724751225E+02  0.70599898467E+02  0.82969997674E+02  0.41800000000E+01 0. -1.
        -11    1    3    3    0    0  0.13957864341E+02 -0.24710416318E+02  0.99050590276E-01  0.28380212519E+02  0.00000000000E+00 0.  1.
         11    1    3    3    0    0 -0.39638271443E+02  0.24960356674E+02 -0.10915613502E+03  0.11878246411E+03  0.00000000000E+00 0. -1.
</event>
<event>
 7    1  0.5137842E-006  0.9967995E+02  0.7561462E-02  0.1280970E+00
         -1   -1    0    0    0  501 -0.00000000000E+00  0.00000000000E+00  0.85316604479E+02  0.85316604479E+02  0.00000000000E+00 0.  1.
          1   -1    0    0  501    0  0.00000000000E+00 -0.00000000000E+00 -0.17194460726E+03  0.17194460726E+03  0.00000000000E+00 0. -1.
         23    2    1    2    0    0 -0.48810535405E+02  0.18023420268E+02 -0.53109837386E+02  0.11769619238E+03  0.91238296939E+02 0.  0.
          5    1    1    2  502    0 -0.14458216807E+02  0.32057633793E+02 -0.45738919669E+02  0.57846807087E+02  0.41800000000E+01 0.  1.
         -5    1    1    2    0  502  0.63268752212E+02 -0.50081054061E+02  0.12220754274E+02  0.81718212275E+02  0.41800000000E+01 0.  1.
        -11    1    3    3    0    0  0.76660832683E+01  0.25084318889E+02  0.13974670356E+02  0.29720082409E+02  0.00000000000E+00 0.  1.
         11    1    3    3    0    0 -0.56476618673E+02 -0.70608986216E+01 -0.67084507743E+02  0.87976109968E+02  0.00000000000E+00 0. -1.
</event>
<event>
 7    1  0.5137842E-006  0.1056279E+03  0.7561462E-02  0.1268887E+00
         -1   -1    0    0    0  501 -0.00000000000E+00  0.00000000000E+00  0.16379839576E+03  0.16379839576E+03  0.00000000000E+00 0.  1.
          1   -1    0    0  501    0  0.00000000000E+00 -0.00000000000E+00 -0.15065596108E+03  0.15065596108E+03  0.00000000000E+00 0. -1.
         23    2    1    2    0    0  0.61144113671E+02 -0.17081751002E+02 -0.88671690152E+02  0.14112436588E+03  0.89571363492E+02 0.  0.
          5    1    1    2  502    0  0.16432929075E+01 -0.47178711670E+02  0.18960922641E+02  0.51044296781E+02  0.41800000000E+01 0.  1.
         -5    1    1    2    0  502 -0.62787406579E+02  0.64260462672E+02  0.82853202193E+02  0.12228569418E+03  0.41800000000E+01 0.  1.
        -11    1    3    3    0    0  0.47746082319E+02 -0.29108872576E+02 -0.10360504193E+03  0.11773283124E+03  0.00000000000E+00 0. -1.
         11    1    3    3    0    0  0.13398031353E+02  0.12027121574E+02  0.14933351778E+02  0.23391534640E+02  0.00000000000E+00 0.  1.
</event>
<event>
 7    1  0.5137842E-006  0.9261478E+02  0.7561462E-02  0.1296640E+00
          1   -1    0    0  501    0  0.00000000000E+00  0.00000000000E+00  0.22578195021E+03  0.22578195021E+03  0.00000000000E+00 0. -1.
         -1   -1    0    0    0  501 -0.00000000000E+00 -0.00000000000E+00 -0.60818854975E+02  0.60818854975E+02  0.00000000000E+00 0.  1.
         23    2    1    2    0    0  0.99468789536E+01 -0.46074372900E+02  0.56754518971E+02  0.11461683010E+03  0.87716327331E+02 0.  0.
          5    1    1    2  502    0  0.56833634559E+02  0.31461862921E+02  0.55938847616E+02  0.85828537843E+02  0.41800000000E+01 0.  1.
         -5    1    1    2    0  502 -0.66780513513E+02  0.14612509979E+02  0.52269728650E+02  0.86155437240E+02  0.41800000000E+01 0.  1.
        -11    1    3    3    0    0 -0.40613396738E+01 -0.30212255419E+02 -0.19027870117E+02  0.35935145730E+02  0.00000000000E+00 0.  1.
         11    1    3    3    0    0  0.14008218627E+02 -0.15862117481E+02  0.75782389088E+02  0.78681684374E+02  0.00000000000E+00 0. -1.
</event>
<event>
 7    1  0.5137842E-006  0.2222221E+03  0.7561462E-02  0.1132237E+00
          1   -1    0    0  501    0  0.00000000000E+00  0.00000000000E+00  0.44394105335E+03  0.44394105335E+03  0.00000000000E+00 0. -1.
         -1   -1    0    0    0  501 -0.00000000000E+00 -0.00000000000E+00 -0.17558470091E+03  0.17558470091E+03  0.00000000000E+00 0.  1.
         23    2    1    2    0    0 -0.99572588165E+02  0.17342779914E+03  0.31016229023E+03  0.37996970088E+03  0.90467814577E+02 0.  0.
          5    1    1    2  502    0  0.14449649829E+02 -0.12718835731E+03  0.12052748330E+02  0.12864063027E+03  0.41800000000E+01 0. -1.
         -5    1    1    2    0  502  0.85122938337E+02 -0.46239441835E+02 -0.53858686129E+02  0.11091542311E+03  0.41800000000E+01 0. -1.
        -11    1    3    3    0    0  0.17177612435E+02  0.28851599796E+02  0.43790607642E+02  0.55182447367E+02  0.00000000000E+00 0.  1.
         11    1    3    3    0    0 -0.11675020060E+03  0.14457619935E+03  0.26637168259E+03  0.32478725351E+03  0.00000000000E+00 0. -1.
</event>
<event>
 7    1  0.5137842E-006  0.1166878E+03  0.7561462E-02  0.1248663E+00
         -2   -1    0    0    0  501 -0.00000000000E+00  0.00000000000E+00  0.27969138780E+02  0.27969138780E+02  0.00000000000E+00 0.  1.
          2   -1    0    0  501    0  0.00000000000E+00 -0.00000000000E+00 -0.65015555883E+03  0.65015555883E+03  0.00000000000E+00 0. -1.
         23    2    1    2    0    0  0.49915884240E+02  0.43247405560E+02 -0.39411850519E+03  0.40975102393E+03  0.90579091928E+02 0.  0.
          5    1    1    2  502    0  0.30141939686E+02  0.12308076378E+02 -0.11228161805E+03  0.11698144906E+03  0.41800000000E+01 0. -1.
         -5    1    1    2    0  502 -0.80057823927E+02 -0.55555481938E+02 -0.11578629681E+03  0.15139222461E+03  0.41800000000E+01 0. -1.
        -11    1    3    3    0    0  0.46817734309E+02  0.65519957102E+02 -0.35994255004E+03  0.36884062189E+03  0.00000000000E+00 0.  1.
         11    1    3    3    0    0  0.30981499314E+01 -0.22272551542E+02 -0.34175955145E+02  0.40910402042E+02  0.00000000000E+00 0. -1.
</event>
<event>
 7    1  0.5137842E-006  0.1145161E+03  0.7561462E-02  0.1252428E+00
         -2   -1    0    0    0  501 -0.00000000000E+00  0.00000000000E+00  0.19434330965E+03  0.19434330965E+03  0.00000000000E+00 0.  1.
          2   -1    0    0  501    0  0.00000000000E+00 -0.00000000000E+00 -0.12408801287E+03  0.12408801287E+03  0.00000000000E+00 0. -1.
         23    2    1    2    0    0 -0.47710319789E+02  0.87020376076E+02 -0.31824725140E+02  0.13774339654E+03  0.90064475201E+02 0.  0.
          5    1    1    2  502    0  0.41863213487E+02 -0.70949177575E+02  0.56656961050E+01  0.82679422799E+02  0.41800000000E+01 0. -1.
         -5    1    1    2    0  502  0.58471063025E+01 -0.16071198500E+02  0.96414325815E+02  0.98008503181E+02  0.41800000000E+01 0.  1.
        -11    1    3    3    0    0  0.22481909537E+02  0.34901543225E+02 -0.28304654417E+02  0.50246466916E+02  0.00000000000E+00 0.  1.
         11    1    3    3    0    0 -0.70192229326E+02  0.52118832851E+02 -0.35200707236E+01  0.87496929623E+02  0.00000000000E+00 0. -1.
</event>
<event>
 7    1  0.5137842E-006  0.1081514E+03  0.7561462E-02  0.1264032E+00
         -2   -1    0    0    0  501 -0.00000000000E+00  0.00000000000E+00  0.17807579875E+03  0.17807579875E+03  0.00000000000E+00 0.  1.
          2   -1    0    0  501    0  0.00000000000E+00 -0.00000000000E+00 -0.11639427284E+03  0.11639427284E+03  0.00000000000E+00 0. -1.
         23    2    1    2    0    0  0.43105847777E+02  0.72062100617E+02 -0.16968378106E+02  0.12451694306E+03  0.90363061017E+02 0.  0.
          5    1    1    2  502    0 -0.72962365210E+02 -0.42437688096E+02  0.92673495147E+02  0.12542054541E+03  0.41800000000E+01 0. -1.
         -5    1    1    2    0  502  0.29856517433E+02 -0.29624412520E+02 -0.14023591137E+02  0.44532583114E+02  0.41800000000E+01 0. -1.
        -11    1    3    3    0    0  0.32713740884E+02  0.24577746856E+02  0.34647231689E+02  0.53616090373E+02  0.00000000000E+00 0.  1.
         11    1    3    3    0    0  0.10392106893E+02  0.47484353761E+02 -0.51615609795E+02  0.70900852690E+02  0.00000000000E+00 0. -1.
</event>
<event>
 7    1  0.5137842E-006  0.9247347E+02  0.7561462E-02  0.1296970E+00
         -1   -1    0    0    0  501 -0.00000000000E+00  0.00000000000E+00  0.79711643042E+02  0.79711643042E+02  0.00000000000E+00 0.  1.
          1   -1    0    0  501    0  0.00000000000E+00 -0.00000000000E+00 -0.18508498721E+03  0.18508498721E+03  0.00000000000E+00 0. -1.
         23    2    1    2    0    0 -0.51586564111E+02  0.95278302042E+01 -0.61296068291E+02  0.12216848408E+03  0.91738636191E+02 0.  0.
          5    1    1    2  502    0  0.19167756212E+02 -0.65112869219E+02 -0.37892336345E+02  0.77848507820E+02  0.41800000000E+01 0.  1.
         -5    1    1    2    0  502  0.32418807899E+02  0.55585039014E+02 -0.61849395349E+01  0.64779638351E+02  0.41800000000E+01 0.  1.
        -11    1    3    3    0    0 -0.36532971885E+02  0.67801650211E+01  0.18086182694E+02  0.41324794941E+02  0.00000000000E+00 0.  1.
         11    1    3    3    0    0 -0.15053592226E+02  0.27476651831E+01 -0.79382250984E+02  0.80843689143E+02  0.00000000000E+00 0. -1.
</event>
<event>
 7    1  0.5137842E-006  0.1191397E+03  0.7561462E-02  0.1244523E+00
         -2   -1    0    0    0  501 -0.00000000000E+00  0.00000000000E+00  0.64966281839E+02  0.64966281839E+02  0.00000000000E+00 0.  1.
          2   -1    0    0  501    0  0.00000000000E+00 -0.00000000000E+00 -0.24808850258E+03  0.24808850258E+03  0.00000000000E+00 0. -1.
         23    2    1    2    0    0 -0.23892957761E+01 -0.57620712604E+02 -0.12643435290E+03  0.16410416711E+03  0.87285032012E+02 0.  0.
          5    1    1    2  502    0 -0.54530834459E+02  0.54274924168E+02 -0.48882577869E+02  0.91248880099E+02  0.41800000000E+01 0.  1.
         -5    1    1    2    0  502  0.56920130235E+02  0.33457884359E+01 -0.78052899762E+01  0.57701737217E+02  0.41800000000E+01 0.  1.
        -11    1    3    3    0    0 -0.44426615594E+02 -0.32982520927E+02 -0.75642648972E+02  0.93719694853E+02  0.00000000000E+00 0. -1.
         11    1    3    3    0    0  0.42037319818E+02 -0.24638191677E+02 -0.50791703928E+02  0.70384472254E+02  0.00000000000E+00 0.  1.
</event>
<event>
 7    1  0.5137842E-006  0.2230227E+03  0.7561462E-02  0.1131649E+00
         -2   -1    0    0    0  501 -0.00000000000E+00  0.00000000000E+00  0.45345448355E+02  0.45345448355E+02  0.00000000000E+00 0.  1.
          2   -1    0    0  501    0  0.00000000000E+00 -0.00000000000E+00 -0.12249451544E+04  0.12249451544E+04  0.00000000000E+00 0. -1.
         23    2    1    2    0    0  0.25455986387E+02 -0.20304153594E+03 -0.45882587937E+03  0.51066133447E+03  0.91542003425E+02 0.  0.
          5    1    1    2  502    0  0.34807122528E+02  0.86010661685E+02 -0.17422809039E+03  0.19743928075E+03  0.41800000000E+01 0. -1.
         -5    1    1    2    0  502 -0.60263108915E+02  0.11703087425E+03 -0.54654573629E+03  0.56218998753E+03  0.41800000000E+01 0. -1.
        -11    1    3    3    0    0  0.55780870408E+02 -0.15413192324E+03 -0.37179690967E+03  0.40632634336E+03  0.00000000000E+00 0. -1.
         11    1    3    3    0    0 -0.30324884021E+02 -0.48909612693E+02 -0.87028969698E+02  0.10433499112E+03  0.00000000000E+00 0.  1.
</event>
<event>
 7    1  0.5137842E-006  0.1020530E+03  0.7561462E-02  0.1276037E+00
         -3   -1    0    0    0  501 -0.00000000000E+00  0.00000000000E+00  0.38974909183E+02  0.38974909183E+02  0.00000000000E+00 0.  1.
          3   -1    0    0  501    0  0.00000000000E+00 -0.00000000000E+00 -0.34610325009E+03  0.34610325009E+03  0.00000000000E+00 0. -1.
         23    2    1    2    0    0 -0.36616723429E+02 -0.17415857519E+02 -0.11365104014E+03  0.15114478018E+03  0.91016971615E+02 0.  0.
          5    1    1    2  502    0 -0.18921125868E+02  0.50907831969E+02 -0.40978720281E+02  0.68164098144E+02  0.41800000000E+01 0.  1.
         -5    1    1    2    0  502  0.55537849297E+02 -0.33491974449E+02 -0.15249858048E+03  0.16576928095E+03  0.41800000000E+01 0.  1.
        -11    1    3    3    0    0  0.14418204350E+02  0.17600986871E+02 -0.74527545366E+02  0.77923259517E+02  0.00000000000E+00 0. -1.
         11    1    3    3    0    0 -0.51034927779E+02 -0.35016844390E+02 -0.39123494777E+02  0.73221520662E+02  0.00000000000E+00 0.  1.
</event>
<event>
 7    1  0.5137842E-006  0.1886703E+03  0.7561462E-02  0.1159666E+00
         -1   -1    0    0    0  501 -0.00000000000E+00  0.00000000000E+00  0.20072090961E+03  0.20072090961E+03  0.00000000000E+00 0.  1.
          1   -1    0    0  501    0  0.00000000000E+00 -0.00000000000E+00 -0.22671885435E+03  0.22671885435E+03  0.00000000000E+00 0. -1.
         23    2    1    2    0    0  0.58149423592E+02  0.16163930039E+03 -0.78214915354E+02  0.20862450170E+03  0.88870640993E+02 0.  0.
          5    1    1    2  502    0 -0.10620050735E+02 -0.13119029815E+03  0.81725116777E+02  0.15498434411E+03  0.41800000000E+01 0. -1.
         -5    1    1    2    0  502 -0.47529372857E+02 -0.30449002242E+02 -0.29508146170E+02  0.63830918152E+02  0.41800000000E+01 0. -1.
        -11    1    3    3    0    0  0.76976686150E+02  0.11144851672E+03 -0.75224954342E+02  0.15493539249E+03  0.00000000000E+00 0. -1.
         11    1    3    3    0    0 -0.18827262558E+02  0.50190783676E+02 -0.29899610116E+01  0.53689109215E+02  0.00000000000E+00 0.  1.
</event>
<event>
 7    1  0.5137842E-006  0.1221043E+03  0.7561462E-02  0.1239665E+00
          2   -1    0    0  501    0  0.00000000000E+00  0.00000000000E+00  0.11935513688E+02  0.11935513688E+02  0.00000000000E+00 0. -1.
         -2   -1    0    0    0  501 -0.00000000000E+00 -0.00000000000E+00 -0.13226301972E+04  0.13226301972E+04  0.00000000000E+00 0.  1.
         23    2    1    2    0    0  0.52594167953E+02 -0.33989713640E+02 -0.51394665292E+03  0.52563011921E+03  0.90688549683E+02 0.  0.
          5    1    1    2  502    0 -0.27701715443E+01 -0.42599670177E+02 -0.15991459151E+03  0.16556737217E+03  0.41800000000E+01 0.  1.
         -5    1    1    2    0  502 -0.49823996408E+02  0.76589383816E+02 -0.63683343907E+03  0.64336821949E+03  0.41800000000E+01 0.  1.
        -11    1    3    3    0    0 -0.24903417709E+02 -0.17980368398E+02 -0.12542095168E+03  0.12912741375E+03  0.00000000000E+00 0.  1.
         11    1    3    3    0    0  0.77497585661E+02 -0.16009345242E+02 -0.38852570123E+03  0.39650270546E+03  0.00000000000E+00 0. -1.
</event>
<event>
 7    1  0.5137842E-006  0.1055631E+03  0.7561462E-02  0.1269014E+00
          1   -1    0    0  501    0  0.00000000000E+00  0.00000000000E+00  0.90869043765E+03  0.90869043765E+03  0.00000000000E+00 0. -1.
         -1   -1    0    0    0  501 -0.00000000000E+00 -0.00000000000E+00 -0.18015244282E+02  0.18015244282E+02  0.00000000000E+00 0.  1.
         23    2    1    2    0    0  0.22246566589E+02 -0.65190641823E+02  0.34598388107E+03  0.36360614069E+03  0.88090011216E+02 0.  0.
          5    1    1    2  502    0 -0.50750663110E+02  0.39558488456E+02  0.11633078133E+03  0.13300686787E+03  0.41800000000E+01 0.  1.
         -5    1    1    2    0  502  0.28504096521E+02  0.25632153367E+02  0.42836053097E+03  0.43009267338E+03  0.41800000000E+01 0.  1.
        -11    1    3    3    0    0 -0.24767220402E+02 -0.54507193890E+02  0.23680228710E+03  0.24425350062E+03  0.00000000000E+00 0.  1.
         11    1    3    3    0    0  0.47013786991E+02 -0.10683447933E+02  0.10918159398E+03  0.11935264006E+03  0.00000000000E+00 0. -1.
</event>
<event>
 7    1  0.5137842E-006  0.2720621E+03  0.7561462E-02  0.1100105E+00
          2   -1    0    0  501    0  0.00000000000E+00  0.00000000000E+00  0.23861175260E+03  0.23861175260E+03  0.00000000000E+00 0. -1.
         -2   -1    0    0    0  501 -0.00000000000E+00 -0.00000000000E+00 -0.34394167660E+03  0.34394167660E+03  0.00000000000E+00 0.  1.
         23    2    1    2    0    0  0.25803690829E+03 -0.49251756052E+02 -0.21206680063E+02  0.27900317795E+03  0.91565651398E+02 0.  0.
          5    1    1    2  502    0 -0.18443232000E+03  0.71857468932E+02 -0.12608657032E+02  0.19838151914E+03  0.41800000000E+01 0. -1.
         -5    1    1    2    0  502 -0.73604588286E+02 -0.22605712880E+02 -0.71514586913E+02  0.10516873211E+03  0.41800000000E+01 0.  1.
        -11    1    3    3    0    0  0.14870323048E+03 -0.57397195019E+02 -0.47373952682E+02  0.16628704142E+03  0.00000000000E+00 0. -1.
         11    1    3    3    0    0  0.10933367781E+03  0.81454389664E+01  0.26167272619E+02  0.11271613653E+03  0.00000000000E+00 0.  1.
</event>
<event>
 7    1  0.5137842E-006  0.8793678E+02  0.7561462E-02  0.1307926E+00
         -2   -1    0    0    0  501 -0.00000000000E+00  0.00000000000E+00  0.27211207246E+02  0.27211207246E+02  0.00000000000E+00 0.  1.
          2   -1    0    0  501    0  0.00000000000E+00 -0.00000000000E+00 -0.52563356538E+03  0.52563356538E+03  0.00000000000E+00 0. -1.
         23    2    1    2    0    0  0.20891887276E+01  0.17746457265E+02 -0.11963261707E+03  0.15353524740E+03  0.94561131933E+02 0.  0.
          5    1    1    2  502    0 -0.44144563372E+02 -0.69072104710E+01 -0.33319106026E+03  0.33619965359E+03  0.41800000000E+01 0. -1.
         -5    1    1    2    0  502  0.42055374645E+02 -0.10839246794E+02 -0.45598680798E+02  0.63109871638E+02  0.41800000000E+01 0. -1.
        -11    1    3    3    0    0 -0.41658102391E+02  0.61633656270E+01 -0.25871015998E+02  0.49423618235E+02  0.00000000000E+00 0.  1.
         11    1    3    3    0    0  0.43747291118E+02  0.11583091638E+02 -0.93761601071E+02  0.10411162917E+03  0.00000000000E+00 0. -1.
</event>
<event>
 7    1  0.5137842E-006  0.1201866E+03  0.7561462E-02  0.1242790E+00
          1   -1    0    0  501    0  0.00000000000E+00  0.00000000000E+00  0.24372300128E+03  0.24372300128E+03  0.00000000000E+00 0. -1.
         -1   -1    0    0    0  501 -0.00000000000E+00 -0.00000000000E+00 -0.11647669965E+03  0.11647669965E+03  0.00000000000E+00 0.  1.
         23    2    1    2    0    0  0.63589112138E+01  0.61161729602E+02  0.17999392601E+03  0.21116320873E+03  0.91710928473E+02 0.  0.
          5    1    1    2  502    0 -0.54966846204E+02 -0.65794377481E+02 -0.51323243770E+02  0.10000900980E+03  0.41800000000E+01 0.  1.
         -5    1    1    2    0  502  0.48607934990E+02  0.46326478791E+01 -0.14243806060E+01  0.49027482400E+02  0.41800000000E+01 0.  1.
        -11    1    3    3    0    0  0.46104458036E+02  0.35945812722E+02  0.67973946865E+02  0.89655897494E+02  0.00000000000E+00 0.  1.
         11    1    3    3    0    0 -0.39745546822E+02  0.25215916880E+02  0.11201997915E+03  0.12150731124E+03  0.00000000000E+00 0. -1.
</event>
<event>
 7    1  0.5137842E-006  0.9726668E+02  0.7561462E-02  0.1286151E+00
         -2   -1    0    0    0  501 -0.00000000000E+00  0.00000000000E+00  0.71271144856E+02  0.71271144856E+02  0.00000000000E+00 0.  1.
          2   -1    0    0  501    0  0.00000000000E+00 -0.00000000000E+00 -0.19330631564E+03  0.19330631564E+03  0.00000000000E+00 0. -1.
         23    2    1    2    0    0  0.29151157554E+02 -0.86476210701E+01 -0.85009465008E+02  0.13061962067E+03  0.94394410990E+02 0.  0.
          5    1    1    2  502    0  0.10498655969E+02 -0.46943879225E+02 -0.43828276815E+02  0.65209967202E+02  0.41800000000E+01 0.  1.
         -5    1    1    2    0  502 -0.39649813523E+02  0.55591500295E+02  0.68025710391E+01  0.68747872624E+02  0.41800000000E+01 0.  1.
        -11    1    3    3    0    0 -0.21219902386E+02  0.10840462979E+02  0.61970857098E+01  0.24621205620E+02  0.00000000000E+00 0.  1.
         11    1    3    3    0    0  0.50371059940E+02 -0.19488084049E+02 -0.91206550718E+02  0.10599841505E+03  0.00000000000E+00 0. -1.
</event>
<event>
 7    1  0.5137842E-006  0.1905648E+03  0.7561462E-02  0.1157953E+00
          2   -1    0    0  501    0  0.00000000000E+00  0.00000000000E+00  0.52511445662E+03  0.52511445662E+03  0.00000000000E+00 0.  1.
         -2   -1    0    0    0  501 -0.00000000000E+00 -0.00000000000E+00 -0.98816412486E+02  0.98816412486E+02  0.00000000000E+00 0. -1.
         23    2    1    2    0    0  0.14826836499E+03 -0.85946052026E+02  0.34596907462E+03  0.39705850231E+03  0.92685607038E+02 0.  0.
          5    1    1    2  502    0 -0.27149088220E+02 -0.26366376563E+02 -0.88794916692E+01  0.39097014931E+02  0.41800000000E+01 0. -1.
         -5    1    1    2    0  502 -0.12111927677E+03  0.11231242859E+03  0.89208461189E+02  0.18777535187E+03  0.41800000000E+01 0. -1.
        -11    1    3    3    0    0  0.10388145034E+03 -0.83654041707E+02  0.31723572345E+03  0.34413348958E+03  0.00000000000E+00 0.  1.
         11    1    3    3    0    0  0.44386914648E+02 -0.22920103190E+01  0.28733351166E+02  0.52925012730E+02  0.00000000000E+00 0. -1.
</event>
<event>
 7    1  0.5137842E-006  0.1255664E+03  0.7561462E-02  0.1234187E+00
          1   -1    0    0  501    0  0.00000000000E+00  0.00000000000E+00  0.78978341336E+02  0.78978341336E+02  0.00000000000E+00 0. -1.
         -1   -1    0    0    0  501 -0.00000000000E+00 -0.00000000000E+00 -0.47480465959E+03  0.47480465959E+03  0.00000000000E+00 0.  1.
         23    2    1    2    0    0  0.41954628437E+02  0.11264013682E+03 -0.37650209822E+02  0.15580695028E+03  0.91707557964E+02 0.  0.
          5    1    1    2  502    0  0.48155324766E+01 -0.56315812504E+02 -0.29734654320E+03  0.30269968491E+03  0.41800000000E+01 0. -1.
         -5    1    1    2    0  502 -0.46770160914E+02 -0.56324324312E+02 -0.60829565231E+02  0.95276365733E+02  0.41800000000E+01 0. -1.
        -11    1    3    3    0    0  0.20526598788E+02  0.75578484656E+02 -0.67684688500E+02  0.10351166919E+03  0.00000000000E+00 0.  1.
         11    1    3    3    0    0  0.21428029650E+02  0.37061652160E+02  0.30034478678E+02  0.52295281096E+02  0.00000000000E+00 0. -1.
</event>
<event>
 7    1  0.5137842E-006  0.8540069E+02  0.7561462E-02  0.1314388E+00
          2   -1    0    0  501    0  0.00000000000E+00  0.00000000000E+00  0.97866350030E+02  0.97866350030E+02  0.00000000000E+00 0. -1.
         -2   -1    0    0    0  501 -0.00000000000E+00 -0.00000000000E+00 -0.40961758311E+03  0.40961758311E+03  0.00000000000E+00 0.  1.
         23    2    1    2    0    0 -0.10231376616E+02  0.31225424746E+02  0.53953790967E+02  0.11188405615E+03  0.92343501362E+02 0.  0.
          5    1    1    2  502    0  0.59001657401E+02  0.11782609062E+01 -0.59823044787E+02  0.84135919573E+02  0.41800000000E+01 0. -1.
         -5    1    1    2    0  502 -0.48770280785E+02 -0.32403685652E+02 -0.30588197926E+03  0.31146395741E+03  0.41800000000E+01 0.  1.
        -11    1    3    3    0    0  0.69296563981E+01 -0.77228254122E+01 -0.22277913227E+02  0.24575752031E+02  0.00000000000E+00 0. -1.
         11    1    3    3    0    0 -0.17161033014E+02  0.38948250158E+02  0.76231704194E+02  0.87308304123E+02  0.00000000000E+00 0.  1.
</event>
<event>
 7    1  0.5137842E-006  0.1194386E+03  0.7561462E-02  0.1244026E+00
         -2   -1    0    0    0  501 -0.00000000000E+00  0.00000000000E+00  0.46364962140E+02  0.46364962140E+02  0.00000000000E+00 0.  1.
          2   -1    0    0  501    0  0.00000000000E+00 -0.00000000000E+00 -0.45562837125E+03  0.45562837125E+03  0.00000000000E+00 0. -1.
         23    2    1    2    0    0  0.54717757250E+02 -0.79515550653E+02 -0.20761044617E+03  0.24581095991E+03  0.89466054427E+02 0.  0.
          5    1    1    2  502    0 -0.50956948191E+02  0.33928864892E+02 -0.20109319543E+03  0.21024681707E+03  0.41800000000E+01 0.  1.
         -5    1    1    2    0  502 -0.37608090598E+01  0.45586685761E+02 -0.55976750972E+00  0.45935556415E+02  0.41800000000E+01 0.  1.
        -11    1    3    3    0    0 -0.23347254027E+02 -0.33919187046E+02 -0.62733851067E+02  0.75040932764E+02  0.00000000000E+00 0.  1.
         11    1    3    3    0    0  0.78065011277E+02 -0.45596363607E+02 -0.14487659511E+03  0.17077002714E+03  0.00000000000E+00 0. -1.
</event>
<event>
 7    1  0.5137842E-006  0.1132829E+03  0.7561462E-02  0.1254608E+00
         -1   -1    0    0    0  501 -0.00000000000E+00  0.00000000000E+00  0.42010385542E+02  0.42010385542E+02  0.00000000000E+00 0.  1.
          1   -1    0    0  501    0  0.00000000000E+00 -0.00000000000E+00 -0.57112109466E+03  0.57112109466E+03  0.00000000000E+00 0. -1.
         23    2    1    2    0    0 -0.12333446037E+02  0.59119373030E+02 -0.42812936747E+03  0.44139905418E+03  0.88832176503E+02 0.  0.
          5    1    1    2  502    0 -0.30677340296E+02  0.14598031776E+02 -0.74964738686E+02  0.82409867041E+02  0.41800000000E+01 0.  1.
         -5    1    1    2    0  502  0.43010786334E+02 -0.73717404807E+02 -0.26016602955E+02  0.89322558975E+02  0.41800000000E+01 0.  1.
        -11    1    3    3    0    0 -0.48440620325E+02  0.16833280586E+02 -0.22738062401E+03  0.23309182999E+03  0.00000000000E+00 0.  1.
         11    1    3    3    0    0  0.36107174288E+02  0.42286092444E+02 -0.20074874347E+03  0.20830722420E+03  0.00000000000E+00 0. -1.
</event>
<event>
 7    1  0.5137842E-006  0.9700504E+02  0.7561462E-02  0.1286723E+00
          3   -1    0    0  501    0  0.00000000000E+00  0.00000000000E+00  0.40807073067E+02  0.40807073067E+02  0.00000000000E+00 0. -1.
         -3   -1    0    0    0  501 -0.00000000000E+00 -0.00000000000E+00 -0.31462810182E+03  0.31462810182E+03  0.00000000000E+00 0.  1.
         23    2    1    2    0    0 -0.34001603517E+02 -0.85779368793E+01 -0.11671837872E+03  0.15157667091E+03  0.90125563473E+02 0.  0.
          5    1    1    2  502    0  0.45160095596E+02 -0.31781457291E+02 -0.15162463689E+03  0.16142180204E+03  0.41800000000E+01 0. -1.
         -5    1    1    2    0  502 -0.11158492078E+02  0.40359394170E+02 -0.54780131453E+01  0.42436701936E+02  0.41800000000E+01 0. -1.
        -11    1    3    3    0    0 -0.64697948334E+00 -0.46237162143E+02 -0.51568577340E+02  0.69264795635E+02  0.00000000000E+00 0.  1.
         11    1    3    3    0    0 -0.33354624034E+02  0.37659225264E+02 -0.65149801379E+02  0.82311875277E+02  0.00000000000E+00 0. -1.
</event>
<event>
 7    1  0.5137842E-006  0.8094723E+02  0.7561462E-02  0.1326385E+00
          1   -1    0    0  501    0  0.00000000000E+00  0.00000000000E+00  0.30564154717E+03  0.30564154717E+03  0.00000000000E+00 0. -1.
         -1   -1    0    0    0  501 -0.00000000000E+00 -0.00000000000E+00 -0.47818212132E+02  0.47818212132E+02  0.00000000000E+00 0.  1.
         23    2    1    2    0    0 -0.11847738181E+02  0.42724519813E+01  0.18730298088E+03  0.20931039586E+03  0.92573281357E+02 0.  0.
          5    1    1    2  502    0 -0.26049193843E+02 -0.33829920649E+02  0.83773840370E+02  0.94119885047E+02  0.41800000000E+01 0. -1.
         -5    1    1    2    0  502  0.37896932024E+02  0.29557468668E+02 -0.13253486221E+02  0.50029478390E+02  0.41800000000E+01 0. -1.
        -11    1    3    3    0    0 -0.24559392975E+02  0.31947582825E+02  0.33155751389E+02  0.52183480929E+02  0.00000000000E+00 0.  1.
         11    1    3    3    0    0  0.12711654794E+02 -0.27675130844E+02  0.15414722950E+03  0.15712691493E+03  0.00000000000E+00 0. -1.
</event>
<event>
 7    1  0.5137842E-006  0.1932625E+03  0.7561462E-02  0.1155551E+00
          2   -1    0    0  501    0  0.00000000000E+00  0.00000000000E+00  0.14643878874E+04  0.14643878874E+04  0.00000000000E+00 0. -1.
         -2   -1    0    0    0  501 -0.00000000000E+00 -0.00000000000E+00 -0.26094755729E+02  0.26094755729E+02  0.00000000000E+00 0.  1.
         23    2    1    2    0    0  0.15531424726E+03  0.42780830634E+02  0.75045300283E+03  0.77304062151E+03  0.91974878000E+02 0.  0.
          5    1    1    2  502    0  0.15041980004E+02 -0.29073850475E+02  0.11159702749E+03  0.11637404732E+03  0.41800000000E+01 0. -1.
         -5    1    1    2    0  502 -0.17035622727E+03 -0.13706980159E+02  0.57624310134E+03  0.60106797429E+03  0.41800000000E+01 0. -1.
        -11    1    3    3    0    0  0.49990438634E+02  0.57530171189E+02  0.24762382641E+03  0.25908748321E+03  0.00000000000E+00 0.  1.
         11    1    3    3    0    0  0.10532380863E+03 -0.14749340555E+02  0.50282917642E+03  0.51395313830E+03  0.00000000000E+00 0. -1.
</event>
<event>
 7    1  0.7926431E-006  0.1308922E+03  0.7561462E-02  0.1226138E+00
         -2   -1    0    0    0  501 -0.00000000000E+00  0.00000000000E+00  0.10269241325E+02  0.10269241325E+02  0.00000000000E+00 0. -1.
          2   -1    0    0  501    0  0.00000000000E+00 -0.00000000000E+00 -0.25219102838E+04  0.25219102838E+04  0.00000000000E+00 0.  1.
         23    2    1    2    0    0 -0.11906650295E+02  0.11146074290E+03 -0.84899697553E+03  0.86107291268E+03  0.89919024456E+02 0.  0.
          5    1    1    2  502    0  0.17454109049E+02 -0.22126457401E+02 -0.65217513719E+02  0.71168971719E+02  0.41800000000E+01 0. -1.
         -5    1    1    2    0  502 -0.55474587542E+01 -0.89334285501E+02 -0.15974265532E+04  0.15999376407E+04  0.41800000000E+01 0. -1.
        -11    1    3    3    0    0  0.38976076483E+02  0.38900558343E+02 -0.33110127293E+03  0.33564928261E+03  0.00000000000E+00 0.  1.
         11    1    3    3    0    0 -0.50882726777E+02  0.72560184559E+02 -0.51789570260E+03  0.52542363007E+03  0.00000000000E+00 0. -1.
</event>
<event>
 7    1  0.5137842E-006  0.1711975E+03  0.7561462E-02  0.1176605E+00
         -1   -1    0    0    0  501 -0.00000000000E+00  0.00000000000E+00  0.14391135688E+03  0.14391135688E+03  0.00000000000E+00 0.  1.
          1   -1    0    0  501    0  0.00000000000E+00 -0.00000000000E+00 -0.25086452127E+03  0.25086452127E+03  0.00000000000E+00 0. -1.
         23    2    1    2    0    0  0.22120409350E+02 -0.94103774284E+02 -0.86237073217E+02  0.15884047705E+03  0.91916437644E+02 0.  0.
          5    1    1    2  502    0  0.86473404210E+02  0.88125071417E+02  0.66306421451E+01  0.12371384588E+03  0.41800000000E+01 0. -1.
         -5    1    1    2    0  502 -0.10859381356E+03  0.59787028669E+01 -0.27346733323E+02  0.11222155522E+03  0.41800000000E+01 0.  1.
        -11    1    3    3    0    0 -0.15754741463E+02 -0.12697553379E+02  0.13744418338E+02  0.24461168734E+02  0.00000000000E+00 0. -1.
         11    1    3    3    0    0  0.37875150813E+02 -0.81406220905E+02 -0.99981491554E+02  0.13437930832E+03  0.00000000000E+00 0.  1.
</event>
<event>
 7    1  0.5137842E-006  0.6937264E+02  0.7561462E-02  0.1362239E+00
         -1   -1    0    0    0  501 -0.00000000000E+00  0.00000000000E+00  0.10576712263E+03  0.10576712263E+03  0.00000000000E+00 0.  1.
          1   -1    0    0  501    0  0.00000000000E+00 -0.00000000000E+00 -0.11634325146E+03  0.11634325146E+03  0.00000000000E+00 0. -1.
         23    2    1    2    0    0  0.24651271989E+02 -0.38967466608E+01 -0.17669957729E+02  0.94372586401E+02  0.89280948766E+02 0.  0.
          5    1    1    2  502    0 -0.47891731067E+02  0.77356382229E+01  0.55445652739E+02  0.73791265140E+02  0.41800000000E+01 0. -1.
         -5    1    1    2    0  502  0.23240459078E+02 -0.38388915622E+01 -0.48351823839E+02  0.53946522549E+02  0.41800000000E+01 0. -1.
        -11    1    3    3    0    0  0.20376972753E+02  0.27620659832E+02  0.24050390416E+02  0.41911133930E+02  0.00000000000E+00 0.  1.
         11    1    3    3    0    0  0.42742992354E+01 -0.31517406493E+02 -0.41720348145E+02  0.52461452470E+02  0.00000000000E+00 0. -1.
</event>
<event>
 7    1  0.5137842E-006  0.1160575E+03  0.7561462E-02  0.1249746E+00
         -1   -1    0    0    0  501 -0.00000000000E+00  0.00000000000E+00  0.93868053397E+02  0.93868053397E+02  0.00000000000E+00 0.  1.
          1   -1    0    0  501    0  0.00000000000E+00 -0.00000000000E+00 -0.24217518424E+03  0.24217518424E+03  0.00000000000E+00 0. -1.
         23    2    1    2    0    0 -0.79873160317E+02  0.59203925554E+02 -0.10139532329E+03  0.16950829831E+03  0.92559305696E+02 0.  0.
          5    1    1    2  502    0  0.30450801643E+02  0.46919919694E+01  0.38109142391E+02  0.49183790451E+02  0.41800000000E+01 0. -1.
         -5    1    1    2    0  502  0.49422358673E+02 -0.63895917523E+02 -0.85020949938E+02  0.11735114887E+03  0.41800000000E+01 0. -1.
        -11    1    3    3    0    0 -0.58634762439E+01 -0.14527678616E+02  0.85478503361E+01  0.17846555550E+02  0.00000000000E+00 0.  1.
         11    1    3    3    0    0 -0.74009684073E+02  0.73731604170E+02 -0.10994317363E+03  0.15166174276E+03  0.00000000000E+00 0. -1.
</event>
<event>
 7    1  0.5137842E-006  0.1086161E+03  0.7561462E-02  0.1263154E+00
          2   -1    0    0  501    0  0.00000000000E+00  0.00000000000E+00  0.92108187830E+03  0.92108187830E+03  0.00000000000E+00 0. -1.
         -2   -1    0    0    0  501 -0.00000000000E+00 -0.00000000000E+00 -0.13353520459E+02  0.13353520459E+02  0.00000000000E+00 0.  1.
         23    2    1    2    0    0  0.54025427120E+01 -0.23096106215E+02  0.38641481797E+03  0.39780032619E+03  0.91466225349E+02 0.  0.
          5    1    1    2  502    0 -0.64076330446E+02  0.32038401894E+01  0.29746778999E+03  0.30433632579E+03  0.41800000000E+01 0. -1.
         -5    1    1    2    0  502  0.58673787734E+02  0.19892266026E+02  0.22384574988E+03  0.23229874678E+03  0.41800000000E+01 0. -1.
        -11    1    3    3    0    0 -0.36692423855E+02  0.91527723070E+01  0.21731626204E+03  0.22058210480E+03  0.00000000000E+00 0. -1.
         11    1    3    3    0    0  0.42094966567E+02 -0.32248878522E+02  0.16909855593E+03  0.17721822139E+03  0.00000000000E+00 0.  1.
</event>
<event>
 7    1  0.5137842E-006  0.1029718E+03  0.7561462E-02  0.1274168E+00
          2   -1    0    0  501    0  0.00000000000E+00  0.00000000000E+00  0.64217446565E+02  0.64217446565E+02  0.00000000000E+00 0. -1.
         -2   -1    0    0    0  501 -0.00000000000E+00 -0.00000000000E+00 -0.21996138375E+03  0.21996138375E+03  0.00000000000E+00 0.  1.
         23    2    1    2    0    0  0.12086682811E+02  0.53949098641E+02 -0.38673274701E+02  0.11065799661E+03  0.87709616868E+02 0.  0.
          5    1    1    2  502    0  0.34841867982E+02  0.27038347239E+00  0.12373391711E+01  0.35114559372E+02  0.41800000000E+01 0. -1.
         -5    1    1    2    0  502 -0.46928550793E+02 -0.54219482113E+02 -0.11830800165E+03  0.13840627434E+03  0.41800000000E+01 0.  1.
        -11    1    3    3    0    0  0.44435658866E+02  0.11961808886E+02 -0.17300775455E+01  0.46050036037E+02  0.00000000000E+00 0. -1.
         11    1    3    3    0    0 -0.32348976055E+02  0.41987289754E+02 -0.36943197156E+02  0.64607960568E+02  0.00000000000E+00 0.  1.
</event>
<event>
 7    1  0.5137842E-006  0.8026816E+02  0.7561462E-02  0.1328292E+00
          2   -1    0    0  501    0  0.00000000000E+00  0.00000000000E+00  0.20666447914E+03  0.20666447914E+03  0.00000000000E+00 0. -1.
         -2   -1    0    0    0  501 -0.00000000000E+00 -0.00000000000E+00 -0.70256623736E+02  0.70256623736E+02  0.00000000000E+00 0.  1.
         23    2    1    2    0    0  0.35972075802E+01 -0.46781445367E+02  0.84064661859E+02  0.13343412072E+03  0.92392389649E+02 0.  0.
          5    1    1    2  502    0  0.31482758985E+02  0.32821480446E+02 -0.28729594471E+02  0.53956238661E+02  0.41800000000E+01 0. -1.
         -5    1    1    2    0  502 -0.35079966565E+02  0.13959964921E+02  0.81072788018E+02  0.89530743501E+02  0.41800000000E+01 0. -1.
        -11    1    3    3    0    0 -0.28704697722E+02 -0.22025230239E+02 -0.40185207636E+01  0.36403556797E+02  0.00000000000E+00 0.  1.
         11    1    3    3    0    0  0.32301905302E+02 -0.24756215128E+02  0.88083182622E+02  0.97030563919E+02  0.00000000000E+00 0. -1.
</event>
<event>
 7    1  0.5137842E-006  0.1114630E+03  0.7561462E-02  0.1257884E+00
         -1   -1    0    0    0  501 -0.00000000000E+00  0.00000000000E+00  0.44771004377E+02  0.44771004377E+02  0.00000000000E+00 0.  1.
          1   -1    0    0  501    0  0.00000000000E+00 -0.00000000000E+00 -0.51991562552E+03  0.51991562552E+03  0.00000000000E+00 0. -1.
         23    2    1    2    0    0  0.81762468616E+02 -0.44335784860E+02 -0.31546007838E+03  0.34153157855E+03  0.92076028384E+02 0.  0.
          5    1    1    2  502    0 -0.83189248024E+01  0.61073050515E+01  0.21328914206E+02  0.24060313092E+02  0.41800000000E+01 0.  1.
         -5    1    1    2    0  502 -0.73443543813E+02  0.38228479809E+02 -0.18101345697E+03  0.19909473825E+03  0.41800000000E+01 0.  1.
        -11    1    3    3    0    0  0.10138631952E+03 -0.36437108530E+02 -0.28272602711E+03  0.30255719305E+03  0.00000000000E+00 0.  1.
         11    1    3    3    0    0 -0.19623850908E+02 -0.78986763302E+01 -0.32734051273E+02  0.38974385499E+02  0.00000000000E+00 0. -1.
</event>
<event>
 7    1  0.5137842E-006  0.1439618E+03  0.7561462E-02  0.1208095E+00
          2   -1    0    0  501    0  0.00000000000E+00  0.00000000000E+00  0.50741945473E+02  0.50741945473E+02  0.00000000000E+00 0. -1.
         -2   -1    0    0    0  501 -0.00000000000E+00 -0.00000000000E+00 -0.58144616055E+03  0.58144616055E+03  0.00000000000E+00 0.  1.
         23    2    1    2    0    0  0.10769970172E+03  0.47749827579E+01 -0.10547898329E+03  0.17602513835E+03  0.90757959463E+02 0.  0.
          5    1    1    2  502    0 -0.13210848596E+03 -0.21160641039E+02 -0.32103160944E+03  0.34782063115E+03  0.41800000000E+01 0.  1.
         -5    1    1    2    0  502  0.24408784239E+02  0.16385658281E+02 -0.10419362235E+03  0.10834233653E+03  0.41800000000E+01 0.  1.
        -11    1    3    3    0    0  0.57314995220E+02 -0.28480832598E+02 -0.95309296174E+02  0.11480430497E+03  0.00000000000E+00 0. -1.
         11    1    3    3    0    0  0.50384706498E+02  0.33255815355E+02 -0.10169687112E+02  0.61220833381E+02  0.00000000000E+00 0.  1.
</event>
<event>
 7    1  0.5137842E-006  0.2231749E+03  0.7561462E-02  0.1131538E+00
         -1   -1    0    0    0  501 -0.00000000000E+00  0.00000000000E+00  0.11057566520E+03  0.11057566520E+03  0.00000000000E+00 0.  1.
          1   -1    0    0  501    0  0.00000000000E+00 -0.00000000000E+00 -0.48826804886E+03  0.48826804886E+03  0.00000000000E+00 0. -1.
         23    2    1    2    0    0 -0.83593487479E+02  0.18042173672E+03 -0.11345560152E+03  0.24527980627E+03  0.88034854579E+02 0.  0.
          5    1    1    2  502    0  0.10634531026E+03 -0.17816573771E+03 -0.25443373899E+03  0.32833878090E+03  0.41800000000E+01 0.  1.
         -5    1    1    2    0  502 -0.22751822777E+02 -0.22559990022E+01 -0.98030431488E+01  0.25225126880E+02  0.41800000000E+01 0.  1.
        -11    1    3    3    0    0 -0.28791767723E+01  0.10521112859E+03 -0.39295081864E+02  0.11234667194E+03  0.00000000000E+00 0. -1.
         11    1    3    3    0    0 -0.80714310706E+02  0.75210608131E+02 -0.74160519656E+02  0.13293313433E+03  0.00000000000E+00 0.  1.
</event>
<event>
 7    1  0.5137842E-006  0.1183595E+03  0.7561462E-02  0.1245828E+00
          1   -1    0    0  501    0  0.00000000000E+00  0.00000000000E+00  0.23764161379E+02  0.23764161379E+02  0.00000000000E+00 0. -1.
         -1   -1    0    0    0  501 -0.00000000000E+00 -0.00000000000E+00 -0.63540678117E+03  0.63540678117E+03  0.00000000000E+00 0.  1.
         23    2    1    2    0    0  0.39834763583E+02 -0.41948043759E+02 -0.26820803886E+03  0.28911632963E+03  0.91138648135E+02 0.  0.
          5    1    1    2  502    0 -0.56650554461E+02 -0.27288818600E+02 -0.12065606587E+03  0.13612245801E+03  0.41800000000E+01 0. -1.
         -5    1    1    2    0  502  0.16815790878E+02  0.69236862360E+02 -0.22277851506E+03  0.23393215492E+03  0.41800000000E+01 0. -1.
        -11    1    3    3    0    0  0.33255873505E+02  0.20806968625E+02 -0.61097340164E+02  0.72606942099E+02  0.00000000000E+00 0. -1.
         11    1    3    3    0    0  0.65788900782E+01 -0.62755012384E+02 -0.20711069869E+03  0.21650938753E+03  0.00000000000E+00 0.  1.
</event>
<event>
 7    1  0.5137842E-006  0.1495538E+03  0.7561462E-02  0.1201022E+00
          1   -1    0    0  501    0  0.00000000000E+00  0.00000000000E+00  0.14230324649E+03  0.14230324649E+03  0.00000000000E+00 0. -1.
         -1   -1    0    0    0  501 -0.00000000000E+00 -0.00000000000E+00 -0.20962435404E+03  0.20962435404E+03  0.00000000000E+00 0.  1.
         23    2    1    2    0    0 -0.49830618939E+02  0.10257220402E+03  0.40900083371E+02  0.15101872251E+03  0.90164794164E+02 0.  0.
          5    1    1    2  502    0  0.22013907990E+02 -0.12074119748E+03 -0.11324469778E+03  0.16704754679E+03  0.41800000000E+01 0. -1.
         -5    1    1    2    0  502  0.27816710950E+02  0.18168993458E+02  0.50235068721E+01  0.33861331229E+02  0.41800000000E+01 0. -1.
        -11    1    3    3    0    0 -0.74570712008E+02  0.79254279743E+02  0.42878716129E+02  0.11696416649E+03  0.00000000000E+00 0.  1.
         11    1    3    3    0    0  0.24740093069E+02  0.23317924277E+02 -0.19786327580E+01  0.34054556013E+02  0.00000000000E+00 0. -1.
</event>
<event>
 7    1  0.5137842E-006  0.1068679E+03  0.7561462E-02  0.1266483E+00
          1   -1    0    0  501    0  0.00000000000E+00  0.00000000000E+00  0.40838650549E+03  0.40838650549E+03  0.00000000000E+00 0. -1.
         -1   -1    0    0    0  501 -0.00000000000E+00 -0.00000000000E+00 -0.37968106428E+02  0.37968106428E+02  0.00000000000E+00 0.  1.
         23    2    1    2    0    0 -0.43937532494E+02  0.45042471251E+02  0.16544411095E+03  0.19811833079E+03  0.88993191686E+02 0.  0.
          5    1    1    2  502    0 -0.36941402637E+01 -0.57997525187E+02  0.18645923832E+03  0.19535065793E+03  0.41800000000E+01 0. -1.
         -5    1    1    2    0  502  0.47631672757E+02  0.12955053936E+02  0.18515049786E+02  0.52885623195E+02  0.41800000000E+01 0. -1.
        -11    1    3    3    0    0 -0.91366488309E+01  0.65117838268E+02  0.12424668725E+03  0.14057400366E+03  0.00000000000E+00 0. -1.
         11    1    3    3    0    0 -0.34800883663E+02 -0.20075367018E+02  0.41197423704E+02  0.57544327127E+02  0.00000000000E+00 0.  1.
</event>
<event>
 7    1  0.5137842E-006  0.1182302E+03  0.7561462E-02  0.1246045E+00
         -2   -1    0    0    0  501 -0.00000000000E+00  0.00000000000E+00  0.46028785655E+02  0.46028785655E+02  0.00000000000E+00 0.  1.
          2   -1    0    0  501    0  0.00000000000E+00 -0.00000000000E+00 -0.56615151275E+03  0.56615151275E+03  0.00000000000E+00 0. -1.
         23    2    1    2    0    0  0.45598727934E+02  0.52407056294E+02 -0.37731196415E+03  0.39435940073E+03  0.91264862399E+02 0.  0.
          5    1    1    2  502    0 -0.51452612793E+01  0.29545734433E+02 -0.11968286920E+03  0.12345398218E+03  0.41800000000E+01 0. -1.
         -5    1    1    2    0  502 -0.40453466655E+02 -0.81952790727E+02 -0.23127893748E+02  0.94366915503E+02  0.41800000000E+01 0.  1.
        -11    1    3    3    0    0  0.43977958492E+02 -0.15601552483E+02 -0.15188791942E+03  0.15889433388E+03  0.00000000000E+00 0. -1.
         11    1    3    3    0    0  0.16207694419E+01  0.68008608776E+02 -0.22542404474E+03  0.23546506685E+03  0.00000000000E+00 0.  1.
</event>
<event>
 7    1  0.5137842E-006  0.1136791E+03  0.7561462E-02  0.1253905E+00
         -2   -1    0    0    0  501 -0.00000000000E+00  0.00000000000E+00  0.49947756749E+02  0.49947756749E+02  0.00000000000E+00 0.  1.
          2   -1    0    0  501    0  0.00000000000E+00 -0.00000000000E+00 -0.41133650793E+03  0.41133650793E+03  0.00000000000E+00 0. -1.
         23    2    1    2    0    0  0.62372890184E+02  0.73427401530E+02 -0.18590909115E+03  0.22523004939E+03  0.82972430661E+02 0.  0.
          5    1    1    2  502    0 -0.19118274109E+02 -0.58710120461E+02 -0.79964132973E+01  0.62400333934E+02  0.41800000000E+01 0.  1.
         -5    1    1    2    0  502 -0.43254616075E+02 -0.14717281069E+02 -0.16748324673E+03  0.17365388135E+03  0.41800000000E+01 0.  1.
        -11    1    3    3    0    0  0.17159265689E+02  0.72358742188E+02 -0.75767994041E+02  0.10616504552E+03  0.00000000000E+00 0. -1.
         11    1    3    3    0    0  0.45213624495E+02  0.10686593414E+01 -0.11014109711E+03  0.11906500386E+03  0.00000000000E+00 0.  1.
</event>
<event>
 7    1  0.5137842E-006  0.1236405E+03  0.7561462E-02  0.1237209E+00
          2   -1    0    0  501    0  0.00000000000E+00  0.00000000000E+00  0.23266442343E+03  0.23266442343E+03  0.00000000000E+00 0. -1.
         -2   -1    0    0    0  501 -0.00000000000E+00 -0.00000000000E+00 -0.68838115644E+02  0.68838115644E+02  0.00000000000E+00 0.  1.
         23    2    1    2    0    0  0.61458769100E+02  0.28645911617E+02  0.63438027414E+02  0.12736912438E+03  0.87182234265E+02 0.  0.
          5    1    1    2  502    0 -0.98358166014E+02 -0.11837261814E+02  0.84868261360E+02  0.13051645021E+03  0.41800000000E+01 0.  1.
         -5    1    1    2    0  502  0.36899396914E+02 -0.16808649803E+02  0.15520019013E+02  0.43616964486E+02  0.41800000000E+01 0.  1.
        -11    1    3    3    0    0 -0.19657642765E+02 -0.37575760513E+01  0.24767336495E+02  0.31842789670E+02  0.00000000000E+00 0.  1.
         11    1    3    3    0    0  0.81116411866E+02  0.32403487668E+02  0.38670690919E+02  0.95526334710E+02  0.00000000000E+00 0. -1.
</event>
<event>
 7    1  0.5137842E-006  0.1141508E+03  0.7561462E-02  0.1253071E+00
         -1   -1    0    0    0  501 -0.00000000000E+00  0.00000000000E+00  0.61032717508E+02  0.61032717508E+02  0.00000000000E+00 0.  1.
          1   -1    0    0  501    0  0.00000000000E+00 -0.00000000000E+00 -0.27792873589E+03  0.27792873589E+03  0.00000000000E+00 0. -1.
         23    2    1    2    0    0 -0.39806757143E+02 -0.44255654959E+02 -0.10874551700E+03  0.15508480606E+03  0.93180302069E+02 0.  0.
          5    1    1    2  502    0 -0.33071672712E+02  0.19374004354E+01  0.13341875104E+02  0.35957851545E+02  0.41800000000E+01 0. -1.
         -5    1    1    2    0  502  0.72878429855E+02  0.42318254524E+02 -0.12149237649E+03  0.14791879579E+03  0.41800000000E+01 0.  1.
        -11    1    3    3    0    0 -0.68500484589E+02 -0.16173185305E+02 -0.71162674764E+02  0.10009003243E+03  0.00000000000E+00 0. -1.
         11    1    3    3    0    0  0.28693727446E+02 -0.28082469654E+02 -0.37582842237E+02  0.54994773635E+02  0.00000000000E+00 0.  1.
</event>
<event>
 7    1  0.5137842E-006  0.1683169E+03  0.7561462E-02  0.1179615E+00
         -2   -1    0    0    0  501 -0.00000000000E+00  0.00000000000E+00  0.33586995230E+02  0.33586995230E+02  0.00000000000E+00 0. -1.
          2   -1    0    0  501    0  0.00000000000E+00 -0.00000000000E+00 -0.97666445886E+03  0.97666445886E+03  0.00000000000E+00 0.  1.
         23    2    1    2    0    0  0.22421765878E+01 -0.14526296265E+03 -0.43892043208E+03  0.47087205101E+03  0.89235570552E+02 0.  0.
          5    1    1    2  502    0  0.13257153458E+02  0.15123257825E+03 -0.49884002198E+03  0.52144595576E+03  0.41800000000E+01 0.  1.
         -5    1    1    2    0  502 -0.15499330045E+02 -0.59696155970E+01 -0.53170095689E+01  0.17933447326E+02  0.41800000000E+01 0.  1.
        -11    1    3    3    0    0  0.30770704274E+02 -0.14899778915E+02 -0.58919589099E+02  0.68120170529E+02  0.00000000000E+00 0. -1.
         11    1    3    3    0    0 -0.28528527686E+02 -0.13036318374E+03 -0.38000084298E+03  0.40275188048E+03  0.00000000000E+00 0.  1.
</event>
<event>
 7    1  0.5137842E-006  0.1334701E+03  0.7561462E-02  0.1222396E+00
         -1   -1    0    0    0  501 -0.00000000000E+00  0.00000000000E+00  0.25867732275E+02  0.25867732275E+02  0.00000000000E+00 0.  1.
          1   -1    0    0  501    0  0.00000000000E+00 -0.00000000000E+00 -0.74875411583E+03  0.74875411583E+03  0.00000000000E+00 0. -1.
         23    2    1    2    0    0  0.60015629422E+02  0.56519576834E+02 -0.40332293024E+03  0.42168412387E+03  0.91388051369E+02 0.  0.
          5    1    1    2  502    0 -0.95907046843E+01 -0.89049017723E+02 -0.19102307725E+03  0.21101895084E+03  0.41800000000E+01 0. -1.
         -5    1    1    2    0  502 -0.50424924737E+02  0.32529440889E+02 -0.12854037607E+03  0.14191877339E+03  0.41800000000E+01 0. -1.
        -11    1    3    3    0    0  0.15741783761E+02 -0.21960221384E+02 -0.15890552200E+03  0.16118628974E+03  0.00000000000E+00 0. -1.
         11    1    3    3    0    0  0.44273845661E+02  0.78479798218E+02 -0.24441740824E+03  0.26049783413E+03  0.00000000000E+00 0.  1.
</event>
<event>
 7    1  0.5137842E-006  0.1575183E+03  0.7561462E-02  0.1191527E+00
         -2   -1    0    0    0  501 -0.00000000000E+00  0.00000000000E+00  0.19922406513E+02  0.19922406513E+02  0.00000000000E+00 0.  1.
          2   -1    0    0  501    0  0.00000000000E+00 -0.00000000000E+00 -0.13553727742E+04  0.13553727742E+04  0.00000000000E+00 0. -1.
         23    2    1    2    0    0  0.11693618965E+03 -0.36490828336E+02 -0.62143424924E+03  0.64012724906E+03  0.92610560131E+02 0.  0.
          5    1    1    2  502    0 -0.13554395674E+03  0.52398071145E+02 -0.65839137001E+03  0.67425098486E+03  0.41800000000E+01 0. -1.
         -5    1    1    2    0  502  0.18607767096E+02 -0.15907242809E+02 -0.55624748455E+02  0.60916946827E+02  0.41800000000E+01 0. -1.
        -11    1    3    3    0    0 -0.35290465319E+00 -0.27160545611E+02 -0.52029225863E+02  0.58692930780E+02  0.00000000000E+00 0.  1.
         11    1    3    3    0    0  0.11728909430E+03 -0.93302827252E+01 -0.56940502338E+03  0.58143431828E+03  0.00000000000E+00 0. -1.
</event>
<event>
 7    1  0.5137842E-006  0.1005724E+03  0.7561462E-02  0.1279097E+00
          1   -1    0    0  501    0  0.00000000000E+00  0.00000000000E+00  0.13359509160E+03  0.13359509160E+03  0.00000000000E+00 0. -1.
         -1   -1    0    0    0  501 -0.00000000000E+00 -0.00000000000E+00 -0.90334962435E+02  0.90334962435E+02  0.00000000000E+00 0.  1.
         23    2    1    2    0    0 -0.16142518428E+02  0.75789994416E+01  0.26259921732E+02  0.96442650794E+02  0.91069090635E+02 0.  0.
          5    1    1    2  502    0 -0.45909554076E+02 -0.14208171618E+02  0.38109121451E+02  0.61476311161E+02  0.41800000000E+01 0.  1.
         -5    1    1    2    0  502  0.62052072504E+02  0.66291721762E+01 -0.21108914022E+02  0.66011092075E+02  0.41800000000E+01 0.  1.
        -11    1    3    3    0    0  0.29506265868E+02  0.27702533384E+02  0.90815108551E+00  0.40483018906E+02  0.00000000000E+00 0.  1.
         11    1    3    3    0    0 -0.45648784297E+02 -0.20123533942E+02  0.25351770646E+02  0.55959631887E+02  0.00000000000E+00 0. -1.
</event>
<event>
 7    1  0.5137842E-006  0.8597802E+02  0.7561462E-02  0.1312895E+00
          2   -1    0    0  501    0  0.00000000000E+00  0.00000000000E+00  0.49051177577E+03  0.49051177577E+03  0.00000000000E+00 0. -1.
         -2   -1    0    0    0  501 -0.00000000000E+00 -0.00000000000E+00 -0.35007229901E+02  0.35007229901E+02  0.00000000000E+00 0.  1.
         23    2    1    2    0    0 -0.71512670169E+02  0.18897716680E+02  0.19478958928E+03  0.22703740794E+03  0.90176575796E+02 0.  0.
          5    1    1    2  502    0  0.27023378666E+02 -0.18361076547E+02  0.25047972289E+03  0.25263601506E+03  0.41800000000E+01 0. -1.
         -5    1    1    2    0  502  0.44489291504E+02 -0.53664013318E+00  0.10235233693E+02  0.45845582665E+02  0.41800000000E+01 0. -1.
        -11    1    3    3    0    0 -0.26166390845E+02  0.37157065016E+02  0.28340847215E+02  0.53558669805E+02  0.00000000000E+00 0.  1.
         11    1    3    3    0    0 -0.45346279325E+02 -0.18259348335E+02  0.16644874207E+03  0.17347873814E+03  0.00000000000E+00 0. -1.
</event>
<event>
 7    1  0.5137842E-006  0.1476371E+03  0.7561462E-02  0.1203407E+00
          2   -1    0    0  501    0  0.00000000000E+00  0.00000000000E+00  0.45202657259E+03  0.45202657259E+03  0.00000000000E+00 0. -1.
         -2   -1    0    0    0  501 -0.00000000000E+00 -0.00000000000E+00 -0.65767332245E+02  0.65767332245E+02  0.00000000000E+00 0.  1.
         23    2    1    2    0    0  0.62215703342E+02  0.83508458697E+02  0.29808736580E+03  0.33268312253E+03  0.10477368919E+03 0.  0.
          5    1    1    2  502    0  0.36628420636E+02 -0.10851688660E+02  0.10444111664E+02  0.39824015537E+02  0.41800000000E+01 0.  1.
         -5    1    1    2    0  502 -0.98844123978E+02 -0.72656770037E+02  0.77727762877E+02  0.14528676677E+03  0.41800000000E+01 0.  1.
        -11    1    3    3    0    0  0.71734331597E+02  0.95085865208E+02  0.29390355800E+03  0.31712211764E+03  0.00000000000E+00 0. -1.
         11    1    3    3    0    0 -0.95186282549E+01 -0.11577406511E+02  0.41838078072E+01  0.15561004888E+02  0.00000000000E+00 0.  1.
</event>
<event>
 7    1  0.5137842E-006  0.7986199E+02  0.7561462E-02  0.1329444E+00
          1   -1    0    0  501    0  0.00000000000E+00  0.00000000000E+00  0.37201959657E+03  0.37201959657E+03  0.00000000000E+00 0. -1.
         -1   -1    0    0    0  501 -0.00000000000E+00 -0.00000000000E+00 -0.33930392237E+02  0.33930392237E+02  0.00000000000E+00 0.  1.
         23    2    1    2    0    0  0.35458125436E+01 -0.31074461312E+02  0.13558789636E+03  0.16588148216E+03  0.90301680777E+02 0.  0.
          5    1    1    2  502    0  0.27709129132E+02  0.15176844631E+02 -0.25763799709E+01  0.31972528582E+02  0.41800000000E+01 0. -1.
         -5    1    1    2    0  502 -0.31254941676E+02  0.15897616681E+02  0.20507768795E+03  0.20809597807E+03  0.41800000000E+01 0. -1.
        -11    1    3    3    0    0  0.44814320346E+02 -0.23434420511E+02  0.94315865195E+02  0.10701858624E+03  0.00000000000E+00 0. -1.
         11    1    3    3    0    0 -0.41268507803E+02 -0.76400408006E+01  0.41272031168E+02  0.58862895923E+02  0.00000000000E+00 0.  1.
</event>
<event>
 7    1  0.5137842E-006  0.9800836E+02  0.7561462E-02  0.1284541E+00
          3   -1    0    0  501    0  0.00000000000E+00  0.00000000000E+00  0.67396140006E+02  0.67396140006E+02  0.00000000000E+00 0. -1.
         -3   -1    0    0    0  501 -0.00000000000E+00 -0.00000000000E+00 -0.24087182182E+03  0.24087182182E+03  0.00000000000E+00 0.  1.
         23    2    1    2    0    0 -0.16925734214E+02 -0.64432428641E+02 -0.40226755441E+02  0.12015115774E+03  0.91542834309E+02 0.  0.
          5    1    1    2  502    0  0.32801671754E+02  0.67515071746E+02 -0.25957702500E+02  0.79533070492E+02  0.41800000000E+01 0. -1.
         -5    1    1    2    0  502 -0.15875937540E+02 -0.30826431051E+01 -0.10729122387E+03  0.10858373359E+03  0.41800000000E+01 0.  1.
        -11    1    3    3    0    0  0.19683596990E+02 -0.64592744294E+02 -0.47844590802E+02  0.82757304662E+02  0.00000000000E+00 0.  1.
         11    1    3    3    0    0 -0.36609331204E+02  0.16031565292E+00  0.76178353612E+01  0.37393853076E+02  0.00000000000E+00 0. -1.
</event>
<event>
 7    1  0.5137842E-006  0.1285918E+03  0.7561462E-02  0.1229560E+00
         -1   -1    0    0    0  501 -0.00000000000E+00  0.00000000000E+00  0.33845181341E+02  0.33845181341E+02  0.00000000000E+00 0. -1.
          1   -1    0    0  501    0  0.00000000000E+00 -0.00000000000E+00 -0.54721758022E+03  0.54721758022E+03  0.00000000000E+00 0.  1.
         23    2    1    2    0    0  0.54755517361E+02 -0.46921831719E+02 -0.31840960372E+03  0.33845584139E+03  0.89262847000E+02 0.  0.
          5    1    1    2  502    0 -0.26829042172E+02 -0.41879648981E+02 -0.83978480140E+02  0.97691146115E+02  0.41800000000E+01 0. -1.
         -5    1    1    2    0  502 -0.27926475189E+02  0.88801480700E+02 -0.11098431501E+03  0.14491577406E+03  0.41800000000E+01 0. -1.
        -11    1    3    3    0    0  0.98588184993E+01 -0.64960232773E+02 -0.16515774904E+03  0.17774732125E+03  0.00000000000E+00 0. -1.
         11    1    3    3    0    0  0.44896698862E+02  0.18038401054E+02 -0.15325185468E+03  0.16070852014E+03  0.00000000000E+00 0.  1.
</event>
<event>
 7    1  0.5137842E-006  0.1357473E+03  0.7561462E-02  0.1219169E+00
          1   -1    0    0  501    0  0.00000000000E+00  0.00000000000E+00  0.10995548720E+04  0.10995548720E+04  0.00000000000E+00 0. -1.
         -1   -1    0    0    0  501 -0.00000000000E+00 -0.00000000000E+00 -0.19375361726E+02  0.19375361726E+02  0.00000000000E+00 0.  1.
         23    2    1    2    0    0  0.25375569180E+02  0.95989185489E+02  0.51784381925E+03  0.53435369273E+03  0.86682204373E+02 0.  0.
          5    1    1    2  502    0  0.33741294104E+02 -0.64418612358E+02  0.14933302850E+03  0.16615070974E+03  0.41800000000E+01 0.  1.
         -5    1    1    2    0  502 -0.59116863285E+02 -0.31570573131E+02  0.41300266254E+03  0.41842583127E+03  0.41800000000E+01 0.  1.
        -11    1    3    3    0    0  0.41918006678E+02  0.88914632112E+01  0.15235783611E+03  0.15826903559E+03  0.00000000000E+00 0. -1.
         11    1    3    3    0    0 -0.16542437498E+02  0.87097722277E+02  0.36548598314E+03  0.37608465714E+03  0.00000000000E+00 0.  1.
</event>
<event>
 7    1  0.5137842E-006  0.1017283E+03  0.7561462E-02  0.1276703E+00
          2   -1    0    0  501    0  0.00000000000E+00  0.00000000000E+00  0.31506000219E+03  0.31506000219E+03  0.00000000000E+00 0. -1.
         -2   -1    0    0    0  501 -0.00000000000E+00 -0.00000000000E+00 -0.62103011895E+02  0.62103011895E+02  0.00000000000E+00 0.  1.
         23    2    1    2    0    0 -0.49510440573E+02 -0.60604029746E+02  0.16961390263E+03  0.20769951620E+03  0.90807934222E+02 0.  0.
          5    1    1    2  502    0  0.67483038740E+02  0.55405148727E+02  0.36423678627E+01  0.87489600906E+02  0.41800000000E+01 0.  1.
         -5    1    1    2    0  502 -0.17972598167E+02  0.51988810183E+01  0.79700719807E+02  0.81973896982E+02  0.41800000000E+01 0.  1.
        -11    1    3    3    0    0 -0.24812480716E+02 -0.66926302961E+02  0.54525107477E+02  0.89820802561E+02  0.00000000000E+00 0.  1.
         11    1    3    3    0    0 -0.24697959857E+02  0.63222732157E+01  0.11508879515E+03  0.11787871364E+03  0.00000000000E+00 0. -1.
</event>
<event>
 7    1  0.5137842E-006  0.1557261E+03  0.7561462E-02  0.1193608E+00
         -1   -1    0    0    0  501 -0.00000000000E+00  0.00000000000E+00  0.22222992198E+03  0.22222992198E+03  0.00000000000E+00 0.  1.
          1   -1    0    0  501    0  0.00000000000E+00 -0.00000000000E+00 -0.15845256575E+03  0.15845256575E+03  0.00000000000E+00 0. -1.
         23    2    1    2    0    0 -0.11269901361E+03 -0.64094379016E+02 -0.52103804839E+02  0.16647033826E+03  0.90489833418E+02 0.  0.
          5    1    1    2  502    0  0.77473915664E+01 -0.31476797209E+02  0.44668141124E+02  0.55349128901E+02  0.41800000000E+01 0.  1.
         -5    1    1    2    0  502  0.10495162204E+03  0.95571176225E+02  0.71213019943E+02  0.15886302057E+03  0.41800000000E+01 0.  1.
        -11    1    3    3    0    0  0.17062602150E+01 -0.10118190458E+02  0.18827355969E+02  0.21441978333E+02  0.00000000000E+00 0.  1.
         11    1    3    3    0    0 -0.11440527382E+03 -0.53976188558E+02 -0.70931160807E+02  0.14502835993E+03  0.00000000000E+00 0. -1.
</event>
<event>
 7    1  0.5137842E-006  0.1020800E+03  0.7561462E-02  0.1275982E+00
          2   -1    0    0  501    0  0.00000000000E+00  0.00000000000E+00  0.24811830876E+03  0.24811830876E+03  0.00000000000E+00 0.  1.
         -2   -1    0    0    0  501 -0.00000000000E+00 -0.00000000000E+00 -0.63971236017E+02  0.63971236017E+02  0.00000000000E+00 0. -1.
         23    2    1    2    0    0  0.41998684514E+02  0.86474580704E+01  0.13419009201E+03  0.17073662988E+03  0.96464231481E+02 0.  0.
          5    1    1    2  502    0  0.56056674200E+01  0.52643976708E+02  0.10282413831E+02  0.54092626346E+02  0.41800000000E+01 0. -1.
         -5    1    1    2    0  502 -0.47604351934E+02 -0.61291434778E+02  0.39674566902E+02  0.87260288557E+02  0.41800000000E+01 0. -1.
        -11    1    3    3    0    0 -0.27945142111E+01  0.25368583164E+02 -0.27689450574E+01  0.25671801226E+02  0.00000000000E+00 0. -1.
         11    1    3    3    0    0  0.44793198725E+02 -0.16721125094E+02  0.13695903707E+03  0.14506482865E+03  0.00000000000E+00 0.  1.
</event>
<event>
 7    1  0.5137842E-006  0.1236648E+03  0.7561462E-02  0.1237171E+00
          1   -1    0    0  501    0  0.00000000000E+00  0.00000000000E+00  0.62922773074E+03  0.62922773074E+03  0.00000000000E+00 0. -1.
         -1   -1    0    0    0  501 -0.00000000000E+00 -0.00000000000E+00 -0.26526365353E+02  0.26526365353E+02  0.00000000000E+00 0.  1.
         23    2    1    2    0    0 -0.40486008886E+02 -0.56182529871E+02  0.28767428057E+03  0.30979895863E+03  0.91778589482E+02 0.  0.
          5    1    1    2  502    0  0.79929589391E+02  0.58372540051E+02  0.25879018719E+03  0.27710273560E+03  0.41800000000E+01 0.  1.
         -5    1    1    2    0  502 -0.39443580504E+02 -0.21900101793E+01  0.56236897623E+02  0.68852401860E+02  0.41800000000E+01 0.  1.
        -11    1    3    3    0    0  0.76926104111E+01 -0.59738309460E+02  0.20872647760E+03  0.21724314563E+03  0.00000000000E+00 0. -1.
         11    1    3    3    0    0 -0.48178619297E+02  0.35557795889E+01  0.78947802971E+02  0.92555812998E+02  0.00000000000E+00 0.  1.
</event>
<event>
 7    1  0.5137842E-006  0.1250085E+03  0.7561462E-02  0.1235056E+00
         -1   -1    0    0    0  501 -0.00000000000E+00  0.00000000000E+00  0.16517282517E+03  0.16517282517E+03  0.00000000000E+00 0. -1.
          1   -1    0    0  501    0  0.00000000000E+00 -0.00000000000E+00 -0.14731973891E+03  0.14731973891E+03  0.00000000000E+00 0.  1.
         23    2    1    2    0    0  0.12187780255E+02 -0.98215503842E+02 -0.44191164208E+02  0.14134415741E+03  0.90722018590E+02 0.  0.
          5    1    1    2  502    0  0.17442356304E+02 -0.12389058146E+02 -0.20505542818E+02  0.29927817185E+02  0.41800000000E+01 0.  1.
         -5    1    1    2    0  502 -0.29630136559E+02  0.11060456199E+03  0.82549793285E+02  0.14122058949E+03  0.41800000000E+01 0.  1.
        -11    1    3    3    0    0 -0.19129983148E+02 -0.13768094062E+02  0.19862370687E+02  0.30822563792E+02  0.00000000000E+00 0. -1.
         11    1    3    3    0    0  0.31317763403E+02 -0.84447409780E+02 -0.64053534895E+02  0.11052159362E+03  0.00000000000E+00 0.  1.
</event>
<event>
 7    1  0.5137842E-006  0.8995148E+02  0.7561462E-02  0.1302969E+00
          1   -1    0    0  501    0  0.00000000000E+00  0.00000000000E+00  0.19064508611E+03  0.19064508611E+03  0.00000000000E+00 0. -1.
         -1   -1    0    0    0  501 -0.00000000000E+00 -0.00000000000E+00 -0.57112248941E+02  0.57112248941E+02  0.00000000000E+00 0.  1.
         23    2    1    2    0    0 -0.14602091203E+02  0.45368270258E+02  0.54137800861E+02  0.92118630801E+02  0.57301305786E+02 0.  0.
          5    1    1    2  502    0  0.42186216201E+01 -0.85362860406E+02  0.75162069109E+02  0.11389215837E+03  0.41800000000E+01 0.  1.
         -5    1    1    2    0  502  0.10383469583E+02  0.39994590148E+02  0.42329671981E+01  0.41746545881E+02  0.41800000000E+01 0.  1.
        -11    1    3    3    0    0 -0.23403002701E+01  0.38841079661E+02  0.64126860393E+02  0.75009070774E+02  0.00000000000E+00 0. -1.
         11    1    3    3    0    0 -0.12261790933E+02  0.65271905963E+01 -0.99890595314E+01  0.17109560026E+02  0.00000000000E+00 0.  1.
</event>
<event>
 7    1  0.5137842E-006  0.1731016E+03  0.7561462E-02  0.1174651E+00
         -1   -1    0    0    0  501 -0.00000000000E+00  0.00000000000E+00  0.65011715160E+02  0.65011715160E+02  0.00000000000E+00 0.  1.
          1   -1    0    0  501    0  0.00000000000E+00 -0.00000000000E+00 -0.53491404899E+03  0.53491404899E+03  0.00000000000E+00 0. -1.
         23    2    1    2    0    0  0.12748222864E+03  0.64948059104E+02 -0.30237517055E+03  0.34658337293E+03  0.90660474421E+02 0.  0.
          5    1    1    2  502    0 -0.41519579548E+02 -0.79273842464E+02 -0.38323734099E+02  0.97439204534E+02  0.41800000000E+01 0. -1.
         -5    1    1    2    0  502 -0.85962649093E+02  0.14325783360E+02 -0.12920342918E+03  0.15590318669E+03  0.41800000000E+01 0. -1.
        -11    1    3    3    0    0  0.12476034080E+03  0.22426495628E+02 -0.22461616390E+03  0.25791570605E+03  0.00000000000E+00 0.  1.
         11    1    3    3    0    0  0.27218878441E+01  0.42521563476E+02 -0.77759006649E+02  0.88667666874E+02  0.00000000000E+00 0. -1.
</event>
<event>
 7    1  0.5137842E-006  0.2894979E+03  0.7561462E-02  0.1090612E+00
         -1   -1    0    0    0  501 -0.00000000000E+00  0.00000000000E+00  0.41201762655E+03  0.41201762655E+03  0.00000000000E+00 0.  1.
          1   -1    0    0  501    0  0.00000000000E+00 -0.00000000000E+00 -0.20552228444E+03  0.20552228444E+03  0.00000000000E+00 0. -1.
         23    2    1    2    0    0 -0.25291364064E+03 -0.93702943457E+02  0.93878669862E+02  0.29961778606E+03  0.90620427236E+02 0.  0.
          5    1    1    2  502    0  0.25949424777E+03  0.65222383957E+02  0.98042559315E+02  0.28499305225E+03  0.41800000000E+01 0.  1.
         -5    1    1    2    0  502 -0.65806071282E+01  0.28480559500E+02  0.14574112941E+02  0.32929072681E+02  0.41800000000E+01 0.  1.
        -11    1    3    3    0    0 -0.23020439427E+03 -0.54505728261E+02  0.93331033904E+02  0.25431401740E+03  0.00000000000E+00 0.  1.
         11    1    3    3    0    0 -0.22709246373E+02 -0.39197215196E+02  0.54763595754E+00  0.45303768664E+02  0.00000000000E+00 0. -1.
</event>
<event>
 7    1  0.5137842E-006  0.9104972E+02  0.7561462E-02  0.1300329E+00
         -4   -1    0    0    0  501 -0.00000000000E+00  0.00000000000E+00  0.16608564290E+03  0.16608564290E+03  0.00000000000E+00 0. -1.
          4   -1    0    0  501    0  0.00000000000E+00 -0.00000000000E+00 -0.70733247488E+02  0.70733247488E+02  0.00000000000E+00 0.  1.
         23    2    1    2    0    0  0.59514451018E+01 -0.20387864667E+01  0.28385399660E+02  0.94791033438E+02  0.90222130086E+02 0.  0.
          5    1    1    2  502    0  0.40048445335E+02 -0.23476755978E+02  0.75346774632E+02  0.88598221723E+02  0.41800000000E+01 0. -1.
         -5    1    1    2    0  502 -0.45999890437E+02  0.25515542445E+02 -0.83797788797E+01  0.53429635228E+02  0.41800000000E+01 0. -1.
        -11    1    3    3    0    0 -0.58078408224E+01 -0.41315428105E+02 -0.48638754883E+01  0.42004200972E+02  0.00000000000E+00 0.  1.
         11    1    3    3    0    0  0.11759285924E+02  0.39276641639E+02  0.33249275148E+02  0.52786832466E+02  0.00000000000E+00 0. -1.
</event>
<event>
 7    1  0.5137842E-006  0.8829018E+02  0.7561462E-02  0.1307046E+00
         -2   -1    0    0    0  501 -0.00000000000E+00  0.00000000000E+00  0.41783453566E+02  0.41783453566E+02  0.00000000000E+00 0.  1.
          2   -1    0    0  501    0  0.00000000000E+00 -0.00000000000E+00 -0.33280307989E+03  0.33280307989E+03  0.00000000000E+00 0. -1.
         23    2    1    2    0    0 -0.12781831852E+02 -0.31036360612E+01 -0.18145787027E+03  0.20372459112E+03  0.91671928979E+02 0.  0.
          5    1    1    2  502    0  0.21877882193E+02  0.41168096809E+02 -0.12111283213E+03  0.12984315319E+03  0.41800000000E+01 0. -1.
         -5    1    1    2    0  502 -0.90960503405E+01 -0.38064460748E+02  0.11551076080E+02  0.41018789139E+02  0.41800000000E+01 0.  1.
        -11    1    3    3    0    0  0.16123265470E+02 -0.40242689601E+02 -0.65145557354E+02  0.78252012107E+02  0.00000000000E+00 0. -1.
         11    1    3    3    0    0 -0.28905097323E+02  0.37139053540E+02 -0.11631231292E+03  0.12547257902E+03  0.00000000000E+00 0.  1.
</event>
<event>
 7    1  0.5137842E-006  0.2354904E+03  0.7561462E-02  0.1122834E+00
         -2   -1    0    0    0  501 -0.00000000000E+00  0.00000000000E+00  0.16143190297E+03  0.16143190297E+03  0.00000000000E+00 0.  1.
          2   -1    0    0  501    0  0.00000000000E+00 -0.00000000000E+00 -0.43997151496E+03  0.43997151496E+03  0.00000000000E+00 0. -1.
         23    2    1    2    0    0 -0.83450072883E+01  0.65972627008E-02 -0.14329287136E+03  0.17031498534E+03  0.91677194866E+02 0.  0.
          5    1    1    2  502    0 -0.19482968065E+03 -0.16429154879E+02 -0.19227315315E+02  0.19650873682E+03  0.41800000000E+01 0. -1.
         -5    1    1    2    0  502  0.20317468794E+03  0.16422557616E+02 -0.11601942531E+03  0.23457969577E+03  0.41800000000E+01 0.  1.
        -11    1    3    3    0    0 -0.38912224599E+02 -0.84503293057E+01 -0.23156906210E+02  0.46063126184E+02  0.00000000000E+00 0.  1.
         11    1    3    3    0    0  0.30567217311E+02  0.84569265684E+01 -0.12013596515E+03  0.12425185916E+03  0.00000000000E+00 0. -1.
</event>
<event>
 7    1  0.5137842E-006  0.1628862E+03  0.7561462E-02  0.1185476E+00
          2   -1    0    0  501    0  0.00000000000E+00  0.00000000000E+00  0.15342235619E+03  0.15342235619E+03  0.00000000000E+00 0. -1.
         -2   -1    0    0    0  501 -0.00000000000E+00 -0.00000000000E+00 -0.22144284293E+03  0.22144284293E+03  0.00000000000E+00 0.  1.
         23    2    1    2    0    0 -0.63459551628E+02 -0.10478618168E+03  0.53378781216E+02  0.16181000618E+03  0.91246508163E+02 0.  0.
          5    1    1    2  502    0  0.53908958894E+02 -0.13901310643E+02 -0.35222313299E+02  0.66011408414E+02  0.41800000000E+01 0. -1.
         -5    1    1    2    0  502  0.95505927338E+01  0.11868749232E+03 -0.86176954654E+02  0.14704378453E+03  0.41800000000E+01 0. -1.
        -11    1    3    3    0    0 -0.50151718020E+02 -0.12031417725E+03  0.36688113576E+02  0.13541312250E+03  0.00000000000E+00 0.  1.
         11    1    3    3    0    0 -0.13307833608E+02  0.15527995570E+02  0.16690667640E+02  0.26396883681E+02  0.00000000000E+00 0. -1.
</event>
<event>
 7    1  0.5137842E-006  0.1216826E+03  0.7561462E-02  0.1240347E+00
          1   -1    0    0  501    0  0.00000000000E+00  0.00000000000E+00  0.10497814678E+03  0.10497814678E+03  0.00000000000E+00 0. -1.
         -1   -1    0    0    0  501 -0.00000000000E+00 -0.00000000000E+00 -0.27478566644E+03  0.27478566644E+03  0.00000000000E+00 0.  1.
         23    2    1    2    0    0  0.84979859194E+02 -0.67658059564E+00  0.31064908887E+02  0.12832951389E+03  0.91002205142E+02 0.  0.
          5    1    1    2  502    0 -0.11271081907E+02 -0.38250106291E+02 -0.14634927800E+03  0.15174218757E+03  0.41800000000E+01 0.  1.
         -5    1    1    2    0  502 -0.73708777287E+02  0.38926686886E+02 -0.54523150549E+02  0.99692111758E+02  0.41800000000E+01 0.  1.
        -11    1    3    3    0    0  0.99211174393E+02  0.13015295398E+02  0.11823725055E+02  0.10075740922E+03  0.00000000000E+00 0.  1.
         11    1    3    3    0    0 -0.14231315199E+02 -0.13691875994E+02  0.19241183832E+02  0.27572104667E+02  0.00000000000E+00 0. -1.
</event>
<event>
 7    1  0.5137842E-006  0.1257519E+03  0.7561462E-02  0.1233899E+00
         -1   -1    0    0    0  501 -0.00000000000E+00  0.00000000000E+00  0.26236050099E+03  0.26236050099E+03  0.00000000000E+00 0.  1.
          1   -1    0    0  501    0  0.00000000000E+00 -0.00000000000E+00 -0.12301097059E+03  0.12301097059E+03  0.00000000000E+00 0. -1.
         23    2    1    2    0    0 -0.26239360555E+02  0.81635919305E+02 -0.55182671978E+02  0.13870832202E+03  0.94031611428E+02 0.  0.
          5    1    1    2  502    0  0.16678406242E+02  0.31773437094E+02  0.32397041749E+02  0.48525882307E+02  0.41800000000E+01 0.  1.
         -5    1    1    2    0  502  0.95609543137E+01 -0.11340935640E+03  0.16213516063E+03  0.19813726726E+03  0.41800000000E+01 0.  1.
        -11    1    3    3    0    0  0.20329534752E+01  0.71385936554E+02  0.48344155786E+01  0.71578323615E+02  0.00000000000E+00 0.  1.
         11    1    3    3    0    0 -0.28272314031E+02  0.10249982751E+02 -0.60017087557E+02  0.67129998405E+02  0.00000000000E+00 0. -1.
</event>
<event>
 7    1  0.5137842E-006  0.7478073E+02  0.7561462E-02  0.1344551E+00
          2   -1    0    0  501    0  0.00000000000E+00  0.00000000000E+00  0.45673552223E+03  0.45673552223E+03  0.00000000000E+00 0. -1.
         -2   -1    0    0    0  501 -0.00000000000E+00 -0.00000000000E+00 -0.26317267406E+02  0.26317267406E+02  0.00000000000E+00 0.  1.
         23    2    1    2    0    0  0.13296660592E+02 -0.69481741249E+01  0.20022204561E+03  0.22063582818E+03  0.91467058667E+02 0.  0.
          5    1    1    2  502    0 -0.39902112751E+02 -0.15224149022E+02  0.16631787388E+02  0.46022191030E+02  0.41800000000E+01 0. -1.
         -5    1    1    2    0  502  0.26605452159E+02  0.22172323147E+02  0.21356442183E+03  0.21639477043E+03  0.41800000000E+01 0. -1.
        -11    1    3    3    0    0 -0.11868462847E+02  0.27007776623E+02  0.20284833873E+02  0.35801604625E+02  0.00000000000E+00 0.  1.
         11    1    3    3    0    0  0.25165123439E+02 -0.33955950748E+02  0.17993721174E+03  0.18483422356E+03  0.00000000000E+00 0. -1.
</event>
<event>
 7    1  0.5137842E-006  0.1532411E+03  0.7561462E-02  0.1196546E+00
         -2   -1    0    0    0  501 -0.00000000000E+00  0.00000000000E+00  0.87398602525E+02  0.87398602525E+02  0.00000000000E+00 0.  1.
          2   -1    0    0  501    0  0.00000000000E+00 -0.00000000000E+00 -0.35476247636E+03  0.35476247636E+03  0.00000000000E+00 0. -1.
         23    2    1    2    0    0  0.71517041076E+02 -0.34646678717E+02 -0.15118723507E+03  0.19362662835E+03  0.91206423278E+02 0.  0.
          5    1    1    2  502    0 -0.76181717094E+02  0.96684051033E+02 -0.13564112769E+03  0.18321421251E+03  0.41800000000E+01 0. -1.
         -5    1    1    2    0  502  0.46646760172E+01 -0.62037372317E+02  0.19464488930E+02  0.65320238025E+02  0.41800000000E+01 0.  1.
        -11    1    3    3    0    0 -0.18320318815E+01  0.25833929213E+02 -0.31845962066E+02  0.41047698343E+02  0.00000000000E+00 0.  1.
         11    1    3    3    0    0  0.73349072958E+02 -0.60480607929E+02 -0.11934127301E+03  0.15257893001E+03  0.00000000000E+00 0. -1.
</event>
<event>
 7    1  0.5137842E-006  0.8588065E+02  0.7561462E-02  0.1313145E+00
         -2   -1    0    0    0  501 -0.00000000000E+00  0.00000000000E+00  0.82359329964E+02  0.82359329964E+02  0.00000000000E+00 0.  1.
          2   -1    0    0  501    0  0.00000000000E+00 -0.00000000000E+00 -0.15112677896E+03  0.15112677896E+03  0.00000000000E+00 0. -1.
         23    2    1    2    0    0  0.19748549758E+02 -0.15640269152E+02 -0.28936278124E+02  0.99814040668E+02  0.92146140918E+02 0.  0.
          5    1    1    2  502    0 -0.60013919579E+02  0.37929537005E+02  0.22741841631E+01  0.71154512396E+02  0.41800000000E+01 0.  1.
         -5    1    1    2    0  502  0.40265369821E+02 -0.22289267853E+02 -0.42105355038E+02  0.62517555863E+02  0.41800000000E+01 0.  1.
        -11    1    3    3    0    0  0.35611090963E+02 -0.67446789107E+01  0.24247209016E+02  0.43606967772E+02  0.00000000000E+00 0.  1.
         11    1    3    3    0    0 -0.15862541205E+02 -0.88955902413E+01 -0.53183487140E+02  0.56207072896E+02  0.00000000000E+00 0. -1.
</event>
<event>
 7    1  0.5137842E-006  0.1870285E+03  0.7561462E-02  0.1161169E+00
         -1   -1    0    0    0  501 -0.00000000000E+00  0.00000000000E+00  0.54502638520E+02  0.54502638520E+02  0.00000000000E+00 0.  1.
          1   -1    0    0  501    0  0.00000000000E+00 -0.00000000000E+00 -0.76989449761E+03  0.76989449761E+03  0.00000000000E+00 0. -1.
         23    2    1    2    0    0  0.54212224249E+02 -0.15531125932E+03 -0.45090906561E+03  0.48874986538E+03  0.92178592562E+02 0.  0.
          5    1    1    2  502    0 -0.64554302926E+02  0.16569826882E+03 -0.26635575503E+03  0.32029054771E+03  0.41800000000E+01 0.  1.
         -5    1    1    2    0  502  0.10342078677E+02 -0.10387009491E+02  0.18729615546E+01  0.15356723039E+02  0.41800000000E+01 0.  1.
        -11    1    3    3    0    0  0.41797613399E+02 -0.22351584020E+02 -0.18784497499E+03  0.19373272419E+03  0.00000000000E+00 0. -1.
         11    1    3    3    0    0  0.12414610850E+02 -0.13295967530E+03 -0.26306409062E+03  0.29501714119E+03  0.00000000000E+00 0.  1.
</event>
<event>
 7    1  0.5137842E-006  0.1242712E+03  0.7561462E-02  0.1236213E+00
         -2   -1    0    0    0  501 -0.00000000000E+00  0.00000000000E+00  0.44472657503E+02  0.44472657503E+02  0.00000000000E+00 0.  1.
          2   -1    0    0  501    0  0.00000000000E+00 -0.00000000000E+00 -0.40780343821E+03  0.40780343821E+03  0.00000000000E+00 0. -1.
         23    2    1    2    0    0 -0.40553733531E+02  0.50310193558E+02 -0.16011406415E+03  0.19463686942E+03  0.89840283388E+02 0.  0.
          5    1    1    2  502    0 -0.38328547410E+02  0.99598644617E+01 -0.12499113191E+03  0.13118129403E+03  0.41800000000E+01 0. -1.
         -5    1    1    2    0  502  0.78882280941E+02 -0.60270058019E+02 -0.78225584652E+02  0.12645793227E+03  0.41800000000E+01 0.  1.
        -11    1    3    3    0    0 -0.66652035103E+02  0.20483502540E+02 -0.11591105968E+03  0.13526803546E+03  0.00000000000E+00 0.  1.
         11    1    3    3    0    0  0.26098301571E+02  0.29826691017E+02 -0.44203004466E+02  0.59368833960E+02  0.00000000000E+00 0. -1.
</event>
<event>
 7    1  0.5137842E-006  0.1147134E+03  0.7561462E-02  0.1252082E+00
          1   -1    0    0  501    0  0.00000000000E+00  0.00000000000E+00  0.69430449837E+03  0.69430449837E+03  0.00000000000E+00 0. -1.
         -1   -1    0    0    0  501 -0.00000000000E+00 -0.00000000000E+00 -0.34667984475E+02  0.34667984475E+02  0.00000000000E+00 0.  1.
         23    2    1    2    0    0  0.78973392806E+02  0.70782109184E+02  0.37376089752E+03  0.39939761791E+03  0.92597758758E+02 0.  0.
          5    1    1    2  502    0 -0.24094658605E+02 -0.28117487211E+02  0.20384085921E+01  0.37319876339E+02  0.41800000000E+01 0.  1.
         -5    1    1    2    0  502 -0.54878734201E+02 -0.42664621973E+02  0.28383720779E+03  0.29225498860E+03  0.41800000000E+01 0.  1.
        -11    1    3    3    0    0  0.12918334459E+02  0.52387007285E+02  0.26783237942E+03  0.27321322326E+03  0.00000000000E+00 0. -1.
         11    1    3    3    0    0  0.66055058348E+02  0.18395101899E+02  0.10592851810E+03  0.12618439465E+03  0.00000000000E+00 0.  1.
</event>
<event>
 7    1  0.5137842E-006  0.1388068E+03  0.7561462E-02  0.1214944E+00
          2   -1    0    0  501    0  0.00000000000E+00  0.00000000000E+00  0.16427567250E+03  0.16427567250E+03  0.00000000000E+00 0. -1.
         -2   -1    0    0    0  501 -0.00000000000E+00 -0.00000000000E+00 -0.26830395429E+03  0.26830395429E+03  0.00000000000E+00 0.  1.
         23    2    1    2    0    0 -0.15043700698E+02 -0.91111451545E+02  0.10755300922E+03  0.17001327353E+03  0.93857625434E+02 0.  0.
          5    1    1    2  502    0  0.57735113708E+02  0.49186354479E+01 -0.95174189440E+02  0.11150396883E+03  0.41800000000E+01 0.  1.
         -5    1    1    2    0  502 -0.42691413010E+02  0.86192816097E+02 -0.11640710157E+03  0.15106238442E+03  0.41800000000E+01 0.  1.
        -11    1    3    3    0    0  0.33636521201E+02 -0.45065716447E+02  0.19835014515E+02  0.59630211791E+02  0.00000000000E+00 0.  1.
         11    1    3    3    0    0 -0.48680221899E+02 -0.46045735098E+02  0.87717994703E+02  0.11038306174E+03  0.00000000000E+00 0. -1.
</event>
<event>
 7    1  0.5137842E-006  0.1201823E+03  0.7561462E-02  0.1242797E+00
          2   -1    0    0  501    0  0.00000000000E+00  0.00000000000E+00  0.19448044311E+03  0.19448044311E+03  0.00000000000E+00 0.  1.
         -2   -1    0    0    0  501 -0.00000000000E+00 -0.00000000000E+00 -0.10855065796E+03  0.10855065796E+03  0.00000000000E+00 0. -1.
         23    2    1    2    0    0  0.10389015847E+02  0.53898678760E+02  0.12225908425E+03  0.16168108505E+03  0.90446063257E+02 0.  0.
          5    1    1    2  502    0  0.37437901871E+02  0.24182878262E+02 -0.15310912277E+02  0.47310723227E+02  0.41800000000E+01 0. -1.
         -5    1    1    2    0  502 -0.47826917718E+02 -0.78081557022E+02 -0.21018386826E+02  0.94039292799E+02  0.41800000000E+01 0. -1.
        -11    1    3    3    0    0  0.48851645678E+02  0.39667535507E+02  0.58806884209E+02  0.86129241777E+02  0.00000000000E+00 0. -1.
         11    1    3    3    0    0 -0.38462629831E+02  0.14231143253E+02  0.63452200044E+02  0.75551843275E+02  0.00000000000E+00 0.  1.
</event>
<event>
 7    1  0.5137842E-006  0.1359676E+03  0.7561462E-02  0.1218860E+00
          2   -1    0    0  501    0  0.00000000000E+00  0.00000000000E+00  0.34155757058E+03  0.34155757058E+03  0.00000000000E+00 0. -1.
         -2   -1    0    0    0  501 -0.00000000000E+00 -0.00000000000E+00 -0.72393627447E+02  0.72393627447E+02  0.00000000000E+00 0.  1.
         23    2    1    2    0    0  0.78668901163E+02 -0.72572305769E+02  0.17677710266E+03  0.22517089263E+03  0.89421760704E+02 0.  0.
          5    1    1    2  502    0  0.33165824999E+02  0.27912273984E+02  0.17652487270E+02  0.46990953317E+02  0.41800000000E+01 0. -1.
         -5    1    1    2    0  502 -0.11183472616E+03  0.44660031785E+02  0.74734353202E+02  0.14178935208E+03  0.41800000000E+01 0. -1.
        -11    1    3    3    0    0  0.48462357925E+02 -0.35516400477E+02  0.16547498579E+03  0.17604540823E+03  0.00000000000E+00 0. -1.
         11    1    3    3    0    0  0.30206543238E+02 -0.37055905292E+02  0.11302116874E+02  0.49125484397E+02  0.00000000000E+00 0.  1.
</event>
<event>
 7    1  0.5137842E-006  0.1094768E+03  0.7561462E-02  0.1261542E+00
         -1   -1    0    0    0  501 -0.00000000000E+00  0.00000000000E+00  0.40054541892E+02  0.40054541892E+02  0.00000000000E+00 0.  1.
          1   -1    0    0  501    0  0.00000000000E+00 -0.00000000000E+00 -0.42521569142E+03  0.42521569142E+03  0.00000000000E+00 0. -1.
         23    2    1    2    0    0  0.83771514976E+01  0.64172569171E+02 -0.21856960355E+03  0.24712847269E+03  0.95454256666E+02 0.  0.
          5    1    1    2  502    0  0.28170575271E+02 -0.73699307325E+02 -0.45384039237E+02  0.91117246604E+02  0.41800000000E+01 0. -1.
         -5    1    1    2    0  502 -0.36547726768E+02  0.95267381542E+01 -0.12120750674E+03  0.12702451402E+03  0.41800000000E+01 0. -1.
        -11    1    3    3    0    0 -0.28018847666E+02  0.58824903364E+02 -0.18904597795E+03  0.19995951305E+03  0.00000000000E+00 0. -1.
         11    1    3    3    0    0  0.36395999163E+02  0.53476658073E+01 -0.29523625601E+02  0.47168959637E+02  0.00000000000E+00 0.  1.
</event>
<event>
 7    1  0.5137842E-006  0.1477767E+03  0.7561462E-02  0.1203232E+00
         -2   -1    0    0    0  501 -0.00000000000E+00  0.00000000000E+00  0.73014395012E+03  0.73014395012E+03  0.00000000000E+00 0.  1.
          2   -1    0    0  501    0  0.00000000000E+00 -0.00000000000E+00 -0.39438498526E+02  0.39438498526E+02  0.00000000000E+00 0. -1.
         23    2    1    2    0    0 -0.11525679038E+03  0.47991345960E+02  0.23663514160E+03  0.28234957899E+03  0.90209741720E+02 0.  0.
          5    1    1    2  502    0  0.13084975968E+03 -0.58206730322E+02  0.30536472331E+03  0.33730515814E+03  0.41800000000E+01 0. -1.
         -5    1    1    2    0  502 -0.15592969299E+02  0.10215384362E+02  0.14870558668E+03  0.14992771151E+03  0.41800000000E+01 0. -1.
        -11    1    3    3    0    0 -0.54898306225E+02 -0.18046368235E+01  0.32715798953E+02  0.63932810368E+02  0.00000000000E+00 0. -1.
         11    1    3    3    0    0 -0.60358484159E+02  0.49795982783E+02  0.20391934265E+03  0.21841676863E+03  0.00000000000E+00 0.  1.
</event>
<event>
 7    1  0.5137842E-006  0.1460734E+03  0.7561462E-02  0.1205383E+00
          1   -1    0    0  501    0  0.00000000000E+00  0.00000000000E+00  0.10563313838E+03  0.10563313838E+03  0.00000000000E+00 0. -1.
         -1   -1    0    0    0  501 -0.00000000000E+00 -0.00000000000E+00 -0.22421506204E+03  0.22421506204E+03  0.00000000000E+00 0.  1.
         23    2    1    2    0    0 -0.97109883920E+02 -0.47925623758E+02 -0.39223817299E+02  0.14634940405E+03  0.90290892419E+02 0.  0.
          5    1    1    2  502    0  0.42370504255E+02 -0.41542174407E+02 -0.19163988569E+02  0.62495941813E+02  0.41800000000E+01 0. -1.
         -5    1    1    2    0  502  0.54739379666E+02  0.89467798165E+02 -0.60194117797E+02  0.12100285456E+03  0.41800000000E+01 0. -1.
        -11    1    3    3    0    0 -0.54054322811E+02 -0.62132140629E+02 -0.54213393578E+02  0.98596981480E+02  0.00000000000E+00 0.  1.
         11    1    3    3    0    0 -0.43055561109E+02  0.14206516871E+02  0.14989576278E+02  0.47752422567E+02  0.00000000000E+00 0. -1.
</event>
<event>
 7    1  0.5137842E-006  0.1088588E+03  0.7561462E-02  0.1262698E+00
         -2   -1    0    0    0  501 -0.00000000000E+00  0.00000000000E+00  0.33716628822E+02  0.33716628822E+02  0.00000000000E+00 0.  1.
          2   -1    0    0  501    0  0.00000000000E+00 -0.00000000000E+00 -0.54296916162E+03  0.54296916162E+03  0.00000000000E+00 0. -1.
         23    2    1    2    0    0 -0.14031819283E+02 -0.75827934197E+02 -0.27664586132E+03  0.30154616396E+03  0.91925996637E+02 0.  0.
          5    1    1    2  502    0 -0.30025535699E+02  0.37065353605E+02 -0.20433085315E+03  0.20986648894E+03  0.41800000000E+01 0. -1.
         -5    1    1    2    0  502  0.44057354982E+02  0.38762580592E+02 -0.28275818332E+02  0.65273137541E+02  0.41800000000E+01 0. -1.
        -11    1    3    3    0    0 -0.98800537125E+01  0.16149525457E+02 -0.10570275049E+03  0.10738479452E+03  0.00000000000E+00 0. -1.
         11    1    3    3    0    0 -0.41517655702E+01 -0.91977459654E+02 -0.17094311083E+03  0.19416136944E+03  0.00000000000E+00 0.  1.
</event>
<event>
 7    1  0.5137842E-006  0.1063292E+03  0.7561462E-02  0.1267523E+00
         -1   -1    0    0    0  501 -0.00000000000E+00  0.00000000000E+00  0.13939812111E+03  0.13939812111E+03  0.00000000000E+00 0.  1.
          1   -1    0    0  501    0  0.00000000000E+00 -0.00000000000E+00 -0.15602537410E+03  0.15602537410E+03  0.00000000000E+00 0. -1.
         23    2    1    2    0    0  0.75856593433E+02  0.16528459536E+02 -0.68063055700E+02  0.13947174936E+03  0.93767673403E+02 0.  0.
          5    1    1    2  502    0 -0.36096516212E+02  0.45268235038E+02 -0.11422264404E+02  0.59161745328E+02  0.41800000000E+01 0.  1.
         -5    1    1    2    0  502 -0.39760077221E+02 -0.61796694574E+02  0.62858067112E+02  0.96790000526E+02  0.41800000000E+01 0.  1.
        -11    1    3    3    0    0  0.43525601805E+02  0.21074755393E+02  0.14665136069E+02  0.50534043409E+02  0.00000000000E+00 0.  1.
         11    1    3    3    0    0  0.32330991628E+02 -0.45462958570E+01 -0.82728191770E+02  0.88937705947E+02  0.00000000000E+00 0. -1.
</event>
<event>
 7    1  0.5137842E-006  0.7843385E+02  0.7561462E-02  0.1333556E+00
          2   -1    0    0  501    0  0.00000000000E+00  0.00000000000E+00  0.66379308661E+02  0.66379308661E+02  0.00000000000E+00 0. -1.
         -2   -1    0    0    0  501 -0.00000000000E+00 -0.00000000000E+00 -0.17911569484E+03  0.17911569484E+03  0.00000000000E+00 0.  1.
         23    2    1    2    0    0 -0.46593596245E+01 -0.22863371595E+00 -0.31047260660E+02  0.96022978390E+02  0.90745347423E+02 0.  0.
          5    1    1    2  502    0 -0.40861827463E+02 -0.44922737587E+02 -0.37574526853E+02  0.71533619817E+02  0.41800000000E+01 0. -1.
         -5    1    1    2    0  502  0.45521187088E+02  0.45151371303E+02 -0.44114598669E+02  0.77938405296E+02  0.41800000000E+01 0. -1.
        -11    1    3    3    0    0  0.12557812460E+02  0.53458011811E+01 -0.60190211597E+02  0.61718213002E+02  0.00000000000E+00 0.  1.
         11    1    3    3    0    0 -0.17217172085E+02 -0.55744348970E+01  0.29142950937E+02  0.34304765388E+02  0.00000000000E+00 0. -1.
</event>
<event>
 7    1  0.5137842E-006  0.1995707E+03  0.7561462E-02  0.1150102E+00
         -3   -1    0    0    0  501 -0.00000000000E+00  0.00000000000E+00  0.55969548941E+03  0.55969548941E+03  0.00000000000E+00 0.  1.
          3   -1    0    0  501    0  0.00000000000E+00 -0.00000000000E+00 -0.87289145751E+02  0.87289145751E+02  0.00000000000E+00 0. -1.
         23    2    1    2    0    0 -0.16188565666E+03 -0.78054943258E+02  0.12584312258E+03  0.23704212531E+03  0.89738161739E+02 0.  0.
          5    1    1    2  502    0  0.98283398706E+02  0.90985689962E+02  0.14179169010E+03  0.19509069179E+03  0.41800000000E+01 0. -1.
         -5    1    1    2    0  502  0.63602257955E+02 -0.12930746704E+02  0.20477153097E+03  0.21485181806E+03  0.41800000000E+01 0. -1.
        -11    1    3    3    0    0 -0.11027526392E+03 -0.95239424366E+02  0.82155756886E+02  0.16727447557E+03  0.00000000000E+00 0. -1.
         11    1    3    3    0    0 -0.51610392739E+02  0.17184481109E+02  0.43687365697E+02  0.69767649747E+02  0.00000000000E+00 0.  1.
</event>
<event>
 7    1  0.5137842E-006  0.1204315E+03  0.7561462E-02  0.1242387E+00
          1   -1    0    0  501    0  0.00000000000E+00  0.00000000000E+00  0.28501863833E+03  0.28501863833E+03  0.00000000000E+00 0. -1.
         -1   -1    0    0    0  501 -0.00000000000E+00 -0.00000000000E+00 -0.58601940289E+02  0.58601940289E+02  0.00000000000E+00 0.  1.
         23    2    1    2    0    0 -0.47291646048E+02 -0.51403469693E+02  0.11249888999E+03  0.16057922811E+03  0.90834309438E+02 0.  0.
          5    1    1    2  502    0  0.70708853337E+02 -0.14956590159E+02  0.51023371243E+02  0.88568043574E+02  0.41800000000E+01 0. -1.
         -5    1    1    2    0  502 -0.23417207289E+02  0.66360059852E+02  0.62894436811E+02  0.94473306932E+02  0.41800000000E+01 0. -1.
        -11    1    3    3    0    0 -0.54629205770E+02 -0.95196173456E+01  0.20307195088E+02  0.59053834845E+02  0.00000000000E+00 0.  1.
         11    1    3    3    0    0  0.73375597223E+01 -0.41883852348E+02  0.92191694900E+02  0.10152539327E+03  0.00000000000E+00 0. -1.
</event>
<event>
 7    1  0.5137842E-006  0.1193649E+03  0.7561462E-02  0.1244148E+00
         -1   -1    0    0    0  501 -0.00000000000E+00  0.00000000000E+00  0.19920211334E+02  0.19920211334E+02  0.00000000000E+00 0.  1.
          1   -1    0    0  501    0  0.00000000000E+00 -0.00000000000E+00 -0.79339909371E+03  0.79339909371E+03  0.00000000000E+00 0. -1.
         23    2    1    2    0    0 -0.38721899967E+02 -0.30688202992E+02 -0.46281493225E+03  0.47479098860E+03  0.93742573058E+02 0.  0.
          5    1    1    2  502    0 -0.50691347197E+01 -0.45790363004E+02 -0.10493299764E+03  0.11467719853E+03  0.41800000000E+01 0.  1.
         -5    1    1    2    0  502  0.43791034686E+02  0.76478565996E+02 -0.20573095249E+03  0.22385111790E+03  0.41800000000E+01 0.  1.
        -11    1    3    3    0    0 -0.50964053547E+02  0.17992190924E+02 -0.28229017268E+03  0.28741745820E+03  0.00000000000E+00 0.  1.
         11    1    3    3    0    0  0.12242153580E+02 -0.48680393916E+02 -0.18052475957E+03  0.18737353040E+03  0.00000000000E+00 0. -1.
</event>
<event>
 7    1  0.5137842E-006  0.1403429E+03  0.7561462E-02  0.1212868E+00
          1   -1    0    0  501    0  0.00000000000E+00  0.00000000000E+00  0.98578161313E+02  0.98578161313E+02  0.00000000000E+00 0. -1.
         -1   -1    0    0    0  501 -0.00000000000E+00 -0.00000000000E+00 -0.29024543562E+03  0.29024543562E+03  0.00000000000E+00 0.  1.
         23    2    1    2    0    0 -0.11386956121E+03  0.71436057539E+01 -0.18629860848E+02  0.14673348662E+03  0.90367783580E+02 0.  0.
          5    1    1    2  502    0  0.76817694730E+02 -0.55805994325E+02 -0.56917378623E+02  0.11078053807E+03  0.41800000000E+01 0.  1.
         -5    1    1    2    0  502  0.37051866476E+02  0.48662388571E+02 -0.11612003483E+03  0.13130957223E+03  0.41800000000E+01 0.  1.
        -11    1    3    3    0    0 -0.18422915738E+02 -0.17874242968E+02 -0.38314428605E+02  0.46118194081E+02  0.00000000000E+00 0.  1.
         11    1    3    3    0    0 -0.95446645468E+02  0.25017848722E+02  0.19684567756E+02  0.10061529254E+03  0.00000000000E+00 0. -1.
</event>
<event>
 7    1  0.5137842E-006  0.1116518E+03  0.7561462E-02  0.1257541E+00
         -4   -1    0    0    0  501 -0.00000000000E+00  0.00000000000E+00  0.24000961898E+03  0.24000961898E+03  0.00000000000E+00 0.  1.
          4   -1    0    0  501    0  0.00000000000E+00 -0.00000000000E+00 -0.77115731481E+02  0.77115731481E+02  0.00000000000E+00 0. -1.
         23    2    1    2    0    0  0.69239079174E+02 -0.42642170433E+02  0.69797094241E+02  0.14126613741E+03  0.92043915770E+02 0.  0.
          5    1    1    2  502    0 -0.82413590677E+02  0.53895864163E+02  0.11246266563E+03  0.14953958561E+03  0.41800000000E+01 0. -1.
         -5    1    1    2    0  502  0.13174511503E+02 -0.11253693730E+02 -0.19365872376E+02  0.26319627444E+02  0.41800000000E+01 0. -1.
        -11    1    3    3    0    0  0.29359293955E+02  0.17927077936E+02 -0.75723380401E+01  0.35223409378E+02  0.00000000000E+00 0. -1.
         11    1    3    3    0    0  0.39879785219E+02 -0.60569248369E+02  0.77369432281E+02  0.10604272803E+03  0.00000000000E+00 0.  1.
</event>
<event>
 7    1  0.5137842E-006  0.1672396E+03  0.7561462E-02  0.1180757E+00
         -1   -1    0    0    0  501 -0.00000000000E+00  0.00000000000E+00  0.10061469064E+03  0.10061469064E+03  0.00000000000E+00 0.  1.
          1   -1    0    0  501    0  0.00000000000E+00 -0.00000000000E+00 -0.40046753082E+03  0.40046753082E+03  0.00000000000E+00 0. -1.
         23    2    1    2    0    0  0.87296760612E+02 -0.13981400329E+03 -0.18841939565E+03  0.26607041564E+03  0.90127229490E+02 0.  0.
          5    1    1    2  502    0 -0.10031561148E+02  0.21794019881E+02 -0.88806261049E+02  0.92084938633E+02  0.41800000000E+01 0.  1.
         -5    1    1    2    0  502 -0.77265199464E+02  0.11801998340E+03 -0.22627183482E+02  0.14292686719E+03  0.41800000000E+01 0.  1.
        -11    1    3    3    0    0  0.24397643257E+02 -0.74202064041E+02 -0.14640443582E+03  0.16593809127E+03  0.00000000000E+00 0. -1.
         11    1    3    3    0    0  0.62899117356E+02 -0.65611939245E+02 -0.42014959822E+02  0.10013232437E+03  0.00000000000E+00 0.  1.
</event>
<event>
 7    1  0.5137842E-006  0.7982436E+02  0.7561462E-02  0.1329551E+00
         -2   -1    0    0    0  501 -0.00000000000E+00  0.00000000000E+00  0.38785725903E+02  0.38785725903E+02  0.00000000000E+00 0.  1.
          2   -1    0    0  501    0  0.00000000000E+00 -0.00000000000E+00 -0.45896890559E+03  0.45896890559E+03  0.00000000000E+00 0. -1.
         23    2    1    2    0    0  0.41412370819E+02  0.31982527257E+02 -0.29561180974E+03  0.31362474254E+03  0.90753901134E+02 0.  0.
          5    1    1    2  502    0 -0.27847986116E+02 -0.29016246670E+02  0.15504927646E+02  0.43305058398E+02  0.41800000000E+01 0.  1.
         -5    1    1    2    0  502 -0.13564384702E+02 -0.29662805863E+01 -0.14007629759E+03  0.14082483055E+03  0.41800000000E+01 0.  1.
        -11    1    3    3    0    0  0.22638327496E+02  0.63840605128E+02 -0.19550277593E+03  0.20690445170E+03  0.00000000000E+00 0.  1.
         11    1    3    3    0    0  0.18774043322E+02 -0.31858077872E+02 -0.10010903381E+03  0.10672029085E+03  0.00000000000E+00 0. -1.
</event>
<event>
 7    1  0.5137842E-006  0.8256758E+02  0.7561462E-02  0.1321919E+00
          2   -1    0    0  501    0  0.00000000000E+00  0.00000000000E+00  0.72321428414E+02  0.72321428414E+02  0.00000000000E+00 0. -1.
         -2   -1    0    0    0  501 -0.00000000000E+00 -0.00000000000E+00 -0.18724704810E+03  0.18724704810E+03  0.00000000000E+00 0.  1.
         23    2    1    2    0    0  0.29650909743E+02 -0.29068582483E+02 -0.42441008434E+02  0.10916063855E+03  0.91600474209E+02 0.  0.
          5    1    1    2  502    0  0.37438744814E+02  0.23389842071E+02  0.83513004864E+01  0.45121623920E+02  0.41800000000E+01 0. -1.
         -5    1    1    2    0  502 -0.67089654557E+02  0.56787404114E+01 -0.80835911733E+02  0.10528621404E+03  0.41800000000E+01 0. -1.
        -11    1    3    3    0    0  0.23470465938E+02  0.14786794120E+00  0.25674776787E+02  0.34786186904E+02  0.00000000000E+00 0. -1.
         11    1    3    3    0    0  0.61804438053E+01 -0.29216450424E+02 -0.68115785222E+02  0.74374451644E+02  0.00000000000E+00 0.  1.
</event>
<event>
 7    1  0.5137842E-006  0.2600907E+03  0.7561462E-02  0.1107089E+00
         -1   -1    0    0    0  501 -0.00000000000E+00  0.00000000000E+00  0.12431199482E+03  0.12431199482E+03  0.00000000000E+00 0.  1.
          1   -1    0    0  501    0  0.00000000000E+00 -0.00000000000E+00 -0.85280815581E+03  0.85280815581E+03  0.00000000000E+00 0. -1.
         23    2    1    2    0    0  0.25222392823E+02 -0.33108978138E+02 -0.13288903300E+03  0.16772816021E+03  0.93492604531E+02 0.  0.
          5    1    1    2  502    0 -0.54948490979E+02  0.24136884830E+03 -0.53644504822E+03  0.59082063247E+03  0.41800000000E+01 0. -1.
         -5    1    1    2    0  502  0.29726098156E+02 -0.20825987017E+03 -0.59162079761E+02  0.21857135795E+03  0.41800000000E+01 0.  1.
        -11    1    3    3    0    0  0.38320533047E+02 -0.18448621347E+02 -0.14038678115E+03  0.14668763821E+03  0.00000000000E+00 0. -1.
         11    1    3    3    0    0 -0.13098140225E+02 -0.14660356791E+02  0.74977481485E+01  0.21040521996E+02  0.00000000000E+00 0.  1.
</event>
<event>
 7    1  0.5137842E-006  0.1129515E+03  0.7561462E-02  0.1255200E+00
         -4   -1    0    0    0  501 -0.00000000000E+00  0.00000000000E+00  0.68839584392E+03  0.68839584392E+03  0.00000000000E+00 0.  1.
          4   -1    0    0  501    0  0.00000000000E+00 -0.00000000000E+00 -0.30041789386E+02  0.30041789386E+02  0.00000000000E+00 0. -1.
         23    2    1    2    0    0 -0.42315691088E+02  0.70216175433E+02  0.18547907083E+03  0.22249117406E+03  0.91536374256E+02 0.  0.
          5    1    1    2  502    0 -0.30816899495E+02 -0.50344542862E+02  0.31816768873E+03  0.32362386321E+03  0.41800000000E+01 0. -1.
         -5    1    1    2    0  502  0.73132590583E+02 -0.19871632571E+02  0.15470729497E+03  0.17232259603E+03  0.41800000000E+01 0. -1.
        -11    1    3    3    0    0 -0.37099256866E+02  0.23706291451E+02  0.16610058833E+03  0.17183640056E+03  0.00000000000E+00 0.  1.
         11    1    3    3    0    0 -0.52164342227E+01  0.46509883982E+02  0.19378482505E+02  0.50654773499E+02  0.00000000000E+00 0. -1.
</event>
<event>
 7    1  0.5137842E-006  0.1130556E+03  0.7561462E-02  0.1255014E+00
         -1   -1    0    0    0  501 -0.00000000000E+00  0.00000000000E+00  0.33601132225E+03  0.33601132225E+03  0.00000000000E+00 0.  1.
          1   -1    0    0  501    0  0.00000000000E+00 -0.00000000000E+00 -0.93535123103E+02  0.93535123103E+02  0.00000000000E+00 0. -1.
         23    2    1    2    0    0  0.24104700966E+02  0.96673131559E+02 -0.35248955545E+01  0.13613675568E+03  0.92704155165E+02 0.  0.
          5    1    1    2  502    0  0.11764016692E+02 -0.20130614216E+02 -0.85300808384E+01  0.25176743168E+02  0.41800000000E+01 0.  1.
         -5    1    1    2    0  502 -0.35868717658E+02 -0.76542517344E+02  0.25453117554E+03  0.26823294650E+03  0.41800000000E+01 0.  1.
        -11    1    3    3    0    0  0.33340783007E+02  0.16706896064E+02  0.31051171432E+02  0.48527347289E+02  0.00000000000E+00 0.  1.
         11    1    3    3    0    0 -0.92360820412E+01  0.79966235495E+02 -0.34576066987E+02  0.87609408393E+02  0.00000000000E+00 0. -1.
</event>
<event>
 7    1  0.5137842E-006  0.1094180E+03  0.7561462E-02  0.1261651E+00
         -4   -1    0    0    0  501 -0.00000000000E+00  0.00000000000E+00  0.14517463377E+03  0.14517463377E+03  0.00000000000E+00 0.  1.
          4   -1    0    0  501    0  0.00000000000E+00 -0.00000000000E+00 -0.12540175583E+03  0.12540175583E+03  0.00000000000E+00 0. -1.
         23    2    1    2    0    0  0.41897885169E+02  0.55733112256E+02 -0.28736119544E+02  0.11937428897E+03  0.92535634850E+02 0.  0.
          5    1    1    2  502    0 -0.66540598964E+02 -0.68194381182E+02  0.68012007614E+02  0.11713765626E+03  0.41800000000E+01 0. -1.
         -5    1    1    2    0  502  0.24642713795E+02  0.12461268926E+02 -0.19503010128E+02  0.34064444374E+02  0.41800000000E+01 0. -1.
        -11    1    3    3    0    0  0.59739979891E+02  0.42170790269E+02 -0.49916746923E+02  0.88537688995E+02  0.00000000000E+00 0. -1.
         11    1    3    3    0    0 -0.17842094722E+02  0.13562321987E+02  0.21180627380E+02  0.30836599974E+02  0.00000000000E+00 0.  1.
</event>
<event>
 7    1  0.5137842E-006  0.1145538E+03  0.7561462E-02  0.1252362E+00
          2   -1    0    0  501    0  0.00000000000E+00  0.00000000000E+00  0.52481892185E+03  0.52481892185E+03  0.00000000000E+00 0.  1.
         -2   -1    0    0    0  501 -0.00000000000E+00 -0.00000000000E+00 -0.53638891315E+02  0.53638891315E+02  0.00000000000E+00 0. -1.
         23    2    1    2    0    0  0.81860037708E+02  0.42105094482E+02  0.37198444532E+03  0.39417191583E+03  0.92331830445E+02 0.  0.
          5    1    1    2  502    0 -0.10372502826E+02 -0.21491504474E+02 -0.27903158191E+02  0.36953108346E+02  0.41800000000E+01 0. -1.
         -5    1    1    2    0  502 -0.71487534882E+02 -0.20613590008E+02  0.12709874341E+03  0.14733278899E+03  0.41800000000E+01 0. -1.
        -11    1    3    3    0    0  0.60863439356E+02  0.71717388294E+02  0.27125791737E+03  0.28710381358E+03  0.00000000000E+00 0.  1.
         11    1    3    3    0    0  0.20996598351E+02 -0.29612293812E+02  0.10072652795E+03  0.10706810225E+03  0.00000000000E+00 0. -1.
</event>
<event>
 7    1  0.5137842E-006  0.8110361E+02  0.7561462E-02  0.1325948E+00
         -2   -1    0    0    0  501 -0.00000000000E+00  0.00000000000E+00  0.68704002094E+03  0.68704002094E+03  0.00000000000E+00 0.  1.
          2   -1    0    0  501    0  0.00000000000E+00 -0.00000000000E+00 -0.28352918474E+02  0.28352918474E+02  0.00000000000E+00 0. -1.
         23    2    1    2    0    0  0.55096719399E+02 -0.50631761554E+02  0.18311313265E+03  0.21798315528E+03  0.91580635877E+02 0.  0.
          5    1    1    2  502    0 -0.32096741381E+02  0.61565506503E+01  0.18907903063E+02  0.37987960216E+02  0.41800000000E+01 0.  1.
         -5    1    1    2    0  502 -0.22999978018E+02  0.44475210904E+02  0.45666606675E+03  0.45942182392E+03  0.41800000000E+01 0.  1.
        -11    1    3    3    0    0  0.39587066277E+02 -0.19271643313E+02  0.17709179476E+03  0.18248297406E+03  0.00000000000E+00 0.  1.
         11    1    3    3    0    0  0.15509653123E+02 -0.31360118241E+02  0.60213378946E+01  0.35500181213E+02  0.00000000000E+00 0. -1.
</event>
<event>
 7    1  0.5137842E-006  0.8097663E+02  0.7561462E-02  0.1326303E+00
         -3   -1    0    0    0  501 -0.00000000000E+00  0.00000000000E+00  0.19402636066E+03  0.19402636066E+03  0.00000000000E+00 0.  1.
          3   -1    0    0  501    0  0.00000000000E+00 -0.00000000000E+00 -0.59434676462E+02  0.59434676462E+02  0.00000000000E+00 0. -1.
         23    2    1    2    0    0 -0.23392435406E+02 -0.14643189490E+02  0.36829351006E+02  0.92319188213E+02  0.80030009273E+02 0.  0.
          5    1    1    2  502    0 -0.18755377322E+02  0.27554505140E+02 -0.17348731887E+02  0.37808277269E+02  0.41800000000E+01 0. -1.
         -5    1    1    2    0  502  0.42147812728E+02 -0.12911315649E+02  0.11511106508E+03  0.12333357164E+03  0.41800000000E+01 0. -1.
        -11    1    3    3    0    0 -0.50534203588E+02 -0.23224465732E+02  0.29360044538E+02  0.62889536141E+02  0.00000000000E+00 0.  1.
         11    1    3    3    0    0  0.27141768182E+02  0.85812762421E+01  0.74693064674E+01  0.29429652072E+02  0.00000000000E+00 0. -1.
</event>
<event>
 7    1  0.5137842E-006  0.1709324E+03  0.7561462E-02  0.1176879E+00
         -1   -1    0    0    0  501 -0.00000000000E+00  0.00000000000E+00  0.18750107261E+03  0.18750107261E+03  0.00000000000E+00 0.  1.
          1   -1    0    0  501    0  0.00000000000E+00 -0.00000000000E+00 -0.21767673639E+03  0.21767673639E+03  0.00000000000E+00 0. -1.
         23    2    1    2    0    0 -0.10459545330E+03  0.12316017942E+03 -0.67666125285E+02  0.19742207639E+03  0.91039184363E+02 0.  0.
          5    1    1    2  502    0 -0.12618659844E+02 -0.66338343485E+01  0.39720268483E+02  0.42407669858E+02  0.41800000000E+01 0. -1.
         -5    1    1    2    0  502  0.11721411315E+03 -0.11652634507E+03 -0.22298069804E+01  0.16534806275E+03  0.41800000000E+01 0. -1.
        -11    1    3    3    0    0 -0.95649079846E+02  0.11010183629E+03 -0.20018285739E+02  0.14721376496E+03  0.00000000000E+00 0.  1.
         11    1    3    3    0    0 -0.89463734571E+01  0.13058343127E+02 -0.47647839546E+02  0.50208311430E+02  0.00000000000E+00 0. -1.
</event>
<event>
 7    1  0.5137842E-006  0.1054787E+03  0.7561462E-02  0.1269179E+00
          1   -1    0    0  501    0  0.00000000000E+00  0.00000000000E+00  0.35362137789E+02  0.35362137789E+02  0.00000000000E+00 0. -1.
         -1   -1    0    0    0  501 -0.00000000000E+00 -0.00000000000E+00 -0.41814699165E+03  0.41814699165E+03  0.00000000000E+00 0.  1.
         23    2    1    2    0    0 -0.54256704308E+02 -0.64803045443E+01 -0.14166487933E+03  0.17643174936E+03  0.89852322382E+02 0.  0.
          5    1    1    2  502    0 -0.60857890060E+01  0.40837477029E+02 -0.21570030441E+02  0.46770449764E+02  0.41800000000E+01 0. -1.
         -5    1    1    2    0  502  0.60342493314E+02 -0.34357172484E+02 -0.21954994409E+03  0.23030693031E+03  0.41800000000E+01 0. -1.
        -11    1    3    3    0    0 -0.63390597745E+02  0.24223091306E+02 -0.67832823425E+02  0.95950080608E+02  0.00000000000E+00 0. -1.
         11    1    3    3    0    0  0.91338934366E+01 -0.30703395850E+02 -0.73832055904E+02  0.80481668751E+02  0.00000000000E+00 0.  1.
</event>
<event>
 7    1  0.5137842E-006  0.1081736E+03  0.7561462E-02  0.1263990E+00
          1   -1    0    0  501    0  0.00000000000E+00  0.00000000000E+00  0.98811429720E+03  0.98811429720E+03  0.00000000000E+00 0. -1.
         -1   -1    0    0    0  501 -0.00000000000E+00 -0.00000000000E+00 -0.12380338126E+02  0.12380338126E+02  0.00000000000E+00 0.  1.
         23    2    1    2    0    0  0.67842901038E+01 -0.17601303563E+02  0.39838438658E+03  0.40944772966E+03  0.92636339396E+02 0.  0.
          5    1    1    2  502    0 -0.49212183454E+02 -0.30813010881E+02  0.20308969749E+03  0.21126802472E+03  0.41800000000E+01 0.  1.
         -5    1    1    2    0  502  0.42427893351E+02  0.48414314444E+02  0.37425987500E+03  0.37977888094E+03  0.41800000000E+01 0.  1.
        -11    1    3    3    0    0  0.17699585959E+02  0.35363880117E+02  0.14081769484E+03  0.14626517884E+03  0.00000000000E+00 0. -1.
         11    1    3    3    0    0 -0.10915295856E+02 -0.52965183680E+02  0.25756669174E+03  0.26318255082E+03  0.00000000000E+00 0.  1.
</event>
<event>
 7    1  0.5137842E-006  0.1096584E+03  0.7561462E-02  0.1261204E+00
         -1   -1    0    0    0  501 -0.00000000000E+00  0.00000000000E+00  0.16649987833E+02  0.16649987833E+02  0.00000000000E+00 0.  1.
          1   -1    0    0  501    0  0.00000000000E+00 -0.00000000000E+00 -0.11022590433E+04  0.11022590433E+04  0.00000000000E+00 0. -1.
         23    2    1    2    0    0 -0.69342456807E+02  0.30964524050E+02 -0.50298223390E+03  0.51818473114E+03  0.98778084091E+02 0.  0.
          5    1    1    2  502    0 -0.14704836752E+02  0.58966804640E+01 -0.35330144131E+03  0.35368118963E+03  0.41800000000E+01 0.  1.
         -5    1    1    2    0  502  0.84047293559E+02 -0.36861204514E+02 -0.22932538030E+03  0.24704311041E+03  0.41800000000E+01 0.  1.
        -11    1    3    3    0    0 -0.69271226754E+02 -0.10093766971E+02 -0.41779661970E+03  0.42362058782E+03  0.00000000000E+00 0. -1.
         11    1    3    3    0    0 -0.71230053071E-01  0.41058291021E+02 -0.85185614200E+02  0.94564143320E+02  0.00000000000E+00 0.  1.
</event>
<event>
 7    1  0.5137842E-006  0.7851255E+02  0.7561462E-02  0.1333326E+00
          1   -1    0    0  501    0  0.00000000000E+00  0.00000000000E+00  0.62854368204E+02  0.62854368204E+02  0.00000000000E+00 0. -1.
         -1   -1    0    0    0  501 -0.00000000000E+00 -0.00000000000E+00 -0.28533047407E+03  0.28533047407E+03  0.00000000000E+00 0.  1.
         23    2    1    2    0    0 -0.10914696770E+02  0.42364353352E+02 -0.18290450776E+02  0.10476309670E+03  0.93417861251E+02 0.  0.
          5    1    1    2  502    0 -0.15239567047E+02 -0.22043261191E+02 -0.20805432020E+03  0.20981473332E+03  0.41800000000E+01 0.  1.
         -5    1    1    2    0  502  0.26154263816E+02 -0.20321092161E+02  0.38686651064E+01  0.33607012246E+02  0.41800000000E+01 0.  1.
        -11    1    3    3    0    0  0.36957257521E+02  0.86192345139E+01  0.10675197207E+02  0.39421947218E+02  0.00000000000E+00 0. -1.
         11    1    3    3    0    0 -0.47871954290E+02  0.33745118838E+02 -0.28965647984E+02  0.65341149485E+02  0.00000000000E+00 0.  1.
</event>
<event>
 7    1  0.5137842E-006  0.8996097E+02  0.7561462E-02  0.1302946E+00
          2   -1    0    0  501    0  0.00000000000E+00  0.00000000000E+00  0.48304639455E+03  0.48304639455E+03  0.00000000000E+00 0. -1.
         -2   -1    0    0    0  501 -0.00000000000E+00 -0.00000000000E+00 -0.31569589252E+02  0.31569589252E+02  0.00000000000E+00 0.  1.
         23    2    1    2    0    0 -0.44987265636E+02  0.21374133601E+02  0.26702862739E+03  0.28625740100E+03  0.90323331006E+02 0.  0.
          5    1    1    2  502    0  0.45519342969E+02  0.15336758428E+02  0.89831570708E+01  0.49044839223E+02  0.41800000000E+01 0.  1.
         -5    1    1    2    0  502 -0.53207733311E+00 -0.36710892029E+02  0.17546502084E+03  0.17931374358E+03  0.41800000000E+01 0.  1.
        -11    1    3    3    0    0 -0.68288444121E+02  0.10686589602E+02  0.13394757211E+03  0.15072978097E+03  0.00000000000E+00 0.  1.
         11    1    3    3    0    0  0.23301178485E+02  0.10687543998E+02  0.13308105528E+03  0.13552762003E+03  0.00000000000E+00 0. -1.
</event>
<event>
 6    1  0.5137842E-006  0.1284740E+03  0.7561462E-02  0.1229738E+00
         -2   -1    0    0    0  501 -0.00000000000E+00  0.00000000000E+00  0.63382078618E+02  0.63382078618E+02  0.00000000000E+00 0.  1.
          2   -1    0    0  501    0  0.00000000000E+00 -0.00000000000E+00 -0.37917800719E+03  0.37917800719E+03  0.00000000000E+00 0. -1.
          5    1    1    2  502    0  0.21932755674E+02 -0.54095696898E+02 -0.47095220654E+02  0.75118722052E+02  0.41800000000E+01 0.  1.
         -5    1    1    2    0  502  0.34396914055E+02  0.67522680248E+02 -0.11332206279E+03  0.13638849790E+03  0.41800000000E+01 0.  1.
        -11    1    1    2    0    0  0.99988586674E+01  0.37561543615E+02  0.14663823567E+02  0.41543645182E+02  0.00000000000E+00 0.  1.
         11    1    1    2    0    0 -0.66328528396E+02 -0.50988526965E+02 -0.17004246870E+03  0.18950922068E+03  0.00000000000E+00 0. -1.
</event>
<event>
 7    1  0.5137842E-006  0.1127983E+03  0.7561462E-02  0.1255474E+00
         -1   -1    0    0    0  501 -0.00000000000E+00  0.00000000000E+00  0.33319813076E+02  0.33319813076E+02  0.00000000000E+00 0.  1.
          1   -1    0    0  501    0  0.00000000000E+00 -0.00000000000E+00 -0.42368509123E+03  0.42368509123E+03  0.00000000000E+00 0. -1.
         23    2    1    2    0    0 -0.51493565371E+02  0.39023919012E+01 -0.21237497575E+03  0.23341590042E+03  0.81933120936E+02 0.  0.
          5    1    1    2  502    0  0.81616375301E+02 -0.37124331054E+02 -0.12753592279E+03  0.15595618832E+03  0.41800000000E+01 0.  1.
         -5    1    1    2    0  502 -0.30122809931E+02  0.33221939153E+02 -0.50454379612E+02  0.67632815565E+02  0.41800000000E+01 0.  1.
        -11    1    3    3    0    0 -0.65393900798E+02 -0.15233729368E+02 -0.11460690651E+03  0.13282760177E+03  0.00000000000E+00 0.  1.
         11    1    3    3    0    0  0.13900335428E+02  0.19136121269E+02 -0.97768069241E+02  0.10058829865E+03  0.00000000000E+00 0. -1.
</event>
<event>
 7    1  0.5137842E-006  0.8361514E+02  0.7561462E-02  0.1319094E+00
         -4   -1    0    0    0  501 -0.00000000000E+00  0.00000000000E+00  0.48284600301E+02  0.48284600301E+02  0.00000000000E+00 0.  1.
          4   -1    0    0  501    0  0.00000000000E+00 -0.00000000000E+00 -0.26205098469E+03  0.26205098469E+03  0.00000000000E+00 0. -1.
         23    2    1    2    0    0  0.15629574906E+02 -0.17010142483E+02 -0.13113494958E+03  0.15864389715E+03  0.86243159388E+02 0.  0.
          5    1    1    2  502    0 -0.41543376483E+02 -0.17305313291E+02  0.12767337693E+02  0.46965980342E+02  0.41800000000E+01 0. -1.
         -5    1    1    2    0  502  0.25913801577E+02  0.34315455774E+02 -0.95398772495E+02  0.10472570750E+03  0.41800000000E+01 0. -1.
        -11    1    3    3    0    0  0.46220135869E+02 -0.77293539566E+01 -0.38502261747E+02  0.60650375366E+02  0.00000000000E+00 0.  1.
         11    1    3    3    0    0 -0.30590560963E+02 -0.92807885261E+01 -0.92632687836E+02  0.97993521783E+02  0.00000000000E+00 0. -1.
</event>
<event>
 7    1  0.5137842E-006  0.1125531E+03  0.7561462E-02  0.1255914E+00
          2   -1    0    0  501    0  0.00000000000E+00  0.00000000000E+00  0.10917119125E+03  0.10917119125E+03  0.00000000000E+00 0. -1.
         -2   -1    0    0    0  501 -0.00000000000E+00 -0.00000000000E+00 -0.19352555061E+03  0.19352555061E+03  0.00000000000E+00 0.  1.
         23    2    1    2    0    0  0.78604938382E+02  0.19674007257E+02  0.86276506434E+01  0.12702778428E+03  0.97446491600E+02 0.  0.
          5    1    1    2  502    0 -0.11006207183E+03 -0.91512253974E+01 -0.89193112336E+02  0.14202214007E+03  0.41800000000E+01 0. -1.
         -5    1    1    2    0  502  0.31457133451E+02 -0.10522781860E+02 -0.37888976673E+01  0.33646817510E+02  0.41800000000E+01 0. -1.
        -11    1    3    3    0    0  0.45967744570E+02  0.13767202155E+02  0.53086949937E+02  0.71559720860E+02  0.00000000000E+00 0. -1.
         11    1    3    3    0    0  0.32637193812E+02  0.59068051022E+01 -0.44459299293E+02  0.55468063425E+02  0.00000000000E+00 0.  1.
</event>
<event>
 7    1  0.5137842E-006  0.1604278E+03  0.7561462E-02  0.1188215E+00
          1   -1    0    0  501    0  0.00000000000E+00  0.00000000000E+00  0.32355425763E+03  0.32355425763E+03  0.00000000000E+00 0. -1.
         -1   -1    0    0    0  501 -0.00000000000E+00 -0.00000000000E+00 -0.10057424241E+03  0.10057424241E+03  0.00000000000E+00 0.  1.
         23    2    1    2    0    0  0.83401373612E+02 -0.11601043334E+03  0.12324640911E+03  0.20963284619E+03  0.91334785700E+02 0.  0.
          5    1    1    2  502    0 -0.47621513195E+02  0.80100138921E+00 -0.12769364508E+02  0.49487161893E+02  0.41800000000E+01 0. -1.
         -5    1    1    2    0  502 -0.35779860417E+02  0.11520943195E+03  0.11250297062E+03  0.16500849196E+03  0.41800000000E+01 0. -1.
        -11    1    3    3    0    0  0.82415531556E+02 -0.75371165069E+02  0.42995975079E+02  0.11967366560E+03  0.00000000000E+00 0.  1.
         11    1    3    3    0    0  0.98584205630E+00 -0.40639268270E+02  0.80250434026E+02  0.89959180585E+02  0.00000000000E+00 0. -1.
</event>
<event>
 7    1  0.5137842E-006  0.2195722E+03  0.7561462E-02  0.1134202E+00
          2   -1    0    0  501    0  0.00000000000E+00  0.00000000000E+00  0.68866485766E+03  0.68866485766E+03  0.00000000000E+00 0. -1.
         -2   -1    0    0    0  501 -0.00000000000E+00 -0.00000000000E+00 -0.86566069846E+02  0.86566069846E+02  0.00000000000E+00 0.  1.
         23    2    1    2    0    0 -0.14337403764E+03  0.14288075007E+03  0.42129366177E+03  0.47638457641E+03  0.92102615524E+02 0.  0.
          5    1    1    2  502    0  0.19273312375E+02  0.14227273894E+02 -0.59376669323E+01  0.25032063058E+02  0.41800000000E+01 0. -1.
         -5    1    1    2    0  502  0.12410072527E+03 -0.15710802396E+03  0.18674279298E+03  0.27381428804E+03  0.41800000000E+01 0. -1.
        -11    1    3    3    0    0 -0.13094649834E+03  0.15089127002E+03  0.41445155996E+03  0.46009266061E+03  0.00000000000E+00 0.  1.
         11    1    3    3    0    0 -0.12427539307E+02 -0.80105199576E+01  0.68421018071E+01  0.16291915798E+02  0.00000000000E+00 0. -1.
</event>
<event>
 7    1  0.5137842E-006  0.1211577E+03  0.7561462E-02  0.1241199E+00
         -2   -1    0    0    0  501 -0.00000000000E+00  0.00000000000E+00  0.88133630991E+02  0.88133630991E+02  0.00000000000E+00 0.  1.
          2   -1    0    0  501    0  0.00000000000E+00 -0.00000000000E+00 -0.36433356767E+03  0.36433356767E+03  0.00000000000E+00 0. -1.
         23    2    1    2    0    0 -0.63717271791E+02  0.89011827052E+02 -0.24578978918E+03  0.28348351411E+03  0.89259656218E+02 0.  0.
          5    1    1    2  502    0  0.51158291526E+02 -0.63065224860E+02 -0.78330702212E+02  0.11290511365E+03  0.41800000000E+01 0.  1.
         -5    1    1    2    0  502  0.12558980266E+02 -0.25946602192E+02  0.47920554712E+02  0.56078570903E+02  0.41800000000E+01 0.  1.
        -11    1    3    3    0    0 -0.13973557216E+02 -0.12551709567E+02 -0.84890115649E+01  0.20612351435E+02  0.00000000000E+00 0. -1.
         11    1    3    3    0    0 -0.49743714575E+02  0.10156353662E+03 -0.23730077761E+03  0.26287116268E+03  0.00000000000E+00 0.  1.
</event>
<event>
 7    1  0.5137842E-006  0.9120242E+02  0.7561462E-02  0.1299966E+00
          3   -1    0    0  501    0  0.00000000000E+00  0.00000000000E+00  0.33819742629E+02  0.33819742629E+02  0.00000000000E+00 0. -1.
         -3   -1    0    0    0  501 -0.00000000000E+00 -0.00000000000E+00 -0.50309270817E+03  0.50309270817E+03  0.00000000000E+00 0.  1.
         23    2    1    2    0    0 -0.38378056584E+02 -0.19029338324E+02 -0.95235456314E+02  0.14019315025E+03  0.93537886942E+02 0.  0.
          5    1    1    2  502    0  0.79657354425E+02  0.26237044253E+02 -0.30013762924E+03  0.31166287153E+03  0.41800000000E+01 0. -1.
         -5    1    1    2    0  502 -0.41279297841E+02 -0.72077059282E+01 -0.73899879988E+02  0.85056429017E+02  0.41800000000E+01 0. -1.
        -11    1    3    3    0    0 -0.35221185385E+02  0.17880330110E+01 -0.10931573992E+03  0.11486365812E+03  0.00000000000E+00 0.  1.
         11    1    3    3    0    0 -0.31568711989E+01 -0.20817371335E+02  0.14080283608E+02  0.25329492130E+02  0.00000000000E+00 0. -1.
</event>
<event>
 7    1  0.5137842E-006  0.9673556E+02  0.7561462E-02  0.1287314E+00
          2   -1    0    0  501    0  0.00000000000E+00  0.00000000000E+00  0.35229850950E+03  0.35229850950E+03  0.00000000000E+00 0. -1.
         -2   -1    0    0    0  501 -0.00000000000E+00 -0.00000000000E+00 -0.34423964705E+02  0.34423964705E+02  0.00000000000E+00 0.  1.
         23    2    1    2    0    0  0.15144253109E+02  0.19246903579E+02  0.14263075652E+03  0.17002214450E+03  0.89242395849E+02 0.  0.
          5    1    1    2  502    0 -0.43800377933E+02 -0.44633949224E+02  0.16550745670E+03  0.17697698481E+03  0.41800000000E+01 0.  1.
         -5    1    1    2    0  502  0.28656124823E+02  0.25387045645E+02  0.97363315769E+01  0.39723344888E+02  0.41800000000E+01 0.  1.
        -11    1    3    3    0    0 -0.36466613480E+02  0.17979864514E+02  0.69176041356E+02  0.80239729089E+02  0.00000000000E+00 0.  1.
         11    1    3    3    0    0  0.51610866589E+02  0.12670390651E+01  0.73454715159E+02  0.89782415412E+02  0.00000000000E+00 0. -1.
</event>
<event>
 7    1  0.5137842E-006  0.1892671E+03  0.7561462E-02  0.1159124E+00
          2   -1    0    0  501    0  0.00000000000E+00  0.00000000000E+00  0.15454025705E+03  0.15454025705E+03  0.00000000000E+00 0. -1.
         -2   -1    0    0    0  501 -0.00000000000E+00 -0.00000000000E+00 -0.28742908407E+03  0.28742908407E+03  0.00000000000E+00 0.  1.
         23    2    1    2    0    0  0.77724815491E+02 -0.14470446147E+03  0.14479864731E+02  0.18830467762E+03  0.90931056403E+02 0.  0.
          5    1    1    2  502    0 -0.95291902841E+02  0.14590354130E+03 -0.95568957788E+02  0.19879458796E+03  0.41800000000E+01 0.  1.
         -5    1    1    2    0  502  0.17567087351E+02 -0.11990798345E+01 -0.51799733963E+02  0.54870075534E+02  0.41800000000E+01 0.  1.
        -11    1    3    3    0    0 -0.19662207853E+02 -0.24983840408E+02  0.11922785075E+02  0.33955080667E+02  0.00000000000E+00 0.  1.
         11    1    3    3    0    0  0.97387023343E+02 -0.11972062106E+03  0.25570796567E+01  0.15434959695E+03  0.00000000000E+00 0. -1.
</event>
<event>
 7    1  0.5137842E-006  0.1125412E+03  0.7561462E-02  0.1255935E+00
         -1   -1    0    0    0  501 -0.00000000000E+00  0.00000000000E+00  0.34064800624E+03  0.34064800624E+03  0.00000000000E+00 0.  1.
          1   -1    0    0  501    0  0.00000000000E+00 -0.00000000000E+00 -0.44250508542E+02  0.44250508542E+02  0.00000000000E+00 0. -1.
         23    2    1    2    0    0 -0.41306545692E+02  0.35827289357E+02  0.15616892378E+03  0.18918869906E+03  0.91726799345E+02 0.  0.
          5    1    1    2  502    0 -0.37510398997E+02 -0.40041338072E+02  0.39811820668E+02  0.67917540094E+02  0.41800000000E+01 0. -1.
         -5    1    1    2    0  502  0.78816944689E+02  0.42140487143E+01  0.10041675324E+03  0.12779227562E+03  0.41800000000E+01 0. -1.
        -11    1    3    3    0    0 -0.30290473712E+02 -0.18560393874E+02  0.11424338567E+03  0.11963925855E+03  0.00000000000E+00 0.  1.
         11    1    3    3    0    0 -0.11016071980E+02  0.54387683231E+02  0.41925538118E+02  0.69549440512E+02  0.00000000000E+00 0. -1.
</event>
<event>
 7    1  0.5137842E-006  0.2181996E+03  0.7561462E-02  0.1135232E+00
         -2   -1    0    0    0  501 -0.00000000000E+00  0.00000000000E+00  0.31941440921E+03  0.31941440921E+03  0.00000000000E+00 0.  1.
          2   -1    0    0  501    0  0.00000000000E+00 -0.00000000000E+00 -0.16497512264E+03  0.16497512264E+03  0.00000000000E+00 0. -1.
         23    2    1    2    0    0  0.18113662429E+03  0.52584774374E+02  0.32733907098E+01  0.21222434339E+03  0.97225622577E+02 0.  0.
          5    1    1    2  502    0 -0.16093630165E+03 -0.89365400231E+02  0.12450846854E+03  0.22227572761E+03  0.41800000000E+01 0.  1.
         -5    1    1    2    0  502 -0.20200322635E+02  0.36780625857E+02  0.26657427322E+02  0.49889460855E+02  0.41800000000E+01 0.  1.
        -11    1    3    3    0    0  0.15017501742E+02  0.40898494745E+02  0.12837041753E+02  0.45420280404E+02  0.00000000000E+00 0. -1.
         11    1    3    3    0    0  0.16611912254E+03  0.11686279629E+02 -0.95636510434E+01  0.16680406298E+03  0.00000000000E+00 0.  1.
</event>
<event>
 7    1  0.5137842E-006  0.1480679E+03  0.7561462E-02  0.1202867E+00
         -3   -1    0    0    0  501 -0.00000000000E+00  0.00000000000E+00  0.86188367667E+03  0.86188367667E+03  0.00000000000E+00 0.  1.
          3   -1    0    0  501    0  0.00000000000E+00 -0.00000000000E+00 -0.30578424646E+02  0.30578424646E+02  0.00000000000E+00 0. -1.
         23    2    1    2    0    0  0.71227728748E+02  0.49347444909E+02  0.19762420644E+03  0.23404015806E+03  0.90614065978E+02 0.  0.
          5    1    1    2  502    0 -0.69119018102E+02  0.41279704626E+02  0.20585630896E+03  0.22107859466E+03  0.41800000000E+01 0. -1.
         -5    1    1    2    0  502 -0.21087106464E+01 -0.90627149535E+02  0.42782473662E+03  0.43734334859E+03  0.41800000000E+01 0.  1.
        -11    1    3    3    0    0  0.16965805146E+02 -0.26528672869E+02  0.40353500071E+02  0.51186072289E+02  0.00000000000E+00 0.  1.
         11    1    3    3    0    0  0.54261923602E+02  0.75876117777E+02  0.15727070637E+03  0.18285408577E+03  0.00000000000E+00 0. -1.
</event>
<event>
 7    1  0.5137842E-006  0.9898242E+02  0.7561462E-02  0.1282450E+00
          2   -1    0    0  501    0  0.00000000000E+00  0.00000000000E+00  0.28936190085E+03  0.28936190085E+03  0.00000000000E+00 0.  1.
         -2   -1    0    0    0  501 -0.00000000000E+00 -0.00000000000E+00 -0.49649658632E+02  0.49649658632E+02  0.00000000000E+00 0. -1.
         23    2    1    2    0    0 -0.33980769639E+02  0.40166722980E+02  0.10479205409E+03  0.14764595830E+03  0.89721212996E+02 0.  0.
          5    1    1    2  502    0  0.53690642191E+02 -0.56822785203E+01  0.37860254915E+01  0.54284249438E+02  0.41800000000E+01 0.  1.
         -5    1    1    2    0  502 -0.19709872552E+02 -0.34484444460E+02  0.13113416264E+03  0.13708135175E+03  0.41800000000E+01 0.  1.
        -11    1    3    3    0    0  0.30900343418E+02  0.13728318542E+02  0.30626158571E+02  0.45620823558E+02  0.00000000000E+00 0.  1.
         11    1    3    3    0    0 -0.64881113057E+02  0.26438404438E+02  0.74165895520E+02  0.10202513474E+03  0.00000000000E+00 0. -1.
</event>
<event>
 7    1  0.5137842E-006  0.9572635E+02  0.7561462E-02  0.1289548E+00
         -1   -1    0    0    0  501 -0.00000000000E+00  0.00000000000E+00  0.25143612451E+02  0.25143612451E+02  0.00000000000E+00 0.  1.
          1   -1    0    0  501    0  0.00000000000E+00 -0.00000000000E+00 -0.57751465941E+03  0.57751465941E+03  0.00000000000E+00 0. -1.
         23    2    1    2    0    0  0.58348412785E+02 -0.10778682035E+02 -0.24779306405E+03  0.26808931140E+03  0.83365214759E+02 0.  0.
          5    1    1    2  502    0 -0.90976445923E+02  0.17971515637E+02 -0.15027264417E+03  0.17663246891E+03  0.41800000000E+01 0.  1.
         -5    1    1    2    0  502  0.32628033138E+02 -0.71928336020E+01 -0.15430533874E+03  0.15793649155E+03  0.41800000000E+01 0.  1.
        -11    1    3    3    0    0  0.11426067555E+02  0.84823018943E+01  0.91694595978E+00  0.14259917780E+02  0.00000000000E+00 0.  1.
         11    1    3    3    0    0  0.46922345230E+02 -0.19260983930E+02 -0.24871001001E+03  0.25382939362E+03  0.00000000000E+00 0. -1.
</event>
<event>
 7    1  0.5137842E-006  0.1155259E+03  0.7561462E-02  0.1250666E+00
          2   -1    0    0  501    0  0.00000000000E+00  0.00000000000E+00  0.25393860127E+03  0.25393860127E+03  0.00000000000E+00 0. -1.
         -2   -1    0    0    0  501 -0.00000000000E+00 -0.00000000000E+00 -0.62805581110E+02  0.62805581110E+02  0.00000000000E+00 0.  1.
         23    2    1    2    0    0 -0.97846681042E+01  0.58110572159E+02  0.12529858968E+03  0.16526793733E+03  0.90228466715E+02 0.  0.
          5    1    1    2  502    0  0.40995255960E+02  0.23327259077E+02  0.34979235301E+02  0.58870971875E+02  0.41800000000E+01 0. -1.
         -5    1    1    2    0  502 -0.31210587856E+02 -0.81437831236E+02  0.30855195177E+02  0.92605273176E+02  0.41800000000E+01 0.  1.
        -11    1    3    3    0    0 -0.12928692029E+02 -0.16917319284E+02  0.66701123353E+02  0.70017045253E+02  0.00000000000E+00 0.  1.
         11    1    3    3    0    0  0.31440239249E+01  0.75027891443E+02  0.58597466327E+02  0.95250892073E+02  0.00000000000E+00 0. -1.
</event>
<event>
 7    1  0.5137842E-006  0.9896371E+02  0.7561462E-02  0.1282490E+00
          1   -1    0    0  501    0  0.00000000000E+00  0.00000000000E+00  0.64765101505E+02  0.64765101505E+02  0.00000000000E+00 0. -1.
         -1   -1    0    0    0  501 -0.00000000000E+00 -0.00000000000E+00 -0.32013092472E+03  0.32013092472E+03  0.00000000000E+00 0.  1.
         23    2    1    2    0    0 -0.27987379333E+02  0.21338877184E+02  0.12699354870E+02  0.86996881699E+02  0.78540070854E+02 0.  0.
          5    1    1    2  502    0 -0.22655966884E+02  0.39362263132E+02 -0.14098481950E+03  0.14817851506E+03  0.41800000000E+01 0. -1.
         -5    1    1    2    0  502  0.50643346217E+02 -0.60701140315E+02 -0.12708035859E+03  0.14972062947E+03  0.41800000000E+01 0. -1.
        -11    1    3    3    0    0  0.19590020599E+02 -0.28260565501E+01 -0.16854759482E+02  0.25996892504E+02  0.00000000000E+00 0.  1.
         11    1    3    3    0    0 -0.47577399932E+02  0.24164933734E+02  0.29554114352E+02  0.60999989195E+02  0.00000000000E+00 0. -1.
</event>
<event>
 7    1  0.5137842E-006  0.6981398E+02  0.7561462E-02  0.1360727E+00
         -2   -1    0    0    0  501 -0.00000000000E+00  0.00000000000E+00  0.59736993640E+02  0.59736993640E+02  0.00000000000E+00 0.  1.
          2   -1    0    0  501    0  0.00000000000E+00 -0.00000000000E+00 -0.28570950782E+03  0.28570950782E+03  0.00000000000E+00 0. -1.
         23    2    1    2    0    0 -0.40252379675E+02  0.28771437341E+01 -0.15243634297E+03  0.19483503993E+03  0.11443479410E+03 0.  0.
          5    1    1    2  502    0 -0.13294486405E+01 -0.84288912002E+01  0.33896423756E+02  0.35203033733E+02  0.41800000000E+01 0. -1.
         -5    1    1    2    0  502  0.41581828315E+02  0.55517474661E+01 -0.10743259497E+03  0.11540842780E+03  0.41800000000E+01 0. -1.
        -11    1    3    3    0    0 -0.15733609346E+02  0.40280440363E+02 -0.14264035668E+03  0.14905143976E+03  0.00000000000E+00 0. -1.
         11    1    3    3    0    0 -0.24518770329E+02 -0.37403296629E+02 -0.97959862855E+01  0.45783600169E+02  0.00000000000E+00 0.  1.
</event>
<event>
 7    1  0.5137842E-006  0.1279981E+03  0.7561462E-02  0.1230457E+00
         -2   -1    0    0    0  501 -0.00000000000E+00  0.00000000000E+00  0.31207795013E+02  0.31207795013E+02  0.00000000000E+00 0.  1.
          2   -1    0    0  501    0  0.00000000000E+00 -0.00000000000E+00 -0.67651843490E+03  0.67651843490E+03  0.00000000000E+00 0. -1.
         23    2    1    2    0    0 -0.90786731378E+02  0.46748388224E+01 -0.38466580699E+03  0.40466311502E+03  0.86720060442E+02 0.  0.
          5    1    1    2  502    0  0.32437018826E+02  0.58619875355E+02 -0.13399559184E+03  0.14986907956E+03  0.41800000000E+01 0. -1.
         -5    1    1    2    0  502  0.58349712552E+02 -0.63294714178E+02 -0.12664924106E+03  0.15319403532E+03  0.41800000000E+01 0. -1.
        -11    1    3    3    0    0 -0.77085063113E+02  0.22404494803E+02 -0.36821939647E+03  0.37686813646E+03  0.00000000000E+00 0. -1.
         11    1    3    3    0    0 -0.13701668265E+02 -0.17729655981E+02 -0.16446410518E+02  0.27794978564E+02  0.00000000000E+00 0.  1.
</event>
<event>
 7    1  0.5137842E-006  0.7951831E+02  0.7561462E-02  0.1330424E+00
         -1   -1    0    0    0  501 -0.00000000000E+00  0.00000000000E+00  0.76306070755E+03  0.76306070755E+03  0.00000000000E+00 0.  1.
          1   -1    0    0  501    0  0.00000000000E+00 -0.00000000000E+00 -0.28565603191E+02  0.28565603191E+02  0.00000000000E+00 0. -1.
         23    2    1    2    0    0  0.84294153238E+01  0.53780155253E+02  0.11280635599E+03  0.15514467880E+03  0.91549097582E+02 0.  0.
          5    1    1    2  502    0  0.24266834648E+02 -0.52896556771E+02  0.58184387623E+03  0.58476208298E+03  0.41800000000E+01 0.  1.
         -5    1    1    2    0  502 -0.32696249971E+02 -0.88359848211E+00  0.39844872139E+02  0.51719548957E+02  0.41800000000E+01 0.  1.
        -11    1    3    3    0    0  0.20443179095E+02  0.10866774160E+02  0.10784953381E+03  0.11030653786E+03  0.00000000000E+00 0.  1.
         11    1    3    3    0    0 -0.12013763771E+02  0.42913381093E+02  0.49568221753E+01  0.44838140939E+02  0.00000000000E+00 0. -1.
</event>
<event>
 7    1  0.5137842E-006  0.1168688E+03  0.7561462E-02  0.1248354E+00
         -1   -1    0    0    0  501 -0.00000000000E+00  0.00000000000E+00  0.43342447343E+02  0.43342447343E+02  0.00000000000E+00 0.  1.
          1   -1    0    0  501    0  0.00000000000E+00 -0.00000000000E+00 -0.35807868274E+03  0.35807868274E+03  0.00000000000E+00 0. -1.
         23    2    1    2    0    0 -0.51553861587E+02 -0.19466162703E+02 -0.11062288022E+03  0.15576499433E+03  0.94808120409E+02 0.  0.
          5    1    1    2  502    0  0.83825488347E+02  0.31584450040E+02 -0.18600516151E+03  0.20649378317E+03  0.41800000000E+01 0.  1.
         -5    1    1    2    0  502 -0.32271626759E+02 -0.12118287337E+02 -0.18108193666E+02  0.39162352579E+02  0.41800000000E+01 0.  1.
        -11    1    3    3    0    0  0.15194509362E+02 -0.37275924507E+02 -0.46573020424E+02  0.61558215488E+02  0.00000000000E+00 0.  1.
         11    1    3    3    0    0 -0.66748370949E+02  0.17809761804E+02 -0.64049859797E+02  0.94206778842E+02  0.00000000000E+00 0. -1.
</event>
<event>
 7    1  0.5137842E-006  0.9417697E+02  0.7561462E-02  0.1293041E+00
          1   -1    0    0  501    0  0.00000000000E+00  0.00000000000E+00  0.44804402220E+03  0.44804402220E+03  0.00000000000E+00 0. -1.
         -1   -1    0    0    0  501 -0.00000000000E+00 -0.00000000000E+00 -0.37033479523E+02  0.37033479523E+02  0.00000000000E+00 0.  1.
         23    2    1    2    0    0 -0.47564233254E+02  0.37619623468E+02  0.24912634159E+03  0.27169762960E+03  0.89878114697E+02 0.  0.
          5    1    1    2  502    0  0.38082184841E+02 -0.73782002179E+02  0.54021185790E+02  0.99145335553E+02  0.41800000000E+01 0. -1.
         -5    1    1    2    0  502  0.94820484126E+01  0.36162378711E+02  0.10786301529E+03  0.11423453657E+03  0.41800000000E+01 0. -1.
        -11    1    3    3    0    0 -0.27699455511E+01  0.18817586169E+02  0.12017739864E+01  0.19058289752E+02  0.00000000000E+00 0.  1.
         11    1    3    3    0    0 -0.44794287703E+02  0.18802037300E+02  0.24792456760E+03  0.25263933985E+03  0.00000000000E+00 0. -1.
</event>
<event>
 7    1  0.5137842E-006  0.9665137E+02  0.7561462E-02  0.1287500E+00
          3   -1    0    0  501    0  0.00000000000E+00  0.00000000000E+00  0.11066533051E+03  0.11066533051E+03  0.00000000000E+00 0. -1.
         -3   -1    0    0    0  501 -0.00000000000E+00 -0.00000000000E+00 -0.11491954213E+03  0.11491954213E+03  0.00000000000E+00 0.  1.
         23    2    1    2    0    0  0.14461640111E+02  0.14204679529E+02  0.38056587470E+01  0.98603742093E+02  0.96422523100E+02 0.  0.
          5    1    1    2  502    0  0.12457022179E+02 -0.49959453150E+02  0.36838996590E+02  0.63448470670E+02  0.41800000000E+01 0.  1.
         -5    1    1    2    0  502 -0.26918662290E+02  0.35754773621E+02 -0.44898866965E+02  0.63532659876E+02  0.41800000000E+01 0.  1.
        -11    1    3    3    0    0  0.28365646771E+02  0.50447882860E+02  0.11557984321E+02  0.59018520851E+02  0.00000000000E+00 0.  1.
         11    1    3    3    0    0 -0.13904006661E+02 -0.36243203332E+02 -0.77523255743E+01  0.39585221242E+02  0.00000000000E+00 0. -1.
</event>
<event>
 7    1  0.5137842E-006  0.1132575E+03  0.7561462E-02  0.1254654E+00
         -1   -1    0    0    0  501 -0.00000000000E+00  0.00000000000E+00  0.53008385355E+02  0.53008385355E+02  0.00000000000E+00 0.  1.
          1   -1    0    0  501    0  0.00000000000E+00 -0.00000000000E+00 -0.35706146089E+03  0.35706146089E+03  0.00000000000E+00 0. -1.
         23    2    1    2    0    0 -0.76730808720E+02 -0.34738063866E+02 -0.12967238293E+03  0.17952837263E+03  0.91220390241E+02 0.  0.
          5    1    1    2  502    0  0.90249335029E+02 -0.11487065462E+02 -0.67894907300E+02  0.11359615303E+03  0.41800000000E+01 0.  1.
         -5    1    1    2    0  502 -0.13518526308E+02  0.46225129327E+02 -0.10648578530E+03  0.11694532058E+03  0.41800000000E+01 0.  1.
        -11    1    3    3    0    0 -0.40691553234E+02 -0.62683139087E+01 -0.12701799019E+03  0.13352402067E+03  0.00000000000E+00 0. -1.
         11    1    3    3    0    0 -0.36039255487E+02 -0.28469749957E+02 -0.26543927443E+01  0.46004351963E+02  0.00000000000E+00 0.  1.
</event>
<event>
 7    1  0.5137842E-006  0.2723976E+03  0.7561462E-02  0.1099915E+00
         -2   -1    0    0    0  501 -0.00000000000E+00  0.00000000000E+00  0.11373506555E+04  0.11373506555E+04  0.00000000000E+00 0.  1.
          2   -1    0    0  501    0  0.00000000000E+00 -0.00000000000E+00 -0.81078308315E+02  0.81078308315E+02  0.00000000000E+00 0. -1.
         23    2    1    2    0    0  0.25023008529E+03 -0.16257543659E+02  0.24701297619E+03  0.36202523884E+03  0.84660851878E+02 0.  0.
          5    1    1    2  502    0 -0.17916979535E+03  0.68540451486E+02  0.54856526248E+03  0.58115482331E+03  0.41800000000E+01 0. -1.
         -5    1    1    2    0  502 -0.71060289937E+02 -0.52282907826E+02  0.26069410855E+03  0.27524890170E+03  0.41800000000E+01 0. -1.
        -11    1    3    3    0    0  0.19028013382E+03  0.24865526470E+02  0.18275382547E+03  0.26499770651E+03  0.00000000000E+00 0.  1.
         11    1    3    3    0    0  0.59949951465E+02 -0.41123070129E+02  0.64259150726E+02  0.97027532327E+02  0.00000000000E+00 0. -1.
</event>
<event>
 7    1  0.5137842E-006  0.1052498E+03  0.7561462E-02  0.1269628E+00
         -3   -1    0    0    0  501 -0.00000000000E+00  0.00000000000E+00  0.19881249949E+03  0.19881249949E+03  0.00000000000E+00 0.  1.
          3   -1    0    0  501    0  0.00000000000E+00 -0.00000000000E+00 -0.73912465453E+02  0.73912465453E+02  0.00000000000E+00 0. -1.
         23    2    1    2    0    0 -0.47215645208E+02  0.38368597709E+00  0.25795866292E+02  0.10629180158E+03  0.91668184222E+02 0.  0.
          5    1    1    2  502    0 -0.35854162681E+02  0.26215473369E+02  0.46733143715E+02  0.64608290079E+02  0.41800000000E+01 0. -1.
         -5    1    1    2    0  502  0.83069807889E+02 -0.26599159346E+02  0.52371024026E+02  0.10182487328E+03  0.41800000000E+01 0. -1.
        -11    1    3    3    0    0  0.15646684537E+02 -0.10755180632E+01  0.39005034698E+02  0.42040078591E+02  0.00000000000E+00 0.  1.
         11    1    3    3    0    0 -0.62862329744E+02  0.14592040403E+01 -0.13209168407E+02  0.64251722991E+02  0.00000000000E+00 0. -1.
</event>
<event>
 7    1  0.5137842E-006  0.1086727E+03  0.7561462E-02  0.1263048E+00
          1   -1    0    0  501    0  0.00000000000E+00  0.00000000000E+00  0.65352196411E+03  0.65352196411E+03  0.00000000000E+00 0. -1.
         -1   -1    0    0    0  501 -0.00000000000E+00 -0.00000000000E+00 -0.27459534124E+02  0.27459534124E+02  0.00000000000E+00 0.  1.
         23    2    1    2    0    0  0.41227979226E+02 -0.64951230130E+02  0.32122085371E+03  0.34260996573E+03  0.90996391096E+02 0.  0.
          5    1    1    2  502    0  0.68137134808E+00  0.59484140332E+02  0.28557497865E+03  0.29173509910E+03  0.41800000000E+01 0. -1.
         -5    1    1    2    0  502 -0.41909350574E+02  0.54670897975E+01  0.19266597628E+02  0.46636433403E+02  0.41800000000E+01 0. -1.
        -11    1    3    3    0    0  0.44387623206E+01  0.21148791627E+02  0.32017279315E+02  0.38627453617E+02  0.00000000000E+00 0. -1.
         11    1    3    3    0    0  0.36789216906E+02 -0.86100021757E+02  0.28920357439E+03  0.30398251211E+03  0.00000000000E+00 0.  1.
</event>
<event>
 7    1  0.5137842E-006  0.1163664E+03  0.7561462E-02  0.1249215E+00
         -2   -1    0    0    0  501 -0.00000000000E+00  0.00000000000E+00  0.60953833798E+02  0.60953833798E+02  0.00000000000E+00 0.  1.
          2   -1    0    0  501    0  0.00000000000E+00 -0.00000000000E+00 -0.23926670824E+03  0.23926670824E+03  0.00000000000E+00 0. -1.
         23    2    1    2    0    0  0.52466067411E+02  0.26155453680E+01 -0.97083353065E+02  0.14208932930E+03  0.89468825579E+02 0.  0.
          5    1    1    2  502    0  0.37922896617E+02  0.17827941846E+02 -0.33467136904E+02  0.53791293448E+02  0.41800000000E+01 0. -1.
         -5    1    1    2    0  502 -0.90388964028E+02 -0.20443487214E+02 -0.47762384474E+02  0.10433991929E+03  0.41800000000E+01 0. -1.
        -11    1    3    3    0    0  0.31793957207E+02 -0.39638681432E+02 -0.73801202941E+02  0.89603004057E+02  0.00000000000E+00 0. -1.
         11    1    3    3    0    0  0.20672110205E+02  0.42254226800E+02 -0.23282150124E+02  0.52486325240E+02  0.00000000000E+00 0.  1.
</event>
<event>
 7    1  0.5137842E-006  0.2052599E+03  0.7561462E-02  0.1145376E+00
         -2   -1    0    0    0  501 -0.00000000000E+00  0.00000000000E+00  0.41025320965E+03  0.41025320965E+03  0.00000000000E+00 0. -1.
          2   -1    0    0  501    0  0.00000000000E+00 -0.00000000000E+00 -0.10986358445E+03  0.10986358445E+03  0.00000000000E+00 0.  1.
         23    2    1    2    0    0  0.18117241862E+03  0.10328243162E+02  0.15533002427E+03  0.25626101055E+03  0.92801784528E+02 0.  0.
          5    1    1    2  502    0  0.14855363636E+02 -0.17822353790E+02  0.21985705326E+02  0.32236032046E+02  0.41800000000E+01 0.  1.
         -5    1    1    2    0  502 -0.19602778225E+03  0.74941106271E+01  0.12307389561E+03  0.23161975151E+03  0.41800000000E+01 0.  1.
        -11    1    3    3    0    0  0.12857127605E+03 -0.19836483506E+02  0.59957055345E+02  0.14324422358E+03  0.00000000000E+00 0.  1.
         11    1    3    3    0    0  0.52601142565E+02  0.30164726669E+02  0.95372968928E+02  0.11301678697E+03  0.00000000000E+00 0. -1.
</event>
<event>
 7    1  0.5137842E-006  0.1216378E+03  0.7561462E-02  0.1240419E+00
          1   -1    0    0  501    0  0.00000000000E+00  0.00000000000E+00  0.21165767605E+03  0.21165767605E+03  0.00000000000E+00 0. -1.
         -1   -1    0    0    0  501 -0.00000000000E+00 -0.00000000000E+00 -0.10632514847E+03  0.10632514847E+03  0.00000000000E+00 0.  1.
         23    2    1    2    0    0  0.58221184667E+02  0.89265272724E+02  0.71331905649E+02  0.15814393780E+03  0.92537932990E+02 0.  0.
          5    1    1    2  502    0 -0.51321418516E+02 -0.76151384538E+02  0.73337738983E+02  0.11759599366E+03  0.41800000000E+01 0. -1.
         -5    1    1    2    0  502 -0.68997661509E+01 -0.13113888186E+02 -0.39337117046E+02  0.42242893057E+02  0.41800000000E+01 0.  1.
        -11    1    3    3    0    0  0.78954205602E+02  0.56156141051E+02  0.69120377101E+02  0.11901640765E+03  0.00000000000E+00 0. -1.
         11    1    3    3    0    0 -0.20733020935E+02  0.33109131673E+02  0.22115285481E+01  0.39127530151E+02  0.00000000000E+00 0.  1.
</event>
<event>
 7    1  0.5137842E-006  0.1007948E+03  0.7561462E-02  0.1278633E+00
          2   -1    0    0  501    0  0.00000000000E+00  0.00000000000E+00  0.12036740113E+03  0.12036740113E+03  0.00000000000E+00 0. -1.
         -2   -1    0    0    0  501 -0.00000000000E+00 -0.00000000000E+00 -0.16220958888E+03  0.16220958888E+03  0.00000000000E+00 0.  1.
         23    2    1    2    0    0  0.81034587983E+02 -0.25591949603E+02  0.21113472484E+01  0.12506950000E+03  0.91740774520E+02 0.  0.
          5    1    1    2  502    0 -0.35207821250E+01 -0.23864418051E+02  0.30508186893E+02  0.39116853441E+02  0.41800000000E+01 0.  1.
         -5    1    1    2    0  502 -0.77513805858E+02  0.49456367654E+02 -0.74461721888E+02  0.11839063657E+03  0.41800000000E+01 0.  1.
        -11    1    3    3    0    0  0.35539090920E+02 -0.13208410360E+02 -0.44709558300E+02  0.58621102779E+02  0.00000000000E+00 0.  1.
         11    1    3    3    0    0  0.45495497064E+02 -0.12383539243E+02  0.46820905548E+02  0.66448397224E+02  0.00000000000E+00 0. -1.
</event>
<event>
 7    1  0.5137842E-006  0.1083265E+03  0.7561462E-02  0.1263701E+00
          1   -1    0    0  501    0  0.00000000000E+00  0.00000000000E+00  0.16259896997E+02  0.16259896997E+02  0.00000000000E+00 0. -1.
         -1   -1    0    0    0  501 -0.00000000000E+00 -0.00000000000E+00 -0.84284242656E+03  0.84284242656E+03  0.00000000000E+00 0.  1.
         23    2    1    2    0    0  0.34035143853E+02 -0.26716034668E+02 -0.37407502900E+03  0.38763398899E+03  0.91955666355E+02 0.  0.
          5    1    1    2  502    0 -0.72788107947E+02  0.17307856387E+02 -0.16550540598E+03  0.18167878897E+03  0.41800000000E+01 0.  1.
         -5    1    1    2    0  502  0.38752964094E+02  0.94081782816E+01 -0.28700209458E+03  0.28978954560E+03  0.41800000000E+01 0.  1.
        -11    1    3    3    0    0 -0.12785973685E+02 -0.48373038317E+02 -0.18612807133E+03  0.19273580595E+03  0.00000000000E+00 0.  1.
         11    1    3    3    0    0  0.46821117539E+02  0.21657003649E+02 -0.18794695767E+03  0.19489818304E+03  0.00000000000E+00 0. -1.
</event>
<event>
 7    1  0.5137842E-006  0.1438964E+03  0.7561462E-02  0.1208180E+00
          2   -1    0    0  501    0  0.00000000000E+00  0.00000000000E+00  0.31101212360E+03  0.31101212360E+03  0.00000000000E+00 0. -1.
         -2   -1    0    0    0  501 -0.00000000000E+00 -0.00000000000E+00 -0.14912125274E+03  0.14912125274E+03  0.00000000000E+00 0.  1.
         23    2    1    2    0    0  0.10994690707E+03 -0.89719786591E+00  0.23694899781E+03  0.27744382571E+03  0.93493965166E+02 0.  0.
          5    1    1    2  502    0 -0.47390118172E+02 -0.50357008910E+02 -0.74466073606E+02  0.10170703105E+03  0.41800000000E+01 0. -1.
         -5    1    1    2    0  502 -0.62556788902E+02  0.51254206776E+02 -0.59205334380E+00  0.80982519578E+02  0.41800000000E+01 0. -1.
        -11    1    3    3    0    0  0.10052550960E+03 -0.31636322717E+02  0.13952979575E+03  0.17485650945E+03  0.00000000000E+00 0.  1.
         11    1    3    3    0    0  0.94213974710E+01  0.30739124851E+02  0.97419202060E+02  0.10258731626E+03  0.00000000000E+00 0. -1.
</event>
<event>
 7    1  0.5137842E-006  0.1131602E+03  0.7561462E-02  0.1254827E+00
          2   -1    0    0  501    0  0.00000000000E+00  0.00000000000E+00  0.53688859133E+03  0.53688859133E+03  0.00000000000E+00 0. -1.
         -2   -1    0    0    0  501 -0.00000000000E+00 -0.00000000000E+00 -0.24582166246E+02  0.24582166246E+02  0.00000000000E+00 0.  1.
         23    2    1    2    0    0 -0.31002895778E+02 -0.17460565624E+02  0.22314338411E+03  0.24440480601E+03  0.93138007445E+02 0.  0.
          5    1    1    2  502    0  0.62466491587E+02  0.51067037215E+02  0.14924862798E+03  0.16971308204E+03  0.41800000000E+01 0. -1.
         -5    1    1    2    0  502 -0.31463595809E+02 -0.33606471591E+02  0.13991441300E+03  0.14735286953E+03  0.41800000000E+01 0. -1.
        -11    1    3    3    0    0 -0.23175345418E+02 -0.55669078977E+02  0.14600256546E+03  0.15796484454E+03  0.00000000000E+00 0. -1.
         11    1    3    3    0    0 -0.78275503597E+01  0.38208513353E+02  0.77140818649E+02  0.86439961471E+02  0.00000000000E+00 0.  1.
</event>
<event>
 7    1  0.5137842E-006  0.9541241E+02  0.7561462E-02  0.1290250E+00
         -1   -1    0    0    0  501 -0.00000000000E+00  0.00000000000E+00  0.20644431325E+03  0.20644431325E+03  0.00000000000E+00 0.  1.
          1   -1    0    0  501    0  0.00000000000E+00 -0.00000000000E+00 -0.57497805574E+02  0.57497805574E+02  0.00000000000E+00 0. -1.
         23    2    1    2    0    0  0.11049072365E+01 -0.16478858419E+02  0.49028946761E+02  0.10299875399E+03  0.89062517974E+02 0.  0.
          5    1    1    2  502    0 -0.49609549250E+02  0.18305305870E+02  0.37951048753E+01  0.53179571461E+02  0.41800000000E+01 0. -1.
         -5    1    1    2    0  502  0.48504642014E+02 -0.18264474506E+01  0.96122456041E+02  0.10776379337E+03  0.41800000000E+01 0. -1.
        -11    1    3    3    0    0 -0.14651572362E+02  0.33550549571E+02  0.29545331192E+02  0.47045026777E+02  0.00000000000E+00 0.  1.
         11    1    3    3    0    0  0.15756479598E+02 -0.50029407991E+02  0.19483615568E+02  0.55953727211E+02  0.00000000000E+00 0. -1.
</event>
<event>
 7    1  0.5137842E-006  0.8790241E+02  0.7561462E-02  0.1308012E+00
          3   -1    0    0  501    0  0.00000000000E+00  0.00000000000E+00  0.66929516429E+02  0.66929516429E+02  0.00000000000E+00 0. -1.
         -3   -1    0    0    0  501 -0.00000000000E+00 -0.00000000000E+00 -0.20655128707E+03  0.20655128707E+03  0.00000000000E+00 0.  1.
         23    2    1    2    0    0  0.34549478839E+02  0.11414578950E+02 -0.27872418125E+02  0.10184205904E+03  0.90944896487E+02 0.  0.
          5    1    1    2  502    0 -0.11206653287E+01 -0.56147002821E+02 -0.99476609149E+02  0.11431014821E+03  0.41800000000E+01 0.  1.
         -5    1    1    2    0  502 -0.33428813510E+02  0.44732423872E+02 -0.12272743371E+02  0.57328596250E+02  0.41800000000E+01 0.  1.
        -11    1    3    3    0    0  0.33788469428E+01  0.27986461963E+02 -0.51953627340E+02  0.59108696938E+02  0.00000000000E+00 0.  1.
         11    1    3    3    0    0  0.31170631896E+02 -0.16571883014E+02  0.24081209215E+02  0.42733362103E+02  0.00000000000E+00 0. -1.
</event>
<event>
 7    1  0.5137842E-006  0.1853666E+03  0.7561462E-02  0.1162708E+00
         -1   -1    0    0    0  501 -0.00000000000E+00  0.00000000000E+00  0.60525043545E+02  0.60525043545E+02  0.00000000000E+00 0.  1.
          1   -1    0    0  501    0  0.00000000000E+00 -0.00000000000E+00 -0.64186367152E+03  0.64186367152E+03  0.00000000000E+00 0. -1.
         23    2    1    2    0    0 -0.16295902948E+03  0.16102378295E+02 -0.29141587727E+03  0.34669474528E+03  0.91973371180E+02 0.  0.
          5    1    1    2  502    0  0.16199715872E+03  0.20905566518E+02 -0.19933348748E+03  0.25774296067E+03  0.41800000000E+01 0. -1.
         -5    1    1    2    0  502  0.96187075710E+00 -0.37007944813E+02 -0.90589263223E+02  0.97951009111E+02  0.41800000000E+01 0. -1.
        -11    1    3    3    0    0 -0.20378063840E+02  0.18441018145E+02 -0.12292396077E+03  0.12595886935E+03  0.00000000000E+00 0. -1.
         11    1    3    3    0    0 -0.14258096564E+03 -0.23386398505E+01 -0.16849191650E+03  0.22073587594E+03  0.00000000000E+00 0.  1.
</event>
<event>
 7    1  0.5137842E-006  0.1255944E+03  0.7561462E-02  0.1234143E+00
         -2   -1    0    0    0  501 -0.00000000000E+00  0.00000000000E+00  0.33414199358E+03  0.33414199358E+03  0.00000000000E+00 0.  1.
          2   -1    0    0  501    0  0.00000000000E+00 -0.00000000000E+00 -0.78900275158E+02  0.78900275158E+02  0.00000000000E+00 0. -1.
         23    2    1    2    0    0  0.95403929090E+02  0.63304365471E+02  0.73098132903E+02  0.16417700872E+03  0.92203041088E+02 0.  0.
          5    1    1    2  502    0 -0.38086281891E+02 -0.80720693809E+01 -0.10367411706E+02  0.40505293455E+02  0.41800000000E+01 0.  1.
         -5    1    1    2    0  502 -0.57317647199E+02 -0.55232296090E+02  0.19251099723E+03  0.20835996656E+03  0.41800000000E+01 0.  1.
        -11    1    3    3    0    0  0.61698305173E+02  0.12542954180E+01 -0.11369376933E+01  0.61721525787E+02  0.00000000000E+00 0. -1.
         11    1    3    3    0    0  0.33705623917E+02  0.62050070053E+02  0.74235070596E+02  0.10245548294E+03  0.00000000000E+00 0.  1.
</event>
<event>
 7    1  0.5137842E-006  0.1039671E+03  0.7561462E-02  0.1272168E+00
          3   -1    0    0  501    0  0.00000000000E+00  0.00000000000E+00  0.77660935436E+02  0.77660935436E+02  0.00000000000E+00 0.  1.
         -3   -1    0    0    0  501 -0.00000000000E+00 -0.00000000000E+00 -0.19626477808E+03  0.19626477808E+03  0.00000000000E+00 0. -1.
         23    2    1    2    0    0  0.94017085105E+01 -0.49501612178E+02 -0.11543436172E+02  0.10173598417E+03  0.87625098149E+02 0.  0.
          5    1    1    2  502    0 -0.63555762178E+02  0.18170097273E+02 -0.80094694648E+02  0.10393324709E+03  0.41800000000E+01 0.  1.
         -5    1    1    2    0  502  0.54154053668E+02  0.31331514905E+02 -0.26965711826E+02  0.68256482250E+02  0.41800000000E+01 0.  1.
        -11    1    3    3    0    0 -0.25058116236E+02 -0.11119438543E+02  0.26121331778E+02  0.37866542972E+02  0.00000000000E+00 0.  1.
         11    1    3    3    0    0  0.34459824746E+02 -0.38382173634E+02 -0.37664767950E+02  0.63869441200E+02  0.00000000000E+00 0. -1.
</event>
<event>
 7    1  0.5137842E-006  0.1000089E+03  0.7561462E-02  0.1280277E+00
          1   -1    0    0  501    0  0.00000000000E+00  0.00000000000E+00  0.32235561128E+03  0.32235561128E+03  0.00000000000E+00 0. -1.
         -1   -1    0    0    0  501 -0.00000000000E+00 -0.00000000000E+00 -0.51907854271E+02  0.51907854271E+02  0.00000000000E+00 0.  1.
         23    2    1    2    0    0  0.24778783620E+02  0.61809175205E+02  0.90178119253E+02  0.14496276698E+03  0.91911633445E+02 0.  0.
          5    1    1    2  502    0 -0.42028544611E+02 -0.81480761216E+02  0.68735625139E+02  0.11466286048E+03  0.41800000000E+01 0. -1.
         -5    1    1    2    0  502  0.17249760990E+02  0.19671586011E+02  0.11153401262E+03  0.11463783809E+03  0.41800000000E+01 0. -1.
        -11    1    3    3    0    0  0.21515097977E+02  0.17371838345E+01 -0.13237762211E+02  0.25321050471E+02  0.00000000000E+00 0.  1.
         11    1    3    3    0    0  0.32636856438E+01  0.60071991371E+02  0.10341588146E+03  0.11964171651E+03  0.00000000000E+00 0. -1.
</event>
<event>
 7    1  0.5137842E-006  0.1225076E+03  0.7561462E-02  0.1239017E+00
          3   -1    0    0  501    0  0.00000000000E+00  0.00000000000E+00  0.51371569282E+02  0.51371569282E+02  0.00000000000E+00 0. -1.
         -3   -1    0    0    0  501 -0.00000000000E+00 -0.00000000000E+00 -0.46834962577E+03  0.46834962577E+03  0.00000000000E+00 0.  1.
         23    2    1    2    0    0  0.82827208798E+02  0.55944351451E+01 -0.73592719737E+02  0.14495756249E+03  0.93301459273E+02 0.  0.
          5    1    1    2  502    0 -0.45548777080E+02  0.57388455346E+02 -0.13201058741E+03  0.15103772207E+03  0.41800000000E+01 0.  1.
         -5    1    1    2    0  502 -0.37278431718E+02 -0.62982890491E+02 -0.21137474935E+03  0.22372591050E+03  0.41800000000E+01 0.  1.
        -11    1    3    3    0    0  0.79755890272E+02 -0.11829494061E+02 -0.89995701116E+02  0.12083114326E+03  0.00000000000E+00 0.  1.
         11    1    3    3    0    0  0.30713185258E+01  0.17423929207E+02  0.16402981380E+02  0.24126419225E+02  0.00000000000E+00 0. -1.
</event>
<event>
 7    1  0.5137842E-006  0.1522936E+03  0.7561462E-02  0.1197683E+00
          2   -1    0    0  501    0  0.00000000000E+00  0.00000000000E+00  0.16915331282E+03  0.16915331282E+03  0.00000000000E+00 0. -1.
         -2   -1    0    0    0  501 -0.00000000000E+00 -0.00000000000E+00 -0.14429742815E+03  0.14429742815E+03  0.00000000000E+00 0.  1.
         23    2    1    2    0    0 -0.38868975676E+02  0.98452757525E+02  0.44135215402E+02  0.14843936518E+03  0.94247467663E+02 0.  0.
          5    1    1    2  502    0  0.13981319654E+02 -0.12568303777E+03 -0.11247566298E+02  0.12702630999E+03  0.41800000000E+01 0.  1.
         -5    1    1    2    0  502  0.24887656023E+02  0.27230280246E+02 -0.80317644343E+01  0.37985065809E+02  0.41800000000E+01 0.  1.
        -11    1    3    3    0    0 -0.46962843658E+02  0.51092615003E+01  0.22280031351E+02  0.52230384208E+02  0.00000000000E+00 0.  1.
         11    1    3    3    0    0  0.80938679812E+01  0.93343496025E+02  0.21855184050E+02  0.96208980968E+02  0.00000000000E+00 0. -1.
</event>
<event>
 7    1  0.5137842E-006  0.1730577E+03  0.7561462E-02  0.1174696E+00
          2   -1    0    0  501    0  0.00000000000E+00  0.00000000000E+00  0.12765335603E+03  0.12765335603E+03  0.00000000000E+00 0. -1.
         -2   -1    0    0    0  501 -0.00000000000E+00 -0.00000000000E+00 -0.28701775889E+03  0.28701775889E+03  0.00000000000E+00 0.  1.
         23    2    1    2    0    0  0.34243510028E+02  0.14833768092E+03 -0.31286042800E+02  0.17966670132E+03  0.90136682479E+02 0.  0.
          5    1    1    2  502    0  0.24649952831E+02 -0.12237668063E+02  0.12600004327E+02  0.30555084736E+02  0.41800000000E+01 0. -1.
         -5    1    1    2    0  502 -0.58893462859E+02 -0.13610001286E+03 -0.14067836438E+03  0.20444932886E+03  0.41800000000E+01 0. -1.
        -11    1    3    3    0    0  0.58534329891E+02  0.10777866869E+03 -0.44674453073E+02  0.13053090039E+03  0.00000000000E+00 0.  1.
         11    1    3    3    0    0 -0.24290819863E+02  0.40559012233E+02  0.13388410273E+02  0.49135800925E+02  0.00000000000E+00 0. -1.
</event>
<event>
 7    1  0.5137842E-006  0.7774254E+02  0.7561462E-02  0.1335583E+00
          1   -1    0    0  501    0  0.00000000000E+00  0.00000000000E+00  0.65636517155E+02  0.65636517155E+02  0.00000000000E+00 0. -1.
         -1   -1    0    0    0  501 -0.00000000000E+00 -0.00000000000E+00 -0.22754561551E+03  0.22754561551E+03  0.00000000000E+00 0.  1.
         23    2    1    2    0    0 -0.54522281661E+01 -0.36096707503E+02 -0.19072095718E+02  0.99832309866E+02  0.90939794225E+02 0.  0.
          5    1    1    2  502    0 -0.11705110585E+02  0.38033211588E+02 -0.16220563591E+03  0.16706787698E+03  0.41800000000E+01 0.  1.
         -5    1    1    2    0  502  0.17157338751E+02 -0.19365040849E+01  0.19368633274E+02  0.26281945819E+02  0.41800000000E+01 0.  1.
        -11    1    3    3    0    0 -0.46115576603E+02 -0.47407674328E+01 -0.12858744745E+02  0.48108924304E+02  0.00000000000E+00 0.  1.
         11    1    3    3    0    0  0.40663348436E+02 -0.31355940070E+02 -0.62133509727E+01  0.51723385563E+02  0.00000000000E+00 0. -1.
</event>
<event>
 7    1  0.5137842E-006  0.1000325E+03  0.7561462E-02  0.1280228E+00
         -1   -1    0    0    0  501 -0.00000000000E+00  0.00000000000E+00  0.18891608125E+03  0.18891608125E+03  0.00000000000E+00 0.  1.
          1   -1    0    0  501    0  0.00000000000E+00 -0.00000000000E+00 -0.10127947176E+03  0.10127947176E+03  0.00000000000E+00 0. -1.
         23    2    1    2    0    0  0.14448710468E+02 -0.85426400356E+02  0.27832795259E+02  0.12670101594E+03  0.88159218670E+02 0.  0.
          5    1    1    2  502    0 -0.37909208005E+02  0.80357670697E+02 -0.10049070637E+02  0.89514912233E+02  0.41800000000E+01 0.  1.
         -5    1    1    2    0  502  0.23460497537E+02  0.50687296583E+01  0.69852884871E+02  0.73979624829E+02  0.41800000000E+01 0.  1.
        -11    1    3    3    0    0  0.39294261203E+01 -0.36352076582E+02  0.57690913158E+02  0.68301942304E+02  0.00000000000E+00 0.  1.
         11    1    3    3    0    0  0.10519284348E+02 -0.49074323774E+02 -0.29858117900E+02  0.58399073636E+02  0.00000000000E+00 0. -1.
</event>
<event>
 7    1  0.9198519E-006  0.2406749E+03  0.7561462E-02  0.1119344E+00
          2   -1    0    0  501    0  0.00000000000E+00  0.00000000000E+00  0.42279722681E+03  0.42279722681E+03  0.00000000000E+00 0.  1.
         -2   -1    0    0    0  501 -0.00000000000E+00 -0.00000000000E+00 -0.15300312648E+03  0.15300312648E+03  0.00000000000E+00 0. -1.
         23    2    1    2    0    0  0.21684201840E+03  0.64932290167E+02  0.17649916297E+03  0.30086707333E+03  0.90179698566E+02 0.  0.
          5    1    1    2  502    0 -0.13940387517E+03 -0.80501334060E+02  0.11955169983E+02  0.16147539654E+03  0.41800000000E+01 0.  1.
         -5    1    1    2    0  502 -0.77438143230E+02  0.15569043893E+02  0.81339767373E+02  0.11345788342E+03  0.41800000000E+01 0.  1.
        -11    1    3    3    0    0  0.84220004195E+01  0.28399052513E+02  0.88826375034E+01  0.30924707334E+02  0.00000000000E+00 0. -1.
         11    1    3    3    0    0  0.20842001798E+03  0.36533237654E+02  0.16761652547E+03  0.26994236599E+03  0.00000000000E+00 0.  1.
</event>
<event>
 7    1  0.5137842E-006  0.3520963E+03  0.7561462E-02  0.1061758E+00
          2   -1    0    0  501    0  0.00000000000E+00  0.00000000000E+00  0.34998291855E+03  0.34998291855E+03  0.00000000000E+00 0.  1.
         -2   -1    0    0    0  501 -0.00000000000E+00 -0.00000000000E+00 -0.36766874170E+03  0.36766874170E+03  0.00000000000E+00 0. -1.
         23    2    1    2    0    0  0.32156814976E+03 -0.10446704677E+03 -0.57870832076E+02  0.35491427388E+03  0.91080567604E+02 0.  0.
          5    1    1    2  502    0 -0.29554160756E+03  0.57204911490E+02  0.11008845724E+02  0.30125721698E+03  0.41800000000E+01 0. -1.
         -5    1    1    2    0  502 -0.26026542203E+02  0.47262135275E+02  0.29176163206E+02  0.61480169398E+02  0.41800000000E+01 0. -1.
        -11    1    3    3    0    0  0.20431645675E+02 -0.34130465935E+02 -0.15894643168E+02  0.42836672739E+02  0.00000000000E+00 0.  1.
         11    1    3    3    0    0  0.30113650409E+03 -0.70336580830E+02 -0.41976188908E+02  0.31207760114E+03  0.00000000000E+00 0. -1.
</event>
<event>
 7    1  0.5137842E-006  0.1248022E+03  0.7561462E-02  0.1235379E+00
         -1   -1    0    0    0  501 -0.00000000000E+00  0.00000000000E+00  0.10069199381E+03  0.10069199381E+03  0.00000000000E+00 0.  1.
          1   -1    0    0  501    0  0.00000000000E+00 -0.00000000000E+00 -0.21421076884E+03  0.21421076884E+03  0.00000000000E+00 0. -1.
         23    2    1    2    0    0 -0.51412011944E+01  0.99876954670E+02 -0.61714662608E+02  0.14657968882E+03  0.87607462977E+02 0.  0.
          5    1    1    2  502    0  0.81314200088E+01  0.23955127445E+02 -0.34796168951E+02  0.43222839980E+02  0.41800000000E+01 0. -1.
         -5    1    1    2    0  502 -0.29902188144E+01 -0.12383208212E+03 -0.17007943463E+02  0.12510023385E+03  0.41800000000E+01 0. -1.
        -11    1    3    3    0    0 -0.86481593054E+00  0.33178093114E+02  0.21728578753E+02  0.39669445471E+02  0.00000000000E+00 0.  1.
         11    1    3    3    0    0 -0.42763852638E+01  0.66698861556E+02 -0.83443241362E+02  0.10691024335E+03  0.00000000000E+00 0. -1.
</event>
<event>
 7    1  0.5137842E-006  0.2179859E+03  0.7561462E-02  0.1135394E+00
          1   -1    0    0  501    0  0.00000000000E+00  0.00000000000E+00  0.13138774201E+03  0.13138774201E+03  0.00000000000E+00 0. -1.
         -1   -1    0    0    0  501 -0.00000000000E+00 -0.00000000000E+00 -0.43286374051E+03  0.43286374051E+03  0.00000000000E+00 0.  1.
         23    2    1    2    0    0 -0.11887476631E+03  0.17159769285E+03 -0.99914180480E+02  0.24825914560E+03  0.89848659734E+02 0.  0.
          5    1    1    2  502    0  0.71859829893E+02 -0.11738236966E+03 -0.20156735472E+03  0.24410925166E+03  0.41800000000E+01 0. -1.
         -5    1    1    2    0  502  0.47014936415E+02 -0.54215323190E+02  0.55366901419E-02  0.71883085252E+02  0.41800000000E+01 0. -1.
        -11    1    3    3    0    0  0.67606839247E+01  0.53631385129E+02 -0.33333616991E+02  0.63507183371E+02  0.00000000000E+00 0.  1.
         11    1    3    3    0    0 -0.12563545023E+03  0.11796630772E+03 -0.66580563489E+02  0.18475196223E+03  0.00000000000E+00 0. -1.
</event>
<event>
 7    1  0.5137842E-006  0.9356863E+02  0.7561462E-02  0.1294433E+00
         -2   -1    0    0    0  501 -0.00000000000E+00  0.00000000000E+00  0.24961634995E+02  0.24961634995E+02  0.00000000000E+00 0. -1.
          2   -1    0    0  501    0  0.00000000000E+00 -0.00000000000E+00 -0.54217085589E+03  0.54217085589E+03  0.00000000000E+00 0.  1.
         23    2    1    2    0    0 -0.10371279957E+02  0.82002692068E+01 -0.31814045390E+03  0.33165050974E+03  0.92757233365E+02 0.  0.
          5    1    1    2  502    0  0.83271965482E+01  0.43747007422E+02 -0.20042776213E+02  0.49013550566E+02  0.41800000000E+01 0.  1.
         -5    1    1    2    0  502  0.20440834092E+01 -0.51947276629E+02 -0.17902599079E+03  0.18646843058E+03  0.41800000000E+01 0.  1.
        -11    1    3    3    0    0 -0.42901953864E+02  0.28870510708E+02 -0.22469253607E+03  0.23056630239E+03  0.00000000000E+00 0.  1.
         11    1    3    3    0    0  0.32530673906E+02 -0.20670241501E+02 -0.93447917826E+02  0.10108420734E+03  0.00000000000E+00 0. -1.
</event>
<event>
 7    1  0.5137842E-006  0.1735651E+03  0.7561462E-02  0.1174180E+00
         -1   -1    0    0    0  501 -0.00000000000E+00  0.00000000000E+00  0.23804799078E+03  0.23804799078E+03  0.00000000000E+00 0.  1.
          1   -1    0    0  501    0  0.00000000000E+00 -0.00000000000E+00 -0.13671416058E+03  0.13671416058E+03  0.00000000000E+00 0. -1.
         23    2    1    2    0    0 -0.12355094571E+03  0.56982329460E+02  0.18285751794E+01  0.16486141299E+03  0.93081253476E+02 0.  0.
          5    1    1    2  502    0 -0.12786160688E+02 -0.43142394376E+02  0.40343843119E+02  0.60579288335E+02  0.41800000000E+01 0. -1.
         -5    1    1    2    0  502  0.13633710640E+03 -0.13839935084E+02  0.59161411909E+02  0.14932145004E+03  0.41800000000E+01 0. -1.
        -11    1    3    3    0    0 -0.12651534670E+03  0.20416703683E+02  0.22999862725E+01  0.12817279227E+03  0.00000000000E+00 0.  1.
         11    1    3    3    0    0  0.29644009975E+01  0.36565625776E+02 -0.47141109308E+00  0.36688620717E+02  0.00000000000E+00 0. -1.
</event>
<event>
 7    1  0.5137842E-006  0.1211758E+03  0.7561462E-02  0.1241170E+00
          2   -1    0    0  501    0  0.00000000000E+00  0.00000000000E+00  0.18856065757E+03  0.18856065757E+03  0.00000000000E+00 0. -1.
         -2   -1    0    0    0  501 -0.00000000000E+00 -0.00000000000E+00 -0.22896570577E+03  0.22896570577E+03  0.00000000000E+00 0.  1.
         23    2    1    2    0    0  0.66396057579E+02 -0.62377013509E+02  0.12790247931E+03  0.18889101027E+03  0.10498305231E+03 0.  0.
          5    1    1    2  502    0 -0.90502807514E+02  0.12944862649E+02 -0.13831656571E+03  0.16585316514E+03  0.41800000000E+01 0. -1.
         -5    1    1    2    0  502  0.24106749935E+02  0.49432150860E+02 -0.29990961801E+02  0.62782187926E+02  0.41800000000E+01 0. -1.
        -11    1    3    3    0    0  0.25452797080E+02 -0.43926941215E+02  0.13425711129E+03  0.14353533703E+03  0.00000000000E+00 0.  1.
         11    1    3    3    0    0  0.40943260499E+02 -0.18450072294E+02 -0.63546319814E+01  0.45355673246E+02  0.00000000000E+00 0. -1.
</event>
<event>
 7    1  0.5137842E-006  0.9236084E+02  0.7561462E-02  0.1297233E+00
          1   -1    0    0  501    0  0.00000000000E+00  0.00000000000E+00  0.91994707564E+02  0.91994707564E+02  0.00000000000E+00 0. -1.
         -1   -1    0    0    0  501 -0.00000000000E+00 -0.00000000000E+00 -0.15220882937E+03  0.15220882937E+03  0.00000000000E+00 0.  1.
         23    2    1    2    0    0  0.27042592463E+02  0.21943446461E+02  0.83314848180E+01  0.97374640953E+02  0.90551589780E+02 0.  0.
          5    1    1    2  502    0  0.33504394937E+02  0.13334477643E+02  0.13607478179E+02  0.38768397394E+02  0.41800000000E+01 0. -1.
         -5    1    1    2    0  502 -0.60546987401E+02 -0.35277924104E+02 -0.82153084806E+02  0.10806049859E+03  0.41800000000E+01 0. -1.
        -11    1    3    3    0    0 -0.23736796132E+02  0.25884426913E+01  0.30456266702E+02  0.38700383817E+02  0.00000000000E+00 0. -1.
         11    1    3    3    0    0  0.50779388595E+02  0.19355003770E+02 -0.22124781884E+02  0.58674257136E+02  0.00000000000E+00 0.  1.
</event>
<event>
 7    1  0.5137842E-006  0.1016224E+03  0.7561462E-02  0.1276921E+00
          1   -1    0    0  501    0  0.00000000000E+00  0.00000000000E+00  0.16090470383E+03  0.16090470383E+03  0.00000000000E+00 0. -1.
         -1   -1    0    0    0  501 -0.00000000000E+00 -0.00000000000E+00 -0.10432200602E+03  0.10432200602E+03  0.00000000000E+00 0.  1.
         23    2    1    2    0    0  0.19421422100E+01  0.10476882725E+02  0.10594614130E+03  0.13973509865E+03  0.90486330185E+02 0.  0.
          5    1    1    2  502    0 -0.52521916613E+02  0.19605571237E+02 -0.27387706447E+02  0.62533902906E+02  0.41800000000E+01 0. -1.
         -5    1    1    2    0  502  0.50579774403E+02 -0.30082453962E+02 -0.21975737047E+02  0.62957708295E+02  0.41800000000E+01 0.  1.
        -11    1    3    3    0    0 -0.24267056246E+00 -0.38751697598E+02  0.29163070642E+02  0.48499872629E+02  0.00000000000E+00 0.  1.
         11    1    3    3    0    0  0.21848127724E+01  0.49228580323E+02  0.76783070654E+02  0.91235226018E+02  0.00000000000E+00 0. -1.
</event>
<event>
 7    1  0.5137842E-006  0.1803791E+03  0.7561462E-02  0.1167437E+00
         -3   -1    0    0    0  501 -0.00000000000E+00  0.00000000000E+00  0.17028308869E+04  0.17028308869E+04  0.00000000000E+00 0.  1.
          3   -1    0    0  501    0  0.00000000000E+00 -0.00000000000E+00 -0.22190891758E+02  0.22190891758E+02  0.00000000000E+00 0. -1.
         23    2    1    2    0    0 -0.13473858308E+03 -0.11146238854E+02  0.45721879609E+03  0.48556346797E+03  0.91891944792E+02 0.  0.
          5    1    1    2  502    0  0.39819247828E+02  0.74187801525E+02  0.48089945936E+03  0.48823269534E+03  0.41800000000E+01 0. -1.
         -5    1    1    2    0  502  0.94919335253E+02 -0.63041562671E+02  0.74252173969E+03  0.75122561534E+03  0.41800000000E+01 0.  1.
        -11    1    3    3    0    0  0.11169261915E+02 -0.12173050605E+02  0.65513150086E+02  0.67564105906E+02  0.00000000000E+00 0.  1.
         11    1    3    3    0    0 -0.14590784500E+03  0.10268117513E+01  0.39170564600E+03  0.41799936206E+03  0.00000000000E+00 0. -1.
</event>
<event>
 7    1  0.5137842E-006  0.2499123E+03  0.7561462E-02  0.1113360E+00
         -2   -1    0    0    0  501 -0.00000000000E+00  0.00000000000E+00  0.93549966459E+02  0.93549966459E+02  0.00000000000E+00 0.  1.
          2   -1    0    0  501    0  0.00000000000E+00 -0.00000000000E+00 -0.98197294037E+03  0.98197294037E+03  0.00000000000E+00 0. -1.
         23    2    1    2    0    0  0.15861373482E+03 -0.17874509567E+03 -0.69885743043E+03  0.74584300066E+03  0.10378799289E+03 0.  0.
          5    1    1    2  502    0 -0.28589754741E+01  0.61464606378E+02 -0.94202357334E+02  0.11259497371E+03  0.41800000000E+01 0.  1.
         -5    1    1    2    0  502 -0.15575475935E+03  0.11728048929E+03 -0.95363186149E+02  0.21708493246E+03  0.41800000000E+01 0.  1.
        -11    1    3    3    0    0  0.12823782533E+03 -0.11385835212E+03 -0.59817344893E+03  0.62227014969E+03  0.00000000000E+00 0.  1.
         11    1    3    3    0    0  0.30375909487E+02 -0.64886743552E+02 -0.10068398150E+03  0.12357285097E+03  0.00000000000E+00 0. -1.
</event>
<event>
 7    1  0.5137842E-006  0.9336278E+02  0.7561462E-02  0.1294907E+00
          1   -1    0    0  501    0  0.00000000000E+00  0.00000000000E+00  0.41669173081E+03  0.41669173081E+03  0.00000000000E+00 0. -1.
         -1   -1    0    0    0  501 -0.00000000000E+00 -0.00000000000E+00 -0.64411609263E+02  0.64411609263E+02  0.00000000000E+00 0.  1.
         23    2    1    2    0    0  0.34926592831E+02 -0.85770506130E+02  0.28169820101E+03  0.31020515721E+03  0.91087411314E+02 0.  0.
          5    1    1    2  502    0 -0.19164485192E+02  0.46098652740E+02 -0.32180478965E+02  0.59543420322E+02  0.41800000000E+01 0.  1.
         -5    1    1    2    0  502 -0.15762107639E+02  0.39671853390E+02  0.10276239950E+03  0.11135476254E+03  0.41800000000E+01 0.  1.
        -11    1    3    3    0    0  0.10967667535E+02 -0.46133281365E+02  0.34338107056E+02  0.58546348963E+02  0.00000000000E+00 0.  1.
         11    1    3    3    0    0  0.23958925296E+02 -0.39637224765E+02  0.24736009395E+03  0.25165880825E+03  0.00000000000E+00 0. -1.
</event>
<event>
 7    1  0.5137842E-006  0.1797957E+03  0.7561462E-02  0.1168001E+00
          1   -1    0    0  501    0  0.00000000000E+00  0.00000000000E+00  0.84662719723E+03  0.84662719723E+03  0.00000000000E+00 0. -1.
         -1   -1    0    0    0  501 -0.00000000000E+00 -0.00000000000E+00 -0.51711323856E+02  0.51711323856E+02  0.00000000000E+00 0.  1.
         23    2    1    2    0    0 -0.13198721264E+03  0.92296840586E+02  0.54515839932E+03  0.57590198865E+03  0.92336824199E+02 0.  0.
          5    1    1    2  502    0  0.15329460136E+03 -0.86208938984E+02  0.24069667705E+03  0.29813349143E+03  0.41800000000E+01 0.  1.
         -5    1    1    2    0  502 -0.21307388722E+02 -0.60879016025E+01  0.90607970105E+01  0.24303041014E+02  0.41800000000E+01 0.  1.
        -11    1    3    3    0    0 -0.59374153132E+02  0.44220310103E+02  0.39864430485E+03  0.40546024179E+03  0.00000000000E+00 0. -1.
         11    1    3    3    0    0 -0.72613059506E+02  0.48076530483E+02  0.14651409447E+03  0.17044174686E+03  0.00000000000E+00 0.  1.
</event>
<event>
 7    1  0.5137842E-006  0.1327575E+03  0.7561462E-02  0.1223420E+00
         -2   -1    0    0    0  501 -0.00000000000E+00  0.00000000000E+00  0.29507736278E+03  0.29507736278E+03  0.00000000000E+00 0.  1.
          2   -1    0    0  501    0  0.00000000000E+00 -0.00000000000E+00 -0.93298255617E+02  0.93298255617E+02  0.00000000000E+00 0. -1.
         23    2    1    2    0    0  0.71345728561E+02 -0.90039647529E+02  0.19875172642E+02  0.13951048103E+03  0.76621150593E+02 0.  0.
          5    1    1    2  502    0 -0.33977983919E+02  0.89625012485E+02  0.18771889089E+03  0.21081508639E+03  0.41800000000E+01 0. -1.
         -5    1    1    2    0  502 -0.37367744642E+02  0.41463504426E+00 -0.58149563649E+01  0.38050050978E+02  0.41800000000E+01 0. -1.
        -11    1    3    3    0    0  0.28290912567E+02  0.39731441830E+01 -0.12463406496E+02  0.31168864433E+02  0.00000000000E+00 0. -1.
         11    1    3    3    0    0  0.43054815995E+02 -0.94012791712E+02  0.32338579138E+02  0.10834161660E+03  0.00000000000E+00 0.  1.
</event>
<event>
 7    1  0.5137842E-006  0.1112794E+03  0.7561462E-02  0.1258219E+00
         -2   -1    0    0    0  501 -0.00000000000E+00  0.00000000000E+00  0.21264844606E+02  0.21264844606E+02  0.00000000000E+00 0.  1.
          2   -1    0    0  501    0  0.00000000000E+00 -0.00000000000E+00 -0.62804804189E+03  0.62804804189E+03  0.00000000000E+00 0. -1.
         23    2    1    2    0    0 -0.37403245821E+01 -0.61170162540E+01 -0.31190031180E+03  0.32891461035E+03  0.10417105396E+03 0.  0.
          5    1    1    2  502    0 -0.37259138354E+02 -0.41500049669E+02 -0.89133597902E+02  0.10522722171E+03  0.41800000000E+01 0. -1.
         -5    1    1    2    0  502  0.40999462936E+02  0.47617065923E+02 -0.20574928758E+03  0.21517105444E+03  0.41800000000E+01 0. -1.
        -11    1    3    3    0    0 -0.24595119678E+02  0.43423265085E+02 -0.17006222779E+03  0.17723335234E+03  0.00000000000E+00 0.  1.
         11    1    3    3    0    0  0.20854795095E+02 -0.49540281339E+02 -0.14183808401E+03  0.15168125801E+03  0.00000000000E+00 0. -1.
</event>
<event>
 7    1  0.8091397E-006  0.1825391E+03  0.7561462E-02  0.1165368E+00
         -2   -1    0    0    0  501 -0.00000000000E+00  0.00000000000E+00  0.25445419754E+02  0.25445419754E+02  0.00000000000E+00 0.  1.
          2   -1    0    0  501    0  0.00000000000E+00 -0.00000000000E+00 -0.13946787999E+04  0.13946787999E+04  0.00000000000E+00 0. -1.
         23    2    1    2    0    0  0.39984875298E+02 -0.14206474857E+03 -0.80982595171E+03  0.82820750571E+03  0.91260163349E+02 0.  0.
          5    1    1    2  502    0 -0.31193001868E+02  0.16517929040E+03 -0.47651555674E+03  0.50531351611E+03  0.41800000000E+01 0. -1.
         -5    1    1    2    0  502 -0.87918734308E+01 -0.23114541832E+02 -0.82891871658E+02  0.86603197801E+02  0.41800000000E+01 0. -1.
        -11    1    3    3    0    0 -0.16253119194E+02 -0.10077846870E+03 -0.42320236238E+03  0.43533975601E+03  0.00000000000E+00 0. -1.
         11    1    3    3    0    0  0.56237994492E+02 -0.41286279864E+02 -0.38662358933E+03  0.39286774970E+03  0.00000000000E+00 0.  1.
</event>
<event>
 7    1  0.5137842E-006  0.1468797E+03  0.7561462E-02  0.1204360E+00
          2   -1    0    0  501    0  0.00000000000E+00  0.00000000000E+00  0.66934035193E+02  0.66934035193E+02  0.00000000000E+00 0. -1.
         -2   -1    0    0    0  501 -0.00000000000E+00 -0.00000000000E+00 -0.42200023799E+03  0.42200023799E+03  0.00000000000E+00 0.  1.
         23    2    1    2    0    0  0.12227411703E+03 -0.36998252290E+02 -0.15427545567E+03  0.22007957294E+03  0.91182629028E+02 0.  0.
          5    1    1    2  502    0 -0.52356003281E+02 -0.10019210054E+02 -0.17135946014E+03  0.17950786231E+03  0.41800000000E+01 0. -1.
         -5    1    1    2    0  502 -0.69918113747E+02  0.47017462344E+02 -0.29431286985E+02  0.89346837934E+02  0.41800000000E+01 0. -1.
        -11    1    3    3    0    0  0.20394847030E+02  0.28327333156E+02 -0.45575723552E+02  0.57406743214E+02  0.00000000000E+00 0. -1.
         11    1    3    3    0    0  0.10187927000E+03 -0.65325585446E+02 -0.10869973212E+03  0.16267282973E+03  0.00000000000E+00 0.  1.
</event>
<event>
 7    1  0.5137842E-006  0.9205322E+02  0.7561462E-02  0.1297954E+00
         -3   -1    0    0    0  501 -0.00000000000E+00  0.00000000000E+00  0.15141692221E+03  0.15141692221E+03  0.00000000000E+00 0.  1.
          3   -1    0    0  501    0  0.00000000000E+00 -0.00000000000E+00 -0.13825407920E+03  0.13825407920E+03  0.00000000000E+00 0. -1.
         23    2    1    2    0    0 -0.41652926289E+00  0.60328860295E+02 -0.68196080720E+02  0.12871614923E+03  0.90980199860E+02 0.  0.
          5    1    1    2  502    0  0.42208995738E+02 -0.45917844851E+02 -0.61626368535E+01  0.62813201558E+02  0.41800000000E+01 0. -1.
         -5    1    1    2    0  502 -0.41792466475E+02 -0.14411015444E+02  0.87521560580E+02  0.98141650620E+02  0.41800000000E+01 0. -1.
        -11    1    3    3    0    0 -0.23930060268E+02  0.23807580017E+02 -0.77288751478E+02  0.84338601813E+02  0.00000000000E+00 0. -1.
         11    1    3    3    0    0  0.23513531005E+02  0.36521280278E+02  0.90926707583E+01  0.44377547419E+02  0.00000000000E+00 0.  1.
</event>
<event>
 7    1  0.5137842E-006  0.1113035E+03  0.7561462E-02  0.1258175E+00
         -1   -1    0    0    0  501 -0.00000000000E+00  0.00000000000E+00  0.11991549514E+04  0.11991549514E+04  0.00000000000E+00 0.  1.
          1   -1    0    0  501    0  0.00000000000E+00 -0.00000000000E+00 -0.13477180558E+02  0.13477180558E+02  0.00000000000E+00 0. -1.
         23    2    1    2    0    0 -0.35853407577E+02  0.14649705459E+01  0.24485196811E+03  0.26296385220E+03  0.88937552829E+02 0.  0.
          5    1    1    2  502    0  0.26163000921E+02  0.59345222695E+02  0.57648285334E+03  0.58013473493E+03  0.41800000000E+01 0. -1.
         -5    1    1    2    0  502  0.96904066557E+01 -0.60810193241E+02  0.36434294940E+03  0.36953354484E+03  0.41800000000E+01 0.  1.
        -11    1    3    3    0    0 -0.65449175921E+02  0.68799128674E+01  0.16657593648E+03  0.17910463546E+03  0.00000000000E+00 0. -1.
         11    1    3    3    0    0  0.29595768344E+02 -0.54149423215E+01  0.78276031639E+02  0.83859216747E+02  0.00000000000E+00 0.  1.
</event>
<event>
 7    1  0.5137842E-006  0.2401478E+03  0.7561462E-02  0.1119694E+00
          2   -1    0    0  501    0  0.00000000000E+00  0.00000000000E+00  0.75515396968E+03  0.75515396968E+03  0.00000000000E+00 0. -1.
         -2   -1    0    0    0  501 -0.00000000000E+00 -0.00000000000E+00 -0.11179952803E+03  0.11179952803E+03  0.00000000000E+00 0.  1.
         23    2    1    2    0    0 -0.18916726334E+02 -0.23791278929E+03  0.49983717169E+03  0.56166154829E+03  0.93092205807E+02 0.  0.
          5    1    1    2  502    0 -0.39728298081E+01  0.12094222016E+03  0.14120328914E+03  0.18600711077E+03  0.41800000000E+01 0. -1.
         -5    1    1    2    0  502  0.22889556142E+02  0.11697056913E+03  0.23139808157E+01  0.11928483864E+03  0.41800000000E+01 0. -1.
        -11    1    3    3    0    0  0.59457887148E+01 -0.63478385112E+02  0.23554011419E+03  0.24401639939E+03  0.00000000000E+00 0. -1.
         11    1    3    3    0    0 -0.24862515049E+02 -0.17443440418E+03  0.26429705750E+03  0.31764514890E+03  0.00000000000E+00 0.  1.
</event>
<event>
 7    1  0.5137842E-006  0.1330495E+03  0.7561462E-02  0.1223000E+00
         -2   -1    0    0    0  501 -0.00000000000E+00  0.00000000000E+00  0.44890133845E+02  0.44890133845E+02  0.00000000000E+00 0.  1.
          2   -1    0    0  501    0  0.00000000000E+00 -0.00000000000E+00 -0.50605161528E+03  0.50605161528E+03  0.00000000000E+00 0. -1.
         23    2    1    2    0    0  0.12820874441E+02 -0.76132184480E+02 -0.28651522587E+03  0.30792968955E+03  0.82275359093E+02 0.  0.
          5    1    1    2  502    0 -0.26275685966E+01 -0.44611248849E+02 -0.68348139184E+02  0.81768014349E+02  0.41800000000E+01 0. -1.
         -5    1    1    2    0  502 -0.10193305844E+02  0.12074343333E+03 -0.10629811638E+03  0.16124404523E+03  0.41800000000E+01 0.  1.
        -11    1    3    3    0    0 -0.25985456059E+02 -0.30527209965E+02 -0.50723513538E+02  0.64653146099E+02  0.00000000000E+00 0.  1.
         11    1    3    3    0    0  0.38806330500E+02 -0.45604974515E+02 -0.23579171233E+03  0.24327654345E+03  0.00000000000E+00 0. -1.
</event>
<event>
 7    1  0.5137842E-006  0.1190729E+03  0.7561462E-02  0.1244634E+00
         -2   -1    0    0    0  501 -0.00000000000E+00  0.00000000000E+00  0.68920589340E+02  0.68920589340E+02  0.00000000000E+00 0.  1.
          2   -1    0    0  501    0  0.00000000000E+00 -0.00000000000E+00 -0.32613145269E+03  0.32613145269E+03  0.00000000000E+00 0. -1.
         23    2    1    2    0    0  0.87194499350E+02  0.13458263528E+02 -0.17436934395E+03  0.22099987719E+03  0.10320984466E+03 0.  0.
          5    1    1    2  502    0 -0.32654046776E+02 -0.35183443874E+02 -0.10146070461E+03  0.11232056122E+03  0.41800000000E+01 0. -1.
         -5    1    1    2    0  502 -0.54540452574E+02  0.21725180345E+02  0.18619185204E+02  0.61731603621E+02  0.41800000000E+01 0. -1.
        -11    1    3    3    0    0  0.97852295361E+02  0.37512309493E+02 -0.11239002388E+03  0.15366770167E+03  0.00000000000E+00 0. -1.
         11    1    3    3    0    0 -0.10657796011E+02 -0.24054045965E+02 -0.61979320069E+02  0.67332175513E+02  0.00000000000E+00 0.  1.
</event>
<event>
 7    1  0.5137842E-006  0.1299352E+03  0.7561462E-02  0.1227552E+00
          1   -1    0    0  501    0  0.00000000000E+00  0.00000000000E+00  0.39154923694E+02  0.39154923694E+02  0.00000000000E+00 0. -1.
         -1   -1    0    0    0  501 -0.00000000000E+00 -0.00000000000E+00 -0.12165237223E+04  0.12165237223E+04  0.00000000000E+00 0.  1.
         23    2    1    2    0    0  0.10909861593E+03 -0.16529256521E+02 -0.12636498753E+03  0.19152081220E+03  0.92392570671E+02 0.  0.
          5    1    1    2  502    0 -0.71978219461E+02  0.38013429361E+02 -0.96014074439E+03  0.96359410870E+03  0.41800000000E+01 0. -1.
         -5    1    1    2    0  502 -0.37120396467E+02 -0.21484172841E+02 -0.90863066730E+02  0.10056372513E+03  0.41800000000E+01 0. -1.
        -11    1    3    3    0    0  0.12477700472E+02  0.26660938183E+02 -0.59361510876E+02  0.66259245448E+02  0.00000000000E+00 0.  1.
         11    1    3    3    0    0  0.96620915457E+02 -0.43190194704E+02 -0.67003476650E+02  0.12526156675E+03  0.00000000000E+00 0. -1.
</event>
<event>
 7    1  0.5137842E-006  0.1974157E+03  0.7561462E-02  0.1151938E+00
         -1   -1    0    0    0  501 -0.00000000000E+00  0.00000000000E+00  0.36204418693E+03  0.36204418693E+03  0.00000000000E+00 0.  1.
          1   -1    0    0  501    0  0.00000000000E+00 -0.00000000000E+00 -0.15425565773E+03  0.15425565773E+03  0.00000000000E+00 0. -1.
         23    2    1    2    0    0  0.52554676281E+02 -0.18461728663E+03  0.37450222495E+01  0.20950150124E+03  0.83852950503E+02 0.  0.
          5    1    1    2  502    0 -0.31377135584E+02  0.13905556277E+03  0.60965533879E+02  0.15509752704E+03  0.41800000000E+01 0.  1.
         -5    1    1    2    0  502 -0.21177540697E+02  0.45561723869E+02  0.14307797307E+03  0.15170081637E+03  0.41800000000E+01 0.  1.
        -11    1    3    3    0    0  0.56965622516E+02 -0.86422475647E+02 -0.26153422922E+02  0.10676107894E+03  0.00000000000E+00 0. -1.
         11    1    3    3    0    0 -0.44109462347E+01 -0.98194810988E+02  0.29898445172E+02  0.10274042230E+03  0.00000000000E+00 0.  1.
</event>
<event>
 7    1  0.5137842E-006  0.1517776E+03  0.7561462E-02  0.1198306E+00
          1   -1    0    0  501    0  0.00000000000E+00  0.00000000000E+00  0.12663964486E+03  0.12663964486E+03  0.00000000000E+00 0. -1.
         -1   -1    0    0    0  501 -0.00000000000E+00 -0.00000000000E+00 -0.25615490360E+03  0.25615490360E+03  0.00000000000E+00 0.  1.
         23    2    1    2    0    0  0.12374721284E+03  0.72334006356E+02 -0.51214955855E+02  0.17706797518E+03  0.90468309216E+02 0.  0.
          5    1    1    2  502    0 -0.83739165457E+01 -0.26623944350E+02  0.29838115146E+02  0.41069969644E+02  0.41800000000E+01 0.  1.
         -5    1    1    2    0  502 -0.11537329629E+03 -0.45710062006E+02 -0.10813841803E+03  0.16465660363E+03  0.41800000000E+01 0.  1.
        -11    1    3    3    0    0  0.14625140843E+02  0.31362673748E+02 -0.49622211977E+02  0.60496908771E+02  0.00000000000E+00 0.  1.
         11    1    3    3    0    0  0.10912207199E+03  0.40971332608E+02 -0.15927438784E+01  0.11657106641E+03  0.00000000000E+00 0. -1.
</event>
<event>
 7    1  0.5137842E-006  0.1022182E+03  0.7561462E-02  0.1275699E+00
         -2   -1    0    0    0  501 -0.00000000000E+00  0.00000000000E+00  0.45162745889E+03  0.45162745889E+03  0.00000000000E+00 0.  1.
          2   -1    0    0  501    0  0.00000000000E+00 -0.00000000000E+00 -0.55624107960E+02  0.55624107960E+02  0.00000000000E+00 0. -1.
         23    2    1    2    0    0 -0.14703333358E+02  0.72799347761E+01 -0.89395827321E+01  0.83108280457E+02  0.80980767340E+02 0.  0.
          5    1    1    2  502    0 -0.54970697358E+02 -0.64299009809E+01  0.15509080944E+03  0.16472326116E+03  0.41800000000E+01 0.  1.
         -5    1    1    2    0  502  0.69674030716E+02 -0.85003379523E+00  0.24985212423E+03  0.25942002524E+03  0.41800000000E+01 0.  1.
        -11    1    3    3    0    0 -0.40627002888E+02 -0.16595543601E+02  0.69783150608E+01  0.44437172640E+02  0.00000000000E+00 0.  1.
         11    1    3    3    0    0  0.25923669530E+02  0.23875478378E+02 -0.15917897793E+02  0.38671107817E+02  0.00000000000E+00 0. -1.
</event>
<event>
 7    1  0.5137842E-006  0.9993764E+02  0.7561462E-02  0.1280427E+00
          1   -1    0    0  501    0  0.00000000000E+00  0.00000000000E+00  0.71460776409E+02  0.71460776409E+02  0.00000000000E+00 0.  1.
         -1   -1    0    0    0  501 -0.00000000000E+00 -0.00000000000E+00 -0.27041014942E+03  0.27041014942E+03  0.00000000000E+00 0. -1.
         23    2    1    2    0    0  0.63225208002E+02  0.48705432943E+02 -0.43965718958E+02  0.12730775646E+03  0.88908010241E+02 0.  0.
          5    1    1    2  502    0 -0.77765151351E+02 -0.62277938013E+02 -0.16430986738E+03  0.19220084611E+03  0.41800000000E+01 0. -1.
         -5    1    1    2    0  502  0.14539943349E+02  0.13572505070E+02  0.93262133307E+01  0.22362323259E+02  0.41800000000E+01 0. -1.
        -11    1    3    3    0    0  0.33770215290E+02  0.24788579032E+02 -0.69799587929E+02  0.81405672813E+02  0.00000000000E+00 0. -1.
         11    1    3    3    0    0  0.29454992712E+02  0.23916853911E+02  0.25833868971E+02  0.45902083642E+02  0.00000000000E+00 0.  1.
</event>
<event>
 7    1  0.5137842E-006  0.8358230E+02  0.7561462E-02  0.1319182E+00
         -1   -1    0    0    0  501 -0.00000000000E+00  0.00000000000E+00  0.15342211822E+03  0.15342211822E+03  0.00000000000E+00 0.  1.
          1   -1    0    0  501    0  0.00000000000E+00 -0.00000000000E+00 -0.91644672968E+02  0.91644672968E+02  0.00000000000E+00 0. -1.
         23    2    1    2    0    0  0.21655870989E+02  0.29508081658E+02 -0.30089974449E+01  0.99517515832E+02  0.92493125476E+02 0.  0.
          5    1    1    2  502    0  0.13493888467E+02 -0.70786715183E+02  0.19464119184E+02  0.74760741088E+02  0.41800000000E+01 0. -1.
         -5    1    1    2    0  502 -0.35149759455E+02  0.41278633525E+02  0.45322323517E+02  0.70788534273E+02  0.41800000000E+01 0. -1.
        -11    1    3    3    0    0  0.13934234837E+02  0.48313657392E+01  0.43704303640E+02  0.46125601916E+02  0.00000000000E+00 0.  1.
         11    1    3    3    0    0  0.77216361517E+01  0.24676715919E+02 -0.46713301085E+02  0.53391913917E+02  0.00000000000E+00 0. -1.
</event>
<event>
 7    1  0.5137842E-006  0.1565309E+03  0.7561462E-02  0.1192670E+00
          1   -1    0    0  501    0  0.00000000000E+00  0.00000000000E+00  0.12460841496E+03  0.12460841496E+03  0.00000000000E+00 0.  1.
         -1   -1    0    0    0  501 -0.00000000000E+00 -0.00000000000E+00 -0.27311076431E+03  0.27311076431E+03  0.00000000000E+00 0. -1.
         23    2    1    2    0    0  0.12049430039E+03  0.71003631710E+02 -0.16998623048E+02  0.16858812214E+03  0.92588388044E+02 0.  0.
          5    1    1    2  502    0 -0.64424725916E+02 -0.59819442788E+02 -0.25968251227E+01  0.88051842375E+02  0.41800000000E+01 0. -1.
         -5    1    1    2    0  502 -0.56069574470E+02 -0.11184188921E+02 -0.12890690118E+03  0.14107921475E+03  0.41800000000E+01 0. -1.
        -11    1    3    3    0    0  0.72462791968E+02  0.90455149884E+02 -0.11011987292E+02  0.11642273929E+03  0.00000000000E+00 0.  1.
         11    1    3    3    0    0  0.48031508418E+02 -0.19451518174E+02 -0.59866357554E+01  0.52165382850E+02  0.00000000000E+00 0. -1.
</event>
<event>
 7    1  0.5137842E-006  0.1025062E+03  0.7561462E-02  0.1275112E+00
          2   -1    0    0  501    0  0.00000000000E+00  0.00000000000E+00  0.57649176142E+03  0.57649176142E+03  0.00000000000E+00 0. -1.
         -2   -1    0    0    0  501 -0.00000000000E+00 -0.00000000000E+00 -0.26085013130E+02  0.26085013130E+02  0.00000000000E+00 0.  1.
         23    2    1    2    0    0  0.45204714573E+02  0.31898722147E+02  0.26997332392E+03  0.29056778480E+03  0.92103459445E+02 0.  0.
          5    1    1    2  502    0 -0.63976273534E+02 -0.79917881704E+00  0.26443428702E+03  0.27209661301E+03  0.41800000000E+01 0.  1.
         -5    1    1    2    0  502  0.18771558961E+02 -0.31099543330E+02  0.15999137360E+02  0.39912376745E+02  0.41800000000E+01 0.  1.
        -11    1    3    3    0    0 -0.16941888559E+02  0.38274499890E+02  0.75757383413E+02  0.86551407102E+02  0.00000000000E+00 0.  1.
         11    1    3    3    0    0  0.62146603132E+02 -0.63757777427E+01  0.19421594050E+03  0.20401637770E+03  0.00000000000E+00 0. -1.
</event>
<event>
 7    1  0.5137842E-006  0.1063928E+03  0.7561462E-02  0.1267399E+00
         -1   -1    0    0    0  501 -0.00000000000E+00  0.00000000000E+00  0.52641591333E+02  0.52641591333E+02  0.00000000000E+00 0.  1.
          1   -1    0    0  501    0  0.00000000000E+00 -0.00000000000E+00 -0.30021495408E+03  0.30021495408E+03  0.00000000000E+00 0. -1.
         23    2    1    2    0    0 -0.65917377411E+01 -0.22132327456E+02 -0.14201490058E+03  0.17041546422E+03  0.91323094186E+02 0.  0.
          5    1    1    2  502    0  0.55949799199E+02 -0.32228231534E+02 -0.83549541025E+02  0.10567420283E+03  0.41800000000E+01 0. -1.
         -5    1    1    2    0  502 -0.49358061458E+02  0.54360558989E+02 -0.22008921142E+02  0.76766878368E+02  0.41800000000E+01 0.  1.
        -11    1    3    3    0    0 -0.36482428292E+02  0.13793511112E+01 -0.12219228893E+03  0.12752970500E+03  0.00000000000E+00 0.  1.
         11    1    3    3    0    0  0.29890690551E+02 -0.23511678567E+02 -0.19822611649E+02  0.42885759213E+02  0.00000000000E+00 0. -1.
</event>
<event>
 7    1  0.5137842E-006  0.1148522E+03  0.7561462E-02  0.1251839E+00
         -3   -1    0    0    0  501 -0.00000000000E+00  0.00000000000E+00  0.15404922808E+03  0.15404922808E+03  0.00000000000E+00 0.  1.
          3   -1    0    0  501    0  0.00000000000E+00 -0.00000000000E+00 -0.12714928236E+03  0.12714928236E+03  0.00000000000E+00 0. -1.
         23    2    1    2    0    0 -0.77845674369E+02 -0.51349022903E+01 -0.28591029588E+02  0.12367857043E+03  0.91611274253E+02 0.  0.
          5    1    1    2  502    0  0.82165135053E+02 -0.45784116800E+02  0.48066503738E+02  0.10571261018E+03  0.41800000000E+01 0. -1.
         -5    1    1    2    0  502 -0.43194606840E+01  0.50919019090E+02  0.74244715676E+01  0.51807329826E+02  0.41800000000E+01 0. -1.
        -11    1    3    3    0    0 -0.33822577020E+02  0.13574646408E+02  0.30591437602E+02  0.47582284476E+02  0.00000000000E+00 0.  1.
         11    1    3    3    0    0 -0.44023097349E+02 -0.18709548699E+02 -0.59182467191E+02  0.76096285951E+02  0.00000000000E+00 0. -1.
</event>
<event>
 7    1  0.5137842E-006  0.1047935E+03  0.7561462E-02  0.1270527E+00
         -1   -1    0    0    0  501 -0.00000000000E+00  0.00000000000E+00  0.42444911554E+03  0.42444911554E+03  0.00000000000E+00 0.  1.
          1   -1    0    0  501    0  0.00000000000E+00 -0.00000000000E+00 -0.39802862369E+02  0.39802862369E+02  0.00000000000E+00 0. -1.
         23    2    1    2    0    0 -0.60802038801E+02  0.38570615521E+02  0.11634894206E+03  0.15959613355E+03  0.82153936119E+02 0.  0.
          5    1    1    2  502    0 -0.10239663580E+02 -0.57418581786E+02  0.60216433708E+02  0.83935901336E+02  0.41800000000E+01 0. -1.
         -5    1    1    2    0  502  0.71041702382E+02  0.18847966264E+02  0.20808087740E+03  0.22071994303E+03  0.41800000000E+01 0. -1.
        -11    1    3    3    0    0 -0.27447796932E+02  0.34204757925E+02  0.60373600734E+01  0.44269591570E+02  0.00000000000E+00 0. -1.
         11    1    3    3    0    0 -0.33354241870E+02  0.43658575960E+01  0.11031158199E+03  0.11532654198E+03  0.00000000000E+00 0.  1.
</event>
<event>
 7    1  0.5137842E-006  0.1225596E+03  0.7561462E-02  0.1238933E+00
          2   -1    0    0  501    0  0.00000000000E+00  0.00000000000E+00  0.54677822311E+03  0.54677822311E+03  0.00000000000E+00 0. -1.
         -2   -1    0    0    0  501 -0.00000000000E+00 -0.00000000000E+00 -0.34572139477E+02  0.34572139477E+02  0.00000000000E+00 0.  1.
         23    2    1    2    0    0 -0.65889392367E+02 -0.44354972909E+02  0.28981755512E+03  0.31406886023E+03  0.91303110909E+02 0.  0.
          5    1    1    2  502    0 -0.42050041583E+01 -0.28068662444E+02  0.71331149863E+01  0.29561556129E+02  0.41800000000E+01 0.  1.
         -5    1    1    2    0  502  0.70094396526E+02  0.72423635353E+02  0.21525541353E+03  0.23771994623E+03  0.41800000000E+01 0.  1.
        -11    1    3    3    0    0  0.20391182623E+02 -0.73710870559E+01  0.24932959208E+02  0.33042180739E+02  0.00000000000E+00 0.  1.
         11    1    3    3    0    0 -0.86280574990E+02 -0.36983885853E+02  0.26488459591E+03  0.28102667949E+03  0.00000000000E+00 0. -1.
</event>
<event>
 7    1  0.5137842E-006  0.8316514E+02  0.7561462E-02  0.1320302E+00
          2   -1    0    0  501    0  0.00000000000E+00  0.00000000000E+00  0.21101325026E+03  0.21101325026E+03  0.00000000000E+00 0.  1.
         -2   -1    0    0    0  501 -0.00000000000E+00 -0.00000000000E+00 -0.79863415526E+02  0.79863415526E+02  0.00000000000E+00 0. -1.
         23    2    1    2    0    0  0.18389481908E+02 -0.98090778626E+01  0.13462452042E+03  0.16402322723E+03  0.91353524950E+02 0.  0.
          5    1    1    2  502    0  0.23528915477E+02 -0.25667423025E+02  0.42507386562E+02  0.55106957642E+02  0.41800000000E+01 0.  1.
         -5    1    1    2    0  502 -0.41918397385E+02  0.35476500887E+02 -0.45982072248E+02  0.71746480909E+02  0.41800000000E+01 0.  1.
        -11    1    3    3    0    0 -0.25282798207E+02 -0.18913819750E+02  0.10697712212E+03  0.11153948682E+03  0.00000000000E+00 0.  1.
         11    1    3    3    0    0  0.43672280116E+02  0.91047418874E+01  0.27647398300E+02  0.52483740416E+02  0.00000000000E+00 0. -1.
</event>
<event>
 7    1  0.5137842E-006  0.1329689E+03  0.7561462E-02  0.1223116E+00
          1   -1    0    0  501    0  0.00000000000E+00  0.00000000000E+00  0.20322316077E+03  0.20322316077E+03  0.00000000000E+00 0.  1.
         -1   -1    0    0    0  501 -0.00000000000E+00 -0.00000000000E+00 -0.12123363346E+03  0.12123363346E+03  0.00000000000E+00 0. -1.
         23    2    1    2    0    0 -0.23440144297E+02  0.10252855552E+03  0.79166202318E+02  0.16100465688E+03  0.92702032800E+02 0.  0.
          5    1    1    2  502    0 -0.38618043003E+02 -0.39866470809E+02  0.39076490817E+02  0.68008332392E+02  0.41800000000E+01 0. -1.
         -5    1    1    2    0  502  0.62058187301E+02 -0.62662084715E+02 -0.36253165833E+02  0.95443804957E+02  0.41800000000E+01 0. -1.
        -11    1    3    3    0    0 -0.21761021011E+01  0.10061232329E+03  0.91783470708E+02  0.13620492103E+03  0.00000000000E+00 0.  1.
         11    1    3    3    0    0 -0.21264042196E+02  0.19162322317E+01 -0.12617268390E+02  0.24799735847E+02  0.00000000000E+00 0. -1.
</event>
<event>
 7    1  0.5137842E-006  0.1965293E+03  0.7561462E-02  0.1152701E+00
          1   -1    0    0  501    0  0.00000000000E+00  0.00000000000E+00  0.48724168528E+03  0.48724168528E+03  0.00000000000E+00 0. -1.
         -1   -1    0    0    0  501 -0.00000000000E+00 -0.00000000000E+00 -0.10665570955E+03  0.10665570955E+03  0.00000000000E+00 0.  1.
         23    2    1    2    0    0  0.11367241366E+03  0.14916795686E+03  0.27716174028E+03  0.34587141124E+03  0.87383670438E+02 0.  0.
          5    1    1    2  502    0 -0.10117120044E+03 -0.95629631420E+02  0.10115270874E+02  0.13964393760E+03  0.41800000000E+01 0. -1.
         -5    1    1    2    0  502 -0.12501213222E+02 -0.53538325436E+02  0.93308964574E+02  0.10838204599E+03  0.41800000000E+01 0. -1.
        -11    1    3    3    0    0 -0.68982701231E+01  0.23493783146E+02  0.75727370632E+02  0.79587553299E+02  0.00000000000E+00 0. -1.
         11    1    3    3    0    0  0.12057068378E+03  0.12567417371E+03  0.20143436965E+03  0.26628385795E+03  0.00000000000E+00 0.  1.
</event>
<event>
 7    1  0.5137842E-006  0.2038586E+03  0.7561462E-02  0.1146524E+00
          2   -1    0    0  501    0  0.00000000000E+00  0.00000000000E+00  0.16635247925E+04  0.16635247925E+04  0.00000000000E+00 0. -1.
         -2   -1    0    0    0  501 -0.00000000000E+00 -0.00000000000E+00 -0.26499975141E+02  0.26499975141E+02  0.00000000000E+00 0.  1.
         23    2    1    2    0    0  0.96249168557E+02 -0.14814136587E+03  0.70170788404E+03  0.72998538155E+03  0.96306469234E+02 0.  0.
          5    1    1    2  502    0 -0.64206806787E+02 -0.37613287173E+00  0.26316473453E+03  0.27091660232E+03  0.41800000000E+01 0.  1.
         -5    1    1    2    0  502 -0.32042361770E+02  0.14851749874E+03  0.67215219877E+03  0.68912278376E+03  0.41800000000E+01 0.  1.
        -11    1    3    3    0    0 -0.11836540686E+02 -0.24137566732E+02  0.40412136596E+02  0.48537270292E+02  0.00000000000E+00 0.  1.
         11    1    3    3    0    0  0.10808570924E+03 -0.12400379914E+03  0.66129574745E+03  0.68144811126E+03  0.00000000000E+00 0. -1.
</event>
<event>
 7    1  0.5137842E-006  0.1746155E+03  0.7561462E-02  0.1173118E+00
          1   -1    0    0  501    0  0.00000000000E+00  0.00000000000E+00  0.45401652329E+02  0.45401652329E+02  0.00000000000E+00 0. -1.
         -1   -1    0    0    0  501 -0.00000000000E+00 -0.00000000000E+00 -0.69841761136E+03  0.69841761136E+03  0.00000000000E+00 0.  1.
         23    2    1    2    0    0 -0.11631324449E+03 -0.80040780738E+02 -0.29493496359E+03  0.33909058714E+03  0.89780265722E+02 0.  0.
          5    1    1    2  502    0  0.36990196648E+02 -0.28960133750E+02 -0.51734372874E+02  0.70006297799E+02  0.41800000000E+01 0.  1.
         -5    1    1    2    0  502  0.79323047843E+02  0.10900091449E+03 -0.30634662256E+03  0.33472237874E+03  0.41800000000E+01 0.  1.
        -11    1    3    3    0    0 -0.13059454068E+03 -0.63110294144E+02 -0.25124020215E+03  0.29010253783E+03  0.00000000000E+00 0. -1.
         11    1    3    3    0    0  0.14281296190E+02 -0.16930486594E+02 -0.43694761447E+02  0.48988049308E+02  0.00000000000E+00 0.  1.
</event>
<event>
 7    1  0.5137842E-006  0.1111872E+03  0.7561462E-02  0.1258387E+00
         -1   -1    0    0    0  501 -0.00000000000E+00  0.00000000000E+00  0.25691072383E+02  0.25691072383E+02  0.00000000000E+00 0.  1.
          1   -1    0    0  501    0  0.00000000000E+00 -0.00000000000E+00 -0.57158149070E+03  0.57158149070E+03  0.00000000000E+00 0. -1.
         23    2    1    2    0    0  0.78740114065E+01  0.32862820291E+02 -0.30642834097E+03  0.32500091318E+03  0.10288488911E+03 0.  0.
          5    1    1    2  502    0 -0.15547288700E+02 -0.78451012568E+02 -0.17855644101E+03  0.19569403309E+03  0.41800000000E+01 0.  1.
         -5    1    1    2    0  502  0.76732772932E+01  0.45588192277E+02 -0.60905636335E+02  0.76577616814E+02  0.41800000000E+01 0.  1.
        -11    1    3    3    0    0  0.31620203934E+02  0.54977006640E+02 -0.26442056550E+03  0.27192010594E+03  0.00000000000E+00 0. -1.
         11    1    3    3    0    0 -0.23746192527E+02 -0.22114186350E+02 -0.42007775466E+02  0.53080807238E+02  0.00000000000E+00 0.  1.
</event>
<event>
 7    1  0.5137842E-006  0.1734453E+03  0.7561462E-02  0.1174302E+00
          1   -1    0    0  501    0  0.00000000000E+00  0.00000000000E+00  0.13519872466E+04  0.13519872466E+04  0.00000000000E+00 0. -1.
         -1   -1    0    0    0  501 -0.00000000000E+00 -0.00000000000E+00 -0.23554595413E+02  0.23554595413E+02  0.00000000000E+00 0.  1.
         23    2    1    2    0    0  0.14026708645E+03  0.21678804390E+02  0.62958758394E+03  0.65154138782E+03  0.89335480601E+02 0.  0.
          5    1    1    2  502    0 -0.15802976918E+03 -0.26738492035E+02  0.67374113480E+03  0.69255537254E+03  0.41800000000E+01 0. -1.
         -5    1    1    2    0  502  0.17762682724E+02  0.50596876451E+01  0.25103932487E+02  0.31445081697E+02  0.41800000000E+01 0. -1.
        -11    1    3    3    0    0  0.50800518796E+02  0.52445100411E+02  0.26410174189E+03  0.27400896215E+03  0.00000000000E+00 0. -1.
         11    1    3    3    0    0  0.89466567657E+02 -0.30766296021E+02  0.36548584205E+03  0.37753242567E+03  0.00000000000E+00 0.  1.
</event>
<event>
 7    1  0.5137842E-006  0.9898249E+02  0.7561462E-02  0.1282450E+00
         -2   -1    0    0    0  501 -0.00000000000E+00  0.00000000000E+00  0.57369847803E+03  0.57369847803E+03  0.00000000000E+00 0.  1.
          2   -1    0    0  501    0  0.00000000000E+00 -0.00000000000E+00 -0.32830035437E+02  0.32830035437E+02  0.00000000000E+00 0. -1.
         23    2    1    2    0    0  0.80356796392E+02 -0.11388452244E+02  0.20000098414E+03  0.23447419379E+03  0.91601541065E+02 0.  0.
          5    1    1    2  502    0 -0.15459917713E+02  0.16709065038E+02 -0.18146377078E+01  0.23215667558E+02  0.41800000000E+01 0. -1.
         -5    1    1    2    0  502 -0.64896878679E+02 -0.53206127936E+01  0.34268209616E+03  0.34883865212E+03  0.41800000000E+01 0. -1.
        -11    1    3    3    0    0  0.31607742486E+02 -0.41580650699E+02  0.14843753010E+03  0.15735850864E+03  0.00000000000E+00 0.  1.
         11    1    3    3    0    0  0.48749053906E+02  0.30192198455E+02  0.51563454036E+02  0.77115685151E+02  0.00000000000E+00 0. -1.
</event>
<event>
 7    1  0.5137842E-006  0.1513655E+03  0.7561462E-02  0.1198805E+00
          1   -1    0    0  501    0  0.00000000000E+00  0.00000000000E+00  0.65188430552E+02  0.65188430552E+02  0.00000000000E+00 0. -1.
         -1   -1    0    0    0  501 -0.00000000000E+00 -0.00000000000E+00 -0.59982280375E+03  0.59982280375E+03  0.00000000000E+00 0.  1.
         23    2    1    2    0    0 -0.13406498023E+03  0.28340031316E+02 -0.98942018624E+02  0.19145882615E+03  0.89946555021E+02 0.  0.
          5    1    1    2  502    0  0.74131329307E+02 -0.60945758808E+02 -0.13818218806E+03  0.16829031166E+03  0.41800000000E+01 0. -1.
         -5    1    1    2    0  502  0.59933650925E+02  0.32605727492E+02 -0.29751016651E+03  0.30526209649E+03  0.41800000000E+01 0. -1.
        -11    1    3    3    0    0 -0.48008069070E+02  0.99520715688E+00 -0.88332828914E+02  0.10054080663E+03  0.00000000000E+00 0.  1.
         11    1    3    3    0    0 -0.86056911162E+02  0.27344824159E+02 -0.10609189710E+02  0.90918019519E+02  0.00000000000E+00 0. -1.
</event>
<event>
 7    1  0.5137842E-006  0.9847797E+02  0.7561462E-02  0.1283529E+00
          2   -1    0    0  501    0  0.00000000000E+00  0.00000000000E+00  0.37503259265E+03  0.37503259265E+03  0.00000000000E+00 0. -1.
         -2   -1    0    0    0  501 -0.00000000000E+00 -0.00000000000E+00 -0.41567102221E+02  0.41567102221E+02  0.00000000000E+00 0.  1.
         23    2    1    2    0    0 -0.61111860494E+02 -0.10363840067E+02  0.13855462661E+03  0.17683768257E+03  0.90730991103E+02 0.  0.
          5    1    1    2  502    0  0.47492238333E+02  0.63566758748E+02  0.82271113867E+02  0.11437768181E+03  0.41800000000E+01 0. -1.
         -5    1    1    2    0  502  0.13619622161E+02 -0.53202918682E+02  0.11263974995E+03  0.12538433050E+03  0.41800000000E+01 0. -1.
        -11    1    3    3    0    0 -0.34759178480E+02 -0.95805909287E+01  0.26393261181E+00  0.36056315280E+02  0.00000000000E+00 0.  1.
         11    1    3    3    0    0 -0.26352682014E+02 -0.78324913795E+00  0.13829069400E+03  0.14078136729E+03  0.00000000000E+00 0. -1.
</event>
<event>
 7    1  0.5137842E-006  0.9896065E+02  0.7561462E-02  0.1282497E+00
          1   -1    0    0  501    0  0.00000000000E+00  0.00000000000E+00  0.25627011623E+02  0.25627011623E+02  0.00000000000E+00 0. -1.
         -1   -1    0    0    0  501 -0.00000000000E+00 -0.00000000000E+00 -0.50252461298E+03  0.50252461298E+03  0.00000000000E+00 0.  1.
         23    2    1    2    0    0  0.28536793679E+01  0.16008059131E+02 -0.28027101913E+03  0.29454283047E+03  0.89102375819E+02 0.  0.
          5    1    1    2  502    0  0.58732713622E+01 -0.65139417025E+02 -0.15571981727E+03  0.16894902443E+03  0.41800000000E+01 0. -1.
         -5    1    1    2    0  502 -0.87269507301E+01  0.49131357895E+02 -0.40906764958E+02  0.64659769694E+02  0.41800000000E+01 0. -1.
        -11    1    3    3    0    0 -0.26099586022E+02  0.37895526181E+02 -0.21490720408E+03  0.21977799175E+03  0.00000000000E+00 0.  1.
         11    1    3    3    0    0  0.28953265390E+02 -0.21887467051E+02 -0.65363815051E+02  0.74764838719E+02  0.00000000000E+00 0. -1.
</event>
<event>
 7    1  0.5137842E-006  0.1041969E+03  0.7561462E-02  0.1271710E+00
          1   -1    0    0  501    0  0.00000000000E+00  0.00000000000E+00  0.10814135912E+03  0.10814135912E+03  0.00000000000E+00 0. -1.
         -1   -1    0    0    0  501 -0.00000000000E+00 -0.00000000000E+00 -0.17802357404E+03  0.17802357404E+03  0.00000000000E+00 0.  1.
         23    2    1    2    0    0 -0.16461117671E+02  0.72361589640E+02  0.13589305490E+02  0.11847134663E+03  0.91343432710E+02 0.  0.
          5    1    1    2  502    0  0.84081592918E+00 -0.88647650772E+02 -0.10412682233E+03  0.13681732525E+03  0.41800000000E+01 0. -1.
         -5    1    1    2    0  502  0.15620301742E+02  0.16286061132E+02  0.20655301913E+02  0.30876261283E+02  0.41800000000E+01 0. -1.
        -11    1    3    3    0    0  0.11486471556E+02  0.67322668362E+02 -0.23081295818E+02  0.72090407967E+02  0.00000000000E+00 0.  1.
         11    1    3    3    0    0 -0.27947589227E+02  0.50389212777E+01  0.36670601309E+02  0.46380938666E+02  0.00000000000E+00 0. -1.
</event>
<event>
 7    1  0.5137842E-006  0.7796755E+02  0.7561462E-02  0.1334920E+00
         -2   -1    0    0    0  501 -0.00000000000E+00  0.00000000000E+00  0.13193398563E+03  0.13193398563E+03  0.00000000000E+00 0.  1.
          2   -1    0    0  501    0  0.00000000000E+00 -0.00000000000E+00 -0.17087127835E+03  0.17087127835E+03  0.00000000000E+00 0. -1.
         23    2    1    2    0    0 -0.45004188964E+02 -0.37660851361E+02 -0.10086053027E+03  0.15139334282E+03  0.96454035346E+02 0.  0.
          5    1    1    2  502    0 -0.91581918547E+01  0.15700154773E+02 -0.34132271271E+02  0.38895394073E+02  0.41800000000E+01 0. -1.
         -5    1    1    2    0  502  0.54162380819E+02  0.21960696588E+02  0.96055508827E+02  0.11251652708E+03  0.41800000000E+01 0. -1.
        -11    1    3    3    0    0  0.20865873861E+01 -0.31070517112E+02  0.83837981802E+01  0.32249324837E+02  0.00000000000E+00 0.  1.
         11    1    3    3    0    0 -0.47090776350E+02 -0.65903342495E+01 -0.10924432845E+03  0.11914401799E+03  0.00000000000E+00 0. -1.
</event>
<event>
 7    1  0.5137842E-006  0.1462991E+03  0.7561462E-02  0.1205096E+00
         -3   -1    0    0    0  501 -0.00000000000E+00  0.00000000000E+00  0.25952802726E+02  0.25952802726E+02  0.00000000000E+00 0.  1.
          3   -1    0    0  501    0  0.00000000000E+00 -0.00000000000E+00 -0.10701416830E+04  0.10701416830E+04  0.00000000000E+00 0. -1.
         23    2    1    2    0    0 -0.96994025572E+02  0.79174223035E+02 -0.42266364014E+03  0.44986198179E+03  0.89748823801E+02 0.  0.
          5    1    1    2  502    0  0.12105996700E+03 -0.55026645815E+02 -0.38758309140E+03  0.40978234772E+03  0.41800000000E+01 0. -1.
         -5    1    1    2    0  502 -0.24065941426E+02 -0.24147577220E+02 -0.23394214870E+03  0.23645015618E+03  0.41800000000E+01 0. -1.
        -11    1    3    3    0    0 -0.56065050142E+02  0.45521100047E+02 -0.36279128424E+03  0.36990941636E+03  0.00000000000E+00 0.  1.
         11    1    3    3    0    0 -0.40928975430E+02  0.33653122988E+02 -0.59872355900E+02  0.79952565422E+02  0.00000000000E+00 0. -1.
</event>
<event>
 7    1  0.5137842E-006  0.1051982E+03  0.7561462E-02  0.1269730E+00
         -1   -1    0    0    0  501 -0.00000000000E+00  0.00000000000E+00  0.18604786692E+03  0.18604786692E+03  0.00000000000E+00 0.  1.
          1   -1    0    0  501    0  0.00000000000E+00 -0.00000000000E+00 -0.77280394275E+02  0.77280394275E+02  0.00000000000E+00 0. -1.
         23    2    1    2    0    0  0.11432929830E+02  0.49708623185E+02  0.36528604320E+02  0.11013683996E+03  0.90521408955E+02 0.  0.
          5    1    1    2  502    0  0.37105763836E+01  0.37432056087E+02  0.48499073154E+02  0.61518775157E+02  0.41800000000E+01 0. -1.
         -5    1    1    2    0  502 -0.15143506214E+02 -0.87140679272E+02  0.23739795170E+02  0.91672646079E+02  0.41800000000E+01 0. -1.
        -11    1    3    3    0    0  0.39071785184E+02  0.36101580888E+02  0.53093598837E+02  0.75158890209E+02  0.00000000000E+00 0.  1.
         11    1    3    3    0    0 -0.27638855354E+02  0.13607042297E+02 -0.16564994516E+02  0.34977949750E+02  0.00000000000E+00 0. -1.
</event>
<event>
 7    1  0.5137842E-006  0.1109252E+03  0.7561462E-02  0.1258866E+00
          2   -1    0    0  501    0  0.00000000000E+00  0.00000000000E+00  0.70166046733E+03  0.70166046733E+03  0.00000000000E+00 0. -1.
         -2   -1    0    0    0  501 -0.00000000000E+00 -0.00000000000E+00 -0.19950283853E+02  0.19950283853E+02  0.00000000000E+00 0.  1.
         23    2    1    2    0    0  0.22024296761E+02  0.29897597275E+02  0.38222225370E+03  0.39489474684E+03  0.92027571320E+02 0.  0.
          5    1    1    2  502    0  0.31920860393E+02  0.29962654671E+02  0.15617265250E+03  0.16224694694E+03  0.41800000000E+01 0. -1.
         -5    1    1    2    0  502 -0.53945157154E+02 -0.59860251946E+02  0.14331527727E+03  0.16446905740E+03  0.41800000000E+01 0.  1.
        -11    1    3    3    0    0  0.62672495944E+00 -0.31837331740E+02  0.90309822730E+02  0.95759451534E+02  0.00000000000E+00 0.  1.
         11    1    3    3    0    0  0.21397571801E+02  0.61734929015E+02  0.29191243097E+03  0.29913529530E+03  0.00000000000E+00 0. -1.
</event>
<event>
 7    1  0.5137842E-006  0.1084798E+03  0.7561462E-02  0.1263411E+00
         -1   -1    0    0    0  501 -0.00000000000E+00  0.00000000000E+00  0.21168586988E+03  0.21168586988E+03  0.00000000000E+00 0.  1.
          1   -1    0    0  501    0  0.00000000000E+00 -0.00000000000E+00 -0.10471307528E+03  0.10471307528E+03  0.00000000000E+00 0. -1.
         23    2    1    2    0    0  0.74248434794E+02  0.43255201721E+01 -0.25173788162E+02  0.11982676024E+03  0.90516256358E+02 0.  0.
          5    1    1    2  502    0 -0.72883283843E+02  0.27364461367E+02  0.20757097574E+02  0.80679094624E+02  0.41800000000E+01 0. -1.
         -5    1    1    2    0  502 -0.13651509513E+01 -0.31689981539E+02  0.11138948519E+03  0.11589309029E+03  0.41800000000E+01 0. -1.
        -11    1    3    3    0    0  0.69446012433E+02 -0.27591496690E+02  0.59833217273E+01  0.74965588581E+02  0.00000000000E+00 0.  1.
         11    1    3    3    0    0  0.48024223616E+01  0.31917016862E+02 -0.31157109890E+02  0.44861171659E+02  0.00000000000E+00 0. -1.
</event>
<event>
 7    1  0.5137842E-006  0.6850242E+02  0.7561462E-02  0.1365261E+00
          1   -1    0    0  501    0  0.00000000000E+00  0.00000000000E+00  0.50601954571E+03  0.50601954571E+03  0.00000000000E+00 0. -1.
         -1   -1    0    0    0  501 -0.00000000000E+00 -0.00000000000E+00 -0.42742640880E+02  0.42742640880E+02  0.00000000000E+00 0.  1.
         23    2    1    2    0    0 -0.18685198925E+02 -0.24221635469E+02  0.18860111114E+03  0.21080747610E+03  0.89070694252E+02 0.  0.
          5    1    1    2  502    0 -0.13752770359E+02 -0.15026838008E+02  0.28506259850E+03  0.28582005181E+03  0.41800000000E+01 0. -1.
         -5    1    1    2    0  502  0.32437969284E+02  0.39248473477E+02 -0.10386804805E+02  0.52134658679E+02  0.41800000000E+01 0.  1.
        -11    1    3    3    0    0  0.16220337949E+02 -0.25466008771E+02  0.16707056569E+03  0.16977688560E+03  0.00000000000E+00 0. -1.
         11    1    3    3    0    0 -0.34905536874E+02  0.12443733022E+01  0.21530545450E+02  0.41030590500E+02  0.00000000000E+00 0.  1.
</event>
<event>
 7    1  0.5137842E-006  0.1007590E+03  0.7561462E-02  0.1278708E+00
         -1   -1    0    0    0  501 -0.00000000000E+00  0.00000000000E+00  0.53457169447E+02  0.53457169447E+02  0.00000000000E+00 0.  1.
          1   -1    0    0  501    0  0.00000000000E+00 -0.00000000000E+00 -0.31292756756E+03  0.31292756756E+03  0.00000000000E+00 0. -1.
         23    2    1    2    0    0 -0.54852690415E+02 -0.16789913765E+02 -0.17559764563E+03  0.20522392575E+03  0.89395792418E+02 0.  0.
          5    1    1    2  502    0  0.77698037692E+02  0.47308568075E+02 -0.31729450310E+02  0.96432961644E+02  0.41800000000E+01 0.  1.
         -5    1    1    2    0  502 -0.22845347277E+02 -0.30518654310E+02 -0.52143302171E+02  0.64727849604E+02  0.41800000000E+01 0.  1.
        -11    1    3    3    0    0 -0.41349365641E+02  0.96096956156E+01 -0.16977900380E+03  0.17500578968E+03  0.00000000000E+00 0. -1.
         11    1    3    3    0    0 -0.13503324774E+02 -0.26399609380E+02 -0.58186418283E+01  0.30218136079E+02  0.00000000000E+00 0.  1.
</event>
<event>
 7    1  0.5137842E-006  0.1187873E+03  0.7561462E-02  0.1245111E+00
          4   -1    0    0  501    0  0.00000000000E+00  0.00000000000E+00  0.25805813497E+02  0.25805813497E+02  0.00000000000E+00 0. -1.
         -4   -1    0    0    0  501 -0.00000000000E+00 -0.00000000000E+00 -0.56338259833E+03  0.56338259833E+03  0.00000000000E+00 0.  1.
         23    2    1    2    0    0  0.48278304957E+02 -0.48288922952E+01 -0.18749966991E+03  0.21428233734E+03  0.91687954209E+02 0.  0.
          5    1    1    2  502    0 -0.87781596989E+02  0.21981590815E+02 -0.24852665277E+03  0.26452177348E+03  0.41800000000E+01 0.  1.
         -5    1    1    2    0  502  0.39503292032E+02 -0.17152698519E+02 -0.10155046215E+03  0.11038430101E+03  0.41800000000E+01 0.  1.
        -11    1    3    3    0    0 -0.16611302604E+02 -0.29858109796E+02 -0.63600497814E+02  0.72197405888E+02  0.00000000000E+00 0.  1.
         11    1    3    3    0    0  0.64889607561E+02  0.25029217501E+02 -0.12389917210E+03  0.14208493145E+03  0.00000000000E+00 0. -1.
</event>
<event>
 7    1  0.5137842E-006  0.2080047E+03  0.7561462E-02  0.1143156E+00
         -1   -1    0    0    0  501 -0.00000000000E+00  0.00000000000E+00  0.16101494103E+03  0.16101494103E+03  0.00000000000E+00 0.  1.
          1   -1    0    0  501    0  0.00000000000E+00 -0.00000000000E+00 -0.31373366739E+03  0.31373366739E+03  0.00000000000E+00 0. -1.
         23    2    1    2    0    0 -0.12772812638E+03 -0.14871806991E+03 -0.59321380343E+02  0.22414425332E+03  0.91049884933E+02 0.  0.
          5    1    1    2  502    0  0.44370174434E+02  0.88771209602E+02 -0.10809011556E+03  0.14679913322E+03  0.41800000000E+01 0.  1.
         -5    1    1    2    0  502  0.83357951942E+02  0.59946860307E+02  0.14692769540E+02  0.10380522188E+03  0.41800000000E+01 0.  1.
        -11    1    3    3    0    0 -0.39073697433E+02 -0.11081467806E+03 -0.48514971458E+02  0.12712336197E+03  0.00000000000E+00 0. -1.
         11    1    3    3    0    0 -0.88654428942E+02 -0.37903391853E+02 -0.10806408885E+02  0.97020891348E+02  0.00000000000E+00 0.  1.
</event>
<event>
 7    1  0.5137842E-006  0.1184155E+03  0.7561462E-02  0.1245734E+00
          1   -1    0    0  501    0  0.00000000000E+00  0.00000000000E+00  0.19553839974E+03  0.19553839974E+03  0.00000000000E+00 0. -1.
         -1   -1    0    0    0  501 -0.00000000000E+00 -0.00000000000E+00 -0.92302786866E+02  0.92302786866E+02  0.00000000000E+00 0.  1.
         23    2    1    2    0    0  0.34308909177E+01 -0.80069605758E+02  0.30153031812E+02  0.12227733167E+03  0.87290479057E+02 0.  0.
          5    1    1    2  502    0  0.44358578192E+02  0.34888533550E+02  0.81404703891E+02  0.99141774485E+02  0.41800000000E+01 0. -1.
         -5    1    1    2    0  502 -0.47789469110E+02  0.45181072207E+02 -0.83221228260E+01  0.66422080455E+02  0.41800000000E+01 0. -1.
        -11    1    3    3    0    0  0.33434880263E+02 -0.77288336921E+02  0.74303488661E+01  0.84537496571E+02  0.00000000000E+00 0.  1.
         11    1    3    3    0    0 -0.30003989346E+02 -0.27812688370E+01  0.22722682946E+02  0.37739835098E+02  0.00000000000E+00 0. -1.
</event>
<event>
 7    1  0.5137842E-006  0.1394244E+03  0.7561462E-02  0.1214106E+00
          2   -1    0    0  501    0  0.00000000000E+00  0.00000000000E+00  0.27907453248E+03  0.27907453248E+03  0.00000000000E+00 0. -1.
         -2   -1    0    0    0  501 -0.00000000000E+00 -0.00000000000E+00 -0.10491060591E+03  0.10491060591E+03  0.00000000000E+00 0.  1.
         23    2    1    2    0    0 -0.97864027326E+02 -0.48152743670E+02  0.16406609537E+03  0.21771096584E+03  0.92651640187E+02 0.  0.
          5    1    1    2  502    0 -0.53650913380E+01  0.31203310611E+02  0.45646167651E+02  0.55708848664E+02  0.41800000000E+01 0. -1.
         -5    1    1    2    0  502  0.10322911866E+03  0.16949433058E+02 -0.35548336452E+02  0.11056532388E+03  0.41800000000E+01 0. -1.
        -11    1    3    3    0    0 -0.55710083693E+02 -0.74109341437E+02  0.11821262593E+03  0.15023326144E+03  0.00000000000E+00 0. -1.
         11    1    3    3    0    0 -0.42153943632E+02  0.25956597767E+02  0.45853469439E+02  0.67477704399E+02  0.00000000000E+00 0.  1.
</event>
<event>
 6    1  0.7080834E-005  0.5458190E+02  0.7561462E-02  0.1422087E+00
         -2   -1    0    0    0  501 -0.00000000000E+00  0.00000000000E+00  0.26488954544E+02  0.26488954544E+02  0.00000000000E+00 0.  1.
          2   -1    0    0  501    0  0.00000000000E+00 -0.00000000000E+00 -0.30900785863E+03  0.30900785863E+03  0.00000000000E+00 0. -1.
          5    1    1    2  502    0  0.31645852335E+02  0.26532855754E+02 -0.15367447638E+03  0.15918156142E+03  0.41800000000E+01 0. -1.
         -5    1    1    2    0  502  0.31467821461E+01 -0.30548408351E+02  0.10074486808E+02  0.32589494858E+02  0.41800000000E+01 0.  1.
        -11    1    1    2    0    0 -0.20174909931E+02 -0.30884118710E+01 -0.69876939187E+02  0.72796647648E+02  0.00000000000E+00 0.  1.
         11    1    1    2    0    0 -0.14617724551E+02  0.71039644681E+01 -0.69041975327E+02  0.70929109251E+02  0.00000000000E+00 0. -1.
</event>
<event>
 7    1  0.5137842E-006  0.6774002E+02  0.7561462E-02  0.1367951E+00
         -2   -1    0    0    0  501 -0.00000000000E+00  0.00000000000E+00  0.62796317548E+02  0.62796317548E+02  0.00000000000E+00 0.  1.
          2   -1    0    0  501    0  0.00000000000E+00 -0.00000000000E+00 -0.19671176405E+03  0.19671176405E+03  0.00000000000E+00 0. -1.
         23    2    1    2    0    0  0.19522372288E+02  0.21705127969E+02 -0.54319914140E+02  0.10839454363E+03  0.89143078346E+02 0.  0.
          5    1    1    2  502    0 -0.17646374766E+02  0.14803672070E+02  0.28526392330E+02  0.36902177558E+02  0.41800000000E+01 0.  1.
         -5    1    1    2    0  502 -0.18759975212E+01 -0.36508800039E+02 -0.10812192469E+03  0.11421136041E+03  0.41800000000E+01 0.  1.
        -11    1    3    3    0    0 -0.24104048459E+02  0.20482998202E+02  0.77022576679E+01  0.32555846490E+02  0.00000000000E+00 0.  1.
         11    1    3    3    0    0  0.43626420747E+02  0.12221297664E+01 -0.62022171808E+02  0.75838697142E+02  0.00000000000E+00 0. -1.
</event>
<event>
 7    1  0.5137842E-006  0.2140311E+03  0.7561462E-02  0.1138413E+00
         -2   -1    0    0    0  501 -0.00000000000E+00  0.00000000000E+00  0.42716900859E+02  0.42716900859E+02  0.00000000000E+00 0.  1.
          2   -1    0    0  501    0  0.00000000000E+00 -0.00000000000E+00 -0.12274276219E+04  0.12274276219E+04  0.00000000000E+00 0. -1.
         23    2    1    2    0    0 -0.53006355149E+02  0.18293459085E+03 -0.75058747355E+03  0.77985385707E+03  0.92280792810E+02 0.  0.
          5    1    1    2  502    0  0.73551151191E+02 -0.57803707620E+02 -0.12532942890E+03  0.15644800607E+03  0.41800000000E+01 0. -1.
         -5    1    1    2    0  502 -0.20544796042E+02 -0.12513088323E+03 -0.30879381864E+03  0.33384265966E+03  0.41800000000E+01 0. -1.
        -11    1    3    3    0    0  0.20030691575E+02  0.17085026106E+02 -0.53944082833E+02  0.60025751097E+02  0.00000000000E+00 0. -1.
         11    1    3    3    0    0 -0.73037046724E+02  0.16584956474E+03 -0.69664339072E+03  0.71982810597E+03  0.00000000000E+00 0.  1.
</event>
<event>
 7    1  0.5137842E-006  0.1233044E+03  0.7561462E-02  0.1237743E+00
          2   -1    0    0  501    0  0.00000000000E+00  0.00000000000E+00  0.31390343448E+03  0.31390343448E+03  0.00000000000E+00 0.  1.
         -2   -1    0    0    0  501 -0.00000000000E+00 -0.00000000000E+00 -0.81365156973E+02  0.81365156973E+02  0.00000000000E+00 0. -1.
         23    2    1    2    0    0 -0.84611003517E+02 -0.25990405621E+02  0.20329770723E+03  0.23926260710E+03  0.89900580038E+02 0.  0.
          5    1    1    2  502    0  0.26113839057E+02  0.72381506361E+02  0.25366495635E+02  0.81129196682E+02  0.41800000000E+01 0. -1.
         -5    1    1    2    0  502  0.58497164460E+02 -0.46391100740E+02  0.38740746445E+01  0.74876787673E+02  0.41800000000E+01 0. -1.
        -11    1    3    3    0    0 -0.45600771557E+02 -0.31430185377E+02  0.32999926928E+02  0.64469233722E+02  0.00000000000E+00 0. -1.
         11    1    3    3    0    0 -0.39010231961E+02  0.54397797566E+01  0.17029778030E+03  0.17479337338E+03  0.00000000000E+00 0.  1.
</event>
<event>
 7    1  0.5137842E-006  0.1114766E+03  0.7561462E-02  0.1257860E+00
          1   -1    0    0  501    0  0.00000000000E+00  0.00000000000E+00  0.16811428084E+02  0.16811428084E+02  0.00000000000E+00 0. -1.
         -1   -1    0    0    0  501 -0.00000000000E+00 -0.00000000000E+00 -0.88711441792E+03  0.88711441792E+03  0.00000000000E+00 0.  1.
         23    2    1    2    0    0 -0.46252483781E+01 -0.34028038140E+02 -0.20401884248E+03  0.22513108631E+03  0.88775095783E+02 0.  0.
          5    1    1    2  502    0 -0.59938559316E+02  0.21351095332E+02 -0.33459219177E+03  0.34061401521E+03  0.41800000000E+01 0. -1.
         -5    1    1    2    0  502  0.64563807694E+02  0.12676942807E+02 -0.33169195558E+03  0.33818074449E+03  0.41800000000E+01 0. -1.
        -11    1    3    3    0    0 -0.16553637036E+02 -0.61298191202E+02 -0.15849697333E+03  0.17074185690E+03  0.00000000000E+00 0.  1.
         11    1    3    3    0    0  0.11928388658E+02  0.27270153063E+02 -0.45521869156E+02  0.54389229407E+02  0.00000000000E+00 0. -1.
</event>
<event>
 7    1  0.5137842E-006  0.9804680E+02  0.7561462E-02  0.1284458E+00
         -1   -1    0    0    0  501 -0.00000000000E+00  0.00000000000E+00  0.46871762762E+03  0.46871762762E+03  0.00000000000E+00 0.  1.
          1   -1    0    0  501    0  0.00000000000E+00 -0.00000000000E+00 -0.64119204554E+02  0.64119204554E+02  0.00000000000E+00 0. -1.
         23    2    1    2    0    0  0.13306845967E+02 -0.33295665603E+02 -0.12589990181E+02  0.95828282872E+02  0.87970895459E+02 0.  0.
          5    1    1    2  502    0  0.34459815249E+02  0.61528770880E+02  0.28419275182E+03  0.29284169973E+03  0.41800000000E+01 0.  1.
         -5    1    1    2    0  502 -0.47766661216E+02 -0.28233105277E+02  0.13299566142E+03  0.14416684957E+03  0.41800000000E+01 0.  1.
        -11    1    3    3    0    0 -0.51703683217E+01 -0.46694944427E+02  0.23959779754E+02  0.52737288416E+02  0.00000000000E+00 0.  1.
         11    1    3    3    0    0  0.18477214289E+02  0.13399278824E+02 -0.36549769935E+02  0.43090994456E+02  0.00000000000E+00 0. -1.
</event>
<event>
 7    1  0.5137842E-006  0.9665394E+02  0.7561462E-02  0.1287494E+00
          2   -1    0    0  501    0  0.00000000000E+00  0.00000000000E+00  0.18515147164E+02  0.18515147164E+02  0.00000000000E+00 0. -1.
         -2   -1    0    0    0  501 -0.00000000000E+00 -0.00000000000E+00 -0.73260489190E+03  0.73260489190E+03  0.00000000000E+00 0.  1.
         23    2    1    2    0    0 -0.17210936857E+02 -0.66948158570E+01 -0.19683309201E+03  0.21863094547E+03  0.93355167522E+02 0.  0.
          5    1    1    2  502    0  0.15401435747E+02 -0.58327168777E+02 -0.27893677953E+03  0.28541629634E+03  0.41800000000E+01 0. -1.
         -5    1    1    2    0  502  0.18095011106E+01  0.65021984634E+02 -0.23831987319E+03  0.24707279725E+03  0.41800000000E+01 0. -1.
        -11    1    3    3    0    0  0.20526979624E+02 -0.18991440343E+02 -0.13504182642E+02  0.31054704114E+02  0.00000000000E+00 0. -1.
         11    1    3    3    0    0 -0.37737916481E+02  0.12296624486E+02 -0.18332890936E+03  0.18757624136E+03  0.00000000000E+00 0.  1.
</event>
<event>
 7    1  0.5137842E-006  0.8054356E+02  0.7561462E-02  0.1327516E+00
         -2   -1    0    0    0  501 -0.00000000000E+00  0.00000000000E+00  0.14704058599E+03  0.14704058599E+03  0.00000000000E+00 0.  1.
          2   -1    0    0  501    0  0.00000000000E+00 -0.00000000000E+00 -0.15605383624E+03  0.15605383624E+03  0.00000000000E+00 0. -1.
         23    2    1    2    0    0 -0.46338878855E+01 -0.61971967270E+02 -0.89698014037E+02  0.14178757702E+03  0.90531683017E+02 0.  0.
          5    1    1    2  502    0  0.29227874196E+01  0.46764999246E+02 -0.25796024660E+02  0.53650863264E+02  0.41800000000E+01 0. -1.
         -5    1    1    2    0  502  0.17111004660E+01  0.15206968025E+02  0.10648078844E+03  0.10765598195E+03  0.41800000000E+01 0. -1.
        -11    1    3    3    0    0  0.20393443990E+02 -0.69190803226E+02 -0.90496644789E+02  0.11572770855E+03  0.00000000000E+00 0. -1.
         11    1    3    3    0    0 -0.25027331875E+02  0.72188359555E+01  0.79863075132E+00  0.26059868465E+02  0.00000000000E+00 0.  1.
</event>
<event>
 7    1  0.5137842E-006  0.1556461E+03  0.7561462E-02  0.1193702E+00
          2   -1    0    0  501    0  0.00000000000E+00  0.00000000000E+00  0.10187002696E+03  0.10187002696E+03  0.00000000000E+00 0.  1.
         -2   -1    0    0    0  501 -0.00000000000E+00 -0.00000000000E+00 -0.39007309543E+03  0.39007309543E+03  0.00000000000E+00 0. -1.
         23    2    1    2    0    0  0.48779626517E+02 -0.11798779359E+03 -0.27230215803E+01  0.15513062220E+03  0.88076805676E+02 0.  0.
          5    1    1    2  502    0 -0.67317858909E+02  0.13273342194E+03 -0.20878645299E+03  0.25643539300E+03  0.41800000000E+01 0.  1.
         -5    1    1    2    0  502  0.18538232392E+02 -0.14745628353E+02 -0.76693593891E+02  0.80377107186E+02  0.41800000000E+01 0.  1.
        -11    1    3    3    0    0 -0.11204938684E+02 -0.28460687301E+02  0.29659388258E+02  0.42605641462E+02  0.00000000000E+00 0.  1.
         11    1    3    3    0    0  0.59984565201E+02 -0.89527106289E+02 -0.32382409839E+02  0.11252498074E+03  0.00000000000E+00 0. -1.
</event>
<event>
 7    1  0.5137842E-006  0.1352881E+03  0.7561462E-02  0.1219814E+00
         -2   -1    0    0    0  501 -0.00000000000E+00  0.00000000000E+00  0.30676430851E+02  0.30676430851E+02  0.00000000000E+00 0.  1.
          2   -1    0    0  501    0  0.00000000000E+00 -0.00000000000E+00 -0.64831367274E+03  0.64831367274E+03  0.00000000000E+00 0. -1.
         23    2    1    2    0    0  0.17475433861E+02  0.86889721468E+02 -0.26383968630E+03  0.29340328126E+03  0.92837982017E+02 0.  0.
          5    1    1    2  502    0 -0.71676548521E+02 -0.51290175275E+02 -0.19704388050E+03  0.21589806144E+03  0.41800000000E+01 0.  1.
         -5    1    1    2    0  502  0.54201114660E+02 -0.35599546192E+02 -0.15675367508E+03  0.16968876089E+03  0.41800000000E+01 0.  1.
        -11    1    3    3    0    0 -0.29678612127E+02  0.47045412349E+02 -0.18551360027E+03  0.19367340222E+03  0.00000000000E+00 0. -1.
         11    1    3    3    0    0  0.47154045988E+02  0.39844309119E+02 -0.78326086025E+02  0.99729879045E+02  0.00000000000E+00 0.  1.
</event>
<event>
 7    1  0.5137842E-006  0.1207593E+03  0.7561462E-02  0.1241850E+00
          1   -1    0    0  501    0  0.00000000000E+00  0.00000000000E+00  0.37580933888E+03  0.37580933888E+03  0.00000000000E+00 0. -1.
         -1   -1    0    0    0  501 -0.00000000000E+00 -0.00000000000E+00 -0.45199872125E+02  0.45199872125E+02  0.00000000000E+00 0.  1.
         23    2    1    2    0    0 -0.18486286321E+02  0.71439227739E+02  0.17447748646E+03  0.20777246801E+03  0.85332872557E+02 0.  0.
          5    1    1    2  502    0 -0.26146140508E+02  0.16115833791E+02  0.28759598996E+01  0.31130118978E+02  0.41800000000E+01 0.  1.
         -5    1    1    2    0  502  0.44632426829E+02 -0.87555061530E+02  0.15325602039E+03  0.18210662401E+03  0.41800000000E+01 0.  1.
        -11    1    3    3    0    0  0.23132854799E+02  0.66303478174E+02  0.98156070618E+02  0.12068924719E+03  0.00000000000E+00 0.  1.
         11    1    3    3    0    0 -0.41619141120E+02  0.51357495646E+01  0.76321415845E+02  0.87083220816E+02  0.00000000000E+00 0. -1.
</event>
<event>
 7    1  0.5137842E-006  0.7764949E+02  0.7561462E-02  0.1335857E+00
          1   -1    0    0  501    0  0.00000000000E+00  0.00000000000E+00  0.15944758053E+03  0.15944758053E+03  0.00000000000E+00 0. -1.
         -1   -1    0    0    0  501 -0.00000000000E+00 -0.00000000000E+00 -0.78658286569E+02  0.78658286569E+02  0.00000000000E+00 0.  1.
         23    2    1    2    0    0 -0.69436722511E+01  0.28220960478E+02  0.36681928487E+02  0.10232372973E+03  0.90994200881E+02 0.  0.
          5    1    1    2  502    0  0.99481785863E+01 -0.46621427063E+02 -0.31833192783E+02  0.57474762125E+02  0.41800000000E+01 0.  1.
         -5    1    1    2    0  502 -0.30045063352E+01  0.18400466585E+02  0.75940558254E+02  0.78307375239E+02  0.41800000000E+01 0.  1.
        -11    1    3    3    0    0 -0.17314387769E+02  0.56037386313E+02  0.49341528912E+01  0.58858496017E+02  0.00000000000E+00 0.  1.
         11    1    3    3    0    0  0.10370715518E+02 -0.27816425835E+02  0.31747775596E+02  0.43465233715E+02  0.00000000000E+00 0. -1.
</event>
<event>
 7    1  0.5137842E-006  0.1337925E+03  0.7561462E-02  0.1221934E+00
         -1   -1    0    0    0  501 -0.00000000000E+00  0.00000000000E+00  0.25932515082E+03  0.25932515082E+03  0.00000000000E+00 0.  1.
          1   -1    0    0  501    0  0.00000000000E+00 -0.00000000000E+00 -0.11859354270E+03  0.11859354270E+03  0.00000000000E+00 0. -1.
         23    2    1    2    0    0 -0.34642377240E+02  0.18667397148E+02 -0.44569911259E+02  0.11048939947E+03  0.93128214787E+02 0.  0.
          5    1    1    2  502    0 -0.77666287454E+02 -0.20409258317E+02  0.75692517646E+02  0.11043287400E+03  0.41800000000E+01 0. -1.
         -5    1    1    2    0  502  0.11230866469E+03  0.17418611694E+01  0.10960900174E+03  0.15699642005E+03  0.41800000000E+01 0.  1.
        -11    1    3    3    0    0  0.18769389357E+02  0.74650815868E+01  0.18286565998E+02  0.27247310252E+02  0.00000000000E+00 0.  1.
         11    1    3    3    0    0 -0.53411766597E+02  0.11202315561E+02 -0.62856477257E+02  0.83242089222E+02  0.00000000000E+00 0. -1.
</event>
<event>
 7    1  0.5137842E-006  0.8911171E+02  0.7561462E-02  0.1305017E+00
         -2   -1    0    0    0  501 -0.00000000000E+00  0.00000000000E+00  0.22232528577E+02  0.22232528577E+02  0.00000000000E+00 0. -1.
          2   -1    0    0  501    0  0.00000000000E+00 -0.00000000000E+00 -0.56622391328E+03  0.56622391328E+03  0.00000000000E+00 0.  1.
         23    2    1    2    0    0  0.92035295529E+01  0.21005262365E+02 -0.25910630732E+03  0.27647633998E+03  0.93686509560E+02 0.  0.
          5    1    1    2  502    0 -0.29713640034E+02  0.20097819596E+02 -0.16580067585E+02  0.39739071424E+02  0.41800000000E+01 0.  1.
         -5    1    1    2    0  502  0.20510110481E+02 -0.41103081961E+02 -0.26830500980E+03  0.27224103045E+03  0.41800000000E+01 0.  1.
        -11    1    3    3    0    0  0.34476767199E+02  0.47938230497E+02 -0.17237983634E+03  0.18221286836E+03  0.00000000000E+00 0.  1.
         11    1    3    3    0    0 -0.25273237646E+02 -0.26932968131E+02 -0.86726470978E+02  0.94263471619E+02  0.00000000000E+00 0. -1.
</event>
<event>
 7    1  0.5137842E-006  0.7458433E+02  0.7561462E-02  0.1345163E+00
          2   -1    0    0  501    0  0.00000000000E+00  0.00000000000E+00  0.20156370061E+02  0.20156370061E+02  0.00000000000E+00 0.  1.
         -2   -1    0    0    0  501 -0.00000000000E+00 -0.00000000000E+00 -0.79526660943E+03  0.79526660943E+03  0.00000000000E+00 0. -1.
         23    2    1    2    0    0 -0.10666630823E+02 -0.23729482497E+02 -0.15357177358E+03  0.18088792685E+03  0.91974382790E+02 0.  0.
          5    1    1    2  502    0 -0.24297162695E+02 -0.14935797406E+02 -0.33579093083E+02  0.44254469283E+02  0.41800000000E+01 0.  1.
         -5    1    1    2    0  502  0.34963793518E+02  0.38665279903E+02 -0.58795937271E+03  0.59028058335E+03  0.41800000000E+01 0.  1.
        -11    1    3    3    0    0 -0.29577576604E+02 -0.35162540902E+02 -0.15193291788E+03  0.15872885325E+03  0.00000000000E+00 0.  1.
         11    1    3    3    0    0  0.18910945781E+02  0.11433058405E+02 -0.16388556983E+01  0.22159073600E+02  0.00000000000E+00 0. -1.
</event>
<event>
 7    1  0.5137842E-006  0.2176495E+03  0.7561462E-02  0.1135648E+00
          1   -1    0    0  501    0  0.00000000000E+00  0.00000000000E+00  0.10059926025E+04  0.10059926025E+04  0.00000000000E+00 0. -1.
         -1   -1    0    0    0  501 -0.00000000000E+00 -0.00000000000E+00 -0.62343841295E+02  0.62343841295E+02  0.00000000000E+00 0.  1.
         23    2    1    2    0    0  0.15907562982E+03  0.11572372920E+03  0.69370244155E+03  0.72655078930E+03  0.89196045336E+02 0.  0.
          5    1    1    2  502    0 -0.14079608632E+03 -0.31728971197E+02  0.18084718273E+03  0.23141616503E+03  0.41800000000E+01 0. -1.
         -5    1    1    2    0  502 -0.18279543507E+02 -0.83994758000E+02  0.69099136911E+02  0.11036948946E+03  0.41800000000E+01 0. -1.
        -11    1    3    3    0    0  0.80273741156E+02  0.92965082298E+02  0.29589052427E+03  0.32037100742E+03  0.00000000000E+00 0. -1.
         11    1    3    3    0    0  0.78801888667E+02  0.22758646899E+02  0.39781191729E+03  0.40617978187E+03  0.00000000000E+00 0.  1.
</event>
<event>
 7    1  0.5137842E-006  0.1467050E+03  0.7561462E-02  0.1204581E+00
         -1   -1    0    0    0  501 -0.00000000000E+00  0.00000000000E+00  0.41925644870E+02  0.41925644870E+02  0.00000000000E+00 0.  1.
          1   -1    0    0  501    0  0.00000000000E+00 -0.00000000000E+00 -0.83178066152E+03  0.83178066152E+03  0.00000000000E+00 0. -1.
         23    2    1    2    0    0 -0.94814961263E+02  0.70292350064E+02 -0.59705344641E+03  0.61534533875E+03  0.90808461583E+02 0.  0.
          5    1    1    2  502    0  0.99608771413E+02 -0.30002318990E+02 -0.19099932495E+03  0.21753220685E+03  0.41800000000E+01 0. -1.
         -5    1    1    2    0  502 -0.47938101503E+01 -0.40290031074E+02 -0.18022452952E+01  0.40828760791E+02  0.41800000000E+01 0. -1.
        -11    1    3    3    0    0 -0.11216576581E+03  0.53164669697E+02 -0.51490387226E+03  0.52965426345E+03  0.00000000000E+00 0. -1.
         11    1    3    3    0    0  0.17350804543E+02  0.17127680366E+02 -0.82149574145E+02  0.85691075296E+02  0.00000000000E+00 0.  1.
</event>
<event>
 7    1  0.5137842E-006  0.9889250E+02  0.7561462E-02  0.1282642E+00
         -3   -1    0    0    0  501 -0.00000000000E+00  0.00000000000E+00  0.68223897013E+03  0.68223897013E+03  0.00000000000E+00 0.  1.
          3   -1    0    0  501    0  0.00000000000E+00 -0.00000000000E+00 -0.50248434440E+02  0.50248434440E+02  0.00000000000E+00 0. -1.
         23    2    1    2    0    0  0.36405784598E+02 -0.62979163642E+02  0.41725084493E+02  0.12474348668E+03  0.92348246258E+02 0.  0.
          5    1    1    2  502    0  0.20542787836E+02  0.18824289679E+01  0.39198480005E+03  0.39254949439E+03  0.41800000000E+01 0. -1.
         -5    1    1    2    0  502 -0.56948572434E+02  0.61096734674E+02  0.19828065114E+03  0.21519442350E+03  0.41800000000E+01 0. -1.
        -11    1    3    3    0    0  0.83871230644E+01 -0.64506973705E+02 -0.10080741380E+02  0.65826399238E+02  0.00000000000E+00 0. -1.
         11    1    3    3    0    0  0.28018661534E+02  0.15278100633E+01  0.51805825873E+02  0.58917087437E+02  0.00000000000E+00 0.  1.
</event>
<event>
 7    1  0.1026259E-005  0.3269555E+03  0.7561462E-02  0.1072492E+00
          2   -1    0    0  501    0  0.00000000000E+00  0.00000000000E+00  0.10937286159E+04  0.10937286159E+04  0.00000000000E+00 0.  1.
         -2   -1    0    0    0  501 -0.00000000000E+00 -0.00000000000E+00 -0.10525065948E+03  0.10525065948E+03  0.00000000000E+00 0. -1.
         23    2    1    2    0    0  0.30558929154E+03 -0.88447032114E+02  0.56110903937E+03  0.65171401166E+03  0.93167088218E+02 0.  0.
          5    1    1    2  502    0 -0.91825691394E+02 -0.22450298362E+02  0.76473632828E+02  0.12166208290E+03  0.41800000000E+01 0.  1.
         -5    1    1    2    0  502 -0.21376360015E+03  0.11089733048E+03  0.35089528425E+03  0.42560318086E+03  0.41800000000E+01 0.  1.
        -11    1    3    3    0    0  0.16016778051E+03 -0.53572030365E+02  0.20587585104E+03  0.26628658695E+03  0.00000000000E+00 0. -1.
         11    1    3    3    0    0  0.14542151103E+03 -0.34875001748E+02  0.35523318834E+03  0.38542742470E+03  0.00000000000E+00 0.  1.
</event>
<event>
 7    1  0.5137842E-006  0.1196068E+03  0.7561462E-02  0.1243747E+00
          2   -1    0    0  501    0  0.00000000000E+00  0.00000000000E+00  0.10818544005E+03  0.10818544005E+03  0.00000000000E+00 0. -1.
         -2   -1    0    0    0  501 -0.00000000000E+00 -0.00000000000E+00 -0.18278372641E+03  0.18278372641E+03  0.00000000000E+00 0.  1.
         23    2    1    2    0    0  0.65748467254E+02  0.58056327863E+02 -0.48642116243E+02  0.13600174859E+03  0.91853263392E+02 0.  0.
          5    1    1    2  502    0 -0.87755367389E+02 -0.14409404693E+00 -0.29757196317E+02  0.92757686481E+02  0.41800000000E+01 0.  1.
         -5    1    1    2    0  502  0.22006900135E+02 -0.57912233816E+02  0.38010261981E+01  0.62209731387E+02  0.41800000000E+01 0.  1.
        -11    1    3    3    0    0  0.20439792447E+02  0.85527151395E+01 -0.63512079664E+02  0.67266026453E+02  0.00000000000E+00 0.  1.
         11    1    3    3    0    0  0.45308674808E+02  0.49503612723E+02  0.14869963421E+02  0.68735722137E+02  0.00000000000E+00 0. -1.
</event>
<event>
 7    1  0.5137842E-006  0.1613210E+03  0.7561462E-02  0.1187213E+00
         -2   -1    0    0    0  501 -0.00000000000E+00  0.00000000000E+00  0.24707842646E+03  0.24707842646E+03  0.00000000000E+00 0.  1.
          2   -1    0    0  501    0  0.00000000000E+00 -0.00000000000E+00 -0.12353944255E+03  0.12353944255E+03  0.00000000000E+00 0. -1.
         23    2    1    2    0    0 -0.86047360902E+02 -0.86661048332E+02 -0.65426063151E+01  0.15271110378E+03  0.91452664833E+02 0.  0.
          5    1    1    2  502    0 -0.32255562473E+02  0.26876092237E+02  0.32426495552E+02  0.53213679239E+02  0.41800000000E+01 0.  1.
         -5    1    1    2    0  502  0.11830292338E+03  0.59784956095E+02  0.97655094676E+02  0.16469308598E+03  0.41800000000E+01 0.  1.
        -11    1    3    3    0    0 -0.30813926154E+02 -0.87317308444E+02 -0.22354728727E+02  0.95255153642E+02  0.00000000000E+00 0. -1.
         11    1    3    3    0    0 -0.55233434749E+02  0.65626011215E+00  0.15812122412E+02  0.57455950141E+02  0.00000000000E+00 0.  1.
</event>
<event>
 7    1  0.5137842E-006  0.6455607E+02  0.7561462E-02  0.1379649E+00
          2   -1    0    0  501    0  0.00000000000E+00  0.00000000000E+00  0.55837605534E+03  0.55837605534E+03  0.00000000000E+00 0. -1.
         -2   -1    0    0    0  501 -0.00000000000E+00 -0.00000000000E+00 -0.24388548881E+02  0.24388548881E+02  0.00000000000E+00 0.  1.
         23    2    1    2    0    0 -0.21454058344E+02  0.37191263104E+02  0.23020307891E+03  0.25144074849E+03  0.91572516584E+02 0.  0.
          5    1    1    2  502    0 -0.15719563104E+02 -0.11169765215E+02  0.27852472891E+03  0.27922278799E+03  0.41800000000E+01 0.  1.
         -5    1    1    2    0  502  0.37173621448E+02 -0.26021497889E+02  0.25259698642E+02  0.52101067738E+02  0.41800000000E+01 0.  1.
        -11    1    3    3    0    0  0.35754225434E+01 -0.98761599797E+01 -0.40059885757E+01  0.11241446828E+02  0.00000000000E+00 0.  1.
         11    1    3    3    0    0 -0.25029480887E+02  0.47067423083E+02  0.23420906748E+03  0.24019930167E+03  0.00000000000E+00 0. -1.
</event>
<event>
 7    1  0.5137842E-006  0.1591236E+03  0.7561462E-02  0.1189690E+00
         -2   -1    0    0    0  501 -0.00000000000E+00  0.00000000000E+00  0.21839175632E+03  0.21839175632E+03  0.00000000000E+00 0.  1.
          2   -1    0    0  501    0  0.00000000000E+00 -0.00000000000E+00 -0.16666910329E+03  0.16666910329E+03  0.00000000000E+00 0. -1.
         23    2    1    2    0    0  0.21819542569E+02  0.13434679712E+03 -0.55891640003E+02  0.17116308191E+03  0.87451534306E+02 0.  0.
          5    1    1    2  502    0 -0.54649855585E+02 -0.13540621755E+03  0.10647728010E+03  0.18076596484E+03  0.41800000000E+01 0. -1.
         -5    1    1    2    0  502  0.32830313016E+02  0.10594204305E+01  0.11370129285E+01  0.33131812850E+02  0.41800000000E+01 0. -1.
        -11    1    3    3    0    0 -0.58373538978E+01  0.48853779909E+02 -0.64244493830E+02  0.80920464034E+02  0.00000000000E+00 0. -1.
         11    1    3    3    0    0  0.27656896467E+02  0.85493017215E+02  0.83528538270E+01  0.90242617880E+02  0.00000000000E+00 0.  1.
</event>
<event>
 7    1  0.5137842E-006  0.9533950E+02  0.7561462E-02  0.1290413E+00
         -4   -1    0    0    0  501 -0.00000000000E+00  0.00000000000E+00  0.26247757867E+03  0.26247757867E+03  0.00000000000E+00 0.  1.
          4   -1    0    0  501    0  0.00000000000E+00 -0.00000000000E+00 -0.63328387923E+02  0.63328387923E+02  0.00000000000E+00 0. -1.
         23    2    1    2    0    0 -0.22437215145E+02 -0.55482340147E+02  0.42256567022E+02  0.11641689079E+03  0.90474064317E+02 0.  0.
          5    1    1    2  502    0  0.53056089812E+02  0.34982156997E+02  0.15996555738E+03  0.17217767544E+03  0.41800000000E+01 0.  1.
         -5    1    1    2    0  502 -0.30618874667E+02  0.20500183150E+02 -0.30729336544E+01  0.37211400354E+02  0.41800000000E+01 0.  1.
        -11    1    3    3    0    0 -0.43379497319E+02 -0.17990182647E+02 -0.10770457672E+02  0.48181222668E+02  0.00000000000E+00 0. -1.
         11    1    3    3    0    0  0.20942282174E+02 -0.37492157499E+02  0.53027024695E+02  0.68235668126E+02  0.00000000000E+00 0.  1.
</event>
<event>
 7    1  0.5137842E-006  0.2099100E+03  0.7561462E-02  0.1141637E+00
          3   -1    0    0  501    0  0.00000000000E+00  0.00000000000E+00  0.15120770096E+04  0.15120770096E+04  0.00000000000E+00 0. -1.
         -3   -1    0    0    0  501 -0.00000000000E+00 -0.00000000000E+00 -0.34038193528E+02  0.34038193528E+02  0.00000000000E+00 0.  1.
         23    2    1    2    0    0 -0.78581943423E+02 -0.11604540460E+03  0.80093483721E+03  0.82220162991E+03  0.12197232890E+03 0.  0.
          5    1    1    2  502    0 -0.18767443872E+02 -0.51496224257E+02  0.88111929417E+02  0.10385211874E+03  0.41800000000E+01 0. -1.
         -5    1    1    2    0  502  0.97349387295E+02  0.16754162885E+03  0.58899204942E+03  0.62006145445E+03  0.41800000000E+01 0.  1.
        -11    1    3    3    0    0 -0.52609050286E+02 -0.50468146997E+00  0.11972500334E+03  0.13077478082E+03  0.00000000000E+00 0.  1.
         11    1    3    3    0    0 -0.25972893136E+02 -0.11554072313E+03  0.68120983387E+03  0.69142684909E+03  0.00000000000E+00 0. -1.
</event>
<event>
 7    1  0.5137842E-006  0.1084854E+03  0.7561462E-02  0.1263401E+00
         -2   -1    0    0    0  501 -0.00000000000E+00  0.00000000000E+00  0.10758902929E+03  0.10758902929E+03  0.00000000000E+00 0.  1.
          2   -1    0    0  501    0  0.00000000000E+00 -0.00000000000E+00 -0.14734892683E+03  0.14734892683E+03  0.00000000000E+00 0. -1.
         23    2    1    2    0    0 -0.48595654058E+02 -0.20509483089E+02 -0.52389827428E+02  0.11859671688E+03  0.92402980185E+02 0.  0.
          5    1    1    2  502    0  0.26660417378E+02  0.73078510844E+02  0.14291313823E+02  0.79202024297E+02  0.41800000000E+01 0.  1.
         -5    1    1    2    0  502  0.21935236680E+02 -0.52569027754E+02 -0.16613839422E+01  0.57139214939E+02  0.41800000000E+01 0.  1.
        -11    1    3    3    0    0 -0.57133970784E+02 -0.33632065907E+02 -0.25402630401E+01  0.66346510165E+02  0.00000000000E+00 0.  1.
         11    1    3    3    0    0  0.85383167254E+01  0.13122582818E+02 -0.49849564387E+02  0.52250206717E+02  0.00000000000E+00 0. -1.
</event>
<event>
 7    1  0.5137842E-006  0.7423376E+02  0.7561462E-02  0.1346260E+00
          2   -1    0    0  501    0  0.00000000000E+00  0.00000000000E+00  0.13758375789E+03  0.13758375789E+03  0.00000000000E+00 0. -1.
         -2   -1    0    0    0  501 -0.00000000000E+00 -0.00000000000E+00 -0.94296146279E+02  0.94296146279E+02  0.00000000000E+00 0.  1.
         23    2    1    2    0    0 -0.77095845832E+01  0.18344630038E+01  0.53832022918E+02  0.10609547310E+03  0.91079963615E+02 0.  0.
          5    1    1    2  502    0 -0.53272502418E+02  0.13864006646E+01 -0.30325861313E+02  0.61457398944E+02  0.41800000000E+01 0.  1.
         -5    1    1    2    0  502  0.60982087001E+02 -0.32208636684E+01  0.19781450008E+02  0.64327032126E+02  0.41800000000E+01 0.  1.
        -11    1    3    3    0    0 -0.16292614324E+02  0.12193719772E+02  0.76814838324E+02  0.79464806487E+02  0.00000000000E+00 0. -1.
         11    1    3    3    0    0  0.85830297404E+01 -0.10359256769E+02 -0.22982815406E+02  0.26630666614E+02  0.00000000000E+00 0.  1.
</event>
<event>
 7    1  0.5137842E-006  0.1291729E+03  0.7561462E-02  0.1228688E+00
          1   -1    0    0  501    0  0.00000000000E+00  0.00000000000E+00  0.79949203096E+02  0.79949203096E+02  0.00000000000E+00 0. -1.
         -1   -1    0    0    0  501 -0.00000000000E+00 -0.00000000000E+00 -0.25110550171E+03  0.25110550171E+03  0.00000000000E+00 0.  1.
         23    2    1    2    0    0  0.29320794793E+02  0.81197120897E+02 -0.50467474921E+02  0.13697753881E+03  0.93611957906E+02 0.  0.
          5    1    1    2  502    0  0.94462614452E+00 -0.10131013684E+03 -0.46904522845E+02  0.11172351055E+03  0.41800000000E+01 0. -1.
         -5    1    1    2    0  502 -0.30265420937E+02  0.20113015946E+02 -0.73784300853E+02  0.82353655458E+02  0.41800000000E+01 0. -1.
        -11    1    3    3    0    0  0.41090837123E+02  0.29037789023E+01 -0.39458615638E+02  0.57042713605E+02  0.00000000000E+00 0. -1.
         11    1    3    3    0    0 -0.11770042330E+02  0.78293341995E+02 -0.11008859284E+02  0.79934825201E+02  0.00000000000E+00 0.  1.
</event>
<event>
 7    1  0.5137842E-006  0.9304282E+02  0.7561462E-02  0.1295646E+00
         -3   -1    0    0    0  501 -0.00000000000E+00  0.00000000000E+00  0.13483804255E+03  0.13483804255E+03  0.00000000000E+00 0.  1.
          3   -1    0    0  501    0  0.00000000000E+00 -0.00000000000E+00 -0.98654897623E+02  0.98654897623E+02  0.00000000000E+00 0. -1.
         23    2    1    2    0    0  0.34676058340E+02 -0.50865165814E+01 -0.39681008033E+01  0.97521887918E+02  0.90920135977E+02 0.  0.
          5    1    1    2  502    0  0.21972253588E+01  0.53518841874E+02 -0.12746949169E+02  0.55218215725E+02  0.41800000000E+01 0. -1.
         -5    1    1    2    0  502 -0.36873283699E+02 -0.48432325292E+02  0.52898194895E+02  0.80752836527E+02  0.41800000000E+01 0. -1.
        -11    1    3    3    0    0  0.39415777976E+02  0.21116490198E+02 -0.34888302852E+02  0.56715988819E+02  0.00000000000E+00 0. -1.
         11    1    3    3    0    0 -0.47397196358E+01 -0.26203006780E+02  0.30920202049E+02  0.40805899099E+02  0.00000000000E+00 0.  1.
</event>
<event>
 7    1  0.5137842E-006  0.2731060E+03  0.7561462E-02  0.1099515E+00
          1   -1    0    0  501    0  0.00000000000E+00  0.00000000000E+00  0.57327058995E+02  0.57327058995E+02  0.00000000000E+00 0. -1.
         -1   -1    0    0    0  501 -0.00000000000E+00 -0.00000000000E+00 -0.14274056082E+04  0.14274056082E+04  0.00000000000E+00 0.  1.
         23    2    1    2    0    0  0.23526483849E+03  0.12098126971E+03 -0.66350423185E+03  0.71995685181E+03  0.90077693908E+02 0.  0.
          5    1    1    2  502    0 -0.22908066791E+03 -0.97801723085E+02 -0.51972112035E+03  0.57634247178E+03  0.41800000000E+01 0. -1.
         -5    1    1    2    0  502 -0.61841705802E+01 -0.23179546627E+02 -0.18685319697E+03  0.18843334356E+03  0.41800000000E+01 0. -1.
        -11    1    3    3    0    0  0.15037993728E+03  0.11174895096E+03 -0.37681450737E+03  0.42082196538E+03  0.00000000000E+00 0.  1.
         11    1    3    3    0    0  0.84884901203E+02  0.92323187548E+01 -0.28668972447E+03  0.29913488643E+03  0.00000000000E+00 0. -1.
</event>
<event>
 7    1  0.5137842E-006  0.1185421E+03  0.7561462E-02  0.1245522E+00
          1   -1    0    0  501    0  0.00000000000E+00  0.00000000000E+00  0.37490221768E+03  0.37490221768E+03  0.00000000000E+00 0. -1.
         -1   -1    0    0    0  501 -0.00000000000E+00 -0.00000000000E+00 -0.86651642755E+02  0.86651642755E+02  0.00000000000E+00 0.  1.
         23    2    1    2    0    0 -0.22573000090E+02 -0.91874429197E+02  0.27390036839E+03  0.30406109820E+03  0.92093911621E+02 0.  0.
          5    1    1    2  502    0  0.33017184643E+02  0.40251019670E+02  0.65622648653E+02  0.83869443080E+02  0.41800000000E+01 0.  1.
         -5    1    1    2    0  502 -0.10444184553E+02  0.51623409527E+02 -0.51272442124E+02  0.73623319156E+02  0.41800000000E+01 0.  1.
        -11    1    3    3    0    0  0.31591603131E+02 -0.87041519566E+01  0.69424644824E+02  0.76769609602E+02  0.00000000000E+00 0. -1.
         11    1    3    3    0    0 -0.54164603221E+02 -0.83170277240E+02  0.20447572357E+03  0.22729148860E+03  0.00000000000E+00 0.  1.
</event>
<event>
 7    1  0.5137842E-006  0.1553032E+03  0.7561462E-02  0.1194104E+00
         -1   -1    0    0    0  501 -0.00000000000E+00  0.00000000000E+00  0.26894184039E+03  0.26894184039E+03  0.00000000000E+00 0.  1.
          1   -1    0    0  501    0  0.00000000000E+00 -0.00000000000E+00 -0.10654294566E+03  0.10654294566E+03  0.00000000000E+00 0. -1.
         23    2    1    2    0    0  0.12934687432E+03  0.74783996972E+01  0.70789817717E+02  0.17342693002E+03  0.90989897273E+02 0.  0.
          5    1    1    2  502    0 -0.25451217316E+02 -0.54341480945E+02  0.57003389462E+02  0.82871103675E+02  0.41800000000E+01 0.  1.
         -5    1    1    2    0  502 -0.10389565700E+03  0.46863081248E+02  0.34605687555E+02  0.11918675236E+03  0.41800000000E+01 0.  1.
        -11    1    3    3    0    0  0.26384731964E+02  0.19404266625E+02 -0.17621963086E+02  0.37191574679E+02  0.00000000000E+00 0. -1.
         11    1    3    3    0    0  0.10296214235E+03 -0.11925866928E+02  0.88411780803E+02  0.13623535534E+03  0.00000000000E+00 0.  1.
</event>
<event>
 7    1  0.5137842E-006  0.1049383E+03  0.7561462E-02  0.1270241E+00
          1   -1    0    0  501    0  0.00000000000E+00  0.00000000000E+00  0.23809168321E+03  0.23809168321E+03  0.00000000000E+00 0. -1.
         -1   -1    0    0    0  501 -0.00000000000E+00 -0.00000000000E+00 -0.77247029817E+02  0.77247029817E+02  0.00000000000E+00 0.  1.
         23    2    1    2    0    0 -0.67059317818E+02  0.96346108723E+01  0.14195143832E+03  0.17993324367E+03  0.87384114709E+02 0.  0.
          5    1    1    2  502    0  0.35870864659E+02  0.32717572767E+02  0.53453247884E+02  0.72331739979E+02  0.41800000000E+01 0. -1.
         -5    1    1    2    0  502  0.31188453159E+02 -0.42352183639E+02 -0.34560032813E+02  0.63073729376E+02  0.41800000000E+01 0.  1.
        -11    1    3    3    0    0 -0.84379908593E+02 -0.66085858183E+01  0.94430426936E+02  0.12680988886E+03  0.00000000000E+00 0. -1.
         11    1    3    3    0    0  0.17320590776E+02  0.16243196691E+02  0.47521011381E+02  0.53123354809E+02  0.00000000000E+00 0.  1.
</event>
<event>
 7    1  0.5137842E-006  0.1468810E+03  0.7561462E-02  0.1204359E+00
         -2   -1    0    0    0  501 -0.00000000000E+00  0.00000000000E+00  0.52614377169E+02  0.52614377169E+02  0.00000000000E+00 0. -1.
          2   -1    0    0  501    0  0.00000000000E+00 -0.00000000000E+00 -0.63770234672E+03  0.63770234672E+03  0.00000000000E+00 0.  1.
         23    2    1    2    0    0 -0.14250153281E+03  0.12394971714E+02 -0.32488256656E+03  0.36811279842E+03  0.97457827449E+02 0.  0.
          5    1    1    2  502    0  0.11106445200E+03 -0.12162884241E+02 -0.75771450694E+02  0.13506307190E+03  0.41800000000E+01 0.  1.
         -5    1    1    2    0  502  0.31437080812E+02 -0.23208747224E+00 -0.18443395229E+03  0.18714085356E+03  0.41800000000E+01 0.  1.
        -11    1    3    3    0    0 -0.58811707134E+02 -0.17518858360E+02 -0.49802554868E+02  0.79031776936E+02  0.00000000000E+00 0. -1.
         11    1    3    3    0    0 -0.83689825675E+02  0.29913830074E+02 -0.27508001169E+03  0.28908102149E+03  0.00000000000E+00 0.  1.
</event>
<event>
 7    1  0.5137842E-006  0.1925582E+03  0.7561462E-02  0.1156174E+00
         -1   -1    0    0    0  501 -0.00000000000E+00  0.00000000000E+00  0.27105429169E+03  0.27105429169E+03  0.00000000000E+00 0.  1.
          1   -1    0    0  501    0  0.00000000000E+00 -0.00000000000E+00 -0.20491539201E+03  0.20491539201E+03  0.00000000000E+00 0. -1.
         23    2    1    2    0    0  0.10217395240E+03 -0.18835873032E+02 -0.60316808058E+02  0.14952485739E+03  0.89023923652E+02 0.  0.
          5    1    1    2  502    0 -0.88821261918E+02  0.13022947644E+03  0.46614890460E+00  0.15769154320E+03  0.41800000000E+01 0. -1.
         -5    1    1    2    0  502 -0.13352690480E+02 -0.11139360341E+03  0.12598955884E+03  0.16875328311E+03  0.41800000000E+01 0.  1.
        -11    1    3    3    0    0  0.54244972984E+02  0.15244546203E+02 -0.70065917086E+02  0.89911879193E+02  0.00000000000E+00 0.  1.
         11    1    3    3    0    0  0.47928979415E+02 -0.34080419235E+02  0.97491090282E+01  0.59612978199E+02  0.00000000000E+00 0. -1.
</event>
<event>
 7    1  0.5137842E-006  0.2127947E+03  0.7561462E-02  0.1139372E+00
         -1   -1    0    0    0  501 -0.00000000000E+00  0.00000000000E+00  0.69164010921E+02  0.69164010921E+02  0.00000000000E+00 0.  1.
          1   -1    0    0  501    0  0.00000000000E+00 -0.00000000000E+00 -0.71027320343E+03  0.71027320343E+03  0.00000000000E+00 0. -1.
         23    2    1    2    0    0 -0.19131901231E+03  0.12313517594E+02 -0.34190706911E+03  0.40270568963E+03  0.92286734504E+02 0.  0.
          5    1    1    2  502    0  0.19564135233E+03 -0.40668705253E+02 -0.26428914943E+03  0.33135435599E+03  0.41800000000E+01 0. -1.
         -5    1    1    2    0  502 -0.43223400278E+01  0.28355187658E+02 -0.34912973972E+02  0.45377168731E+02  0.41800000000E+01 0. -1.
        -11    1    3    3    0    0 -0.14492621173E+03  0.28305824644E+02 -0.17624527590E+03  0.22992873642E+03  0.00000000000E+00 0.  1.
         11    1    3    3    0    0 -0.46392800579E+02 -0.15992307049E+02 -0.16566179321E+03  0.17277695321E+03  0.00000000000E+00 0. -1.
</event>
<event>
 7    1  0.5137842E-006  0.1738860E+03  0.7561462E-02  0.1173855E+00
          1   -1    0    0  501    0  0.00000000000E+00  0.00000000000E+00  0.27891263398E+03  0.27891263398E+03  0.00000000000E+00 0. -1.
         -1   -1    0    0    0  501 -0.00000000000E+00 -0.00000000000E+00 -0.15412391187E+03  0.15412391187E+03  0.00000000000E+00 0.  1.
         23    2    1    2    0    0  0.65120370619E+02  0.13134791555E+03  0.16196499164E+03  0.23676776405E+03  0.91287337505E+02 0.  0.
          5    1    1    2  502    0 -0.49122938189E+02 -0.15566394554E+03 -0.30334673759E+02  0.16607827019E+03  0.41800000000E+01 0. -1.
         -5    1    1    2    0  502 -0.15997432430E+02  0.24316029983E+02 -0.68415957628E+01  0.30190511607E+02  0.41800000000E+01 0. -1.
        -11    1    3    3    0    0 -0.21476520137E+01  0.47672027283E+02  0.69792358297E+01  0.48228045028E+02  0.00000000000E+00 0.  1.
         11    1    3    3    0    0  0.67268022632E+02  0.83675888271E+02  0.15498575581E+03  0.18853971903E+03  0.00000000000E+00 0. -1.
</event>
<event>
 7    1  0.5137842E-006  0.8486723E+02  0.7561462E-02  0.1315780E+00
          2   -1    0    0  501    0  0.00000000000E+00  0.00000000000E+00  0.54532160959E+03  0.54532160959E+03  0.00000000000E+00 0. -1.
         -2   -1    0    0    0  501 -0.00000000000E+00 -0.00000000000E+00 -0.23964440495E+02  0.23964440495E+02  0.00000000000E+00 0.  1.
         23    2    1    2    0    0  0.79772636216E+01  0.35496416620E+02  0.23626660569E+03  0.25584010462E+03  0.91151620043E+02 0.  0.
          5    1    1    2  502    0 -0.18368906514E+02  0.17547341734E+02  0.26858287367E+01  0.25884590096E+02  0.41800000000E+01 0.  1.
         -5    1    1    2    0  502  0.10391642892E+02 -0.53043758354E+02  0.28240473467E+03  0.28756135538E+03  0.41800000000E+01 0.  1.
        -11    1    3    3    0    0  0.19294410145E+02 -0.23099388483E+02  0.36280988465E+02  0.47139857182E+02  0.00000000000E+00 0.  1.
         11    1    3    3    0    0 -0.11317146524E+02  0.58595805103E+02  0.19998561723E+03  0.20870024743E+03  0.00000000000E+00 0. -1.
</event>
<event>
 7    1  0.5137842E-006  0.1107684E+03  0.7561462E-02  0.1259154E+00
         -2   -1    0    0    0  501 -0.00000000000E+00  0.00000000000E+00  0.30657171674E+02  0.30657171674E+02  0.00000000000E+00 0.  1.
          2   -1    0    0  501    0  0.00000000000E+00 -0.00000000000E+00 -0.48803318164E+03  0.48803318164E+03  0.00000000000E+00 0. -1.
         23    2    1    2    0    0  0.29536906994E+02 -0.50128341670E+02 -0.20490495585E+03  0.23098619645E+03  0.89349328504E+02 0.  0.
          5    1    1    2  502    0  0.21616980522E+02  0.73341961652E+02 -0.10593063012E+03  0.13071001486E+03  0.41800000000E+01 0. -1.
         -5    1    1    2    0  502 -0.51153887516E+02 -0.23213619982E+02 -0.14654042399E+03  0.15699414200E+03  0.41800000000E+01 0. -1.
        -11    1    3    3    0    0  0.90226518787E+01 -0.63503916287E+02 -0.74527008620E+02  0.98328178284E+02  0.00000000000E+00 0.  1.
         11    1    3    3    0    0  0.20514255116E+02  0.13375574617E+02 -0.13037794723E+03  0.13265801817E+03  0.00000000000E+00 0. -1.
</event>
<event>
 7    1  0.5137842E-006  0.1124298E+03  0.7561462E-02  0.1256135E+00
         -1   -1    0    0    0  501 -0.00000000000E+00  0.00000000000E+00  0.38615626250E+02  0.38615626250E+02  0.00000000000E+00 0.  1.
          1   -1    0    0  501    0  0.00000000000E+00 -0.00000000000E+00 -0.37034043807E+03  0.37034043807E+03  0.00000000000E+00 0. -1.
         23    2    1    2    0    0 -0.41325058025E+02  0.18548312745E+02 -0.18381285775E+03  0.21014321761E+03  0.91220638611E+02 0.  0.
          5    1    1    2  502    0 -0.39562630203E+02 -0.13081971125E+02 -0.17913091922E+02  0.45548775387E+02  0.41800000000E+01 0. -1.
         -5    1    1    2    0  502  0.80887688227E+02 -0.54663416202E+01 -0.12999886215E+03  0.15326407132E+03  0.41800000000E+01 0. -1.
        -11    1    3    3    0    0 -0.12941868717E+02  0.54488757609E+02 -0.97944274988E+02  0.11282551872E+03  0.00000000000E+00 0.  1.
         11    1    3    3    0    0 -0.28383189308E+02 -0.35940444864E+02 -0.85868582760E+02  0.97317698892E+02  0.00000000000E+00 0. -1.
</event>
<event>
 7    1  0.5137842E-006  0.1268178E+03  0.7561462E-02  0.1232255E+00
         -2   -1    0    0    0  501 -0.00000000000E+00  0.00000000000E+00  0.80554405749E+02  0.80554405749E+02  0.00000000000E+00 0.  1.
          2   -1    0    0  501    0  0.00000000000E+00 -0.00000000000E+00 -0.27928773339E+03  0.27928773339E+03  0.00000000000E+00 0. -1.
         23    2    1    2    0    0  0.30232351772E+02 -0.96530559572E+02 -0.12493634461E+03  0.18285119013E+03  0.87139678124E+02 0.  0.
          5    1    1    2  502    0  0.22853059156E+02  0.41690347832E+01  0.23025712893E+02  0.32974217475E+02  0.41800000000E+01 0.  1.
         -5    1    1    2    0  502 -0.53085410928E+02  0.92361524789E+02 -0.96822695922E+02  0.14401673153E+03  0.41800000000E+01 0.  1.
        -11    1    3    3    0    0  0.15287592566E+02  0.83912737969E+01  0.19262918604E+01  0.17545214810E+02  0.00000000000E+00 0.  1.
         11    1    3    3    0    0  0.14944759206E+02 -0.10492183337E+03 -0.12686263647E+03  0.16530597532E+03  0.00000000000E+00 0. -1.
</event>
<event>
 7    1  0.5137842E-006  0.1491313E+03  0.7561462E-02  0.1201545E+00
         -2   -1    0    0    0  501 -0.00000000000E+00  0.00000000000E+00  0.30372487405E+03  0.30372487405E+03  0.00000000000E+00 0.  1.
          2   -1    0    0  501    0  0.00000000000E+00 -0.00000000000E+00 -0.97596454754E+02  0.97596454754E+02  0.00000000000E+00 0. -1.
         23    2    1    2    0    0  0.31576339382E+02  0.12726176899E+03  0.89566409380E+02  0.18585401043E+03  0.96576127750E+02 0.  0.
          5    1    1    2  502    0 -0.34915855535E+01  0.13454531290E+02 -0.14909705989E+02  0.20808347233E+02  0.41800000000E+01 0.  1.
         -5    1    1    2    0  502 -0.28084753829E+02 -0.14071630028E+03  0.13147171591E+03  0.19465897114E+03  0.41800000000E+01 0.  1.
        -11    1    3    3    0    0 -0.11821945893E+02  0.11200209026E+02  0.54786158543E+02  0.57155281950E+02  0.00000000000E+00 0.  1.
         11    1    3    3    0    0  0.43398285275E+02  0.11606155996E+03  0.34780250838E+02  0.12869872849E+03  0.00000000000E+00 0. -1.
</event>
<event>
 7    1  0.5137842E-006  0.1364771E+03  0.7561462E-02  0.1218149E+00
          2   -1    0    0  501    0  0.00000000000E+00  0.00000000000E+00  0.37041672980E+02  0.37041672980E+02  0.00000000000E+00 0. -1.
         -2   -1    0    0    0  501 -0.00000000000E+00 -0.00000000000E+00 -0.90645090987E+03  0.90645090987E+03  0.00000000000E+00 0.  1.
         23    2    1    2    0    0  0.47061578916E+01  0.56756106090E+02 -0.92373718339E+02  0.14203788488E+03  0.91643076114E+02 0.  0.
          5    1    1    2  502    0  0.59428278039E+02 -0.80729456422E+02 -0.24103977149E+03  0.26108735933E+03  0.41800000000E+01 0. -1.
         -5    1    1    2    0  502 -0.64134435931E+02  0.23973350332E+02 -0.53599574706E+03  0.54036733864E+03  0.41800000000E+01 0.  1.
        -11    1    3    3    0    0  0.45861305741E+02  0.33082647681E+02 -0.68715406102E+02  0.88991729827E+02  0.00000000000E+00 0.  1.
         11    1    3    3    0    0 -0.41155147850E+02  0.23673458409E+02 -0.23658312237E+02  0.53046155049E+02  0.00000000000E+00 0. -1.
</event>
<event>
 7    1  0.5137842E-006  0.8753933E+02  0.7561462E-02  0.1308922E+00
          4   -1    0    0  501    0  0.00000000000E+00  0.00000000000E+00  0.37343775636E+02  0.37343775636E+02  0.00000000000E+00 0. -1.
         -4   -1    0    0    0  501 -0.00000000000E+00 -0.00000000000E+00 -0.49798284964E+03  0.49798284964E+03  0.00000000000E+00 0.  1.
         23    2    1    2    0    0 -0.76122849643E+02  0.68280481141E+01 -0.26699456226E+03  0.29245473453E+03  0.91664415081E+02 0.  0.
          5    1    1    2  502    0  0.28636176746E+02  0.22110389458E+02  0.48057065970E+01  0.36735094345E+02  0.41800000000E+01 0. -1.
         -5    1    1    2    0  502  0.47486672898E+02 -0.28938437572E+02 -0.19845021835E+03  0.20613679641E+03  0.41800000000E+01 0. -1.
        -11    1    3    3    0    0 -0.55515198687E+02 -0.98495361125E+01 -0.25855791472E+03  0.26463398480E+03  0.00000000000E+00 0.  1.
         11    1    3    3    0    0 -0.20607650956E+02  0.16677584227E+02 -0.84366475374E+01  0.27820749725E+02  0.00000000000E+00 0. -1.
</event>
<event>
 7    1  0.5137842E-006  0.1891746E+03  0.7561462E-02  0.1159208E+00
          2   -1    0    0  501    0  0.00000000000E+00  0.00000000000E+00  0.52795856036E+02  0.52795856036E+02  0.00000000000E+00 0. -1.
         -2   -1    0    0    0  501 -0.00000000000E+00 -0.00000000000E+00 -0.77116233041E+03  0.77116233041E+03  0.00000000000E+00 0.  1.
         23    2    1    2    0    0 -0.16366494667E+03  0.45957281084E+02 -0.36460805423E+03  0.41202332093E+03  0.89027508816E+02 0.  0.
          5    1    1    2  502    0  0.26970144009E+02 -0.42185769458E+02 -0.19958426935E+03  0.20581151762E+03  0.41800000000E+01 0.  1.
         -5    1    1    2    0  502  0.13669480266E+03 -0.37715116267E+01 -0.15417415079E+03  0.20612334789E+03  0.41800000000E+01 0.  1.
        -11    1    3    3    0    0 -0.12532744101E+03 -0.74531987801E+01 -0.22344500510E+03  0.25630097141E+03  0.00000000000E+00 0. -1.
         11    1    3    3    0    0 -0.38337505664E+02  0.53410479864E+02 -0.14116304913E+03  0.15572234952E+03  0.00000000000E+00 0.  1.
</event>
<event>
 7    1  0.5137842E-006  0.2502221E+03  0.7561462E-02  0.1113165E+00
         -1   -1    0    0    0  501 -0.00000000000E+00  0.00000000000E+00  0.47204357195E+02  0.47204357195E+02  0.00000000000E+00 0.  1.
          1   -1    0    0  501    0  0.00000000000E+00 -0.00000000000E+00 -0.15886690292E+04  0.15886690292E+04  0.00000000000E+00 0. -1.
         23    2    1    2    0    0  0.20924894269E+03  0.96072636790E+02 -0.10522186167E+04  0.10808826136E+04  0.90156171996E+02 0.  0.
          5    1    1    2  502    0 -0.27486071837E+01 -0.39839762761E+02 -0.13737526442E+03  0.14312301427E+03  0.41800000000E+01 0.  1.
         -5    1    1    2    0  502 -0.20650033551E+03 -0.56232874029E+02 -0.35187079082E+03  0.41186775854E+03  0.41800000000E+01 0.  1.
        -11    1    3    3    0    0  0.13135375668E+03  0.10454069328E+03 -0.66960804636E+03  0.69033144336E+03  0.00000000000E+00 0.  1.
         11    1    3    3    0    0  0.77895186008E+02 -0.84680564909E+01 -0.38261057037E+03  0.39055117020E+03  0.00000000000E+00 0. -1.
</event>
<event>
 7    1  0.5137842E-006  0.8960820E+02  0.7561462E-02  0.1303803E+00
          1   -1    0    0  501    0  0.00000000000E+00  0.00000000000E+00  0.61803900411E+02  0.61803900411E+02  0.00000000000E+00 0. -1.
         -1   -1    0    0    0  501 -0.00000000000E+00 -0.00000000000E+00 -0.22983621468E+03  0.22983621468E+03  0.00000000000E+00 0.  1.
         23    2    1    2    0    0  0.11763521165E+02  0.46545259212E+02 -0.89812540764E+02  0.13648908377E+03  0.90874286379E+02 0.  0.
          5    1    1    2  502    0  0.31503583078E+02 -0.25071492971E+02 -0.95464731694E+02  0.10369205806E+03  0.41800000000E+01 0. -1.
         -5    1    1    2    0  502 -0.43267104242E+02 -0.21473766241E+02  0.17244958192E+02  0.51458973261E+02  0.41800000000E+01 0. -1.
        -11    1    3    3    0    0  0.36464994503E+02 -0.12140524727E+01 -0.60937480072E+01  0.36990586806E+02  0.00000000000E+00 0. -1.
         11    1    3    3    0    0 -0.24701473338E+02  0.47759311684E+02 -0.83718792757E+02  0.99498496965E+02  0.00000000000E+00 0.  1.
</event>
<event>
 7    1  0.5137842E-006  0.1207774E+03  0.7561462E-02  0.1241820E+00
         -1   -1    0    0    0  501 -0.00000000000E+00  0.00000000000E+00  0.25061160997E+03  0.25061160997E+03  0.00000000000E+00 0.  1.
          1   -1    0    0  501    0  0.00000000000E+00 -0.00000000000E+00 -0.92379185715E+02  0.92379185715E+02  0.00000000000E+00 0. -1.
         23    2    1    2    0    0  0.10435573857E+03 -0.14277358821E+02  0.47795955005E+02  0.14566498895E+03  0.88543054756E+02 0.  0.
          5    1    1    2  502    0 -0.89749563233E+02  0.44930351590E+02  0.22465056074E+02  0.10293625085E+03  0.41800000000E+01 0.  1.
         -5    1    1    2    0  502 -0.14606175333E+02 -0.30652992769E+02  0.87971413178E+02  0.94389555884E+02  0.41800000000E+01 0.  1.
        -11    1    3    3    0    0  0.23609330742E+02  0.43857892180E+01 -0.25500611557E+02  0.35027372652E+02  0.00000000000E+00 0. -1.
         11    1    3    3    0    0  0.80746407824E+02 -0.18663148039E+02  0.73296566562E+02  0.11063761630E+03  0.00000000000E+00 0.  1.
</event>
<event>
 7    1  0.5137842E-006  0.1257155E+03  0.7561462E-02  0.1233955E+00
          2   -1    0    0  501    0  0.00000000000E+00  0.00000000000E+00  0.24119363301E+03  0.24119363301E+03  0.00000000000E+00 0. -1.
         -2   -1    0    0    0  501 -0.00000000000E+00 -0.00000000000E+00 -0.83122379912E+02  0.83122379912E+02  0.00000000000E+00 0.  1.
         23    2    1    2    0    0  0.36382915570E+02  0.82177490957E+02  0.86595260344E+02  0.15451198578E+03  0.91095324083E+02 0.  0.
          5    1    1    2  502    0 -0.29678282395E+02 -0.11236241926E+03  0.75038787886E+02  0.13839944290E+03  0.41800000000E+01 0. -1.
         -5    1    1    2    0  502 -0.67046331751E+01  0.30184928299E+02 -0.35627951333E+01  0.31404584245E+02  0.41800000000E+01 0. -1.
        -11    1    3    3    0    0  0.39849160557E+02  0.25839159692E+02  0.85792917343E+02  0.98061421757E+02  0.00000000000E+00 0. -1.
         11    1    3    3    0    0 -0.34662449874E+01  0.56338331265E+02  0.80234300114E+00  0.56450564022E+02  0.00000000000E+00 0.  1.
</event>
<event>
 7    1  0.5137842E-006  0.7640351E+02  0.7561462E-02  0.1339579E+00
          1   -1    0    0  501    0  0.00000000000E+00  0.00000000000E+00  0.51636620387E+03  0.51636620387E+03  0.00000000000E+00 0. -1.
         -1   -1    0    0    0  501 -0.00000000000E+00 -0.00000000000E+00 -0.26825523419E+02  0.26825523419E+02  0.00000000000E+00 0.  1.
         23    2    1    2    0    0  0.64472176358E+01  0.43924893699E+02  0.22922890682E+03  0.25099154415E+03  0.92086375812E+02 0.  0.
          5    1    1    2  502    0 -0.19768160201E+02 -0.17324905256E+02  0.26080029940E+03  0.26215491806E+03  0.41800000000E+01 0.  1.
         -5    1    1    2    0  502  0.13320942565E+02 -0.26599988444E+02 -0.48852576721E+00  0.30045265075E+02  0.41800000000E+01 0.  1.
        -11    1    3    3    0    0  0.45939713169E+02  0.21323220078E+02  0.77460875960E+02  0.92549037083E+02  0.00000000000E+00 0.  1.
         11    1    3    3    0    0 -0.39492495533E+02  0.22601673621E+02  0.15176803086E+03  0.15844250707E+03  0.00000000000E+00 0. -1.
</event>
<event>
 7    1  0.1152379E-005  0.1506576E+03  0.7561462E-02  0.1199667E+00
          2   -1    0    0  501    0  0.00000000000E+00  0.00000000000E+00  0.78729987822E+03  0.78729987822E+03  0.00000000000E+00 0. -1.
         -2   -1    0    0    0  501 -0.00000000000E+00 -0.00000000000E+00 -0.42804767022E+02  0.42804767022E+02  0.00000000000E+00 0.  1.
         23    2    1    2    0    0 -0.10085464157E+03  0.94820646236E+02  0.46958452105E+03  0.49786082914E+03  0.90516126176E+02 0.  0.
          5    1    1    2  502    0  0.53071617976E+01 -0.57942960594E+01 -0.13182232652E+02  0.15905454752E+02  0.41800000000E+01 0.  1.
         -5    1    1    2    0  502  0.95547479770E+02 -0.89026350177E+02  0.28809282279E+03  0.31633836135E+03  0.41800000000E+01 0.  1.
        -11    1    3    3    0    0 -0.81264282053E+02  0.19017625619E+02  0.29389351680E+03  0.30551424326E+03  0.00000000000E+00 0.  1.
         11    1    3    3    0    0 -0.19590359515E+02  0.75803020617E+02  0.17569100426E+03  0.19234658587E+03  0.00000000000E+00 0. -1.
</event>
<event>
 7    1  0.5137842E-006  0.2064354E+03  0.7561462E-02  0.1144420E+00
          2   -1    0    0  501    0  0.00000000000E+00  0.00000000000E+00  0.13265586702E+03  0.13265586702E+03  0.00000000000E+00 0. -1.
         -2   -1    0    0    0  501 -0.00000000000E+00 -0.00000000000E+00 -0.42138001769E+03  0.42138001769E+03  0.00000000000E+00 0.  1.
         23    2    1    2    0    0  0.37636779744E+01  0.17948621682E+03 -0.10075508340E+02  0.20157387779E+03  0.91110071012E+02 0.  0.
          5    1    1    2  502    0 -0.40376495710E+00  0.16258011622E+02 -0.42439680790E+02  0.45640824638E+02  0.41800000000E+01 0. -1.
         -5    1    1    2    0  502 -0.33599130173E+01 -0.19574422844E+03 -0.23620896154E+03  0.30682118228E+03  0.41800000000E+01 0.  1.
        -11    1    3    3    0    0  0.27806689890E+02  0.17318969808E+03 -0.15643622377E+02  0.17610396487E+03  0.00000000000E+00 0. -1.
         11    1    3    3    0    0 -0.24043011916E+02  0.62965187440E+01  0.55681140374E+01  0.25469912921E+02  0.00000000000E+00 0.  1.
</event>
<event>
 7    1  0.5137842E-006  0.1200755E+03  0.7561462E-02  0.1242972E+00
          2   -1    0    0  501    0  0.00000000000E+00  0.00000000000E+00  0.50292408860E+03  0.50292408860E+03  0.00000000000E+00 0. -1.
         -2   -1    0    0    0  501 -0.00000000000E+00 -0.00000000000E+00 -0.40037155595E+02  0.40037155595E+02  0.00000000000E+00 0.  1.
         23    2    1    2    0    0  0.14008244575E+02 -0.94374053256E+02  0.23051831007E+03  0.26570937406E+03  0.91433513236E+02 0.  0.
          5    1    1    2  502    0  0.20800635925E+02  0.25081179572E+02  0.18142722289E+03  0.18437744338E+03  0.41800000000E+01 0. -1.
         -5    1    1    2    0  502 -0.34808880500E+02  0.69292873685E+02  0.50941400043E+02  0.92874426747E+02  0.41800000000E+01 0.  1.
        -11    1    3    3    0    0 -0.11026977204E+02  0.14336459427E+02  0.53475900095E+02  0.56451750957E+02  0.00000000000E+00 0.  1.
         11    1    3    3    0    0  0.25035221779E+02 -0.10871051268E+03  0.17704240997E+03  0.20925762310E+03  0.00000000000E+00 0. -1.
</event>
<event>
 7    1  0.5137842E-006  0.1826042E+03  0.7561462E-02  0.1165306E+00
         -1   -1    0    0    0  501 -0.00000000000E+00  0.00000000000E+00  0.30657463604E+03  0.30657463604E+03  0.00000000000E+00 0.  1.
          1   -1    0    0  501    0  0.00000000000E+00 -0.00000000000E+00 -0.15965586459E+03  0.15965586459E+03  0.00000000000E+00 0. -1.
         23    2    1    2    0    0 -0.43424475514E+02 -0.16197361245E+03 -0.27906460416E+02  0.19360161312E+03  0.92637345964E+02 0.  0.
          5    1    1    2  502    0  0.68207166806E+02  0.89971511790E+02  0.15848899796E+03  0.19463639283E+03  0.41800000000E+01 0.  1.
         -5    1    1    2    0  502 -0.24782691292E+02  0.72002100661E+02  0.16336233905E+02  0.77992494674E+02  0.41800000000E+01 0.  1.
        -11    1    3    3    0    0 -0.50958214304E+02 -0.88621677268E+02 -0.53710965886E+02  0.11547904201E+03  0.00000000000E+00 0. -1.
         11    1    3    3    0    0  0.75337387892E+01 -0.73351935183E+02  0.25804505470E+02  0.78122571115E+02  0.00000000000E+00 0.  1.
</event>
<event>
 7    1  0.5137842E-006  0.1239904E+03  0.7561462E-02  0.1236656E+00
         -1   -1    0    0    0  501 -0.00000000000E+00  0.00000000000E+00  0.17593280720E+03  0.17593280720E+03  0.00000000000E+00 0.  1.
          1   -1    0    0  501    0  0.00000000000E+00 -0.00000000000E+00 -0.98843409769E+02  0.98843409769E+02  0.00000000000E+00 0. -1.
         23    2    1    2    0    0  0.68696136840E+02 -0.29240755637E+02  0.29250233566E+02  0.12144506315E+03  0.91209353652E+02 0.  0.
          5    1    1    2  502    0 -0.43599011080E+02  0.71592544903E+02 -0.89664544187E+00  0.83932369357E+02  0.41800000000E+01 0. -1.
         -5    1    1    2    0  502 -0.25097125760E+02 -0.42351789266E+02  0.48735809303E+02  0.69398784456E+02  0.41800000000E+01 0. -1.
        -11    1    3    3    0    0  0.21451676854E+02 -0.56267470835E+02  0.12373909821E+01  0.60230672007E+02  0.00000000000E+00 0. -1.
         11    1    3    3    0    0  0.47244459986E+02  0.27026715198E+02  0.28012842584E+02  0.61214391146E+02  0.00000000000E+00 0.  1.
</event>
<event>
 7    1  0.5137842E-006  0.1042519E+03  0.7561462E-02  0.1271601E+00
          2   -1    0    0  501    0  0.00000000000E+00  0.00000000000E+00  0.48405861396E+03  0.48405861396E+03  0.00000000000E+00 0. -1.
         -2   -1    0    0    0  501 -0.00000000000E+00 -0.00000000000E+00 -0.32802820729E+02  0.32802820729E+02  0.00000000000E+00 0.  1.
         23    2    1    2    0    0 -0.45851214230E+02  0.44164442744E+02  0.20012619298E+03  0.22916958135E+03  0.91735336969E+02 0.  0.
          5    1    1    2  502    0 -0.15854054363E+02  0.97472614588E+01 -0.41766347762E+01  0.19526311063E+02  0.41800000000E+01 0. -1.
         -5    1    1    2    0  502  0.61705268592E+02 -0.53911704202E+02  0.25530623503E+03  0.26816554228E+03  0.41800000000E+01 0. -1.
        -11    1    3    3    0    0  0.83139827117E+01 -0.21036155536E+02  0.20409991257E+02  0.30466537240E+02  0.00000000000E+00 0.  1.
         11    1    3    3    0    0 -0.54165196941E+02  0.65200598279E+02  0.17971620172E+03  0.19870304411E+03  0.00000000000E+00 0. -1.
</event>
<event>
 7    1  0.5137842E-006  0.9009274E+02  0.7561462E-02  0.1302627E+00
          3   -1    0    0  501    0  0.00000000000E+00  0.00000000000E+00  0.42497859825E+02  0.42497859825E+02  0.00000000000E+00 0. -1.
         -3   -1    0    0    0  501 -0.00000000000E+00 -0.00000000000E+00 -0.32851598570E+03  0.32851598570E+03  0.00000000000E+00 0.  1.
         23    2    1    2    0    0  0.42249900571E+02  0.12946753760E+02 -0.10837641176E+03  0.14929995538E+03  0.92694970304E+02 0.  0.
          5    1    1    2  502    0 -0.54870961434E+02  0.45757803690E+02 -0.10927791895E+03  0.13062823193E+03  0.41800000000E+01 0. -1.
         -5    1    1    2    0  502  0.12621060863E+02 -0.58704557450E+02 -0.68363795158E+02  0.91085658208E+02  0.41800000000E+01 0. -1.
        -11    1    3    3    0    0  0.36915064428E+02  0.28733736332E+01 -0.12431092010E+03  0.12970806881E+03  0.00000000000E+00 0.  1.
         11    1    3    3    0    0  0.53348361434E+01  0.10073380127E+02  0.15934508334E+02  0.19591886578E+02  0.00000000000E+00 0. -1.
</event>
<event>
 7    1  0.5137842E-006  0.1796062E+03  0.7561462E-02  0.1168185E+00
          2   -1    0    0  501    0  0.00000000000E+00  0.00000000000E+00  0.15418961178E+04  0.15418961178E+04  0.00000000000E+00 0. -1.
         -2   -1    0    0    0  501 -0.00000000000E+00 -0.00000000000E+00 -0.24007972237E+02  0.24007972237E+02  0.00000000000E+00 0.  1.
         23    2    1    2    0    0 -0.93895314044E+02 -0.11660780666E+03  0.93590719660E+03  0.95209338961E+03  0.90254259202E+02 0.  0.
          5    1    1    2  502    0  0.12059133088E+03  0.73518231550E+02  0.47085329744E+03  0.49159688726E+03  0.41800000000E+01 0. -1.
         -5    1    1    2    0  502 -0.26696016837E+02  0.43089575112E+02  0.11112765156E+03  0.12221381321E+03  0.41800000000E+01 0. -1.
        -11    1    3    3    0    0 -0.86037039045E+02 -0.12738410898E+03  0.91063454866E+03  0.92351738723E+03  0.00000000000E+00 0. -1.
         11    1    3    3    0    0 -0.78582749982E+01  0.10776302317E+02  0.25272647945E+02  0.28576002375E+02  0.00000000000E+00 0.  1.
</event>
<event>
 7    1  0.5137842E-006  0.8659195E+02  0.7561462E-02  0.1311321E+00
         -1   -1    0    0    0  501 -0.00000000000E+00  0.00000000000E+00  0.21180686658E+03  0.21180686658E+03  0.00000000000E+00 0.  1.
          1   -1    0    0  501    0  0.00000000000E+00 -0.00000000000E+00 -0.63970049086E+02  0.63970049086E+02  0.00000000000E+00 0. -1.
         23    2    1    2    0    0 -0.34142944107E+02  0.24397444721E+00  0.36483325099E+02  0.10486371763E+03  0.92193091435E+02 0.  0.
          5    1    1    2  502    0  0.21251857615E+02 -0.48748397119E+02  0.54204633795E+01  0.53618107921E+02  0.41800000000E+01 0.  1.
         -5    1    1    2    0  502  0.12891086492E+02  0.48504422671E+02  0.10593302902E+03  0.11729509012E+03  0.41800000000E+01 0.  1.
        -11    1    3    3    0    0 -0.23672118511E+01  0.27507807766E+02 -0.20331613275E+02  0.34287864886E+02  0.00000000000E+00 0. -1.
         11    1    3    3    0    0 -0.31775732256E+02 -0.27263833319E+02  0.56814938374E+02  0.70575852741E+02  0.00000000000E+00 0.  1.
</event>
<event>
 7    1  0.5137842E-006  0.1210325E+03  0.7561462E-02  0.1241403E+00
         -2   -1    0    0    0  501 -0.00000000000E+00  0.00000000000E+00  0.50827737916E+02  0.50827737916E+02  0.00000000000E+00 0. -1.
          2   -1    0    0  501    0  0.00000000000E+00 -0.00000000000E+00 -0.45714574853E+03  0.45714574853E+03  0.00000000000E+00 0.  1.
         23    2    1    2    0    0  0.62991533435E+02  0.65897391846E+02 -0.28027789426E+03  0.30836399762E+03  0.90676664482E+02 0.  0.
          5    1    1    2  502    0  0.22738651144E+02  0.19063389535E+02 -0.45377957496E+02  0.54379136651E+02  0.41800000000E+01 0. -1.
         -5    1    1    2    0  502 -0.85730184580E+02 -0.84960781381E+02 -0.80662158859E+02  0.14523035217E+03  0.41800000000E+01 0. -1.
        -11    1    3    3    0    0  0.22963109954E+02  0.27938676609E+02 -0.18091980640E+02  0.40437530005E+02  0.00000000000E+00 0. -1.
         11    1    3    3    0    0  0.40028423482E+02  0.37958715237E+02 -0.26218591362E+03  0.26792646762E+03  0.00000000000E+00 0.  1.
</event>
<event>
 7    1  0.5137842E-006  0.7233726E+02  0.7561462E-02  0.1352321E+00
         -1   -1    0    0    0  501 -0.00000000000E+00  0.00000000000E+00  0.37234424285E+03  0.37234424285E+03  0.00000000000E+00 0.  1.
          1   -1    0    0  501    0  0.00000000000E+00 -0.00000000000E+00 -0.34303976208E+02  0.34303976208E+02  0.00000000000E+00 0. -1.
         23    2    1    2    0    0 -0.22560159159E+02  0.15061432971E+02  0.13165915659E+03  0.16379435703E+03  0.93587661246E+02 0.  0.
          5    1    1    2  502    0 -0.13572591317E+02 -0.54532997728E+01  0.20462695799E+03  0.20519166174E+03  0.41800000000E+01 0. -1.
         -5    1    1    2    0  502  0.36132750476E+02 -0.96081331984E+01  0.17541520638E+01  0.37662200281E+02  0.41800000000E+01 0. -1.
        -11    1    3    3    0    0 -0.39888616657E+02 -0.25766798010E+02  0.40477645579E+02  0.62397671512E+02  0.00000000000E+00 0. -1.
         11    1    3    3    0    0  0.17328457498E+02  0.40828230981E+02  0.91181511010E+02  0.10139668552E+03  0.00000000000E+00 0.  1.
</event>
<event>
 7    1  0.5137842E-006  0.1131154E+03  0.7561462E-02  0.1254907E+00
          1   -1    0    0  501    0  0.00000000000E+00  0.00000000000E+00  0.51796528057E+03  0.51796528057E+03  0.00000000000E+00 0. -1.
         -1   -1    0    0    0  501 -0.00000000000E+00 -0.00000000000E+00 -0.59354258493E+02  0.59354258493E+02  0.00000000000E+00 0.  1.
         23    2    1    2    0    0 -0.45206698493E+02  0.33545467366E+02  0.42011421763E+03  0.43311366169E+03  0.89008674414E+02 0.  0.
          5    1    1    2  502    0  0.67575737841E+01  0.38724940333E+02  0.47438883973E+02  0.61751161284E+02  0.41800000000E+01 0. -1.
         -5    1    1    2    0  502  0.38449124709E+02 -0.72270407699E+02 -0.89420795190E+01  0.82454716093E+02  0.41800000000E+01 0.  1.
        -11    1    3    3    0    0 -0.80626623810E+01 -0.30033350195E+02  0.14654766303E+03  0.14981063443E+03  0.00000000000E+00 0.  1.
         11    1    3    3    0    0 -0.37144036112E+02  0.63578817560E+02  0.27356655460E+03  0.28330302726E+03  0.00000000000E+00 0. -1.
</event>
<event>
 7    1  0.5137842E-006  0.1571861E+03  0.7561462E-02  0.1191911E+00
         -2   -1    0    0    0  501 -0.00000000000E+00  0.00000000000E+00  0.20855757845E+03  0.20855757845E+03  0.00000000000E+00 0.  1.
          2   -1    0    0  501    0  0.00000000000E+00 -0.00000000000E+00 -0.16582284289E+03  0.16582284289E+03  0.00000000000E+00 0. -1.
         23    2    1    2    0    0  0.60435095375E+02 -0.12566296574E+03 -0.37168197885E+02  0.17072394931E+03  0.91222860208E+02 0.  0.
          5    1    1    2  502    0 -0.72748369034E+02  0.79375524531E+02 -0.30312227530E+01  0.10779359815E+03  0.41800000000E+01 0.  1.
         -5    1    1    2    0  502  0.12313273659E+02  0.46287441206E+02  0.82934156197E+02  0.95862873866E+02  0.41800000000E+01 0.  1.
        -11    1    3    3    0    0 -0.32066886206E+01 -0.80356691521E+02  0.74395667853E+01  0.80764025891E+02  0.00000000000E+00 0.  1.
         11    1    3    3    0    0  0.63641783996E+02 -0.45306274217E+02 -0.44607764670E+02  0.89959923424E+02  0.00000000000E+00 0. -1.
</event>
<event>
 7    1  0.5137842E-006  0.1233736E+03  0.7561462E-02  0.1237633E+00
          2   -1    0    0  501    0  0.00000000000E+00  0.00000000000E+00  0.34332988569E+03  0.34332988569E+03  0.00000000000E+00 0. -1.
         -2   -1    0    0    0  501 -0.00000000000E+00 -0.00000000000E+00 -0.86012183786E+02  0.86012183786E+02  0.00000000000E+00 0.  1.
         23    2    1    2    0    0  0.10323124526E+02 -0.89474038719E+02  0.24241312638E+03  0.27448018895E+03  0.91994998666E+02 0.  0.
          5    1    1    2  502    0  0.38464613824E+02  0.58319718316E+02  0.50926497047E+02  0.86554587184E+02  0.41800000000E+01 0.  1.
         -5    1    1    2    0  502 -0.48787738350E+02  0.31154320403E+02 -0.36021921526E+02  0.68307293340E+02  0.41800000000E+01 0.  1.
        -11    1    3    3    0    0  0.25649571500E+02  0.22306037413E+01  0.10811364487E+03  0.11113701597E+03  0.00000000000E+00 0. -1.
         11    1    3    3    0    0 -0.15326446974E+02 -0.91704642460E+02  0.13429948151E+03  0.16334317298E+03  0.00000000000E+00 0.  1.
</event>
<event>
 7    1  0.5137842E-006  0.1438135E+03  0.7561462E-02  0.1208288E+00
          1   -1    0    0  501    0  0.00000000000E+00  0.00000000000E+00  0.49941479187E+02  0.49941479187E+02  0.00000000000E+00 0. -1.
         -1   -1    0    0    0  501 -0.00000000000E+00 -0.00000000000E+00 -0.11158303640E+04  0.11158303640E+04  0.00000000000E+00 0.  1.
         23    2    1    2    0    0 -0.10765531829E+03 -0.41665333659E+02 -0.83633228958E+02  0.16890647943E+03  0.90604714142E+02 0.  0.
          5    1    1    2  502    0  0.89373220953E+02  0.69854487517E+02 -0.47081069948E+03  0.48430094899E+03  0.41800000000E+01 0. -1.
         -5    1    1    2    0  502  0.18282097332E+02 -0.28189153858E+02 -0.51144495633E+03  0.51256441472E+03  0.41800000000E+01 0.  1.
        -11    1    3    3    0    0 -0.37923730969E+02 -0.57378439568E+02 -0.65912635018E+02  0.95262637760E+02  0.00000000000E+00 0.  1.
         11    1    3    3    0    0 -0.69731587316E+02  0.15713105909E+02 -0.17720593940E+02  0.73643841674E+02  0.00000000000E+00 0. -1.
</event>
<event>
 7    1  0.5137842E-006  0.1079455E+03  0.7561462E-02  0.1264422E+00
          1   -1    0    0  501    0  0.00000000000E+00  0.00000000000E+00  0.23632042628E+03  0.23632042628E+03  0.00000000000E+00 0. -1.
         -1   -1    0    0    0  501 -0.00000000000E+00 -0.00000000000E+00 -0.68279868088E+02  0.68279868088E+02  0.00000000000E+00 0.  1.
         23    2    1    2    0    0  0.30386594580E+02  0.49506189816E+02  0.11203046555E+03  0.15574165849E+03  0.91271194893E+02 0.  0.
          5    1    1    2  502    0  0.39576642661E+02  0.63997454277E+01  0.41830061097E+02  0.58090393330E+02  0.41800000000E+01 0. -1.
         -5    1    1    2    0  502 -0.69963237240E+02 -0.55905935244E+02  0.14180031544E+02  0.90768242548E+02  0.41800000000E+01 0. -1.
        -11    1    3    3    0    0 -0.40690839087E+01 -0.13509368456E+02 -0.77367174525E+01  0.16090906651E+02  0.00000000000E+00 0.  1.
         11    1    3    3    0    0  0.34455678488E+02  0.63015558272E+02  0.11976718300E+03  0.13965075184E+03  0.00000000000E+00 0. -1.
</event>
<event>
 7    1  0.5137842E-006  0.1216666E+03  0.7561462E-02  0.1240373E+00
          2   -1    0    0  501    0  0.00000000000E+00  0.00000000000E+00  0.67884850205E+02  0.67884850205E+02  0.00000000000E+00 0. -1.
         -2   -1    0    0    0  501 -0.00000000000E+00 -0.00000000000E+00 -0.46853113421E+03  0.46853113421E+03  0.00000000000E+00 0.  1.
         23    2    1    2    0    0  0.62518116606E+02 -0.60860302565E+02 -0.21620131025E+02  0.12785714672E+03  0.90925951027E+02 0.  0.
          5    1    1    2  502    0 -0.50888821281E+02 -0.29235238795E+02 -0.11269337128E+03  0.12712843761E+03  0.41800000000E+01 0.  1.
         -5    1    1    2    0  502 -0.11629295326E+02  0.90095541360E+02 -0.26633278170E+03  0.28143040009E+03  0.41800000000E+01 0.  1.
        -11    1    3    3    0    0  0.44852902702E+02 -0.20134874492E+02  0.31683230312E+02  0.58489513031E+02  0.00000000000E+00 0. -1.
         11    1    3    3    0    0  0.17665213904E+02 -0.40725428073E+02 -0.53303361338E+02  0.69367633692E+02  0.00000000000E+00 0.  1.
</event>
<event>
 7    1  0.5137842E-006  0.9090432E+02  0.7561462E-02  0.1300676E+00
          2   -1    0    0  501    0  0.00000000000E+00  0.00000000000E+00  0.36237861682E+03  0.36237861682E+03  0.00000000000E+00 0. -1.
         -2   -1    0    0    0  501 -0.00000000000E+00 -0.00000000000E+00 -0.71894568470E+02  0.71894568470E+02  0.00000000000E+00 0.  1.
         23    2    1    2    0    0 -0.18481329399E+02 -0.13093122746E+02  0.29188400979E+03  0.30714525420E+03  0.92892101962E+02 0.  0.
          5    1    1    2  502    0 -0.10785760120E+02 -0.31034038030E+02 -0.46745412482E+02  0.57289179832E+02  0.41800000000E+01 0. -1.
         -5    1    1    2    0  502  0.29267089519E+02  0.44127160776E+02  0.45345451040E+02  0.69838751256E+02  0.41800000000E+01 0. -1.
        -11    1    3    3    0    0 -0.42546281452E+02 -0.40749694666E+02  0.17557912096E+03  0.18519922084E+03  0.00000000000E+00 0.  1.
         11    1    3    3    0    0  0.24064952054E+02  0.27656571920E+02  0.11630488882E+03  0.12194603336E+03  0.00000000000E+00 0. -1.
</event>
<event>
 7    1  0.5137842E-006  0.2591748E+03  0.7561462E-02  0.1107640E+00
          1   -1    0    0  501    0  0.00000000000E+00  0.00000000000E+00  0.94628750246E+03  0.94628750246E+03  0.00000000000E+00 0. -1.
         -1   -1    0    0    0  501 -0.00000000000E+00 -0.00000000000E+00 -0.71555308289E+02  0.71555308289E+02  0.00000000000E+00 0.  1.
         23    2    1    2    0    0 -0.10763159539E+03  0.21044206973E+03  0.42457680663E+03  0.49424169125E+03  0.90216182607E+02 0.  0.
          5    1    1    2  502    0  0.17519715515E+02 -0.16558846109E+03  0.27287305447E+03  0.31969306394E+03  0.41800000000E+01 0.  1.
         -5    1    1    2    0  502  0.90111879871E+02 -0.44853608635E+02  0.17728233308E+03  0.20390805556E+03  0.41800000000E+01 0.  1.
        -11    1    3    3    0    0 -0.63370775847E+02  0.39987049716E+02  0.99906106720E+02  0.12488414446E+03  0.00000000000E+00 0.  1.
         11    1    3    3    0    0 -0.44260819539E+02  0.17045502001E+03  0.32467069991E+03  0.36935754679E+03  0.00000000000E+00 0. -1.
</event>
<event>
 7    1  0.5137842E-006  0.1883531E+03  0.7561462E-02  0.1159955E+00
          2   -1    0    0  501    0  0.00000000000E+00  0.00000000000E+00  0.10493604600E+04  0.10493604600E+04  0.00000000000E+00 0. -1.
         -2   -1    0    0    0  501 -0.00000000000E+00 -0.00000000000E+00 -0.36748417918E+02  0.36748417918E+02  0.00000000000E+00 0.  1.
         23    2    1    2    0    0 -0.83619944913E+02  0.13947776451E+03  0.44856130611E+03  0.48590380415E+03  0.91918004588E+02 0.  0.
          5    1    1    2  502    0 -0.10498858200E+02 -0.95839594591E+02  0.33691943628E+03  0.35046773440E+03  0.41800000000E+01 0.  1.
         -5    1    1    2    0  502  0.94118803113E+02 -0.43638169917E+02  0.22713129967E+03  0.24973733935E+03  0.41800000000E+01 0.  1.
        -11    1    3    3    0    0  0.19383591525E+01  0.58628141002E+02  0.81404453445E+02  0.10033793497E+03  0.00000000000E+00 0.  1.
         11    1    3    3    0    0 -0.85558304065E+02  0.80849623505E+02  0.36715685266E+03  0.38556586917E+03  0.00000000000E+00 0. -1.
</event>
<event>
 7    1  0.5137842E-006  0.1082816E+03  0.7561462E-02  0.1263786E+00
         -1   -1    0    0    0  501 -0.00000000000E+00  0.00000000000E+00  0.12214591791E+03  0.12214591791E+03  0.00000000000E+00 0.  1.
          1   -1    0    0  501    0  0.00000000000E+00 -0.00000000000E+00 -0.13311829213E+03  0.13311829213E+03  0.00000000000E+00 0. -1.
         23    2    1    2    0    0 -0.34631714213E+02  0.16788780259E+02 -0.61128888932E+02  0.11510486511E+03  0.89616796074E+02 0.  0.
          5    1    1    2  502    0  0.60677485739E+02  0.36837511580E+02  0.27991337102E+02  0.76418236617E+02  0.41800000000E+01 0. -1.
         -5    1    1    2    0  502 -0.26045771526E+02 -0.53626291839E+02  0.22165177603E+02  0.63741108313E+02  0.41800000000E+01 0. -1.
        -11    1    3    3    0    0  0.21105599820E+02 -0.10568432224E+02  0.52848199971E+01  0.24188167063E+02  0.00000000000E+00 0.  1.
         11    1    3    3    0    0 -0.55737314033E+02  0.27357212483E+02 -0.66413708929E+02  0.90916698049E+02  0.00000000000E+00 0. -1.
</event>
<event>
 7    1  0.5137842E-006  0.1594733E+03  0.7561462E-02  0.1189293E+00
          2   -1    0    0  501    0  0.00000000000E+00  0.00000000000E+00  0.67967258221E+03  0.67967258221E+03  0.00000000000E+00 0. -1.
         -2   -1    0    0    0  501 -0.00000000000E+00 -0.00000000000E+00 -0.46366096203E+02  0.46366096203E+02  0.00000000000E+00 0.  1.
         23    2    1    2    0    0  0.14119628232E+03 -0.10874272400E+02  0.27135031644E+03  0.31773298775E+03  0.85256186486E+02 0.  0.
          5    1    1    2  502    0 -0.62892063130E+02  0.42875344993E+02  0.28095188812E+03  0.29111018988E+03  0.41800000000E+01 0. -1.
         -5    1    1    2    0  502 -0.78304219191E+02 -0.32001072593E+02  0.81004281449E+02  0.11719550078E+03  0.41800000000E+01 0. -1.
        -11    1    3    3    0    0  0.88647298982E+01 -0.23473380388E+02  0.15729192561E+02  0.29614025759E+02  0.00000000000E+00 0.  1.
         11    1    3    3    0    0  0.13233155242E+03  0.12599107988E+02  0.25562112388E+03  0.28811896199E+03  0.00000000000E+00 0. -1.
</event>
<event>
 7    1  0.5137842E-006  0.2217149E+03  0.7561462E-02  0.1132611E+00
          1   -1    0    0  501    0  0.00000000000E+00  0.00000000000E+00  0.16511396044E+03  0.16511396044E+03  0.00000000000E+00 0. -1.
         -1   -1    0    0    0  501 -0.00000000000E+00 -0.00000000000E+00 -0.34908655750E+03  0.34908655750E+03  0.00000000000E+00 0.  1.
         23    2    1    2    0    0 -0.92291281100E+02 -0.18816811371E+03 -0.52682333942E+02  0.23450922671E+03  0.91072660659E+02 0.  0.
          5    1    1    2  502    0 -0.15032077961E+02  0.75814127603E+02 -0.90321558365E+02  0.11895041663E+03  0.41800000000E+01 0. -1.
         -5    1    1    2    0  502  0.10732335906E+03  0.11235398611E+03 -0.40968704759E+02  0.16074087459E+03  0.41800000000E+01 0.  1.
        -11    1    3    3    0    0 -0.54913519104E+02 -0.88549451080E+02 -0.71622057892E+02  0.12643662066E+03  0.00000000000E+00 0. -1.
         11    1    3    3    0    0 -0.37377761995E+02 -0.99618662631E+02  0.18939723949E+02  0.10807260605E+03  0.00000000000E+00 0.  1.
</event>
<event>
 7    1  0.5137842E-006  0.8896582E+02  0.7561462E-02  0.1305376E+00
         -3   -1    0    0    0  501 -0.00000000000E+00  0.00000000000E+00  0.47565401249E+02  0.47565401249E+02  0.00000000000E+00 0.  1.
          3   -1    0    0  501    0  0.00000000000E+00 -0.00000000000E+00 -0.33127608094E+03  0.33127608094E+03  0.00000000000E+00 0. -1.
         23    2    1    2    0    0 -0.21650441690E+02  0.49534144555E+02 -0.16986078703E+03  0.20126711739E+03  0.93452621523E+02 0.  0.
          5    1    1    2  502    0 -0.70389841807E+01  0.11628107307E+02 -0.10877266697E+03  0.10969833935E+03  0.41800000000E+01 0. -1.
         -5    1    1    2    0  502  0.28689425871E+02 -0.61162251861E+02 -0.50772256930E+01  0.67876025446E+02  0.41800000000E+01 0. -1.
        -11    1    3    3    0    0 -0.50539378663E+02  0.19006658428E+02 -0.47589905342E+02  0.71974168635E+02  0.00000000000E+00 0.  1.
         11    1    3    3    0    0  0.28888936972E+02  0.30527486126E+02 -0.12227088169E+03  0.12929294876E+03  0.00000000000E+00 0. -1.
</event>
<event>
 7    1  0.5137842E-006  0.2200589E+03  0.7561462E-02  0.1133839E+00
          1   -1    0    0  501    0  0.00000000000E+00  0.00000000000E+00  0.18483029886E+03  0.18483029886E+03  0.00000000000E+00 0.  1.
         -1   -1    0    0    0  501 -0.00000000000E+00 -0.00000000000E+00 -0.33387947127E+03  0.33387947127E+03  0.00000000000E+00 0. -1.
         23    2    1    2    0    0  0.24797328786E+02  0.19725167225E+03  0.39650886654E+02  0.21741513288E+03  0.78574916310E+02 0.  0.
          5    1    1    2  502    0  0.92472738433E+01 -0.19786336473E+03 -0.17503509441E+03  0.26436750907E+03  0.41800000000E+01 0.  1.
         -5    1    1    2    0  502 -0.34044602630E+02  0.61169247886E+00 -0.13664964652E+02  0.36927128170E+02  0.41800000000E+01 0.  1.
        -11    1    3    3    0    0  0.37755985021E+02  0.67913642539E+02  0.40075269108E+02  0.87428853601E+02  0.00000000000E+00 0.  1.
         11    1    3    3    0    0 -0.12958656235E+02  0.12933802971E+03 -0.42438245367E+00  0.12998627928E+03  0.00000000000E+00 0. -1.
</event>
<event>
 7    1  0.5137842E-006  0.9495192E+02  0.7561462E-02  0.1291284E+00
          2   -1    0    0  501    0  0.00000000000E+00  0.00000000000E+00  0.11612363764E+03  0.11612363764E+03  0.00000000000E+00 0. -1.
         -2   -1    0    0    0  501 -0.00000000000E+00 -0.00000000000E+00 -0.12453027991E+03  0.12453027991E+03  0.00000000000E+00 0.  1.
         23    2    1    2    0    0  0.19744490466E+02 -0.28543546896E+02  0.28342662909E+02  0.10573734582E+03  0.95773173632E+02 0.  0.
          5    1    1    2  502    0 -0.58095226616E+02  0.23461066214E+02 -0.62229453366E+02  0.88405057829E+02  0.41800000000E+01 0.  1.
         -5    1    1    2    0  502  0.38350736151E+02  0.50824806817E+01  0.25480148189E+02  0.46511513896E+02  0.41800000000E+01 0.  1.
        -11    1    3    3    0    0  0.22113510165E+02  0.25700125449E+02 -0.14202142344E+02  0.36758735385E+02  0.00000000000E+00 0.  1.
         11    1    3    3    0    0 -0.23690196987E+01 -0.54243672345E+02  0.42544805253E+02  0.68978610437E+02  0.00000000000E+00 0. -1.
</event>
<event>
 7    1  0.5137842E-006  0.1093001E+03  0.7561462E-02  0.1261871E+00
          1   -1    0    0  501    0  0.00000000000E+00  0.00000000000E+00  0.19110360908E+02  0.19110360908E+02  0.00000000000E+00 0. -1.
         -1   -1    0    0    0  501 -0.00000000000E+00 -0.00000000000E+00 -0.72287389986E+03  0.72287389986E+03  0.00000000000E+00 0.  1.
         23    2    1    2    0    0  0.25925717626E+02 -0.25932852665E+02 -0.22880497294E+03  0.24946118831E+03  0.92382428799E+02 0.  0.
          5    1    1    2  502    0 -0.65649777658E+02 -0.19773761858E+02 -0.28181733778E+03  0.29006788729E+03  0.41800000000E+01 0.  1.
         -5    1    1    2    0  502  0.39724060032E+02  0.45706614523E+02 -0.19314122823E+03  0.20245518516E+03  0.41800000000E+01 0.  1.
        -11    1    3    3    0    0  0.21838235651E+02  0.27782834456E+02 -0.41221684665E+02  0.54295687797E+02  0.00000000000E+00 0. -1.
         11    1    3    3    0    0  0.40874819756E+01 -0.53715687120E+02 -0.18758328827E+03  0.19516550052E+03  0.00000000000E+00 0.  1.
</event>
<event>
 7    1  0.5137842E-006  0.8748129E+02  0.7561462E-02  0.1309068E+00
          2   -1    0    0  501    0  0.00000000000E+00  0.00000000000E+00  0.22011509434E+03  0.22011509434E+03  0.00000000000E+00 0. -1.
         -2   -1    0    0    0  501 -0.00000000000E+00 -0.00000000000E+00 -0.60409865232E+02  0.60409865232E+02  0.00000000000E+00 0.  1.
         23    2    1    2    0    0  0.15184265203E+01 -0.28602174388E+02  0.10131180975E+03  0.13954049079E+03  0.91580979338E+02 0.  0.
          5    1    1    2  502    0 -0.12515975925E+02  0.51880866636E+02 -0.20933087278E+02  0.57479914051E+02  0.41800000000E+01 0. -1.
         -5    1    1    2    0  502  0.10997549405E+02 -0.23278692248E+02  0.79326506639E+02  0.83504554734E+02  0.41800000000E+01 0. -1.
        -11    1    3    3    0    0  0.26799040125E+02  0.24641804299E+02  0.46460518550E+02  0.59025306900E+02  0.00000000000E+00 0. -1.
         11    1    3    3    0    0 -0.25280613604E+02 -0.53243978687E+02  0.54851291199E+02  0.80515183890E+02  0.00000000000E+00 0.  1.
</event>
<event>
 7    1  0.5137842E-006  0.9537771E+02  0.7561462E-02  0.1290328E+00
         -1   -1    0    0    0  501 -0.00000000000E+00  0.00000000000E+00  0.68079347579E+03  0.68079347579E+03  0.00000000000E+00 0.  1.
          1   -1    0    0  501    0  0.00000000000E+00 -0.00000000000E+00 -0.32417090166E+02  0.32417090166E+02  0.00000000000E+00 0. -1.
         23    2    1    2    0    0  0.73293241218E+02 -0.96539294074E+00  0.11510151565E+03  0.16057793057E+03  0.84640898441E+02 0.  0.
          5    1    1    2  502    0 -0.49916716234E+02  0.44834636596E+02  0.45412862712E+03  0.45907745051E+03  0.41800000000E+01 0. -1.
         -5    1    1    2    0  502 -0.23376524984E+02 -0.43869243655E+02  0.79146242855E+02  0.93555184877E+02  0.41800000000E+01 0. -1.
        -11    1    3    3    0    0  0.58945747992E+02  0.20627679653E+01  0.12807201370E+03  0.14100105287E+03  0.00000000000E+00 0.  1.
         11    1    3    3    0    0  0.14347493226E+02 -0.30281609061E+01 -0.12970498055E+02  0.19576877691E+02  0.00000000000E+00 0. -1.
</event>
<event>
 7    1  0.5137842E-006  0.1246879E+03  0.7561462E-02  0.1235558E+00
          2   -1    0    0  501    0  0.00000000000E+00  0.00000000000E+00  0.35541544518E+03  0.35541544518E+03  0.00000000000E+00 0. -1.
         -2   -1    0    0    0  501 -0.00000000000E+00 -0.00000000000E+00 -0.62888902054E+02  0.62888902054E+02  0.00000000000E+00 0.  1.
         23    2    1    2    0    0 -0.69261786669E+02 -0.22363012856E+02  0.23669244298E+03  0.26318475323E+03  0.89138108184E+02 0.  0.
          5    1    1    2  502    0  0.26440614523E+02  0.71213924936E+02  0.47001478145E+02  0.89426732854E+02  0.41800000000E+01 0. -1.
         -5    1    1    2    0  502  0.42821172146E+02 -0.48850912080E+02  0.88326219997E+01  0.65692861152E+02  0.41800000000E+01 0. -1.
        -11    1    3    3    0    0 -0.47497428528E+01 -0.40823733513E+02  0.49552828568E+02  0.64378723925E+02  0.00000000000E+00 0. -1.
         11    1    3    3    0    0 -0.64512043817E+02  0.18460720657E+02  0.18713961441E+03  0.19880602930E+03  0.00000000000E+00 0.  1.
</event>
<event>
 7    1  0.5137842E-006  0.8998776E+02  0.7561462E-02  0.1302881E+00
         -1   -1    0    0    0  501 -0.00000000000E+00  0.00000000000E+00  0.54965036153E+02  0.54965036153E+02  0.00000000000E+00 0.  1.
          1   -1    0    0  501    0  0.00000000000E+00 -0.00000000000E+00 -0.29422624342E+03  0.29422624342E+03  0.00000000000E+00 0. -1.
         23    2    1    2    0    0 -0.26351224407E+02 -0.43279245677E+02 -0.16876731108E+03  0.19692617589E+03  0.87920608074E+02 0.  0.
          5    1    1    2  502    0  0.30727555678E+02 -0.65894450579E+01  0.27614747600E+02  0.42043431700E+02  0.41800000000E+01 0.  1.
         -5    1    1    2    0  502 -0.43763312707E+01  0.49868690734E+02 -0.98108643782E+02  0.11022167199E+03  0.41800000000E+01 0.  1.
        -11    1    3    3    0    0 -0.17922532560E+02  0.24155642317E+02 -0.30373082791E+02  0.42746185647E+02  0.00000000000E+00 0.  1.
         11    1    3    3    0    0 -0.84286918472E+01 -0.67434887994E+02 -0.13839422829E+03  0.15417999024E+03  0.00000000000E+00 0. -1.
</event>
<event>
 7    1  0.5137842E-006  0.5769799E+02  0.7561462E-02  0.1407754E+00
          2   -1    0    0  501    0  0.00000000000E+00  0.00000000000E+00  0.94295674471E+02  0.94295674471E+02  0.00000000000E+00 0. -1.
         -2   -1    0    0    0  501 -0.00000000000E+00 -0.00000000000E+00 -0.15104916174E+03  0.15104916174E+03  0.00000000000E+00 0.  1.
         23    2    1    2    0    0 -0.46615419792E+02  0.14551450298E+02 -0.11142532633E+02  0.10350568103E+03  0.90578849094E+02 0.  0.
          5    1    1    2  502    0  0.10353910708E+02  0.12641482708E+02 -0.81904808502E+02  0.83623445324E+02  0.41800000000E+01 0. -1.
         -5    1    1    2    0  502  0.36261509084E+02 -0.27192933006E+02  0.36293853864E+02  0.58215709863E+02  0.41800000000E+01 0. -1.
        -11    1    3    3    0    0 -0.31359209449E+02  0.19554516129E+02 -0.49586698118E+02  0.61843510157E+02  0.00000000000E+00 0.  1.
         11    1    3    3    0    0 -0.15256210342E+02 -0.50030658305E+01  0.38444165485E+02  0.41662170870E+02  0.00000000000E+00 0. -1.
</event>
<event>
 7    1  0.5137842E-006  0.1115915E+03  0.7561462E-02  0.1257651E+00
          1   -1    0    0  501    0  0.00000000000E+00  0.00000000000E+00  0.35152772602E+03  0.35152772602E+03  0.00000000000E+00 0. -1.
         -1   -1    0    0    0  501 -0.00000000000E+00 -0.00000000000E+00 -0.46355288247E+02  0.46355288247E+02  0.00000000000E+00 0.  1.
         23    2    1    2    0    0 -0.31024591807E+02 -0.54852803190E+02  0.17139421706E+03  0.20419427084E+03  0.91367211233E+02 0.  0.
          5    1    1    2  502    0  0.38762358533E+02  0.92896539967E+02  0.90862669383E+02  0.13566792054E+03  0.41800000000E+01 0.  1.
         -5    1    1    2    0  502 -0.77377667262E+01 -0.38043736777E+02  0.42915551324E+02  0.58020822877E+02  0.41800000000E+01 0.  1.
        -11    1    3    3    0    0 -0.43334596981E+02 -0.22612916025E+02  0.16084451239E+03  0.16810766917E+03  0.00000000000E+00 0.  1.
         11    1    3    3    0    0  0.12310005174E+02 -0.32239887165E+02  0.10549704670E+02  0.36086601675E+02  0.00000000000E+00 0. -1.
</event>
<event>
 7    1  0.5137842E-006  0.1741847E+03  0.7561462E-02  0.1173553E+00
         -1   -1    0    0    0  501 -0.00000000000E+00  0.00000000000E+00  0.77077659330E+03  0.77077659330E+03  0.00000000000E+00 0.  1.
          1   -1    0    0  501    0  0.00000000000E+00 -0.00000000000E+00 -0.11621489073E+03  0.11621489073E+03  0.00000000000E+00 0. -1.
         23    2    1    2    0    0 -0.15784112662E+03 -0.32456591346E+02 -0.16501800280E+02  0.18596115174E+03  0.91334489486E+02 0.  0.
          5    1    1    2  502    0  0.82819894205E+02  0.17368654283E+01  0.13204901388E+03  0.15593769924E+03  0.41800000000E+01 0. -1.
         -5    1    1    2    0  502  0.75021232416E+02  0.30719725917E+02  0.53901448898E+03  0.54509263305E+03  0.41800000000E+01 0.  1.
        -11    1    3    3    0    0 -0.44619275034E+02 -0.52893271035E+02 -0.15457356951E+02  0.70904920205E+02  0.00000000000E+00 0.  1.
         11    1    3    3    0    0 -0.11322185159E+03  0.20436679689E+02 -0.10444433287E+01  0.11505623154E+03  0.00000000000E+00 0. -1.
</event>
<event>
 7    1  0.5137842E-006  0.1222268E+03  0.7561462E-02  0.1239468E+00
         -1   -1    0    0    0  501 -0.00000000000E+00  0.00000000000E+00  0.21579633408E+03  0.21579633408E+03  0.00000000000E+00 0.  1.
          1   -1    0    0  501    0  0.00000000000E+00 -0.00000000000E+00 -0.74517505822E+02  0.74517505822E+02  0.00000000000E+00 0. -1.
         23    2    1    2    0    0  0.30755972169E+02  0.55319792364E+02  0.45801307602E+02  0.12069780157E+03  0.91999947141E+02 0.  0.
          5    1    1    2  502    0 -0.64371897403E+01 -0.93942826134E+02  0.67268517997E+02  0.11579817748E+03  0.41800000000E+01 0.  1.
         -5    1    1    2    0  502 -0.24318782428E+02  0.38623033769E+02  0.28209002662E+02  0.53817860860E+02  0.41800000000E+01 0.  1.
        -11    1    3    3    0    0  0.15990304439E+02  0.76718176506E+02  0.13976283321E+02  0.79603422903E+02  0.00000000000E+00 0.  1.
         11    1    3    3    0    0  0.14765667729E+02 -0.21398384141E+02  0.31825024281E+02  0.41094378665E+02  0.00000000000E+00 0. -1.
</event>
<event>
 7    1  0.5137842E-006  0.1107129E+03  0.7561462E-02  0.1259255E+00
          2   -1    0    0  501    0  0.00000000000E+00  0.00000000000E+00  0.37284382263E+03  0.37284382263E+03  0.00000000000E+00 0. -1.
         -2   -1    0    0    0  501 -0.00000000000E+00 -0.00000000000E+00 -0.43622499694E+02  0.43622499694E+02  0.00000000000E+00 0.  1.
         23    2    1    2    0    0 -0.53904538743E+02 -0.23072185653E+02  0.19710136020E+03  0.22530964570E+03  0.92073151383E+02 0.  0.
          5    1    1    2  502    0 -0.35515723777E+02  0.99219272034E+00  0.73924844315E+02  0.82126159589E+02  0.41800000000E+01 0. -1.
         -5    1    1    2    0  502  0.89420262521E+02  0.22079992933E+02  0.58195118427E+02  0.10903051704E+03  0.41800000000E+01 0. -1.
        -11    1    3    3    0    0 -0.17633274111E+02 -0.46864437350E+02  0.45612853209E+02  0.67732859248E+02  0.00000000000E+00 0. -1.
         11    1    3    3    0    0 -0.36271264632E+02  0.23792251697E+02  0.15148850699E+03  0.15757678645E+03  0.00000000000E+00 0.  1.
</event>
<event>
 7    1  0.5137842E-006  0.1259163E+03  0.7561462E-02  0.1233644E+00
         -1   -1    0    0    0  501 -0.00000000000E+00  0.00000000000E+00  0.22440800669E+03  0.22440800669E+03  0.00000000000E+00 0.  1.
          1   -1    0    0  501    0  0.00000000000E+00 -0.00000000000E+00 -0.95587326780E+02  0.95587326780E+02  0.00000000000E+00 0. -1.
         23    2    1    2    0    0  0.60560863706E+02 -0.76885180902E+02  0.47392483870E+02  0.14150885208E+03  0.90552517551E+02 0.  0.
          5    1    1    2  502    0 -0.56248022830E+02  0.10629479543E+03  0.86296499281E+02  0.14807762085E+03  0.41800000000E+01 0. -1.
         -5    1    1    2    0  502 -0.43128408764E+01 -0.29409614525E+02 -0.48683032440E+01  0.30408860541E+02  0.41800000000E+01 0. -1.
        -11    1    3    3    0    0  0.15418166305E+02 -0.43016996564E+01  0.53471985936E+02  0.55816464883E+02  0.00000000000E+00 0.  1.
         11    1    3    3    0    0  0.45142697401E+02 -0.72583481245E+02 -0.60795020655E+01  0.85692387198E+02  0.00000000000E+00 0. -1.
</event>
<event>
 7    1  0.5137842E-006  0.9350984E+02  0.7561462E-02  0.1294568E+00
         -2   -1    0    0    0  501 -0.00000000000E+00  0.00000000000E+00  0.29136114899E+02  0.29136114899E+02  0.00000000000E+00 0.  1.
          2   -1    0    0  501    0  0.00000000000E+00 -0.00000000000E+00 -0.40149034916E+03  0.40149034916E+03  0.00000000000E+00 0. -1.
         23    2    1    2    0    0 -0.11315705806E+02  0.10645441684E+02 -0.12131042435E+03  0.14971456906E+03  0.86353126786E+02 0.  0.
          5    1    1    2  502    0  0.14212774019E+02  0.43095863070E+02 -0.20486809429E+03  0.20987535543E+03  0.41800000000E+01 0. -1.
         -5    1    1    2    0  502 -0.28970682138E+01 -0.53741304754E+02 -0.46175715620E+02  0.71036539569E+02  0.41800000000E+01 0. -1.
        -11    1    3    3    0    0  0.23204210128E+01  0.47817035997E+02 -0.60492879093E+02  0.77144291469E+02  0.00000000000E+00 0.  1.
         11    1    3    3    0    0 -0.13636126818E+02 -0.37171594313E+02 -0.60817545258E+02  0.72570277591E+02  0.00000000000E+00 0. -1.
</event>
<event>
 7    1  0.5137842E-006  0.9297548E+02  0.7561462E-02  0.1295802E+00
         -2   -1    0    0    0  501 -0.00000000000E+00  0.00000000000E+00  0.97915708964E+02  0.97915708964E+02  0.00000000000E+00 0.  1.
          2   -1    0    0  501    0  0.00000000000E+00 -0.00000000000E+00 -0.16137036529E+03  0.16137036529E+03  0.00000000000E+00 0. -1.
         23    2    1    2    0    0 -0.79845150955E+01 -0.49983254796E+02 -0.65796805968E+02  0.12432587406E+03  0.92550662042E+02 0.  0.
          5    1    1    2  502    0 -0.18646175521E+02  0.77735969440E+02  0.32001975675E+02  0.86209974211E+02  0.41800000000E+01 0.  1.
         -5    1    1    2    0  502  0.26630690616E+02 -0.27752714644E+02 -0.29659826030E+02  0.48750225978E+02  0.41800000000E+01 0.  1.
        -11    1    3    3    0    0 -0.23587031754E+02 -0.12686308965E+02 -0.77695755658E+02  0.82182242299E+02  0.00000000000E+00 0. -1.
         11    1    3    3    0    0  0.15602516659E+02 -0.37296945831E+02  0.11898949690E+02  0.42143631763E+02  0.00000000000E+00 0.  1.
</event>
<event>
 7    1  0.5137842E-006  0.1212231E+03  0.7561462E-02  0.1241093E+00
          1   -1    0    0  501    0  0.00000000000E+00  0.00000000000E+00  0.10088310962E+03  0.10088310962E+03  0.00000000000E+00 0. -1.
         -1   -1    0    0    0  501 -0.00000000000E+00 -0.00000000000E+00 -0.19128458486E+03  0.19128458486E+03  0.00000000000E+00 0.  1.
         23    2    1    2    0    0  0.82882737489E+02  0.20877354666E+02 -0.29816864729E+02  0.12900015641E+03  0.91905292665E+02 0.  0.
          5    1    1    2  502    0 -0.17562631558E+02 -0.44337603362E+02 -0.77972183133E+02  0.91495370603E+02  0.41800000000E+01 0.  1.
         -5    1    1    2    0  502 -0.65320105930E+02  0.23460248696E+02  0.17387572616E+02  0.71672167465E+02  0.41800000000E+01 0.  1.
        -11    1    3    3    0    0  0.79821448168E+02 -0.21411546867E+02 -0.14422171168E+02  0.83892293735E+02  0.00000000000E+00 0. -1.
         11    1    3    3    0    0  0.30612893202E+01  0.42288901533E+02 -0.15394693561E+02  0.45107862674E+02  0.00000000000E+00 0.  1.
</event>
<event>
 7    1  0.5137842E-006  0.1148107E+03  0.7561462E-02  0.1251912E+00
          1   -1    0    0  501    0  0.00000000000E+00  0.00000000000E+00  0.64408692679E+02  0.64408692679E+02  0.00000000000E+00 0. -1.
         -1   -1    0    0    0  501 -0.00000000000E+00 -0.00000000000E+00 -0.44038495216E+03  0.44038495216E+03  0.00000000000E+00 0.  1.
         23    2    1    2    0    0 -0.58783008983E+02  0.32420943201E+00 -0.68007124400E+00  0.10859543337E+03  0.91306946039E+02 0.  0.
          5    1    1    2  502    0 -0.28398524617E+02 -0.17292411908E+02 -0.15605932798E+03  0.15961669700E+03  0.41800000000E+01 0. -1.
         -5    1    1    2    0  502  0.87181533600E+02  0.16968202476E+02 -0.21923686026E+03  0.23658151448E+03  0.41800000000E+01 0.  1.
        -11    1    3    3    0    0 -0.38764902677E+02 -0.43951432152E+02  0.82779191691E+01  0.59185893704E+02  0.00000000000E+00 0. -1.
         11    1    3    3    0    0 -0.20018106306E+02  0.44275641584E+02 -0.89579904131E+01  0.49409539666E+02  0.00000000000E+00 0.  1.
</event>
<event>
 7    1  0.5137842E-006  0.1198059E+03  0.7561462E-02  0.1243418E+00
         -2   -1    0    0    0  501 -0.00000000000E+00  0.00000000000E+00  0.56607787729E+02  0.56607787729E+02  0.00000000000E+00 0.  1.
          2   -1    0    0  501    0  0.00000000000E+00 -0.00000000000E+00 -0.33974827796E+03  0.33974827796E+03  0.00000000000E+00 0. -1.
         23    2    1    2    0    0 -0.39889713572E+02  0.75156153143E+02 -0.14745332556E+03  0.19313638255E+03  0.91211525828E+02 0.  0.
          5    1    1    2  502    0 -0.22875478939E+02 -0.28142778047E+00 -0.94137275670E+02  0.96967344033E+02  0.41800000000E+01 0. -1.
         -5    1    1    2    0  502  0.62765192510E+02 -0.74874725362E+02 -0.41549889006E+02  0.10625233911E+03  0.41800000000E+01 0. -1.
        -11    1    3    3    0    0  0.19665213652E+02  0.50342028150E+02 -0.37949226383E+02  0.66039262634E+02  0.00000000000E+00 0.  1.
         11    1    3    3    0    0 -0.59554927224E+02  0.24814124993E+02 -0.10950409917E+03  0.12709711992E+03  0.00000000000E+00 0. -1.
</event>
<event>
 7    1  0.5137842E-006  0.1130435E+03  0.7561462E-02  0.1255035E+00
          2   -1    0    0  501    0  0.00000000000E+00  0.00000000000E+00  0.19873975852E+03  0.19873975852E+03  0.00000000000E+00 0.  1.
         -2   -1    0    0    0  501 -0.00000000000E+00 -0.00000000000E+00 -0.14995115180E+03  0.14995115180E+03  0.00000000000E+00 0. -1.
         23    2    1    2    0    0  0.56243536566E+02 -0.66249776236E+02  0.12568221910E+03  0.17806672994E+03  0.91429600553E+02 0.  0.
          5    1    1    2  502    0 -0.37771145572E+02  0.84547992147E+02 -0.99448759716E+02  0.13595054477E+03  0.41800000000E+01 0. -1.
         -5    1    1    2    0  502 -0.18472390994E+02 -0.18298215911E+02  0.22555147345E+02  0.34673635609E+02  0.41800000000E+01 0. -1.
        -11    1    3    3    0    0 -0.11490979171E+02 -0.25599422815E+02 -0.17727614700E+01  0.28116111645E+02  0.00000000000E+00 0. -1.
         11    1    3    3    0    0  0.67734515738E+02 -0.40650353420E+02  0.12745498057E+03  0.14995061829E+03  0.00000000000E+00 0.  1.
</event>
<event>
 7    1  0.5137842E-006  0.1088846E+03  0.7561462E-02  0.1262650E+00
          1   -1    0    0  501    0  0.00000000000E+00  0.00000000000E+00  0.42102629346E+03  0.42102629346E+03  0.00000000000E+00 0. -1.
         -1   -1    0    0    0  501 -0.00000000000E+00 -0.00000000000E+00 -0.62476090200E+02  0.62476090200E+02  0.00000000000E+00 0.  1.
         23    2    1    2    0    0  0.22970441510E+02  0.10420791788E+03  0.25286310603E+03  0.28804455880E+03  0.87424173607E+02 0.  0.
          5    1    1    2  502    0 -0.14736032585E+02 -0.95804036348E+02  0.84121596417E+01  0.97384808192E+02  0.41800000000E+01 0. -1.
         -5    1    1    2    0  502 -0.82344089248E+01 -0.84038815346E+01  0.97274937590E+02  0.98073016668E+02  0.41800000000E+01 0. -1.
        -11    1    3    3    0    0  0.23678302205E+02  0.67235994583E+02  0.64652262229E+02  0.96235419541E+02  0.00000000000E+00 0.  1.
         11    1    3    3    0    0 -0.70786069536E+00  0.36971923299E+02  0.18821084380E+03  0.19180913926E+03  0.00000000000E+00 0. -1.
</event>
<event>
 7    1  0.5137842E-006  0.1084156E+03  0.7561462E-02  0.1263532E+00
          1   -1    0    0  501    0  0.00000000000E+00  0.00000000000E+00  0.42695866646E+03  0.42695866646E+03  0.00000000000E+00 0. -1.
         -1   -1    0    0    0  501 -0.00000000000E+00 -0.00000000000E+00 -0.33280451240E+02  0.33280451240E+02  0.00000000000E+00 0.  1.
         23    2    1    2    0    0 -0.43800173860E+02 -0.42976293217E+01  0.21755705685E+03  0.23977946052E+03  0.90698356397E+02 0.  0.
          5    1    1    2  502    0 -0.71028956393E+00  0.51981271813E+02  0.13109608879E+03  0.14108938311E+03  0.41800000000E+01 0.  1.
         -5    1    1    2    0  502  0.44510463424E+02 -0.47683642492E+02  0.45025069582E+02  0.79370274073E+02  0.41800000000E+01 0.  1.
        -11    1    3    3    0    0  0.24948172954E+02 -0.15913116496E+02  0.85011018021E+02  0.90013953336E+02  0.00000000000E+00 0.  1.
         11    1    3    3    0    0 -0.68748346814E+02  0.11615487174E+02  0.13254603883E+03  0.14976550718E+03  0.00000000000E+00 0. -1.
</event>
<event>
 6    1  0.5137842E-006  0.1913791E+03  0.7561462E-02  0.1157223E+00
         -2   -1    0    0    0  501 -0.00000000000E+00  0.00000000000E+00  0.22096046240E+03  0.22096046240E+03  0.00000000000E+00 0.  1.
          2   -1    0    0  501    0  0.00000000000E+00 -0.00000000000E+00 -0.25605365405E+03  0.25605365405E+03  0.00000000000E+00 0. -1.
          5    1    1    2  502    0  0.16735461011E+02  0.68431649754E+02  0.23234760950E+01  0.70610461580E+02  0.41800000000E+01 0. -1.
         -5    1    1    2    0  502 -0.29724054572E+02 -0.77328207756E+02  0.10515132397E+03  0.13393074504E+03  0.41800000000E+01 0.  1.
        -11    1    1    2    0    0  0.35748629903E+02 -0.10612515278E+03 -0.48003690314E+02  0.12183951279E+03  0.00000000000E+00 0.  1.
         11    1    1    2    0    0 -0.22760036342E+02  0.11502171078E+03 -0.94564301396E+02  0.15063339704E+03  0.00000000000E+00 0. -1.
</event>
<event>
 7    1  0.5137842E-006  0.1300175E+03  0.7561462E-02  0.1227430E+00
          4   -1    0    0  501    0  0.00000000000E+00  0.00000000000E+00  0.89653834938E+03  0.89653834938E+03  0.00000000000E+00 0.  1.
         -4   -1    0    0    0  501 -0.00000000000E+00 -0.00000000000E+00 -0.61098208377E+02  0.61098208377E+02  0.00000000000E+00 0. -1.
         23    2    1    2    0    0 -0.24422013606E+01  0.72769577795E+02  0.19421033743E+03  0.22508229064E+03  0.87424290639E+02 0.  0.
          5    1    1    2  502    0  0.19083895969E+02 -0.11901282277E+03  0.66636767477E+03  0.67719391422E+03  0.41800000000E+01 0.  1.
         -5    1    1    2    0  502 -0.16641694608E+02  0.46243244977E+02 -0.25137871198E+02  0.55360352905E+02  0.41800000000E+01 0. -1.
        -11    1    3    3    0    0  0.21031034464E+02  0.59574367863E+02  0.18673981221E+03  0.19713743221E+03  0.00000000000E+00 0.  1.
         11    1    3    3    0    0 -0.23473235824E+02  0.13195209932E+02  0.74705252245E+01  0.27944858424E+02  0.00000000000E+00 0. -1.
</event>
<event>
 7    1  0.5137842E-006  0.2440169E+03  0.7561462E-02  0.1117145E+00
          2   -1    0    0  501    0  0.00000000000E+00  0.00000000000E+00  0.30984269250E+03  0.30984269250E+03  0.00000000000E+00 0. -1.
         -2   -1    0    0    0  501 -0.00000000000E+00 -0.00000000000E+00 -0.22392548696E+03  0.22392548696E+03  0.00000000000E+00 0.  1.
         23    2    1    2    0    0  0.22036406516E+03 -0.54429066216E+02  0.12091521958E+03  0.27224369004E+03  0.89293291899E+02 0.  0.
          5    1    1    2  502    0 -0.38579335310E+02  0.52593557770E+02 -0.45087444879E+02  0.79402755101E+02  0.41800000000E+01 0. -1.
         -5    1    1    2    0  502 -0.18178472985E+03  0.18355084460E+01  0.10089430848E+02  0.18212173432E+03  0.41800000000E+01 0. -1.
        -11    1    3    3    0    0  0.18078926921E+03 -0.96146116319E+01  0.71402568324E+02  0.19461635949E+03  0.00000000000E+00 0.  1.
         11    1    3    3    0    0  0.39574795951E+02 -0.44814454584E+02  0.49512651253E+02  0.77627330550E+02  0.00000000000E+00 0. -1.
</event>
<event>
 7    1  0.5137842E-006  0.9692996E+02  0.7561462E-02  0.1286888E+00
         -1   -1    0    0    0  501 -0.00000000000E+00  0.00000000000E+00  0.69802239048E+03  0.69802239048E+03  0.00000000000E+00 0.  1.
          1   -1    0    0  501    0  0.00000000000E+00 -0.00000000000E+00 -0.44276290222E+02  0.44276290222E+02  0.00000000000E+00 0. -1.
         23    2    1    2    0    0 -0.88337549824E+02  0.88494728549E+01  0.79182063829E+02  0.14761103667E+03  0.87392122280E+02 0.  0.
          5    1    1    2  502    0  0.85349028496E+01 -0.28579322139E+01 -0.39268531530E+01  0.10672624742E+02  0.41800000000E+01 0.  1.
         -5    1    1    2    0  502  0.79802646975E+02 -0.59915406410E+01  0.57849088959E+03  0.58401501929E+03  0.41800000000E+01 0.  1.
        -11    1    3    3    0    0 -0.64280297949E+02 -0.18969889519E+02  0.80101995550E+01  0.67497975597E+02  0.00000000000E+00 0. -1.
         11    1    3    3    0    0 -0.24057251875E+02  0.27819362374E+02  0.71171864274E+02  0.80113061076E+02  0.00000000000E+00 0.  1.
</event>
<event>
 7    1  0.5137842E-006  0.1081855E+03  0.7561462E-02  0.1263967E+00
          2   -1    0    0  501    0  0.00000000000E+00  0.00000000000E+00  0.66129432257E+03  0.66129432257E+03  0.00000000000E+00 0. -1.
         -2   -1    0    0    0  501 -0.00000000000E+00 -0.00000000000E+00 -0.20375279207E+02  0.20375279207E+02  0.00000000000E+00 0.  1.
         23    2    1    2    0    0  0.23582476582E+02 -0.59581302513E+01  0.38144063486E+03  0.39258138307E+03  0.89618925974E+02 0.  0.
          5    1    1    2  502    0  0.44593393243E+00  0.62901237722E+02  0.10257155665E+03  0.12039585208E+03  0.41800000000E+01 0. -1.
         -5    1    1    2    0  502 -0.24028410514E+02 -0.56943107471E+02  0.15690685185E+03  0.16869236662E+03  0.41800000000E+01 0. -1.
        -11    1    3    3    0    0 -0.29359382033E+02 -0.21289602030E+02  0.18677567163E+03  0.19026395344E+03  0.00000000000E+00 0. -1.
         11    1    3    3    0    0  0.52941858614E+02  0.15331471778E+02  0.19466496324E+03  0.20231742963E+03  0.00000000000E+00 0.  1.
</event>
<event>
 7    1  0.5137842E-006  0.1034072E+03  0.7561462E-02  0.1273290E+00
          3   -1    0    0  501    0  0.00000000000E+00  0.00000000000E+00  0.75366233364E+03  0.75366233364E+03  0.00000000000E+00 0. -1.
         -3   -1    0    0    0  501 -0.00000000000E+00 -0.00000000000E+00 -0.39172586229E+02  0.39172586229E+02  0.00000000000E+00 0.  1.
         23    2    1    2    0    0  0.58196644750E+02 -0.55487083474E+02  0.57648369223E+03  0.58995897418E+03  0.96189801502E+02 0.  0.
          5    1    1    2  502    0 -0.55805150418E+02  0.46274200366E+02  0.86794739573E+01  0.73132223410E+02  0.41800000000E+01 0. -1.
         -5    1    1    2    0  502 -0.23914943320E+01  0.92128831082E+01  0.12932658122E+03  0.12974372228E+03  0.41800000000E+01 0. -1.
        -11    1    3    3    0    0  0.29642685648E+02 -0.80536971452E+02  0.43983760221E+03  0.44813168700E+03  0.00000000000E+00 0.  1.
         11    1    3    3    0    0  0.28553959102E+02  0.25049887978E+02  0.13664609003E+03  0.14182728718E+03  0.00000000000E+00 0. -1.
</event>
<event>
 7    1  0.5137842E-006  0.1473755E+03  0.7561462E-02  0.1203736E+00
         -2   -1    0    0    0  501 -0.00000000000E+00  0.00000000000E+00  0.90084357161E+02  0.90084357161E+02  0.00000000000E+00 0.  1.
          2   -1    0    0  501    0  0.00000000000E+00 -0.00000000000E+00 -0.33611385032E+03  0.33611385032E+03  0.00000000000E+00 0. -1.
         23    2    1    2    0    0  0.12161060708E+03 -0.60506665966E+02 -0.11652116571E+03  0.20065258359E+03  0.90741836334E+02 0.  0.
          5    1    1    2  502    0 -0.10890246185E+03  0.50771720827E+02 -0.28989783832E+02  0.12367454791E+03  0.41800000000E+01 0. -1.
         -5    1    1    2    0  502 -0.12708145225E+02  0.97349451391E+01 -0.10051854362E+03  0.10187107599E+03  0.41800000000E+01 0. -1.
        -11    1    3    3    0    0  0.50652229968E+02  0.16491047213E+02 -0.16290136914E+02  0.55704322988E+02  0.00000000000E+00 0.  1.
         11    1    3    3    0    0  0.70958377111E+02 -0.76997713179E+02 -0.10023102880E+03  0.14494826060E+03  0.00000000000E+00 0. -1.
</event>
<event>
 7    1  0.5137842E-006  0.1437214E+03  0.7561462E-02  0.1208407E+00
         -2   -1    0    0    0  501 -0.00000000000E+00  0.00000000000E+00  0.11201196064E+03  0.11201196064E+03  0.00000000000E+00 0.  1.
          2   -1    0    0  501    0  0.00000000000E+00 -0.00000000000E+00 -0.19068377367E+03  0.19068377367E+03  0.00000000000E+00 0. -1.
         23    2    1    2    0    0  0.48900513693E+02 -0.85871062675E+02 -0.53887627483E+02  0.14131779039E+03  0.85450230194E+02 0.  0.
          5    1    1    2  502    0  0.30505633311E+02 -0.98884997920E+01 -0.17317784005E+02  0.36684521732E+02  0.41800000000E+01 0.  1.
         -5    1    1    2    0  502 -0.79406147004E+02  0.95759562467E+02 -0.74664015350E+01  0.12469342219E+03  0.41800000000E+01 0.  1.
        -11    1    3    3    0    0  0.33447972523E+02  0.88993961812E+01 -0.13657087805E+02  0.37208630257E+02  0.00000000000E+00 0.  1.
         11    1    3    3    0    0  0.15452541170E+02 -0.94770458856E+02 -0.40230539678E+02  0.10410916013E+03  0.00000000000E+00 0. -1.
</event>
<event>
 7    1  0.5137842E-006  0.1142205E+03  0.7561462E-02  0.1252948E+00
         -1   -1    0    0    0  501 -0.00000000000E+00  0.00000000000E+00  0.54549641024E+03  0.54549641024E+03  0.00000000000E+00 0.  1.
          1   -1    0    0  501    0  0.00000000000E+00 -0.00000000000E+00 -0.25484736982E+02  0.25484736982E+02  0.00000000000E+00 0. -1.
         23    2    1    2    0    0  0.58876391090E+01 -0.39012007972E+02  0.16275888901E+03  0.19041028993E+03  0.90603650579E+02 0.  0.
          5    1    1    2  502    0  0.26511782163E+01  0.84182073908E+02  0.21183232833E+03  0.22800012727E+03  0.41800000000E+01 0. -1.
         -5    1    1    2    0  502 -0.85388173252E+01 -0.45170065936E+02  0.14542045593E+03  0.15257073002E+03  0.41800000000E+01 0. -1.
        -11    1    3    3    0    0  0.26844184510E+02 -0.61567642970E+02  0.12277485664E+03  0.13994588356E+03  0.00000000000E+00 0.  1.
         11    1    3    3    0    0 -0.20956545401E+02  0.22555634998E+02  0.39984032370E+02  0.50464406366E+02  0.00000000000E+00 0. -1.
</event>
<event>
 7    1  0.5137842E-006  0.1905530E+03  0.7561462E-02  0.1157964E+00
         -1   -1    0    0    0  501 -0.00000000000E+00  0.00000000000E+00  0.27413915608E+02  0.27413915608E+02  0.00000000000E+00 0.  1.
          1   -1    0    0  501    0  0.00000000000E+00 -0.00000000000E+00 -0.16848661792E+04  0.16848661792E+04  0.00000000000E+00 0. -1.
         23    2    1    2    0    0  0.38740607800E+02 -0.17198127067E+03 -0.10195496955E+04  0.10387480728E+04  0.91856328277E+02 0.  0.
          5    1    1    2  502    0 -0.22389768769E+02  0.17959913984E+03 -0.45498198684E+03  0.48967666223E+03  0.41800000000E+01 0.  1.
         -5    1    1    2    0  502 -0.16350839030E+02 -0.76178691684E+01 -0.18292058123E+03  0.18385535974E+03  0.41800000000E+01 0.  1.
        -11    1    3    3    0    0  0.47099635569E+02 -0.16101968368E+03 -0.10041975405E+04  0.10181151284E+04  0.00000000000E+00 0. -1.
         11    1    3    3    0    0 -0.83590277699E+01 -0.10961586993E+02 -0.15352154965E+02  0.20632944452E+02  0.00000000000E+00 0.  1.
</event>
<event>
 7    1  0.5137842E-006  0.2161830E+03  0.7561462E-02  0.1136761E+00
          1   -1    0    0  501    0  0.00000000000E+00  0.00000000000E+00  0.10052010260E+04  0.10052010260E+04  0.00000000000E+00 0. -1.
         -1   -1    0    0    0  501 -0.00000000000E+00 -0.00000000000E+00 -0.55541672446E+02  0.55541672446E+02  0.00000000000E+00 0.  1.
         23    2    1    2    0    0  0.11143518228E+03 -0.16751946049E+03  0.57678040135E+03  0.61896558710E+03  0.99810806696E+02 0.  0.
          5    1    1    2  502    0 -0.57896243459E+02  0.13971082825E+03  0.15884386503E+03  0.21936256835E+03  0.41800000000E+01 0. -1.
         -5    1    1    2    0  502 -0.53538938821E+02  0.27808632245E+02  0.21403508720E+03  0.22241454303E+03  0.41800000000E+01 0. -1.
        -11    1    3    3    0    0  0.20932398713E+02 -0.11304989757E+03  0.35822142467E+03  0.37621939576E+03  0.00000000000E+00 0.  1.
         11    1    3    3    0    0  0.90502783567E+02 -0.54469562918E+02  0.21855897668E+03  0.24274619133E+03  0.00000000000E+00 0. -1.
</event>
<event>
 7    1  0.5137842E-006  0.8003976E+02  0.7561462E-02  0.1328939E+00
          2   -1    0    0  501    0  0.00000000000E+00  0.00000000000E+00  0.87891853973E+03  0.87891853973E+03  0.00000000000E+00 0. -1.
         -2   -1    0    0    0  501 -0.00000000000E+00 -0.00000000000E+00 -0.16255408639E+02  0.16255408639E+02  0.00000000000E+00 0.  1.
         23    2    1    2    0    0  0.45767994241E+02  0.11383889357E+02  0.43664054891E+03  0.44866927738E+03  0.91786977712E+02 0.  0.
          5    1    1    2  502    0  0.42225073288E+01 -0.90561282447E+01 -0.54460790646E+01  0.12123333044E+02  0.41800000000E+01 0. -1.
         -5    1    1    2    0  502 -0.49990501570E+02 -0.23277611121E+01  0.43146866124E+03  0.43438133794E+03  0.41800000000E+01 0. -1.
        -11    1    3    3    0    0 -0.15521367333E+02 -0.23758880532E+02  0.74945099700E+02  0.80138412868E+02  0.00000000000E+00 0.  1.
         11    1    3    3    0    0  0.61289361574E+02  0.35142769889E+02  0.36169544921E+03  0.36853086451E+03  0.00000000000E+00 0. -1.
</event>
<event>
 7    1  0.5137842E-006  0.9932082E+02  0.7561462E-02  0.1281731E+00
         -1   -1    0    0    0  501 -0.00000000000E+00  0.00000000000E+00  0.66569958906E+03  0.66569958906E+03  0.00000000000E+00 0. -1.
          1   -1    0    0  501    0  0.00000000000E+00 -0.00000000000E+00 -0.27007972672E+02  0.27007972672E+02  0.00000000000E+00 0.  1.
         23    2    1    2    0    0 -0.42283447621E+02  0.11478944209E+02  0.45230815032E+02  0.84625320553E+02  0.56532841317E+02 0.  0.
          5    1    1    2  502    0  0.59480924426E+02  0.42409923357E+02  0.27275867415E+03  0.28240281283E+03  0.41800000000E+01 0. -1.
         -5    1    1    2    0  502 -0.17197476805E+02 -0.53888867566E+02  0.32070212720E+03  0.32567942835E+03  0.41800000000E+01 0. -1.
        -11    1    3    3    0    0 -0.26551044811E+02  0.32833469726E+02  0.16002515424E+02  0.45156120457E+02  0.00000000000E+00 0.  1.
         11    1    3    3    0    0 -0.15732402809E+02 -0.21354525518E+02  0.29228299608E+02  0.39469200096E+02  0.00000000000E+00 0. -1.
</event>
<event>
 7    1  0.5137842E-006  0.1436101E+03  0.7561462E-02  0.1208552E+00
          1   -1    0    0  501    0  0.00000000000E+00  0.00000000000E+00  0.49871117104E+02  0.49871117104E+02  0.00000000000E+00 0. -1.
         -1   -1    0    0    0  501 -0.00000000000E+00 -0.00000000000E+00 -0.55244733056E+03  0.55244733056E+03  0.00000000000E+00 0.  1.
         23    2    1    2    0    0  0.98734526566E+02 -0.24267385546E+02 -0.95085854271E+02  0.16130721462E+03  0.81494079968E+02 0.  0.
          5    1    1    2  502    0  0.42374555997E+01  0.55872443813E+02 -0.19216623738E+03  0.20021244016E+03  0.41800000000E+01 0. -1.
         -5    1    1    2    0  502 -0.10297198217E+03 -0.31605058267E+02 -0.21532412180E+03  0.24079879288E+03  0.41800000000E+01 0.  1.
        -11    1    3    3    0    0 -0.10992348378E+02 -0.37086633415E+01  0.37642613599E+01  0.12196539272E+02  0.00000000000E+00 0.  1.
         11    1    3    3    0    0  0.10972687494E+03 -0.20558722204E+02 -0.98850115631E+02  0.14911067535E+03  0.00000000000E+00 0. -1.
</event>
<event>
 7    1  0.5137842E-006  0.1124064E+03  0.7561462E-02  0.1256177E+00
          1   -1    0    0  501    0  0.00000000000E+00  0.00000000000E+00  0.20938704677E+03  0.20938704677E+03  0.00000000000E+00 0. -1.
         -1   -1    0    0    0  501 -0.00000000000E+00 -0.00000000000E+00 -0.98892525265E+02  0.98892525265E+02  0.00000000000E+00 0.  1.
         23    2    1    2    0    0  0.32016876286E+02 -0.87885146752E+02  0.57284402340E+02  0.14327130979E+03  0.92175300769E+02 0.  0.
          5    1    1    2  502    0 -0.10508577618E+02  0.53149195824E+02 -0.37101488744E+02  0.65797113062E+02  0.41800000000E+01 0. -1.
         -5    1    1    2    0  502 -0.21508298668E+02  0.34735950928E+02  0.90311607913E+02  0.99211149184E+02  0.41800000000E+01 0. -1.
        -11    1    3    3    0    0 -0.29499521163E+02 -0.12328275008E+02  0.25143310056E+02  0.40674244358E+02  0.00000000000E+00 0.  1.
         11    1    3    3    0    0  0.61516397449E+02 -0.75556871744E+02  0.32141092284E+02  0.10259706544E+03  0.00000000000E+00 0. -1.
</event>
<event>
 7    1  0.5137842E-006  0.9968648E+02  0.7561462E-02  0.1280957E+00
          2   -1    0    0  501    0  0.00000000000E+00  0.00000000000E+00  0.70033550325E+03  0.70033550325E+03  0.00000000000E+00 0.  1.
         -2   -1    0    0    0  501 -0.00000000000E+00 -0.00000000000E+00 -0.36185497918E+02  0.36185497918E+02  0.00000000000E+00 0. -1.
         23    2    1    2    0    0  0.31322854326E+02 -0.69918029901E+02  0.51081210098E+03  0.52432297219E+03  0.90088426260E+02 0.  0.
          5    1    1    2  502    0 -0.76481323960E+01 -0.18230760802E+00 -0.21013623001E+02  0.22750206963E+02  0.41800000000E+01 0.  1.
         -5    1    1    2    0  502 -0.23674721930E+02  0.70100337509E+02  0.17435152735E+03  0.18944782202E+03  0.41800000000E+01 0.  1.
        -11    1    3    3    0    0  0.51185805215E+02 -0.83603777676E+01  0.18391702355E+03  0.19108991110E+03  0.00000000000E+00 0. -1.
         11    1    3    3    0    0 -0.19862950889E+02 -0.61557652133E+02  0.32689507743E+03  0.33323306109E+03  0.00000000000E+00 0.  1.
</event>
<event>
 7    1  0.5137842E-006  0.1009546E+03  0.7561462E-02  0.1278301E+00
         -1   -1    0    0    0  501 -0.00000000000E+00  0.00000000000E+00  0.37478637498E+03  0.37478637498E+03  0.00000000000E+00 0.  1.
          1   -1    0    0  501    0  0.00000000000E+00 -0.00000000000E+00 -0.48642658923E+02  0.48642658923E+02  0.00000000000E+00 0. -1.
         23    2    1    2    0    0  0.32222149951E+02  0.56132668428E+02  0.84076013638E+02  0.14336772690E+03  0.96417766172E+02 0.  0.
          5    1    1    2  502    0  0.67431638400E+01 -0.47499896115E+02  0.16430611268E+02  0.50883669052E+02  0.41800000000E+01 0.  1.
         -5    1    1    2    0  502 -0.38965313791E+02 -0.86327723126E+01  0.22563709115E+03  0.22917763795E+03  0.41800000000E+01 0.  1.
        -11    1    3    3    0    0 -0.32683353665E+02  0.27369047855E+02  0.17633273749E+02  0.46132404342E+02  0.00000000000E+00 0.  1.
         11    1    3    3    0    0  0.64905503616E+02  0.28763620572E+02  0.66442739889E+02  0.97235322553E+02  0.00000000000E+00 0. -1.
</event>
<event>
 7    1  0.5137842E-006  0.1678800E+03  0.7561462E-02  0.1180077E+00
          4   -1    0    0  501    0  0.00000000000E+00  0.00000000000E+00  0.17321577901E+03  0.17321577901E+03  0.00000000000E+00 0. -1.
         -4   -1    0    0    0  501 -0.00000000000E+00 -0.00000000000E+00 -0.19982126658E+03  0.19982126658E+03  0.00000000000E+00 0.  1.
         23    2    1    2    0    0  0.11433532904E+03  0.86804282359E+02  0.35173290596E+02  0.17285840384E+03  0.89639926946E+02 0.  0.
          5    1    1    2  502    0 -0.15554325748E+02 -0.89736609921E+02 -0.23806627602E+02  0.94227512582E+02  0.41800000000E+01 0.  1.
         -5    1    1    2    0  502 -0.98781003291E+02  0.29323275628E+01 -0.37972150562E+02  0.10595112918E+03  0.41800000000E+01 0.  1.
        -11    1    3    3    0    0  0.36613582863E+01  0.10837358799E+02  0.36876648314E+02  0.38610116305E+02  0.00000000000E+00 0. -1.
         11    1    3    3    0    0  0.11067397075E+03  0.75966923560E+02 -0.17033577180E+01  0.13424828753E+03  0.00000000000E+00 0.  1.
</event>
<event>
 7    1  0.5137842E-006  0.2871458E+03  0.7561462E-02  0.1091849E+00
         -2   -1    0    0    0  501 -0.00000000000E+00  0.00000000000E+00  0.15988712890E+03  0.15988712890E+03  0.00000000000E+00 0. -1.
          2   -1    0    0  501    0  0.00000000000E+00 -0.00000000000E+00 -0.56723251723E+03  0.56723251723E+03  0.00000000000E+00 0.  1.
         23    2    1    2    0    0 -0.55621736640E+02  0.26515197374E+03 -0.28753111575E+03  0.40555864546E+03  0.91675109069E+02 0.  0.
          5    1    1    2  502    0 -0.25654069671E+02 -0.11209882071E+03 -0.81447826603E+01  0.11536068125E+03  0.41800000000E+01 0. -1.
         -5    1    1    2    0  502  0.81275806311E+02 -0.15305315303E+03 -0.11166948993E+03  0.20620031941E+03  0.41800000000E+01 0. -1.
        -11    1    3    3    0    0  0.25434417762E+02  0.73891324642E+02 -0.73015447845E+02  0.10694902098E+03  0.00000000000E+00 0. -1.
         11    1    3    3    0    0 -0.81056154402E+02  0.19126064910E+03 -0.21451566790E+03  0.29860962449E+03  0.00000000000E+00 0.  1.
</event>
<event>
 7    1  0.5137842E-006  0.2162480E+03  0.7561462E-02  0.1136712E+00
          2   -1    0    0  501    0  0.00000000000E+00  0.00000000000E+00  0.57439917944E+03  0.57439917944E+03  0.00000000000E+00 0.  1.
         -2   -1    0    0    0  501 -0.00000000000E+00 -0.00000000000E+00 -0.12802293359E+03  0.12802293359E+03  0.00000000000E+00 0. -1.
         23    2    1    2    0    0  0.14523180257E+03 -0.15839773286E+03  0.37877690771E+03  0.44473999783E+03  0.90219740629E+02 0.  0.
          5    1    1    2  502    0 -0.11450833363E+03  0.11924144393E+03 -0.96928315661E+01  0.16565658395E+03  0.41800000000E+01 0.  1.
         -5    1    1    2    0  502 -0.30723468942E+02  0.39156288927E+02  0.77292169698E+02  0.92025531257E+02  0.41800000000E+01 0.  1.
        -11    1    3    3    0    0  0.12057077967E+03 -0.11166318707E+03  0.34468280600E+03  0.38185365915E+03  0.00000000000E+00 0.  1.
         11    1    3    3    0    0  0.24661022905E+02 -0.46734545786E+02  0.34094101716E+02  0.62886338678E+02  0.00000000000E+00 0. -1.
</event>
<event>
 7    1  0.5137842E-006  0.1401820E+03  0.7561462E-02  0.1213084E+00
         -1   -1    0    0    0  501 -0.00000000000E+00  0.00000000000E+00  0.10066972112E+03  0.10066972112E+03  0.00000000000E+00 0.  1.
          1   -1    0    0  501    0  0.00000000000E+00 -0.00000000000E+00 -0.37081607324E+03  0.37081607324E+03  0.00000000000E+00 0. -1.
         23    2    1    2    0    0  0.86999494687E+02 -0.29863012512E+02 -0.21583334825E+03  0.25151829668E+03  0.90646057582E+02 0.  0.
          5    1    1    2  502    0 -0.55565001305E+02 -0.45369039663E+02 -0.10249043477E+03  0.12517020712E+03  0.41800000000E+01 0. -1.
         -5    1    1    2    0  502 -0.31434493381E+02  0.75232052175E+02  0.48177430911E+02  0.94797290561E+02  0.41800000000E+01 0.  1.
        -11    1    3    3    0    0  0.63162666339E+02  0.24310659372E+02 -0.91436447790E+02  0.11375919551E+03  0.00000000000E+00 0.  1.
         11    1    3    3    0    0  0.23836828347E+02 -0.54173671885E+02 -0.12439690046E+03  0.13775910117E+03  0.00000000000E+00 0. -1.
</event>
<event>
 7    1  0.5137842E-006  0.1496878E+03  0.7561462E-02  0.1200857E+00
         -1   -1    0    0    0  501 -0.00000000000E+00  0.00000000000E+00  0.41201783011E+02  0.41201783011E+02  0.00000000000E+00 0.  1.
          1   -1    0    0  501    0  0.00000000000E+00 -0.00000000000E+00 -0.75783012006E+03  0.75783012006E+03  0.00000000000E+00 0. -1.
         23    2    1    2    0    0  0.63405369932E+02 -0.89988373637E+02 -0.52952785393E+03  0.54847776788E+03  0.91159011852E+02 0.  0.
          5    1    1    2  502    0  0.25579023065E+02 -0.59996273012E+01 -0.63518834423E+01  0.27351430894E+02  0.41800000000E+01 0.  1.
         -5    1    1    2    0  502 -0.88984392997E+02  0.95988000938E+02 -0.18074859968E+03  0.22320270430E+03  0.41800000000E+01 0.  1.
        -11    1    3    3    0    0 -0.15664671306E+02 -0.51589944845E+02 -0.23544140902E+03  0.24153583878E+03  0.00000000000E+00 0.  1.
         11    1    3    3    0    0  0.79070041238E+02 -0.38398428792E+02 -0.29408644492E+03  0.30694192910E+03  0.00000000000E+00 0. -1.
</event>
<event>
 7    1  0.5137842E-006  0.6731056E+02  0.7561462E-02  0.1369485E+00
          1   -1    0    0  501    0  0.00000000000E+00  0.00000000000E+00  0.37844440202E+02  0.37844440202E+02  0.00000000000E+00 0. -1.
         -1   -1    0    0    0  501 -0.00000000000E+00 -0.00000000000E+00 -0.50681377439E+03  0.50681377439E+03  0.00000000000E+00 0.  1.
         23    2    1    2    0    0 -0.15119448400E+02 -0.94700757699E+01 -0.40497272685E+02  0.97943033168E+02  0.87375789531E+02 0.  0.
          5    1    1    2  502    0  0.29959841808E+02  0.14102030885E+02 -0.22110945536E+02  0.40035305778E+02  0.41800000000E+01 0.  1.
         -5    1    1    2    0  502 -0.14840393408E+02 -0.46319551148E+01 -0.40636111596E+03  0.40667987564E+03  0.41800000000E+01 0.  1.
        -11    1    3    3    0    0 -0.36928509987E+02  0.24830411429E+02 -0.35628465682E+02  0.57005716805E+02  0.00000000000E+00 0.  1.
         11    1    3    3    0    0  0.21809061586E+02 -0.34300487199E+02 -0.48688070029E+01  0.40937316363E+02  0.00000000000E+00 0. -1.
</event>
<event>
 7    1  0.5137842E-006  0.1888057E+03  0.7561462E-02  0.1159543E+00
         -2   -1    0    0    0  501 -0.00000000000E+00  0.00000000000E+00  0.21162370621E+03  0.21162370621E+03  0.00000000000E+00 0.  1.
          2   -1    0    0  501    0  0.00000000000E+00 -0.00000000000E+00 -0.19859187912E+03  0.19859187912E+03  0.00000000000E+00 0. -1.
         23    2    1    2    0    0 -0.67359516235E+02 -0.15927386640E+03 -0.50133915982E+01  0.19602727007E+03  0.92174223997E+02 0.  0.
          5    1    1    2  502    0 -0.23170979292E+02  0.28961269154E+02 -0.30501343539E+02  0.48202217273E+02  0.41800000000E+01 0. -1.
         -5    1    1    2    0  502  0.90530495527E+02  0.13031259724E+03  0.48546562224E+02  0.16598609799E+03  0.41800000000E+01 0. -1.
        -11    1    3    3    0    0 -0.31732648996E+02 -0.13443118714E+03  0.28662484620E+02  0.14106822148E+03  0.00000000000E+00 0.  1.
         11    1    3    3    0    0 -0.35626867239E+02 -0.24842679259E+02 -0.33675876218E+02  0.54959048583E+02  0.00000000000E+00 0. -1.
</event>
<event>
 7    1  0.5137842E-006  0.1004289E+03  0.7561462E-02  0.1279397E+00
          2   -1    0    0  501    0  0.00000000000E+00  0.00000000000E+00  0.67799998799E+03  0.67799998799E+03  0.00000000000E+00 0.  1.
         -2   -1    0    0    0  501 -0.00000000000E+00 -0.00000000000E+00 -0.22432153088E+02  0.22432153088E+02  0.00000000000E+00 0. -1.
         23    2    1    2    0    0 -0.63611993987E+01 -0.51243995605E+02  0.37189060516E+03  0.38612915022E+03  0.90148136444E+02 0.  0.
          5    1    1    2  502    0  0.42133465616E+02  0.11786880794E+02  0.25827856440E+02  0.50977544585E+02  0.41800000000E+01 0. -1.
         -5    1    1    2    0  502 -0.35772266217E+02  0.39457114811E+02  0.25784937331E+03  0.26332544627E+03  0.41800000000E+01 0. -1.
        -11    1    3    3    0    0 -0.16222339036E+02  0.23244931644E+02  0.11772778402E+03  0.12109220562E+03  0.00000000000E+00 0.  1.
         11    1    3    3    0    0  0.98611396372E+01 -0.74488927249E+02  0.25416282113E+03  0.26503694460E+03  0.00000000000E+00 0. -1.
</event>
<event>
 7    1  0.5137842E-006  0.6053902E+02  0.7561462E-02  0.1395584E+00
         -2   -1    0    0    0  501 -0.00000000000E+00  0.00000000000E+00  0.13685119459E+03  0.13685119459E+03  0.00000000000E+00 0. -1.
          2   -1    0    0  501    0  0.00000000000E+00 -0.00000000000E+00 -0.95838933588E+02  0.95838933588E+02  0.00000000000E+00 0.  1.
         23    2    1    2    0    0  0.16750608893E+02  0.25637988128E+02 -0.57100542334E+01  0.95690110848E+02  0.90477086941E+02 0.  0.
          5    1    1    2  502    0  0.12141099652E+02 -0.29084977535E+02  0.83832124539E+02  0.89658461529E+02  0.41800000000E+01 0. -1.
         -5    1    1    2    0  502 -0.28891708544E+02  0.34469894068E+01 -0.37109809307E+02  0.47341555798E+02  0.41800000000E+01 0. -1.
        -11    1    3    3    0    0  0.33688092025E+02  0.64583426240E+01 -0.40135686710E+02  0.52796506337E+02  0.00000000000E+00 0.  1.
         11    1    3    3    0    0 -0.16937483133E+02  0.19179645504E+02  0.34425632476E+02  0.42893604511E+02  0.00000000000E+00 0. -1.
</event>
<event>
 7    1  0.5137842E-006  0.1503078E+03  0.7561462E-02  0.1200095E+00
          2   -1    0    0  501    0  0.00000000000E+00  0.00000000000E+00  0.32930494696E+03  0.32930494696E+03  0.00000000000E+00 0. -1.
         -2   -1    0    0    0  501 -0.00000000000E+00 -0.00000000000E+00 -0.14119811852E+03  0.14119811852E+03  0.00000000000E+00 0.  1.
         23    2    1    2    0    0 -0.93691941256E+02 -0.74736074132E+02  0.24551191623E+03  0.28800308033E+03  0.91137328421E+02 0.  0.
          5    1    1    2  502    0  0.92988114000E+02  0.10633892425E+03 -0.45570143407E+02  0.14848860739E+03  0.41800000000E+01 0. -1.
         -5    1    1    2    0  502  0.70382725619E+00 -0.31602850116E+02 -0.11834944395E+02  0.34011377760E+02  0.41800000000E+01 0. -1.
        -11    1    3    3    0    0 -0.72470666093E+02 -0.31056482631E+02  0.68481367181E+02  0.10443275448E+03  0.00000000000E+00 0.  1.
         11    1    3    3    0    0 -0.21221275163E+02 -0.43679591501E+02  0.17703054905E+03  0.18357032585E+03  0.00000000000E+00 0. -1.
</event>
<event>
 7    1  0.5137842E-006  0.1282532E+03  0.7561462E-02  0.1230071E+00
          2   -1    0    0  501    0  0.00000000000E+00  0.00000000000E+00  0.23487411131E+03  0.23487411131E+03  0.00000000000E+00 0. -1.
         -2   -1    0    0    0  501 -0.00000000000E+00 -0.00000000000E+00 -0.92930680126E+02  0.92930680126E+02  0.00000000000E+00 0.  1.
         23    2    1    2    0    0 -0.35716335191E+02 -0.77192217321E+02  0.11929857896E+03  0.17485222359E+03  0.95429838830E+02 0.  0.
          5    1    1    2  502    0  0.10252771628E+01 -0.27466241918E+02  0.31796092373E+02  0.42236353163E+02  0.41800000000E+01 0.  1.
         -5    1    1    2    0  502  0.34691058028E+02  0.10465845924E+03 -0.91512401453E+01  0.11071621468E+03  0.41800000000E+01 0.  1.
        -11    1    3    3    0    0  0.11219100343E+02  0.12708618986E+02  0.47936236797E+02  0.50845452179E+02  0.00000000000E+00 0. -1.
         11    1    3    3    0    0 -0.46935435534E+02 -0.89900836307E+02  0.71362342164E+02  0.12400677141E+03  0.00000000000E+00 0.  1.
</event>
<event>
 7    1  0.5137842E-006  0.1748737E+03  0.7561462E-02  0.1172859E+00
         -1   -1    0    0    0  501 -0.00000000000E+00  0.00000000000E+00  0.13968065860E+03  0.13968065860E+03  0.00000000000E+00 0.  1.
          1   -1    0    0  501    0  0.00000000000E+00 -0.00000000000E+00 -0.33409707151E+03  0.33409707151E+03  0.00000000000E+00 0. -1.
         23    2    1    2    0    0 -0.28292329954E+02 -0.14664036402E+03 -0.21571529561E+03  0.27780367157E+03  0.91312315043E+02 0.  0.
          5    1    1    2  502    0  0.72108819183E+02  0.12803192497E+03  0.17416347039E+02  0.14802924427E+03  0.41800000000E+01 0.  1.
         -5    1    1    2    0  502 -0.43816489229E+02  0.18608439057E+02  0.38825356600E+01  0.47944814272E+02  0.41800000000E+01 0.  1.
        -11    1    3    3    0    0  0.10688239616E+02 -0.23990729752E+02  0.40562543905E+00  0.26267053739E+02  0.00000000000E+00 0.  1.
         11    1    3    3    0    0 -0.38980569570E+02 -0.12264963427E+03 -0.21612092105E+03  0.25153661783E+03  0.00000000000E+00 0. -1.
</event>
<event>
 7    1  0.5137842E-006  0.1704175E+03  0.7561462E-02  0.1177413E+00
         -3   -1    0    0    0  501 -0.00000000000E+00  0.00000000000E+00  0.19519764376E+04  0.19519764376E+04  0.00000000000E+00 0.  1.
          3   -1    0    0  501    0  0.00000000000E+00 -0.00000000000E+00 -0.26307069442E+02  0.26307069442E+02  0.00000000000E+00 0. -1.
         23    2    1    2    0    0  0.56030312730E+01  0.14625792545E+03  0.33999722599E+03  0.38096499427E+03  0.90074627183E+02 0.  0.
          5    1    1    2  502    0 -0.61846569820E+02 -0.45207927138E+02  0.65639032047E+03  0.66085889574E+03  0.41800000000E+01 0.  1.
         -5    1    1    2    0  502  0.56243538547E+02 -0.10104999831E+03  0.92928182173E+03  0.93645961706E+03  0.41800000000E+01 0.  1.
        -11    1    3    3    0    0  0.12850386858E+02  0.12944691762E+03  0.33845598429E+03  0.36259356066E+03  0.00000000000E+00 0. -1.
         11    1    3    3    0    0 -0.72473555851E+01  0.16811007828E+02  0.15412416981E+01  0.18371433617E+02  0.00000000000E+00 0.  1.
</event>
<event>
 7    1  0.5137842E-006  0.1253011E+03  0.7561462E-02  0.1234599E+00
         -1   -1    0    0    0  501 -0.00000000000E+00  0.00000000000E+00  0.66044395907E+02  0.66044395907E+02  0.00000000000E+00 0.  1.
          1   -1    0    0  501    0  0.00000000000E+00 -0.00000000000E+00 -0.36444333548E+03  0.36444333548E+03  0.00000000000E+00 0. -1.
         23    2    1    2    0    0 -0.66418359052E+02 -0.98205088306E+02 -0.12358973836E+03  0.18500691792E+03  0.69982129574E+02 0.  0.
          5    1    1    2  502    0  0.38807493231E+02  0.84761578936E+02 -0.18946381103E+03  0.21119790455E+03  0.41800000000E+01 0.  1.
         -5    1    1    2    0  502  0.27610865821E+02  0.13443509369E+02  0.14654609819E+02  0.34282908927E+02  0.41800000000E+01 0.  1.
        -11    1    3    3    0    0 -0.62949795551E+02 -0.56938126395E+02 -0.11463265014E+03  0.14263685174E+03  0.00000000000E+00 0. -1.
         11    1    3    3    0    0 -0.34685635007E+01 -0.41266961911E+02 -0.89570882260E+01  0.42370066174E+02  0.00000000000E+00 0.  1.
</event>
<event>
 7    1  0.5137842E-006  0.1050501E+03  0.7561462E-02  0.1270021E+00
          2   -1    0    0  501    0  0.00000000000E+00  0.00000000000E+00  0.25062103462E+03  0.25062103462E+03  0.00000000000E+00 0. -1.
         -2   -1    0    0    0  501 -0.00000000000E+00 -0.00000000000E+00 -0.55392495151E+02  0.55392495151E+02  0.00000000000E+00 0.  1.
         23    2    1    2    0    0 -0.44321217645E+02 -0.41733527718E+01  0.10328734539E+03  0.14451508516E+03  0.90744404305E+02 0.  0.
          5    1    1    2  502    0  0.30124739540E+02 -0.59806879128E+02  0.47316510162E+02  0.82101688517E+02  0.41800000000E+01 0.  1.
         -5    1    1    2    0  502  0.14196478106E+02  0.63980231900E+02  0.44624683916E+02  0.79396756100E+02  0.41800000000E+01 0.  1.
        -11    1    3    3    0    0 -0.10927475258E+02  0.28556754620E+02 -0.60832977666E+00  0.30582151904E+02  0.00000000000E+00 0.  1.
         11    1    3    3    0    0 -0.33393742388E+02 -0.32730107392E+02  0.10389567517E+03  0.11393293325E+03  0.00000000000E+00 0. -1.
</event>
<event>
 7    1  0.5137842E-006  0.9552853E+02  0.7561462E-02  0.1289990E+00
          1   -1    0    0  501    0  0.00000000000E+00  0.00000000000E+00  0.57936802675E+03  0.57936802675E+03  0.00000000000E+00 0. -1.
         -1   -1    0    0    0  501 -0.00000000000E+00 -0.00000000000E+00 -0.22925537464E+02  0.22925537464E+02  0.00000000000E+00 0.  1.
         23    2    1    2    0    0  0.25399459752E+02 -0.32578773277E+02  0.27624143383E+03  0.29267657634E+03  0.87428482469E+02 0.  0.
          5    1    1    2  502    0 -0.36323208314E+02  0.74365201395E+02  0.22242752703E+03  0.23736266729E+03  0.41800000000E+01 0. -1.
         -5    1    1    2    0  502  0.10923748562E+02 -0.41786428118E+02  0.57773528424E+02  0.72254320591E+02  0.41800000000E+01 0. -1.
        -11    1    3    3    0    0  0.91466534158E+01  0.13290326437E+02  0.46932060860E+01  0.16802387594E+02  0.00000000000E+00 0.  1.
         11    1    3    3    0    0  0.16252806336E+02 -0.45869099714E+02  0.27154822775E+03  0.27587418874E+03  0.00000000000E+00 0. -1.
</event>
<event>
 7    1  0.5137842E-006  0.1123719E+03  0.7561462E-02  0.1256240E+00
         -1   -1    0    0    0  501 -0.00000000000E+00  0.00000000000E+00  0.11865262872E+04  0.11865262872E+04  0.00000000000E+00 0.  1.
          1   -1    0    0  501    0  0.00000000000E+00 -0.00000000000E+00 -0.12565389906E+02  0.12565389906E+02  0.00000000000E+00 0. -1.
         23    2    1    2    0    0  0.19787915302E+02 -0.39606399903E+02  0.33606086616E+03  0.35074894141E+03  0.90153677849E+02 0.  0.
          5    1    1    2  502    0 -0.71893660112E+02  0.28857421555E+02  0.56190101031E+03  0.56723158139E+03  0.41800000000E+01 0.  1.
         -5    1    1    2    0  502  0.52105744809E+02  0.10748978348E+02  0.27599902080E+03  0.28111115428E+03  0.41800000000E+01 0.  1.
        -11    1    3    3    0    0 -0.23219138858E+02 -0.44815929223E+02  0.24176808838E+03  0.24698057511E+03  0.00000000000E+00 0.  1.
         11    1    3    3    0    0  0.43007054161E+02  0.52095293203E+01  0.94292777779E+02  0.10376836630E+03  0.00000000000E+00 0. -1.
</event>
<event>
 7    1  0.5137842E-006  0.1342718E+03  0.7561462E-02  0.1221251E+00
          2   -1    0    0  501    0  0.00000000000E+00  0.00000000000E+00  0.74195137380E+02  0.74195137380E+02  0.00000000000E+00 0. -1.
         -2   -1    0    0    0  501 -0.00000000000E+00 -0.00000000000E+00 -0.30534650436E+03  0.30534650436E+03  0.00000000000E+00 0.  1.
         23    2    1    2    0    0  0.93025509593E+02 -0.21515390412E+02 -0.57547870419E+02  0.14523309442E+03  0.93081882588E+02 0.  0.
          5    1    1    2  502    0 -0.85489667490E+02  0.61866766938E+02 -0.81551301831E+02  0.13343188273E+03  0.41800000000E+01 0.  1.
         -5    1    1    2    0  502 -0.75358421028E+01 -0.40351376525E+02 -0.92052194729E+02  0.10087666459E+03  0.41800000000E+01 0.  1.
        -11    1    3    3    0    0  0.88914100511E+02 -0.43726164713E+02 -0.19499281472E+02  0.10098473512E+03  0.00000000000E+00 0. -1.
         11    1    3    3    0    0  0.41114090816E+01  0.22210774301E+02 -0.38048588947E+02  0.44248359298E+02  0.00000000000E+00 0.  1.
</event>
<event>
 7    1  0.5137842E-006  0.1053951E+03  0.7561462E-02  0.1269343E+00
         -1   -1    0    0    0  501 -0.00000000000E+00  0.00000000000E+00  0.62485970733E+02  0.62485970733E+02  0.00000000000E+00 0.  1.
          1   -1    0    0  501    0  0.00000000000E+00 -0.00000000000E+00 -0.19144648002E+03  0.19144648002E+03  0.00000000000E+00 0. -1.
         23    2    1    2    0    0  0.12534508150E+02  0.14420366281E+02 -0.46127428394E+02  0.10269639608E+03  0.89742683602E+02 0.  0.
          5    1    1    2  502    0  0.56051183218E+02 -0.12022657570E+01 -0.31402295821E+02  0.64395319441E+02  0.41800000000E+01 0.  1.
         -5    1    1    2    0  502 -0.68585691368E+02 -0.13218100524E+02 -0.51430785072E+02  0.86840735229E+02  0.41800000000E+01 0.  1.
        -11    1    3    3    0    0  0.85363613319E+01  0.49025156715E+02 -0.46139293160E+02  0.67861401614E+02  0.00000000000E+00 0. -1.
         11    1    3    3    0    0  0.39981468180E+01 -0.34604790434E+02  0.11864765787E-01  0.34834994470E+02  0.00000000000E+00 0.  1.
</event>
<event>
 7    1  0.5137842E-006  0.7585106E+02  0.7561462E-02  0.1341256E+00
         -1   -1    0    0    0  501 -0.00000000000E+00  0.00000000000E+00  0.11463898559E+03  0.11463898559E+03  0.00000000000E+00 0.  1.
          1   -1    0    0  501    0  0.00000000000E+00 -0.00000000000E+00 -0.12602767942E+03  0.12602767942E+03  0.00000000000E+00 0. -1.
         23    2    1    2    0    0 -0.20826261946E+02  0.41785715897E+02 -0.28395123502E+02  0.10606936949E+03  0.90910114208E+02 0.  0.
          5    1    1    2  502    0  0.21274778893E+02  0.13799574777E+02  0.59296763760E+02  0.64626798415E+02  0.41800000000E+01 0. -1.
         -5    1    1    2    0  502 -0.44851694734E+00 -0.55585290674E+02 -0.42290334089E+02  0.69970497098E+02  0.41800000000E+01 0. -1.
        -11    1    3    3    0    0 -0.15198198212E+02  0.54379501794E+02 -0.53269804859E+02  0.77625946396E+02  0.00000000000E+00 0. -1.
         11    1    3    3    0    0 -0.56280637342E+01 -0.12593785897E+02  0.24874681357E+02  0.28443423092E+02  0.00000000000E+00 0.  1.
</event>
<event>
 7    1  0.5137842E-006  0.1194320E+03  0.7561462E-02  0.1244037E+00
         -2   -1    0    0    0  501 -0.00000000000E+00  0.00000000000E+00  0.44403576388E+03  0.44403576388E+03  0.00000000000E+00 0.  1.
          2   -1    0    0  501    0  0.00000000000E+00 -0.00000000000E+00 -0.50540389495E+02  0.50540389495E+02  0.00000000000E+00 0. -1.
         23    2    1    2    0    0 -0.59064429924E+02  0.39742422010E+02  0.57597096086E+02  0.12914147625E+03  0.91060575557E+02 0.  0.
          5    1    1    2  502    0  0.57347296236E+02  0.34299506464E+02  0.12389487752E+03  0.14082819890E+03  0.41800000000E+01 0. -1.
         -5    1    1    2    0  502  0.17171336881E+01 -0.74041928474E+02  0.21200340078E+03  0.22460647823E+03  0.41800000000E+01 0. -1.
        -11    1    3    3    0    0 -0.63937084903E+02  0.66492606312E+01  0.68520321803E+02  0.93953169147E+02  0.00000000000E+00 0.  1.
         11    1    3    3    0    0  0.48726549789E+01  0.33093161379E+02 -0.10923225717E+02  0.35188307102E+02  0.00000000000E+00 0. -1.
</event>
<event>
 7    1  0.5137842E-006  0.1180599E+03  0.7561462E-02  0.1246332E+00
          2   -1    0    0  501    0  0.00000000000E+00  0.00000000000E+00  0.63525580182E+03  0.63525580182E+03  0.00000000000E+00 0. -1.
         -2   -1    0    0    0  501 -0.00000000000E+00 -0.00000000000E+00 -0.37883339295E+02  0.37883339295E+02  0.00000000000E+00 0.  1.
         23    2    1    2    0    0 -0.54028002055E+02  0.39427524296E+02  0.20288082923E+03  0.23187595071E+03  0.90179104957E+02 0.  0.
          5    1    1    2  502    0  0.72861486458E+02  0.13200514616E+02  0.37446756323E+03  0.38174137595E+03  0.41800000000E+01 0. -1.
         -5    1    1    2    0  502 -0.18833484403E+02 -0.52628038911E+02  0.20024070060E+02  0.59521814456E+02  0.41800000000E+01 0.  1.
        -11    1    3    3    0    0 -0.63014444195E+02 -0.24587352755E+01  0.80796701199E+02  0.10249376801E+03  0.00000000000E+00 0.  1.
         11    1    3    3    0    0  0.89864421404E+01  0.41886259571E+02  0.12208412803E+03  0.12938218270E+03  0.00000000000E+00 0. -1.
</event>
<event>
 7    1  0.5137842E-006  0.9621947E+02  0.7561462E-02  0.1288453E+00
          2   -1    0    0  501    0  0.00000000000E+00  0.00000000000E+00  0.13875318117E+03  0.13875318117E+03  0.00000000000E+00 0.  1.
         -2   -1    0    0    0  501 -0.00000000000E+00 -0.00000000000E+00 -0.89822576230E+02  0.89822576230E+02  0.00000000000E+00 0. -1.
         23    2    1    2    0    0 -0.16551611858E+02  0.18426595888E+02  0.32478066185E+02  0.10000203476E+03  0.91280265571E+02 0.  0.
          5    1    1    2  502    0  0.11131385417E+02  0.51298947695E+02 -0.10157751199E+02  0.53629675417E+02  0.41800000000E+01 0. -1.
         -5    1    1    2    0  502  0.54202264411E+01 -0.69725543583E+02  0.26610289959E+02  0.74944047224E+02  0.41800000000E+01 0. -1.
        -11    1    3    3    0    0 -0.32562924397E+02  0.34214577130E+02  0.51981819346E+02  0.70235965687E+02  0.00000000000E+00 0.  1.
         11    1    3    3    0    0  0.16011312540E+02 -0.15787981242E+02 -0.19503753161E+02  0.29766069077E+02  0.00000000000E+00 0. -1.
</event>
<event>
 7    1  0.5137842E-006  0.7261902E+02  0.7561462E-02  0.1351407E+00
          1   -1    0    0  501    0  0.00000000000E+00  0.00000000000E+00  0.42110995308E+03  0.42110995308E+03  0.00000000000E+00 0. -1.
         -1   -1    0    0    0  501 -0.00000000000E+00 -0.00000000000E+00 -0.36383882079E+02  0.36383882079E+02  0.00000000000E+00 0.  1.
         23    2    1    2    0    0  0.13358351900E+02 -0.39314916705E+02  0.22808557608E+03  0.24879884153E+03  0.90297980543E+02 0.  0.
          5    1    1    2  502    0 -0.81534390050E+01  0.38103056468E+02  0.18007918949E+03  0.18429408120E+03  0.41800000000E+01 0. -1.
         -5    1    1    2    0  502 -0.52049128953E+01  0.12118602370E+01 -0.23438694575E+02  0.24400912418E+02  0.41800000000E+01 0.  1.
        -11    1    3    3    0    0  0.24515309319E+02  0.24394862576E+02  0.73653000647E+02  0.81368754539E+02  0.00000000000E+00 0. -1.
         11    1    3    3    0    0 -0.11156957418E+02 -0.63709779281E+02  0.15443257544E+03  0.16743008700E+03  0.00000000000E+00 0.  1.
</event>
<event>
 7    1  0.5137842E-006  0.1193598E+03  0.7561462E-02  0.1244157E+00
         -1   -1    0    0    0  501 -0.00000000000E+00  0.00000000000E+00  0.13815306683E+03  0.13815306683E+03  0.00000000000E+00 0.  1.
          1   -1    0    0  501    0  0.00000000000E+00 -0.00000000000E+00 -0.23392870428E+03  0.23392870428E+03  0.00000000000E+00 0. -1.
         23    2    1    2    0    0 -0.70996105021E+02 -0.70285614954E+02 -0.15092203084E+03  0.20275405431E+03  0.91385078372E+02 0.  0.
          5    1    1    2  502    0  0.85227362316E+02  0.66373237713E+02  0.83830413100E+02  0.13679956335E+03  0.41800000000E+01 0. -1.
         -5    1    1    2    0  502 -0.14231257295E+02  0.39123772411E+01 -0.28684019715E+02  0.32528153450E+02  0.41800000000E+01 0. -1.
        -11    1    3    3    0    0 -0.30266241040E+02 -0.68058116676E+02 -0.39948527842E+02  0.84521224961E+02  0.00000000000E+00 0.  1.
         11    1    3    3    0    0 -0.40729863981E+02 -0.22274982779E+01 -0.11097350300E+03  0.11823282935E+03  0.00000000000E+00 0. -1.
</event>
<event>
 7    1  0.5137842E-006  0.9859627E+02  0.7561462E-02  0.1283276E+00
          1   -1    0    0  501    0  0.00000000000E+00  0.00000000000E+00  0.75845514947E+03  0.75845514947E+03  0.00000000000E+00 0. -1.
         -1   -1    0    0    0  501 -0.00000000000E+00 -0.00000000000E+00 -0.16995595723E+02  0.16995595723E+02  0.00000000000E+00 0.  1.
         23    2    1    2    0    0  0.25644725320E+02  0.13888636943E+02  0.22543656331E+03  0.24368168158E+03  0.87798472014E+02 0.  0.
          5    1    1    2  502    0  0.38388525175E+02 -0.15147597573E+02  0.36930216936E+03  0.37162439811E+03  0.41800000000E+01 0. -1.
         -5    1    1    2    0  502 -0.64033250495E+02  0.12589606298E+01  0.14672082107E+03  0.16014466550E+03  0.41800000000E+01 0. -1.
        -11    1    3    3    0    0 -0.19269541893E+02 -0.25382912558E+02  0.62303429241E+02  0.69980888747E+02  0.00000000000E+00 0.  1.
         11    1    3    3    0    0  0.44914267213E+02  0.39271549502E+02  0.16313313406E+03  0.17370079283E+03  0.00000000000E+00 0. -1.
</event>
<event>
 7    1  0.5137842E-006  0.2290811E+03  0.7561462E-02  0.1127288E+00
         -1   -1    0    0    0  501 -0.00000000000E+00  0.00000000000E+00  0.70480773702E+02  0.70480773702E+02  0.00000000000E+00 0.  1.
          1   -1    0    0  501    0  0.00000000000E+00 -0.00000000000E+00 -0.88613998204E+03  0.88613998204E+03  0.00000000000E+00 0. -1.
         23    2    1    2    0    0  0.15260842951E+03  0.14825528310E+03 -0.53332834725E+03  0.58161725322E+03  0.92577219311E+02 0.  0.
          5    1    1    2  502    0 -0.10596491067E+03 -0.15199627614E+03 -0.26808442922E+03  0.32591128217E+03  0.41800000000E+01 0.  1.
         -5    1    1    2    0  502 -0.46643518840E+02  0.37409930343E+01 -0.14246431865E+02  0.49092220357E+02  0.41800000000E+01 0.  1.
        -11    1    3    3    0    0  0.80388630696E+02  0.27160726758E+02 -0.26857975204E+03  0.28166490769E+03  0.00000000000E+00 0. -1.
         11    1    3    3    0    0  0.72219798811E+02  0.12109455634E+03 -0.26474859521E+03  0.29995234552E+03  0.00000000000E+00 0.  1.
</event>
<event>
 7    1  0.5137842E-006  0.9472222E+02  0.7561462E-02  0.1291803E+00
         -2   -1    0    0    0  501 -0.00000000000E+00  0.00000000000E+00  0.91324675720E+02  0.91324675720E+02  0.00000000000E+00 0.  1.
          2   -1    0    0  501    0  0.00000000000E+00 -0.00000000000E+00 -0.14030494603E+03  0.14030494603E+03  0.00000000000E+00 0. -1.
         23    2    1    2    0    0  0.18187632661E+02 -0.22357359845E+02 -0.40731018523E+02  0.10299972665E+03  0.90107082402E+02 0.  0.
          5    1    1    2  502    0 -0.25967116587E+02  0.65750748743E+02 -0.32748448367E+02  0.78021698101E+02  0.41800000000E+01 0. -1.
         -5    1    1    2    0  502  0.77794839264E+01 -0.43393388898E+02  0.24499196581E+02  0.50608196998E+02  0.41800000000E+01 0. -1.
        -11    1    3    3    0    0  0.42469582713E+02 -0.25993244374E+02 -0.55328905152E+02  0.74435219851E+02  0.00000000000E+00 0. -1.
         11    1    3    3    0    0 -0.24281950052E+02  0.36358845290E+01  0.14597886629E+02  0.28564506799E+02  0.00000000000E+00 0.  1.
</event>
<event>
 7    1  0.5137842E-006  0.1799929E+03  0.7561462E-02  0.1167810E+00
         -2   -1    0    0    0  501 -0.00000000000E+00  0.00000000000E+00  0.32515582320E+02  0.32515582320E+02  0.00000000000E+00 0. -1.
          2   -1    0    0  501    0  0.00000000000E+00 -0.00000000000E+00 -0.10874069217E+04  0.10874069217E+04  0.00000000000E+00 0.  1.
         23    2    1    2    0    0  0.14686488036E+03  0.16481448569E+02 -0.63469772538E+03  0.65726522661E+03  0.85530370524E+02 0.  0.
          5    1    1    2  502    0 -0.16175388299E+03  0.68719159464E+01 -0.32037763811E+03  0.35898585668E+03  0.41800000000E+01 0. -1.
         -5    1    1    2    0  502  0.14889002636E+02 -0.23353364516E+02 -0.99815975896E+02  0.10367142074E+03  0.41800000000E+01 0. -1.
        -11    1    3    3    0    0  0.61970100502E+02 -0.34569592337E+02 -0.23540357852E+03  0.24586621332E+03  0.00000000000E+00 0. -1.
         11    1    3    3    0    0  0.84894779856E+02  0.51051040906E+02 -0.39929414685E+03  0.41139901329E+03  0.00000000000E+00 0.  1.
</event>
<event>
 7    1  0.5137842E-006  0.1280878E+03  0.7561462E-02  0.1230321E+00
         -1   -1    0    0    0  501 -0.00000000000E+00  0.00000000000E+00  0.33042243080E+03  0.33042243080E+03  0.00000000000E+00 0.  1.
          1   -1    0    0  501    0  0.00000000000E+00 -0.00000000000E+00 -0.18839597762E+03  0.18839597762E+03  0.00000000000E+00 0. -1.
         23    2    1    2    0    0 -0.38082178465E+02 -0.10450711686E+03 -0.13159546516E+03  0.19050813579E+03  0.81264958992E+02 0.  0.
          5    1    1    2  502    0  0.66682271590E+01  0.74918366216E+02  0.30365869846E+02  0.81220596534E+02  0.41800000000E+01 0. -1.
         -5    1    1    2    0  502  0.31413951306E+02  0.29588750649E+02  0.24325604850E+03  0.24708967609E+03  0.41800000000E+01 0.  1.
        -11    1    3    3    0    0 -0.63617592248E+02 -0.70480140132E+02 -0.96241332338E+02  0.13519261166E+03  0.00000000000E+00 0. -1.
         11    1    3    3    0    0  0.25535413783E+02 -0.34026976733E+02 -0.35354132827E+02  0.55315524138E+02  0.00000000000E+00 0.  1.
</event>
<event>
 7    1  0.5137842E-006  0.6393763E+02  0.7561462E-02  0.1382013E+00
         -1   -1    0    0    0  501 -0.00000000000E+00  0.00000000000E+00  0.10545375547E+03  0.10545375547E+03  0.00000000000E+00 0.  1.
          1   -1    0    0  501    0  0.00000000000E+00 -0.00000000000E+00 -0.15912134120E+03  0.15912134120E+03  0.00000000000E+00 0. -1.
         23    2    1    2    0    0  0.76673326772E+01 -0.26858061101E+02 -0.87788550280E+02  0.13193784690E+03  0.94449046830E+02 0.  0.
          5    1    1    2  502    0 -0.59277116538E+01  0.14313779874E+02  0.81681242585E+02  0.83242536302E+02  0.41800000000E+01 0.  1.
         -5    1    1    2    0  502 -0.17396210233E+01  0.12544281227E+02 -0.47560278027E+02  0.49394713470E+02  0.41800000000E+01 0.  1.
        -11    1    3    3    0    0  0.48051097403E+02 -0.32075017301E+02 -0.51612458059E+02  0.77469739405E+02  0.00000000000E+00 0.  1.
         11    1    3    3    0    0 -0.40383764726E+02  0.52169561996E+01 -0.36176092220E+02  0.54468107492E+02  0.00000000000E+00 0. -1.
</event>
<event>
 7    1  0.5137842E-006  0.9420981E+02  0.7561462E-02  0.1292966E+00
          2   -1    0    0  501    0  0.00000000000E+00  0.00000000000E+00  0.36601133936E+03  0.36601133936E+03  0.00000000000E+00 0.  1.
         -2   -1    0    0    0  501 -0.00000000000E+00 -0.00000000000E+00 -0.40931621545E+02  0.40931621545E+02  0.00000000000E+00 0. -1.
         23    2    1    2    0    0 -0.30173826539E+02  0.41197113574E+02  0.18274753715E+03  0.21069455935E+03  0.91585331963E+02 0.  0.
          5    1    1    2  502    0  0.67306920273E+02 -0.42132040249E+02  0.13711961945E+03  0.15850739027E+03  0.41800000000E+01 0. -1.
         -5    1    1    2    0  502 -0.37133093734E+02  0.93492667472E+00  0.52125612115E+01  0.37741011281E+02  0.41800000000E+01 0. -1.
        -11    1    3    3    0    0  0.10340744390E+02  0.26466402282E+02  0.63632833364E+01  0.29118599196E+02  0.00000000000E+00 0. -1.
         11    1    3    3    0    0 -0.40514570929E+02  0.14730711292E+02  0.17638425382E+03  0.18157596016E+03  0.00000000000E+00 0.  1.
</event>
<event>
 7    1  0.5137842E-006  0.2205892E+03  0.7561462E-02  0.1133445E+00
         -2   -1    0    0    0  501 -0.00000000000E+00  0.00000000000E+00  0.58925060051E+02  0.58925060051E+02  0.00000000000E+00 0.  1.
          2   -1    0    0  501    0  0.00000000000E+00 -0.00000000000E+00 -0.96967555294E+03  0.96967555294E+03  0.00000000000E+00 0. -1.
         23    2    1    2    0    0 -0.69614704718E+02  0.20056682702E+03 -0.46726073468E+03  0.52124775783E+03  0.91067950796E+02 0.  0.
          5    1    1    2  502    0  0.90418665851E+00 -0.13077463339E+03 -0.15599175612E+03  0.20360187295E+03  0.41800000000E+01 0.  1.
         -5    1    1    2    0  502  0.68710518059E+02 -0.69792193631E+02 -0.28749800210E+03  0.30375098221E+03  0.41800000000E+01 0.  1.
        -11    1    3    3    0    0 -0.51271416201E+02  0.14854902000E+03 -0.42060851915E+03  0.44900678819E+03  0.00000000000E+00 0. -1.
         11    1    3    3    0    0 -0.18343288517E+02  0.52017807023E+02 -0.46652215525E+02  0.72240969640E+02  0.00000000000E+00 0.  1.
</event>
<event>
 7    1  0.5137842E-006  0.8491251E+02  0.7561462E-02  0.1315661E+00
          2   -1    0    0  501    0  0.00000000000E+00  0.00000000000E+00  0.56709066008E+02  0.56709066008E+02  0.00000000000E+00 0.  1.
         -2   -1    0    0    0  501 -0.00000000000E+00 -0.00000000000E+00 -0.25556970163E+03  0.25556970163E+03  0.00000000000E+00 0. -1.
         23    2    1    2    0    0  0.15334588035E+02 -0.21224105035E+02 -0.31408936777E+02  0.10162863622E+03  0.93038949729E+02 0.  0.
          5    1    1    2  502    0 -0.63937433615E+01 -0.49797032588E+02 -0.39663024339E+02  0.64119047938E+02  0.41800000000E+01 0.  1.
         -5    1    1    2    0  502 -0.89408446733E+01  0.71021137623E+02 -0.12778867451E+03  0.14653108348E+03  0.41800000000E+01 0.  1.
        -11    1    3    3    0    0  0.26601608955E+02 -0.36283562438E+01  0.27916337310E+02  0.38731543435E+02  0.00000000000E+00 0.  1.
         11    1    3    3    0    0 -0.11267020921E+02 -0.17595748791E+02 -0.59325274087E+02  0.62897092790E+02  0.00000000000E+00 0. -1.
</event>
<event>
 7    1  0.5137842E-006  0.1891373E+03  0.7561462E-02  0.1159242E+00
          1   -1    0    0  501    0  0.00000000000E+00  0.00000000000E+00  0.91549906261E+02  0.91549906261E+02  0.00000000000E+00 0. -1.
         -1   -1    0    0    0  501 -0.00000000000E+00 -0.00000000000E+00 -0.48208086761E+03  0.48208086761E+03  0.00000000000E+00 0.  1.
         23    2    1    2    0    0 -0.69090435561E+02 -0.16496944611E+03 -0.21240113756E+03  0.29191074328E+03  0.90051276321E+02 0.  0.
          5    1    1    2  502    0 -0.52003581190E+01 -0.25771242945E+01 -0.66916989976E+02  0.67298151845E+02  0.41800000000E+01 0.  1.
         -5    1    1    2    0  502  0.74290793681E+02  0.16754657041E+03 -0.11121283381E+03  0.21442187875E+03  0.41800000000E+01 0.  1.
        -11    1    3    3    0    0 -0.95109511784E+01 -0.96774841759E+02 -0.58896669134E+02  0.11368661234E+03  0.00000000000E+00 0.  1.
         11    1    3    3    0    0 -0.59579484383E+02 -0.68194604355E+02 -0.15350446843E+03  0.17822413094E+03  0.00000000000E+00 0. -1.
</event>
<event>
 7    1  0.5137842E-006  0.1051313E+03  0.7561462E-02  0.1269861E+00
         -2   -1    0    0    0  501 -0.00000000000E+00  0.00000000000E+00  0.46043679384E+02  0.46043679384E+02  0.00000000000E+00 0.  1.
          2   -1    0    0  501    0  0.00000000000E+00 -0.00000000000E+00 -0.27420301514E+03  0.27420301514E+03  0.00000000000E+00 0. -1.
         23    2    1    2    0    0  0.18043274758E+02  0.18742708834E+02 -0.11657366222E+03  0.15058262654E+03  0.91699835295E+02 0.  0.
          5    1    1    2  502    0  0.22936254381E+02  0.42302845231E+02 -0.20346242312E+02  0.52412254825E+02  0.41800000000E+01 0.  1.
         -5    1    1    2    0  502 -0.40979529139E+02 -0.61045554065E+02 -0.91239431232E+02  0.11725181317E+03  0.41800000000E+01 0.  1.
        -11    1    3    3    0    0  0.47078177849E+02  0.31456841681E+02 -0.45069805616E+02  0.72368329374E+02  0.00000000000E+00 0.  1.
         11    1    3    3    0    0 -0.29034903091E+02 -0.12714132847E+02 -0.71503856601E+02  0.78214297161E+02  0.00000000000E+00 0. -1.
</event>
<event>
 7    1  0.5137842E-006  0.8827113E+02  0.7561462E-02  0.1307093E+00
          2   -1    0    0  501    0  0.00000000000E+00  0.00000000000E+00  0.64269930501E+03  0.64269930501E+03  0.00000000000E+00 0. -1.
         -2   -1    0    0    0  501 -0.00000000000E+00 -0.00000000000E+00 -0.23402251375E+02  0.23402251375E+02  0.00000000000E+00 0.  1.
         23    2    1    2    0    0 -0.50678436244E+02  0.89626837145E+01  0.32346737836E+03  0.34081610318E+03  0.94211664471E+02 0.  0.
          5    1    1    2  502    0 -0.16245224638E+02 -0.66717931908E+01  0.23193155438E+03  0.23263305540E+03  0.41800000000E+01 0. -1.
         -5    1    1    2    0  502  0.66923660882E+02 -0.22908905237E+01  0.63898120892E+02  0.92652397804E+02  0.41800000000E+01 0. -1.
        -11    1    3    3    0    0 -0.59546995208E+02  0.31365232565E+02  0.29898444125E+03  0.30646585219E+03  0.00000000000E+00 0. -1.
         11    1    3    3    0    0  0.88685589638E+01 -0.22402548850E+02  0.24482937114E+02  0.34350250986E+02  0.00000000000E+00 0.  1.
</event>
<event>
 7    1  0.5137842E-006  0.1381905E+03  0.7561462E-02  0.1215785E+00
         -2   -1    0    0    0  501 -0.00000000000E+00  0.00000000000E+00  0.29853131608E+02  0.29853131608E+02  0.00000000000E+00 0. -1.
          2   -1    0    0  501    0  0.00000000000E+00 -0.00000000000E+00 -0.96743791966E+03  0.96743791966E+03  0.00000000000E+00 0.  1.
         23    2    1    2    0    0  0.81291883774E+02 -0.82363347175E+02 -0.60834498226E+03  0.62656439172E+03  0.95431798706E+02 0.  0.
          5    1    1    2  502    0 -0.67658214541E+02  0.18784199309E+02 -0.56245358118E+02  0.90063826526E+02  0.41800000000E+01 0. -1.
         -5    1    1    2    0  502 -0.13633669233E+02  0.63579147865E+02 -0.27299444767E+03  0.28066283302E+03  0.41800000000E+01 0. -1.
        -11    1    3    3    0    0  0.54206458361E+02 -0.96233642779E+02 -0.54755066496E+03  0.55857943466E+03  0.00000000000E+00 0. -1.
         11    1    3    3    0    0  0.27085425413E+02  0.13870295605E+02 -0.60794317305E+02  0.67984957061E+02  0.00000000000E+00 0.  1.
</event>
<event>
 7    1  0.5137842E-006  0.8526906E+02  0.7561462E-02  0.1314730E+00
         -2   -1    0    0    0  501 -0.00000000000E+00  0.00000000000E+00  0.48656945662E+03  0.48656945662E+03  0.00000000000E+00 0.  1.
          2   -1    0    0  501    0  0.00000000000E+00 -0.00000000000E+00 -0.34518697994E+02  0.34518697994E+02  0.00000000000E+00 0. -1.
         23    2    1    2    0    0  0.61934791940E+02  0.24452259552E+02  0.15821003022E+03  0.19486043590E+03  0.92229845301E+02 0.  0.
          5    1    1    2  502    0 -0.15015299533E+02 -0.20752883459E+01 -0.95438705877E+01  0.18393583326E+02  0.41800000000E+01 0.  1.
         -5    1    1    2    0  502 -0.46919492407E+02 -0.22376971207E+02  0.30338459899E+03  0.30783413539E+03  0.41800000000E+01 0.  1.
        -11    1    3    3    0    0 -0.11194181822E+02 -0.15665330710E+02  0.41893372783E+01  0.19704386308E+02  0.00000000000E+00 0. -1.
         11    1    3    3    0    0  0.73128973762E+02  0.40117590263E+02  0.15402069295E+03  0.17515604959E+03  0.00000000000E+00 0.  1.
</event>
<event>
 7    1  0.5137842E-006  0.1305781E+03  0.7561462E-02  0.1226600E+00
         -2   -1    0    0    0  501 -0.00000000000E+00  0.00000000000E+00  0.13493689897E+03  0.13493689897E+03  0.00000000000E+00 0.  1.
          2   -1    0    0  501    0  0.00000000000E+00 -0.00000000000E+00 -0.16130891097E+03  0.16130891097E+03  0.00000000000E+00 0. -1.
         23    2    1    2    0    0 -0.34081198180E+02 -0.88614353265E+02 -0.42715200627E+02  0.13835772386E+03  0.91127601274E+02 0.  0.
          5    1    1    2  502    0  0.65736432120E+02  0.86808293131E+02  0.42105072608E+02  0.11682152115E+03  0.41800000000E+01 0. -1.
         -5    1    1    2    0  502 -0.31655233940E+02  0.18060601337E+01 -0.25761883974E+02  0.41066564927E+02  0.41800000000E+01 0. -1.
        -11    1    3    3    0    0 -0.56373689859E+02 -0.75889123432E+02 -0.55560200751E+02  0.10965440197E+03  0.00000000000E+00 0. -1.
         11    1    3    3    0    0  0.22292491679E+02 -0.12725229834E+02  0.12845000125E+02  0.28703321894E+02  0.00000000000E+00 0.  1.
</event>
<event>
 7    1  0.5137842E-006  0.8041541E+02  0.7561462E-02  0.1327877E+00
          4   -1    0    0  501    0  0.00000000000E+00  0.00000000000E+00  0.99772545589E+03  0.99772545589E+03  0.00000000000E+00 0. -1.
         -4   -1    0    0    0  501 -0.00000000000E+00 -0.00000000000E+00 -0.11943256382E+02  0.11943256382E+02  0.00000000000E+00 0.  1.
         23    2    1    2    0    0  0.24756601796E+02 -0.31118726709E+02  0.44945503962E+03  0.46019220765E+03  0.90475249952E+02 0.  0.
          5    1    1    2  502    0 -0.35222451012E+02  0.74433634009E+01  0.51330573566E+03  0.51458359415E+03  0.41800000000E+01 0. -1.
         -5    1    1    2    0  502  0.10465849217E+02  0.23675363308E+02  0.23021424228E+02  0.34892910470E+02  0.41800000000E+01 0.  1.
        -11    1    3    3    0    0 -0.22660535715E+02  0.18854551216E+02  0.15587452013E+03  0.15863751135E+03  0.00000000000E+00 0. -1.
         11    1    3    3    0    0  0.47417137510E+02 -0.49973277925E+02  0.29358051949E+03  0.30155469630E+03  0.00000000000E+00 0.  1.
</event>
<event>
 7    1  0.5137842E-006  0.7780762E+02  0.7561462E-02  0.1335391E+00
         -2   -1    0    0    0  501 -0.00000000000E+00  0.00000000000E+00  0.10016538863E+03  0.10016538863E+03  0.00000000000E+00 0.  1.
          2   -1    0    0  501    0  0.00000000000E+00 -0.00000000000E+00 -0.15735724793E+03  0.15735724793E+03  0.00000000000E+00 0. -1.
         23    2    1    2    0    0  0.46827505446E+02 -0.27733121254E+02 -0.70845092373E+02  0.13174811772E+03  0.96832836008E+02 0.  0.
          5    1    1    2  502    0 -0.12403687558E+02 -0.13298977113E+02 -0.43501685606E+02  0.47334800178E+02  0.41800000000E+01 0. -1.
         -5    1    1    2    0  502 -0.34423817889E+02  0.41032098367E+02  0.57154918683E+02  0.78439718664E+02  0.41800000000E+01 0.  1.
        -11    1    3    3    0    0  0.51117409860E+02 -0.43358471913E+02 -0.86355873990E+02  0.10931735292E+03  0.00000000000E+00 0.  1.
         11    1    3    3    0    0 -0.42899044139E+01  0.15625350660E+02  0.15510781617E+02  0.22430764800E+02  0.00000000000E+00 0. -1.
</event>
<event>
 7    1  0.5137842E-006  0.1490009E+03  0.7561462E-02  0.1201706E+00
          1   -1    0    0  501    0  0.00000000000E+00  0.00000000000E+00  0.46692594283E+03  0.46692594283E+03  0.00000000000E+00 0. -1.
         -1   -1    0    0    0  501 -0.00000000000E+00 -0.00000000000E+00 -0.65184348418E+02  0.65184348418E+02  0.00000000000E+00 0.  1.
         23    2    1    2    0    0  0.32036859980E+02  0.12460647124E+03  0.25829790221E+03  0.30237873925E+03  0.90343580803E+02 0.  0.
          5    1    1    2  502    0  0.25511781454E+01 -0.10578473253E+03  0.15568168051E+03  0.18828482730E+03  0.41800000000E+01 0.  1.
         -5    1    1    2    0  502 -0.34588038126E+02 -0.18821738714E+02 -0.12237988311E+02  0.41446724690E+02  0.41800000000E+01 0.  1.
        -11    1    3    3    0    0 -0.21724016132E+02  0.63995819715E+01  0.16859421823E+02  0.28233448789E+02  0.00000000000E+00 0.  1.
         11    1    3    3    0    0  0.53760876112E+02  0.11820688927E+03  0.24143848039E+03  0.27414529046E+03  0.00000000000E+00 0. -1.
</event>
<event>
 7    1  0.5137842E-006  0.1638712E+03  0.7561462E-02  0.1184394E+00
         -1   -1    0    0    0  501 -0.00000000000E+00  0.00000000000E+00  0.14715531644E+03  0.14715531644E+03  0.00000000000E+00 0.  1.
          1   -1    0    0  501    0  0.00000000000E+00 -0.00000000000E+00 -0.28580667063E+03  0.28580667063E+03  0.00000000000E+00 0. -1.
         23    2    1    2    0    0 -0.67959034689E+02  0.11635734907E+03 -0.18163955982E+03  0.24414174682E+03  0.91949985157E+02 0.  0.
          5    1    1    2  502    0  0.36600315626E+02 -0.13973753029E+03  0.32904969619E+02  0.14821055934E+03  0.41800000000E+01 0. -1.
         -5    1    1    2    0  502  0.31358719063E+02  0.23380181218E+02  0.10083236015E+02  0.40609680909E+02  0.41800000000E+01 0. -1.
        -11    1    3    3    0    0 -0.27451590560E+02  0.93360028616E+02 -0.61071848462E+02  0.11488888302E+03  0.00000000000E+00 0.  1.
         11    1    3    3    0    0 -0.40507444129E+02  0.22997320456E+02 -0.12056771136E+03  0.12925286380E+03  0.00000000000E+00 0. -1.
</event>
<event>
 7    1  0.5137842E-006  0.1806847E+03  0.7561462E-02  0.1167142E+00
         -4   -1    0    0    0  501 -0.00000000000E+00  0.00000000000E+00  0.12433186705E+03  0.12433186705E+03  0.00000000000E+00 0.  1.
          4   -1    0    0  501    0  0.00000000000E+00 -0.00000000000E+00 -0.32247006514E+03  0.32247006514E+03  0.00000000000E+00 0. -1.
         23    2    1    2    0    0  0.49888982357E+02  0.81540957324E+01 -0.93962647710E+02  0.13891062248E+03  0.88948198600E+02 0.  0.
          5    1    1    2  502    0 -0.12655224529E+02  0.12688321934E+03 -0.10880383733E+03  0.16767603728E+03  0.41800000000E+01 0. -1.
         -5    1    1    2    0  502 -0.37233757828E+02 -0.13503731508E+03  0.46282869525E+01  0.14021527244E+03  0.41800000000E+01 0.  1.
        -11    1    3    3    0    0  0.47022446595E+00 -0.30750592770E+02 -0.69210486820E+01  0.31523340267E+02  0.00000000000E+00 0.  1.
         11    1    3    3    0    0  0.49418757891E+02  0.38904688502E+02 -0.87041599028E+02  0.10738728221E+03  0.00000000000E+00 0. -1.
</event>
<event>
 7    1  0.5137842E-006  0.9866486E+02  0.7561462E-02  0.1283129E+00
         -2   -1    0    0    0  501 -0.00000000000E+00  0.00000000000E+00  0.14017742122E+03  0.14017742122E+03  0.00000000000E+00 0.  1.
          2   -1    0    0  501    0  0.00000000000E+00 -0.00000000000E+00 -0.10114252337E+03  0.10114252337E+03  0.00000000000E+00 0. -1.
         23    2    1    2    0    0  0.48157935482E+02  0.54191988762E+01  0.96045871592E+01  0.10397393735E+03  0.91486485814E+02 0.  0.
          5    1    1    2  502    0 -0.80046033421E+02  0.22390632514E+02 -0.39101696784E+01  0.83315483061E+02  0.41800000000E+01 0. -1.
         -5    1    1    2    0  502  0.31888097939E+02 -0.27809831390E+02  0.33340480367E+02  0.54030524181E+02  0.41800000000E+01 0. -1.
        -11    1    3    3    0    0  0.54269380013E+02  0.18349043066E+02 -0.27983711759E+02  0.63756890705E+02  0.00000000000E+00 0. -1.
         11    1    3    3    0    0 -0.61114445313E+01 -0.12929844190E+02  0.37588298918E+02  0.40217046642E+02  0.00000000000E+00 0.  1.
</event>
<event>
 7    1  0.5137842E-006  0.1570805E+03  0.7561462E-02  0.1192033E+00
         -2   -1    0    0    0  501 -0.00000000000E+00  0.00000000000E+00  0.38217984409E+02  0.38217984409E+02  0.00000000000E+00 0. -1.
          2   -1    0    0  501    0  0.00000000000E+00 -0.00000000000E+00 -0.72017490131E+03  0.72017490131E+03  0.00000000000E+00 0.  1.
         23    2    1    2    0    0  0.49298627651E+02  0.11559803509E+03 -0.31728167696E+03  0.35287596523E+03  0.89780420430E+02 0.  0.
          5    1    1    2  502    0 -0.17159221647E+02  0.16219843900E+02 -0.10420573953E+02  0.26145419966E+02  0.41800000000E+01 0. -1.
         -5    1    1    2    0  502 -0.32139406003E+02 -0.13181787899E+03 -0.35425466599E+03  0.37937150053E+03  0.41800000000E+01 0. -1.
        -11    1    3    3    0    0  0.18616730827E+02  0.12173347917E+03 -0.25149393481E+03  0.28002646637E+03  0.00000000000E+00 0.  1.
         11    1    3    3    0    0  0.30681896824E+02 -0.61354440820E+01 -0.65787742151E+02  0.72849498860E+02  0.00000000000E+00 0. -1.
</event>
<event>
 7    1  0.5137842E-006  0.1371672E+03  0.7561462E-02  0.1217192E+00
         -2   -1    0    0    0  501 -0.00000000000E+00  0.00000000000E+00  0.50382716307E+02  0.50382716307E+02  0.00000000000E+00 0.  1.
          2   -1    0    0  501    0  0.00000000000E+00 -0.00000000000E+00 -0.56387537248E+03  0.56387537248E+03  0.00000000000E+00 0. -1.
         23    2    1    2    0    0  0.10486834508E+03  0.58558816998E+02 -0.32440750321E+03  0.35769019854E+03  0.90970023312E+02 0.  0.
          5    1    1    2  502    0 -0.59439239992E+02 -0.82701866337E+02 -0.17589169192E+03  0.20329284698E+03  0.41800000000E+01 0. -1.
         -5    1    1    2    0  502 -0.45429105092E+02  0.24143049339E+02 -0.13193461038E+02  0.53275043266E+02  0.41800000000E+01 0. -1.
        -11    1    3    3    0    0  0.30053834133E+02  0.23575750208E+02 -0.21727323167E+02  0.43944573225E+02  0.00000000000E+00 0.  1.
         11    1    3    3    0    0  0.74814510951E+02  0.34983066790E+02 -0.30268018005E+03  0.31374562531E+03  0.00000000000E+00 0. -1.
</event>
<event>
 7    1  0.5137842E-006  0.1203447E+03  0.7561462E-02  0.1242530E+00
         -2   -1    0    0    0  501 -0.00000000000E+00  0.00000000000E+00  0.64627971170E+02  0.64627971170E+02  0.00000000000E+00 0.  1.
          2   -1    0    0  501    0  0.00000000000E+00 -0.00000000000E+00 -0.25901325957E+03  0.25901325957E+03  0.00000000000E+00 0. -1.
         23    2    1    2    0    0 -0.37740688490E+02  0.56011381843E+02 -0.64906659642E+02  0.13135648683E+03  0.92087011579E+02 0.  0.
          5    1    1    2  502    0  0.26663493005E+02  0.34988825105E+02 -0.17549712837E+02  0.47546025724E+02  0.41800000000E+01 0.  1.
         -5    1    1    2    0  502  0.11077195485E+02 -0.91000206949E+02 -0.11192891592E+03  0.14473871819E+03  0.41800000000E+01 0.  1.
        -11    1    3    3    0    0 -0.58680278253E+02  0.18073463305E+02 -0.63014566640E+02  0.87982161490E+02  0.00000000000E+00 0. -1.
         11    1    3    3    0    0  0.20939589763E+02  0.37937918538E+02 -0.18920930024E+01  0.43374325336E+02  0.00000000000E+00 0.  1.
</event>
<event>
 7    1  0.5137842E-006  0.1689954E+03  0.7561462E-02  0.1178900E+00
         -2   -1    0    0    0  501 -0.00000000000E+00  0.00000000000E+00  0.25105254497E+02  0.25105254497E+02  0.00000000000E+00 0.  1.
          2   -1    0    0  501    0  0.00000000000E+00 -0.00000000000E+00 -0.11413498856E+04  0.11413498856E+04  0.00000000000E+00 0. -1.
         23    2    1    2    0    0  0.84910261625E+02 -0.98703933734E+02 -0.48762783297E+03  0.51242088983E+03  0.88555326100E+02 0.  0.
          5    1    1    2  502    0 -0.40843586624E+02  0.12326337404E+03 -0.45636542811E+03  0.47449861362E+03  0.41800000000E+01 0. -1.
         -5    1    1    2    0  502 -0.44066675001E+02 -0.24559440309E+02 -0.17225137003E+03  0.17953563666E+03  0.41800000000E+01 0. -1.
        -11    1    3    3    0    0  0.64990015446E+02 -0.11474545546E+03 -0.41087821306E+03  0.43152187386E+03  0.00000000000E+00 0.  1.
         11    1    3    3    0    0  0.19920246178E+02  0.16041521730E+02 -0.76749619918E+02  0.80899015969E+02  0.00000000000E+00 0. -1.
</event>
<event>
 7    1  0.5137842E-006  0.9241674E+02  0.7561462E-02  0.1297103E+00
         -1   -1    0    0    0  501 -0.00000000000E+00  0.00000000000E+00  0.22296760442E+03  0.22296760442E+03  0.00000000000E+00 0.  1.
          1   -1    0    0  501    0  0.00000000000E+00 -0.00000000000E+00 -0.51970466656E+02  0.51970466656E+02  0.00000000000E+00 0. -1.
         23    2    1    2    0    0  0.95145786176E+01  0.16648715217E+01  0.66807708297E+02  0.11185835598E+03  0.89194859216E+02 0.  0.
          5    1    1    2  502    0 -0.55235480125E+02 -0.19777405417E+02  0.14299367229E+02  0.60531383041E+02  0.41800000000E+01 0.  1.
         -5    1    1    2    0  502  0.45720901508E+02  0.18112533895E+02  0.89890062237E+02  0.10254833206E+03  0.41800000000E+01 0.  1.
        -11    1    3    3    0    0  0.29564489497E+02  0.29888146501E+02  0.64719969655E+02  0.77175351069E+02  0.00000000000E+00 0.  1.
         11    1    3    3    0    0 -0.20049910879E+02 -0.28223274979E+02  0.20877386422E+01  0.34683004908E+02  0.00000000000E+00 0. -1.
</event>
<event>
 7    1  0.5137842E-006  0.1142577E+03  0.7561462E-02  0.1252882E+00
          3   -1    0    0  501    0  0.00000000000E+00  0.00000000000E+00  0.46519049319E+02  0.46519049319E+02  0.00000000000E+00 0. -1.
         -3   -1    0    0    0  501 -0.00000000000E+00 -0.00000000000E+00 -0.37394131658E+03  0.37394131658E+03  0.00000000000E+00 0.  1.
         23    2    1    2    0    0  0.33218579559E+02  0.25440778867E+02 -0.71309537649E+02  0.13237321093E+03  0.10337750991E+03 0.  0.
          5    1    1    2  502    0 -0.12662385182E+02  0.50745282925E+02 -0.91088581295E+02  0.10511908380E+03  0.41800000000E+01 0.  1.
         -5    1    1    2    0  502 -0.20556194377E+02 -0.76186061791E+02 -0.16502414832E+03  0.18296807117E+03  0.41800000000E+01 0.  1.
        -11    1    3    3    0    0 -0.10425311552E+02 -0.26915971197E+02 -0.55264651787E+02  0.62348523347E+02  0.00000000000E+00 0.  1.
         11    1    3    3    0    0  0.43643891110E+02  0.52356750064E+02 -0.16044885862E+02  0.70024687581E+02  0.00000000000E+00 0. -1.
</event>
<event>
 7    1  0.5137842E-006  0.2024138E+03  0.7561462E-02  0.1147718E+00
          1   -1    0    0  501    0  0.00000000000E+00  0.00000000000E+00  0.35517426070E+02  0.35517426070E+02  0.00000000000E+00 0. -1.
         -1   -1    0    0    0  501 -0.00000000000E+00 -0.00000000000E+00 -0.13461612360E+04  0.13461612360E+04  0.00000000000E+00 0.  1.
         23    2    1    2    0    0  0.53150714663E+02 -0.16585197083E+03 -0.39228119445E+03  0.43861494974E+03  0.90369596207E+02 0.  0.
          5    1    1    2  502    0 -0.93141732664E+02  0.95965735898E+02 -0.57412567938E+03  0.58951045194E+03  0.41800000000E+01 0.  1.
         -5    1    1    2    0  502  0.39991018001E+02  0.69886234929E+02 -0.34423693608E+03  0.35355326036E+03  0.41800000000E+01 0.  1.
        -11    1    3    3    0    0  0.35759614412E+02 -0.16898686318E+03 -0.37901370129E+03  0.41651734143E+03  0.00000000000E+00 0.  1.
         11    1    3    3    0    0  0.17391100251E+02  0.31348923554E+01 -0.13267493165E+02  0.22097608308E+02  0.00000000000E+00 0. -1.
</event>
<event>
 7    1  0.5137842E-006  0.8041517E+02  0.7561462E-02  0.1327877E+00
         -1   -1    0    0    0  501 -0.00000000000E+00  0.00000000000E+00  0.42286969204E+03  0.42286969204E+03  0.00000000000E+00 0.  1.
          1   -1    0    0  501    0  0.00000000000E+00 -0.00000000000E+00 -0.46252361085E+02  0.46252361085E+02  0.00000000000E+00 0. -1.
         23    2    1    2    0    0  0.27122141599E+02 -0.20366702615E+02  0.36764099535E+02  0.10539528378E+03  0.92769357485E+02 0.  0.
          5    1    1    2  502    0 -0.34899681100E+02 -0.21597596004E+02  0.30685876120E+03  0.30961946906E+03  0.41800000000E+01 0.  1.
         -5    1    1    2    0  502  0.77775395008E+01  0.41964298620E+02  0.32994470220E+02  0.54107300288E+02  0.41800000000E+01 0.  1.
        -11    1    3    3    0    0  0.50319178541E+02 -0.10087318302E+02  0.54174741583E+02  0.74623564275E+02  0.00000000000E+00 0.  1.
         11    1    3    3    0    0 -0.23197036942E+02 -0.10279384314E+02 -0.17410642048E+02  0.30771719505E+02  0.00000000000E+00 0. -1.
</event>
<event>
 7    1  0.5137842E-006  0.1300510E+03  0.7561462E-02  0.1227380E+00
         -1   -1    0    0    0  501 -0.00000000000E+00  0.00000000000E+00  0.87573101226E+02  0.87573101226E+02  0.00000000000E+00 0.  1.
          1   -1    0    0  501    0  0.00000000000E+00 -0.00000000000E+00 -0.29790954890E+03  0.29790954890E+03  0.00000000000E+00 0. -1.
         23    2    1    2    0    0 -0.53497195661E+01 -0.88602238310E+02 -0.12625448956E+03  0.17950072705E+03  0.91658817053E+02 0.  0.
          5    1    1    2  502    0 -0.20997260826E+02  0.10172946008E+03 -0.12038418753E+03  0.15905845786E+03  0.41800000000E+01 0. -1.
         -5    1    1    2    0  502  0.26346980392E+02 -0.13127221773E+02  0.36302229416E+02  0.46923465215E+02  0.41800000000E+01 0.  1.
        -11    1    3    3    0    0  0.33952673491E+02 -0.78951740555E+02 -0.74030264046E+02  0.11343121867E+03  0.00000000000E+00 0.  1.
         11    1    3    3    0    0 -0.39302393057E+02 -0.96504977549E+01 -0.52224225518E+02  0.66069508382E+02  0.00000000000E+00 0. -1.
</event>
<event>
 7    1  0.5137842E-006  0.1320539E+03  0.7561462E-02  0.1224440E+00
         -2   -1    0    0    0  501 -0.00000000000E+00  0.00000000000E+00  0.39853054845E+02  0.39853054845E+02  0.00000000000E+00 0.  1.
          2   -1    0    0  501    0  0.00000000000E+00 -0.00000000000E+00 -0.46451176277E+03  0.46451176277E+03  0.00000000000E+00 0. -1.
         23    2    1    2    0    0  0.12092006650E+02  0.83529095443E+02 -0.20429771331E+03  0.23728899524E+03  0.86285486547E+02 0.  0.
          5    1    1    2  502    0 -0.16499760995E+02 -0.11433888203E+03 -0.19509248415E+03  0.22676898339E+03  0.41800000000E+01 0.  1.
         -5    1    1    2    0  502  0.44077543446E+01  0.30809786584E+02 -0.25268510467E+02  0.40306838985E+02  0.41800000000E+01 0.  1.
        -11    1    3    3    0    0  0.42977425541E+02  0.22047567862E+02 -0.11363563950E+03  0.12347555596E+03  0.00000000000E+00 0.  1.
         11    1    3    3    0    0 -0.30885418891E+02  0.61481527582E+02 -0.90662073806E+02  0.11381343928E+03  0.00000000000E+00 0. -1.
</event>
<event>
 7    1  0.5137842E-006  0.1682097E+03  0.7561462E-02  0.1179728E+00
          2   -1    0    0  501    0  0.00000000000E+00  0.00000000000E+00  0.14391936992E+04  0.14391936992E+04  0.00000000000E+00 0. -1.
         -2   -1    0    0    0  501 -0.00000000000E+00 -0.00000000000E+00 -0.21105654460E+02  0.21105654460E+02  0.00000000000E+00 0.  1.
         23    2    1    2    0    0 -0.10944982046E+03 -0.80323898657E+02  0.57662024190E+03  0.59882010846E+03  0.87541002054E+02 0.  0.
          5    1    1    2  502    0 -0.96889998616E+01  0.53367395749E+02  0.15632211478E+03  0.16551746620E+03  0.41800000000E+01 0.  1.
         -5    1    1    2    0  502  0.11913882032E+03  0.26956502908E+02  0.68514568805E+03  0.69596177899E+03  0.41800000000E+01 0.  1.
        -11    1    3    3    0    0 -0.64849023301E+02 -0.93047932680E+02  0.36677340299E+03  0.38390889901E+03  0.00000000000E+00 0.  1.
         11    1    3    3    0    0 -0.44600797154E+02  0.12724034023E+02  0.20984683891E+03  0.21491120945E+03  0.00000000000E+00 0. -1.
</event>
<event>
 7    1  0.5137842E-006  0.1271162E+03  0.7561462E-02  0.1231799E+00
          4   -1    0    0  501    0  0.00000000000E+00  0.00000000000E+00  0.38227021541E+02  0.38227021541E+02  0.00000000000E+00 0. -1.
         -4   -1    0    0    0  501 -0.00000000000E+00 -0.00000000000E+00 -0.69915506024E+03  0.69915506024E+03  0.00000000000E+00 0.  1.
         23    2    1    2    0    0  0.11254981716E+03  0.25001229908E+01 -0.41347903273E+03  0.43812911534E+03  0.91205807066E+02 0.  0.
          5    1    1    2  502    0 -0.82190406227E+02  0.48698036001E+01 -0.44136889391E+02  0.93512112948E+02  0.41800000000E+01 0.  1.
         -5    1    1    2    0  502 -0.30359410930E+02 -0.73699265909E+01 -0.20331211658E+03  0.20574085349E+03  0.41800000000E+01 0.  1.
        -11    1    3    3    0    0  0.28254392849E+02  0.39210735521E+02 -0.19879412270E+03  0.20458469082E+03  0.00000000000E+00 0.  1.
         11    1    3    3    0    0  0.84295424308E+02 -0.36710612531E+02 -0.21468491003E+03  0.23354442452E+03  0.00000000000E+00 0. -1.
</event>
<event>
 7    1  0.5137842E-006  0.1212239E+03  0.7561462E-02  0.1241091E+00
         -1   -1    0    0    0  501 -0.00000000000E+00  0.00000000000E+00  0.28990627220E+03  0.28990627220E+03  0.00000000000E+00 0.  1.
          1   -1    0    0  501    0  0.00000000000E+00 -0.00000000000E+00 -0.64431439621E+02  0.64431439621E+02  0.00000000000E+00 0. -1.
         23    2    1    2    0    0 -0.57610036580E+02  0.16373401240E+02  0.26524295945E+02  0.11182753928E+03  0.90635841047E+02 0.  0.
          5    1    1    2  502    0  0.64990895846E+02  0.40426756328E+02  0.14344567782E+03  0.16264155082E+03  0.41800000000E+01 0. -1.
         -5    1    1    2    0  502 -0.73808592658E+01 -0.56800157568E+02  0.55504858820E+02  0.79868621723E+02  0.41800000000E+01 0. -1.
        -11    1    3    3    0    0 -0.35567858086E+02  0.54056845191E+02  0.11953169696E+02  0.65803444489E+02  0.00000000000E+00 0. -1.
         11    1    3    3    0    0 -0.22042178494E+02 -0.37683443952E+02  0.14571126250E+02  0.46024094787E+02  0.00000000000E+00 0.  1.
</event>
<event>
 7    1  0.5137842E-006  0.1098165E+03  0.7561462E-02  0.1260910E+00
         -2   -1    0    0    0  501 -0.00000000000E+00  0.00000000000E+00  0.74651456684E+02  0.74651456684E+02  0.00000000000E+00 0.  1.
          2   -1    0    0  501    0  0.00000000000E+00 -0.00000000000E+00 -0.22736838390E+03  0.22736838390E+03  0.00000000000E+00 0. -1.
         23    2    1    2    0    0  0.54035886076E+02 -0.24263391632E+02 -0.11220509531E+03  0.15780949691E+03  0.93836372179E+02 0.  0.
          5    1    1    2  502    0 -0.29846389580E+02 -0.36348624523E+02 -0.59646823436E+02  0.76073947062E+02  0.41800000000E+01 0. -1.
         -5    1    1    2    0  502 -0.24189496495E+02  0.60612016155E+02  0.19134991526E+02  0.68136396615E+02  0.41800000000E+01 0. -1.
        -11    1    3    3    0    0  0.18045424647E+02  0.34026492971E+02 -0.21399165541E+02  0.44060910799E+02  0.00000000000E+00 0. -1.
         11    1    3    3    0    0  0.35990461429E+02 -0.58289884603E+02 -0.90805929767E+02  0.11374858611E+03  0.00000000000E+00 0.  1.
</event>
<event>
 7    1  0.5137842E-006  0.4650263E+03  0.7561462E-02  0.1023333E+00
         -1   -1    0    0    0  501 -0.00000000000E+00  0.00000000000E+00  0.63798749578E+03  0.63798749578E+03  0.00000000000E+00 0.  1.
          1   -1    0    0  501    0  0.00000000000E+00 -0.00000000000E+00 -0.43774290135E+03  0.43774290135E+03  0.00000000000E+00 0. -1.
         23    2    1    2    0    0  0.28690112458E+03  0.36172595438E+03 -0.11943114973E+02  0.47004327102E+03  0.87407764434E+02 0.  0.
          5    1    1    2  502    0 -0.16952348539E+03 -0.16058258185E+03 -0.66165543848E+02  0.24273510105E+03  0.41800000000E+01 0. -1.
         -5    1    1    2    0  502 -0.11737763919E+03 -0.20114337253E+03  0.27835325325E+03  0.36295202505E+03  0.41800000000E+01 0.  1.
        -11    1    3    3    0    0  0.19047315042E+02  0.44473164944E+02 -0.25355345436E+02  0.54621938382E+02  0.00000000000E+00 0.  1.
         11    1    3    3    0    0  0.26785380954E+03  0.31725278943E+03  0.13412230463E+02  0.41542133264E+03  0.00000000000E+00 0. -1.
</event>
<event>
 7    1  0.5137842E-006  0.8536003E+02  0.7561462E-02  0.1314494E+00
          2   -1    0    0  501    0  0.00000000000E+00  0.00000000000E+00  0.12670871033E+02  0.12670871033E+02  0.00000000000E+00 0. -1.
         -2   -1    0    0    0  501 -0.00000000000E+00 -0.00000000000E+00 -0.15136521408E+04  0.15136521408E+04  0.00000000000E+00 0.  1.
         23    2    1    2    0    0  0.16234490213E+02 -0.45541956336E+02 -0.27762658223E+03  0.29563963766E+03  0.89379235479E+02 0.  0.
          5    1    1    2  502    0 -0.32075565191E+02  0.41835609002E+02 -0.12035644757E+04  0.12047256864E+04  0.41800000000E+01 0.  1.
         -5    1    1    2    0  502  0.15841074979E+02  0.37063473338E+01 -0.19790211873E+02  0.25957687744E+02  0.41800000000E+01 0.  1.
        -11    1    3    3    0    0  0.51131210595E+01  0.27086819292E+02 -0.62412869986E+02  0.68229070976E+02  0.00000000000E+00 0. -1.
         11    1    3    3    0    0  0.11121369153E+02 -0.72628775628E+02 -0.21521371224E+03  0.22741056668E+03  0.00000000000E+00 0.  1.
</event>
<event>
 7    1  0.5137842E-006  0.8213707E+02  0.7561462E-02  0.1323094E+00
          2   -1    0    0  501    0  0.00000000000E+00  0.00000000000E+00  0.15750342976E+03  0.15750342976E+03  0.00000000000E+00 0. -1.
         -2   -1    0    0    0  501 -0.00000000000E+00 -0.00000000000E+00 -0.99466649316E+02  0.99466649316E+02  0.00000000000E+00 0.  1.
         23    2    1    2    0    0 -0.57585695426E+02 -0.33792297153E+01  0.40762957204E+01  0.10903302719E+03  0.92434048488E+02 0.  0.
          5    1    1    2  502    0  0.25658754176E+02 -0.40993392645E+02 -0.22782784476E+02  0.53622360773E+02  0.41800000000E+01 0.  1.
         -5    1    1    2    0  502  0.31926941250E+02  0.44372622360E+02  0.76743269204E+02  0.94314691119E+02  0.41800000000E+01 0.  1.
        -11    1    3    3    0    0 -0.25104104723E+02  0.82226362649E+01  0.47032396546E+02  0.53943249308E+02  0.00000000000E+00 0. -1.
         11    1    3    3    0    0 -0.32481590703E+02 -0.11601865980E+02 -0.42956100825E+02  0.55089777880E+02  0.00000000000E+00 0.  1.
</event>
<event>
 7    1  0.5137842E-006  0.1061372E+03  0.7561462E-02  0.1267895E+00
         -1   -1    0    0    0  501 -0.00000000000E+00  0.00000000000E+00  0.27099360584E+03  0.27099360584E+03  0.00000000000E+00 0.  1.
          1   -1    0    0  501    0  0.00000000000E+00 -0.00000000000E+00 -0.76343205936E+02  0.76343205936E+02  0.00000000000E+00 0. -1.
         23    2    1    2    0    0  0.49667151190E+02  0.23979062472E+02 -0.68698055638E+01  0.10382653016E+03  0.87697963446E+02 0.  0.
          5    1    1    2  502    0 -0.50429595953E+01 -0.61838304211E+02  0.15993196775E+03  0.17159578671E+03  0.41800000000E+01 0.  1.
         -5    1    1    2    0  502 -0.44624191595E+02  0.37859241739E+02  0.41588237719E+02  0.71914494903E+02  0.41800000000E+01 0.  1.
        -11    1    3    3    0    0  0.29828035558E+01 -0.24171101635E+02  0.20063390450E+02  0.31554380166E+02  0.00000000000E+00 0.  1.
         11    1    3    3    0    0  0.46684347634E+02  0.48150164107E+02 -0.26933196014E+02  0.72272149996E+02  0.00000000000E+00 0. -1.
</event>
<event>
 7    1  0.5137842E-006  0.1272538E+03  0.7561462E-02  0.1231588E+00
          1   -1    0    0  501    0  0.00000000000E+00  0.00000000000E+00  0.85456715775E+02  0.85456715775E+02  0.00000000000E+00 0. -1.
         -1   -1    0    0    0  501 -0.00000000000E+00 -0.00000000000E+00 -0.27030467639E+03  0.27030467639E+03  0.00000000000E+00 0.  1.
         23    2    1    2    0    0 -0.89812265278E+02 -0.38593957036E+02 -0.49384410201E+02  0.14745464633E+03  0.98733561871E+02 0.  0.
          5    1    1    2  502    0  0.36525501587E+01  0.37247477948E+02  0.10196819850E+02  0.39014910883E+02  0.41800000000E+01 0. -1.
         -5    1    1    2    0  502  0.86159715120E+02  0.13464790873E+01 -0.14566037026E+03  0.16929183495E+03  0.41800000000E+01 0. -1.
        -11    1    3    3    0    0 -0.40520739327E+02 -0.63518204319E+02 -0.31248035567E+01  0.75407274137E+02  0.00000000000E+00 0. -1.
         11    1    3    3    0    0 -0.49291525951E+02  0.24924247283E+02 -0.46259606644E+02  0.72047372194E+02  0.00000000000E+00 0.  1.
</event>
<event>
 7    1  0.5137842E-006  0.9660955E+02  0.7561462E-02  0.1287592E+00
         -1   -1    0    0    0  501 -0.00000000000E+00  0.00000000000E+00  0.36401137323E+03  0.36401137323E+03  0.00000000000E+00 0.  1.
          1   -1    0    0  501    0  0.00000000000E+00 -0.00000000000E+00 -0.47070676952E+02  0.47070676952E+02  0.00000000000E+00 0. -1.
         23    2    1    2    0    0  0.15988940180E+02  0.67692470061E+02  0.11037331425E+03  0.15977385834E+03  0.92236113306E+02 0.  0.
          5    1    1    2  502    0 -0.40005698177E+02 -0.46510883914E+02  0.21001317123E+03  0.21883035141E+03  0.41800000000E+01 0. -1.
         -5    1    1    2    0  502  0.24016757997E+02 -0.21181586147E+02 -0.34457891974E+01  0.32477840439E+02  0.41800000000E+01 0. -1.
        -11    1    3    3    0    0  0.44067277329E+02  0.34556747251E+02  0.10078100119E+03  0.11529485640E+03  0.00000000000E+00 0.  1.
         11    1    3    3    0    0 -0.28078337149E+02  0.33135722811E+02  0.95923130601E+01  0.44479001934E+02  0.00000000000E+00 0. -1.
</event>
<event>
 7    1  0.5137842E-006  0.1009646E+03  0.7561462E-02  0.1278280E+00
          2   -1    0    0  501    0  0.00000000000E+00  0.00000000000E+00  0.60183848470E+02  0.60183848470E+02  0.00000000000E+00 0. -1.
         -2   -1    0    0    0  501 -0.00000000000E+00 -0.00000000000E+00 -0.28350541464E+03  0.28350541464E+03  0.00000000000E+00 0.  1.
         23    2    1    2    0    0 -0.26816654190E+02 -0.58023288035E+02 -0.57808887207E+02  0.12659745095E+03  0.92731937600E+02 0.  0.
          5    1    1    2  502    0 -0.36977407203E+02  0.47562610270E+01 -0.11209970441E+03  0.11821068814E+03  0.41800000000E+01 0. -1.
         -5    1    1    2    0  502  0.63794061394E+02  0.53267027008E+02 -0.53412974549E+02  0.98881124010E+02  0.41800000000E+01 0. -1.
        -11    1    3    3    0    0  0.14196793293E+02 -0.72807384046E+01  0.19656474186E+02  0.25316695459E+02  0.00000000000E+00 0. -1.
         11    1    3    3    0    0 -0.41013447484E+02 -0.50742549630E+02 -0.77465361393E+02  0.10128075549E+03  0.00000000000E+00 0.  1.
</event>
<event>
 7    1  0.5137842E-006  0.1536318E+03  0.7561462E-02  0.1196080E+00
          2   -1    0    0  501    0  0.00000000000E+00  0.00000000000E+00  0.26545068532E+03  0.26545068532E+03  0.00000000000E+00 0. -1.
         -2   -1    0    0    0  501 -0.00000000000E+00 -0.00000000000E+00 -0.11400657841E+03  0.11400657841E+03  0.00000000000E+00 0.  1.
         23    2    1    2    0    0  0.13084882179E+03  0.26849491488E+02  0.93050817231E+02  0.18736993863E+03  0.92772463365E+02 0.  0.
          5    1    1    2  502    0  0.27742978532E+01 -0.21956049382E+02 -0.25623567996E+02  0.34114578553E+02  0.41800000000E+01 0. -1.
         -5    1    1    2    0  502 -0.13362311964E+03 -0.48934421060E+01  0.84016857671E+02  0.15797274654E+03  0.41800000000E+01 0. -1.
        -11    1    3    3    0    0  0.94816210250E+02  0.50926386699E+02  0.31590806530E+02  0.11216768539E+03  0.00000000000E+00 0.  1.
         11    1    3    3    0    0  0.36032611537E+02 -0.24076895211E+02  0.61460010700E+02  0.75202253240E+02  0.00000000000E+00 0. -1.
</event>
<event>
 7    1  0.5137842E-006  0.1384415E+03  0.7561462E-02  0.1215442E+00
         -1   -1    0    0    0  501 -0.00000000000E+00  0.00000000000E+00  0.16655532375E+03  0.16655532375E+03  0.00000000000E+00 0.  1.
          1   -1    0    0  501    0  0.00000000000E+00 -0.00000000000E+00 -0.41756548499E+03  0.41756548499E+03  0.00000000000E+00 0. -1.
         23    2    1    2    0    0  0.28003602312E+02 -0.38475064914E+02 -0.32377836676E+03  0.33973143145E+03  0.91216678146E+02 0.  0.
          5    1    1    2  502    0 -0.86663005916E+02  0.66462684142E+02 -0.38152119442E+02  0.11576191773E+03  0.41800000000E+01 0. -1.
         -5    1    1    2    0  502  0.58659403604E+02 -0.27987619228E+02  0.11092032497E+03  0.12862745956E+03  0.41800000000E+01 0.  1.
        -11    1    3    3    0    0  0.10481843338E+02 -0.67634283930E+02 -0.20132910464E+03  0.21264447742E+03  0.00000000000E+00 0.  1.
         11    1    3    3    0    0  0.17521758974E+02  0.29159219015E+02 -0.12244926212E+03  0.12708695403E+03  0.00000000000E+00 0. -1.
</event>
<event>
 7    1  0.5137842E-006  0.1411862E+03  0.7561462E-02  0.1211742E+00
         -1   -1    0    0    0  501 -0.00000000000E+00  0.00000000000E+00  0.40312926874E+02  0.40312926874E+02  0.00000000000E+00 0.  1.
          1   -1    0    0  501    0  0.00000000000E+00 -0.00000000000E+00 -0.65356209714E+03  0.65356209714E+03  0.00000000000E+00 0. -1.
         23    2    1    2    0    0 -0.20683393516E+02  0.11076732755E+03 -0.38074630490E+03  0.40681701268E+03  0.88516266836E+02 0.  0.
          5    1    1    2  502    0  0.54625041449E+02 -0.37981550922E+02 -0.38345351301E+02  0.76904692510E+02  0.41800000000E+01 0.  1.
         -5    1    1    2    0  502 -0.33941647932E+02 -0.72785776623E+02 -0.19415751406E+03  0.21015331882E+03  0.41800000000E+01 0.  1.
        -11    1    3    3    0    0 -0.49079994317E+02  0.65393416326E+02 -0.16008592246E+03  0.17975718987E+03  0.00000000000E+00 0.  1.
         11    1    3    3    0    0  0.28396600801E+02  0.45373911220E+02 -0.22066038244E+03  0.22705982281E+03  0.00000000000E+00 0. -1.
</event>
<event>
 7    1  0.5137842E-006  0.1189390E+03  0.7561462E-02  0.1244858E+00
          1   -1    0    0  501    0  0.00000000000E+00  0.00000000000E+00  0.84595989506E+03  0.84595989506E+03  0.00000000000E+00 0. -1.
         -1   -1    0    0    0  501 -0.00000000000E+00 -0.00000000000E+00 -0.18085214623E+02  0.18085214623E+02  0.00000000000E+00 0.  1.
         23    2    1    2    0    0 -0.29472029186E+02 -0.49081679720E+02  0.42930860201E+03  0.44240576580E+03  0.90218479625E+02 0.  0.
          5    1    1    2  502    0 -0.27173087850E+02  0.66963841898E+02  0.15767795628E+03  0.17350026836E+03  0.41800000000E+01 0. -1.
         -5    1    1    2    0  502  0.56645117036E+02 -0.17882162178E+02  0.24088812214E+03  0.24813907552E+03  0.41800000000E+01 0. -1.
        -11    1    3    3    0    0 -0.57809546877E+02 -0.11612618763E+02  0.20993768988E+03  0.21806107002E+03  0.00000000000E+00 0.  1.
         11    1    3    3    0    0  0.28337517691E+02 -0.37469060957E+02  0.21937091213E+03  0.22434469579E+03  0.00000000000E+00 0. -1.
</event>
<event>
 7    1  0.5137842E-006  0.3150300E+03  0.7561462E-02  0.1077960E+00
          1   -1    0    0  501    0  0.00000000000E+00  0.00000000000E+00  0.52274102540E+03  0.52274102540E+03  0.00000000000E+00 0. -1.
         -1   -1    0    0    0  501 -0.00000000000E+00 -0.00000000000E+00 -0.21100101286E+03  0.21100101286E+03  0.00000000000E+00 0.  1.
         23    2    1    2    0    0 -0.10053516264E+03  0.28605551783E+03  0.24185574538E+03  0.39838531722E+03  0.91003193357E+02 0.  0.
          5    1    1    2  502    0  0.82132517998E+02 -0.72941966342E+02  0.49127954825E+02  0.12040477280E+03  0.41800000000E+01 0. -1.
         -5    1    1    2    0  502  0.18402644640E+02 -0.21311355148E+03  0.20756312339E+02  0.21495194825E+03  0.41800000000E+01 0. -1.
        -11    1    3    3    0    0 -0.31942780603E+02  0.42556757706E+02  0.78697385368E+01  0.53789884214E+02  0.00000000000E+00 0.  1.
         11    1    3    3    0    0 -0.68592382035E+02  0.24349876012E+03  0.23398600684E+03  0.34459543301E+03  0.00000000000E+00 0. -1.
</event>
<event>
 7    1  0.5137842E-006  0.2130100E+03  0.7561462E-02  0.1139204E+00
         -1   -1    0    0    0  501 -0.00000000000E+00  0.00000000000E+00  0.25502664494E+03  0.25502664494E+03  0.00000000000E+00 0.  1.
          1   -1    0    0  501    0  0.00000000000E+00 -0.00000000000E+00 -0.20190267205E+03  0.20190267205E+03  0.00000000000E+00 0. -1.
         23    2    1    2    0    0 -0.14998568533E+03 -0.10881829597E+03 -0.48069944553E+02  0.21152196508E+03  0.89964964275E+02 0.  0.
          5    1    1    2  502    0  0.60227355746E+02  0.11522748686E+03  0.38528499758E+02  0.13567102049E+03  0.41800000000E+01 0. -1.
         -5    1    1    2    0  502  0.89758329588E+02 -0.64091908851E+01  0.62665417690E+02  0.10973633142E+03  0.41800000000E+01 0. -1.
        -11    1    3    3    0    0 -0.79528852912E+02 -0.40975275323E+01 -0.14852151177E+02  0.81007497011E+02  0.00000000000E+00 0.  1.
         11    1    3    3    0    0 -0.70456832423E+02 -0.10472076844E+03 -0.33217793375E+02  0.13051446807E+03  0.00000000000E+00 0. -1.
</event>
<event>
 7    1  0.5137842E-006  0.1629190E+03  0.7561462E-02  0.1185440E+00
          1   -1    0    0  501    0  0.00000000000E+00  0.00000000000E+00  0.10309728199E+03  0.10309728199E+03  0.00000000000E+00 0. -1.
         -1   -1    0    0    0  501 -0.00000000000E+00 -0.00000000000E+00 -0.39063802696E+03  0.39063802696E+03  0.00000000000E+00 0.  1.
         23    2    1    2    0    0 -0.10247538057E+03  0.85227299042E+02 -0.11364167648E+02  0.16254591755E+03  0.92342486868E+02 0.  0.
          5    1    1    2  502    0  0.84156983398E+02  0.46672647397E+01 -0.88720144212E+02  0.12244556996E+03  0.41800000000E+01 0. -1.
         -5    1    1    2    0  502  0.18318397168E+02 -0.89894563782E+02 -0.18745643311E+03  0.20874382144E+03  0.41800000000E+01 0. -1.
        -11    1    3    3    0    0 -0.60581262075E+02  0.71470559067E+01  0.26089150384E+02  0.66346164098E+02  0.00000000000E+00 0. -1.
         11    1    3    3    0    0 -0.41894118491E+02  0.78080243136E+02 -0.37453318032E+02  0.96199753450E+02  0.00000000000E+00 0.  1.
</event>
<event>
 7    1  0.5137842E-006  0.1234299E+03  0.7561462E-02  0.1237544E+00
         -2   -1    0    0    0  501 -0.00000000000E+00  0.00000000000E+00  0.12830143288E+03  0.12830143288E+03  0.00000000000E+00 0.  1.
          2   -1    0    0  501    0  0.00000000000E+00 -0.00000000000E+00 -0.16887628501E+03  0.16887628501E+03  0.00000000000E+00 0. -1.
         23    2    1    2    0    0  0.71156927606E+02 -0.60522282158E+02 -0.52261288449E+02  0.14062282456E+03  0.91199131208E+02 0.  0.
          5    1    1    2  502    0  0.15489465298E+02 -0.23309406008E+02  0.21475153506E+02  0.35523324194E+02  0.41800000000E+01 0.  1.
         -5    1    1    2    0  502 -0.86646392904E+02  0.83831688166E+02 -0.97887171890E+01  0.12103156914E+03  0.41800000000E+01 0.  1.
        -11    1    3    3    0    0  0.57627159337E+02 -0.30961842334E+02 -0.76067775528E+02  0.10032861829E+03  0.00000000000E+00 0. -1.
         11    1    3    3    0    0  0.13529768268E+02 -0.29560439824E+02  0.23806487079E+02  0.40294206271E+02  0.00000000000E+00 0.  1.
</event>
<event>
 7    1  0.5137842E-006  0.1649555E+03  0.7561462E-02  0.1183213E+00
          1   -1    0    0  501    0  0.00000000000E+00  0.00000000000E+00  0.43481422076E+02  0.43481422076E+02  0.00000000000E+00 0. -1.
         -1   -1    0    0    0  501 -0.00000000000E+00 -0.00000000000E+00 -0.77326302302E+03  0.77326302302E+03  0.00000000000E+00 0.  1.
         23    2    1    2    0    0 -0.17862663688E+02 -0.10527787054E+03 -0.14777008190E+03  0.20459055261E+03  0.92837451135E+02 0.  0.
          5    1    1    2  502    0 -0.65774607277E+02  0.74591103760E+02 -0.27546964445E+03  0.29290122761E+03  0.41800000000E+01 0. -1.
         -5    1    1    2    0  502  0.83637270966E+02  0.30686766779E+02 -0.30654187459E+03  0.31925266487E+03  0.41800000000E+01 0.  1.
        -11    1    3    3    0    0 -0.18152382975E+01 -0.11963843127E+03 -0.12988050582E+03  0.17659443683E+03  0.00000000000E+00 0. -1.
         11    1    3    3    0    0 -0.16047425391E+02  0.14360560736E+02 -0.17889576078E+02  0.27996115777E+02  0.00000000000E+00 0.  1.
</event>
<event>
 7    1  0.5137842E-006  0.8529773E+02  0.7561462E-02  0.1314656E+00
         -2   -1    0    0    0  501 -0.00000000000E+00  0.00000000000E+00  0.56213315030E+02  0.56213315030E+02  0.00000000000E+00 0.  1.
          2   -1    0    0  501    0  0.00000000000E+00 -0.00000000000E+00 -0.21447668214E+03  0.21447668214E+03  0.00000000000E+00 0. -1.
         23    2    1    2    0    0  0.87066491041E+01 -0.21004323742E+02 -0.74289437571E+02  0.11831982135E+03  0.89239409649E+02 0.  0.
          5    1    1    2  502    0 -0.46462652825E+02  0.84035046443E+01  0.11561123000E+02  0.48790664710E+02  0.41800000000E+01 0. -1.
         -5    1    1    2    0  502  0.37756003721E+02  0.12600819097E+02 -0.95535052542E+02  0.10357951112E+03  0.41800000000E+01 0. -1.
        -11    1    3    3    0    0  0.73782003695E+01  0.30637447574E+02 -0.50231652558E+01  0.31911177097E+02  0.00000000000E+00 0.  1.
         11    1    3    3    0    0  0.13284487346E+01 -0.51641771316E+02 -0.69266272316E+02  0.86408644250E+02  0.00000000000E+00 0. -1.
</event>
<event>
 7    1  0.5137842E-006  0.1214710E+03  0.7561462E-02  0.1240690E+00
          1   -1    0    0  501    0  0.00000000000E+00  0.00000000000E+00  0.30402066972E+03  0.30402066972E+03  0.00000000000E+00 0. -1.
         -1   -1    0    0    0  501 -0.00000000000E+00 -0.00000000000E+00 -0.67462920504E+02  0.67462920504E+02  0.00000000000E+00 0.  1.
         23    2    1    2    0    0 -0.41322308683E+02  0.79814809652E+02  0.13182657556E+03  0.18515607362E+03  0.93949925702E+02 0.  0.
          5    1    1    2  502    0  0.68624399778E+02 -0.86600750215E+02  0.43516674719E+02  0.11882832811E+03  0.41800000000E+01 0. -1.
         -5    1    1    2    0  502 -0.27302091095E+02  0.67859405633E+01  0.61214498930E+02  0.67499188490E+02  0.41800000000E+01 0. -1.
        -11    1    3    3    0    0 -0.31413725547E+02  0.93594128269E+01  0.10351605425E+03  0.10858173994E+03  0.00000000000E+00 0. -1.
         11    1    3    3    0    0 -0.99085831363E+01  0.70455396825E+02  0.28310521314E+02  0.76574333680E+02  0.00000000000E+00 0.  1.
</event>
<event>
 7    1  0.5137842E-006  0.1041169E+03  0.7561462E-02  0.1271869E+00
         -2   -1    0    0    0  501 -0.00000000000E+00  0.00000000000E+00  0.12194892741E+03  0.12194892741E+03  0.00000000000E+00 0.  1.
          2   -1    0    0  501    0  0.00000000000E+00 -0.00000000000E+00 -0.11795907724E+03  0.11795907724E+03  0.00000000000E+00 0. -1.
         23    2    1    2    0    0 -0.22045457559E+02  0.42328050079E+01 -0.49811266303E+02  0.10815702924E+03  0.93342712019E+02 0.  0.
          5    1    1    2  502    0  0.64714950492E+02  0.22385451932E+02  0.21756728123E+02  0.71971945187E+02  0.41800000000E+01 0. -1.
         -5    1    1    2    0  502 -0.42669492934E+02 -0.26618256940E+02  0.32044388350E+02  0.59779030223E+02  0.41800000000E+01 0.  1.
        -11    1    3    3    0    0 -0.24910289717E+02 -0.38760913371E+02 -0.45661911195E+02  0.64868644761E+02  0.00000000000E+00 0.  1.
         11    1    3    3    0    0  0.28648321584E+01  0.42993718379E+02 -0.41493551082E+01  0.43288384483E+02  0.00000000000E+00 0. -1.
</event>
<event>
 7    1  0.5137842E-006  0.1118866E+03  0.7561462E-02  0.1257116E+00
         -1   -1    0    0    0  501 -0.00000000000E+00  0.00000000000E+00  0.31918626635E+02  0.31918626635E+02  0.00000000000E+00 0.  1.
          1   -1    0    0  501    0  0.00000000000E+00 -0.00000000000E+00 -0.63265765858E+03  0.63265765858E+03  0.00000000000E+00 0. -1.
         23    2    1    2    0    0  0.55126942984E+02 -0.70654800832E+02 -0.32416578319E+03  0.34808240026E+03  0.89704078273E+02 0.  0.
          5    1    1    2  502    0 -0.53066622774E+02 -0.78404190241E+01 -0.19858374230E+03  0.20574380605E+03  0.41800000000E+01 0. -1.
         -5    1    1    2    0  502 -0.20603202099E+01  0.78495219856E+02 -0.77989506464E+02  0.11075007891E+03  0.41800000000E+01 0. -1.
        -11    1    3    3    0    0  0.17306227499E+02 -0.36410037802E+02 -0.31931619139E+02  0.51427858830E+02  0.00000000000E+00 0.  1.
         11    1    3    3    0    0  0.37820715485E+02 -0.34244763030E+02 -0.29223416405E+03  0.29665454143E+03  0.00000000000E+00 0. -1.
</event>
<event>
 7    1  0.5137842E-006  0.1718348E+03  0.7561462E-02  0.1175948E+00
         -1   -1    0    0    0  501 -0.00000000000E+00  0.00000000000E+00  0.12768507747E+03  0.12768507747E+03  0.00000000000E+00 0.  1.
          1   -1    0    0  501    0  0.00000000000E+00 -0.00000000000E+00 -0.28217980910E+03  0.28217980910E+03  0.00000000000E+00 0. -1.
         23    2    1    2    0    0  0.11924813249E+03  0.27582457009E+02 -0.13002924949E+03  0.20095840320E+03  0.92172474506E+02 0.  0.
          5    1    1    2  502    0 -0.24483985528E+02  0.58386558654E+02  0.29508602524E+02  0.69976323151E+02  0.41800000000E+01 0. -1.
         -5    1    1    2    0  502 -0.94764146965E+02 -0.85969015663E+02 -0.53974084661E+02  0.13893016022E+03  0.41800000000E+01 0.  1.
        -11    1    3    3    0    0  0.28142723886E+02  0.50898452814E+02 -0.38645390696E+02  0.69829303510E+02  0.00000000000E+00 0.  1.
         11    1    3    3    0    0  0.91105408607E+02 -0.23315995805E+02 -0.91383858796E+02  0.13112909969E+03  0.00000000000E+00 0. -1.
</event>
<event>
 7    1  0.5137842E-006  0.1331509E+03  0.7561462E-02  0.1222854E+00
          3   -1    0    0  501    0  0.00000000000E+00  0.00000000000E+00  0.48085788372E+03  0.48085788372E+03  0.00000000000E+00 0. -1.
         -3   -1    0    0    0  501 -0.00000000000E+00 -0.00000000000E+00 -0.55364869953E+02  0.55364869953E+02  0.00000000000E+00 0.  1.
         23    2    1    2    0    0 -0.89978607786E+02  0.77937347076E+02  0.23112590668E+03  0.27623044542E+03  0.93347170869E+02 0.  0.
          5    1    1    2  502    0 -0.36905512970E+01 -0.24978963098E-01  0.11364314304E+03  0.11377986268E+03  0.41800000000E+01 0.  1.
         -5    1    1    2    0  502  0.93669159083E+02 -0.77912368113E+02  0.80723964050E+02  0.14621244557E+03  0.41800000000E+01 0.  1.
        -11    1    3    3    0    0 -0.83003407274E+02  0.26824286176E+02  0.87208584314E+02  0.12334684887E+03  0.00000000000E+00 0.  1.
         11    1    3    3    0    0 -0.69752005119E+01  0.51113060900E+02  0.14391732237E+03  0.15288359655E+03  0.00000000000E+00 0. -1.
</event>
<event>
 7    1  0.5137842E-006  0.1288759E+03  0.7561462E-02  0.1229133E+00
         -1   -1    0    0    0  501 -0.00000000000E+00  0.00000000000E+00  0.46631093340E+03  0.46631093340E+03  0.00000000000E+00 0.  1.
          1   -1    0    0  501    0  0.00000000000E+00 -0.00000000000E+00 -0.56594349407E+02  0.56594349407E+02  0.00000000000E+00 0. -1.
         23    2    1    2    0    0 -0.15158067020E+02  0.80260661434E+02  0.47297239662E+02  0.13090129003E+03  0.90700485574E+02 0.  0.
          5    1    1    2  502    0  0.60443887469E+02 -0.63558608516E+02  0.30228748556E+03  0.31478303095E+03  0.41800000000E+01 0. -1.
         -5    1    1    2    0  502 -0.45285820449E+02 -0.16702052918E+02  0.60131858771E+02  0.77220961822E+02  0.41800000000E+01 0. -1.
        -11    1    3    3    0    0  0.34288853460E+02  0.57752282789E+02  0.32377288529E+02  0.74560984781E+02  0.00000000000E+00 0.  1.
         11    1    3    3    0    0 -0.49446920480E+02  0.22508378644E+02  0.14919951133E+02  0.56340305253E+02  0.00000000000E+00 0. -1.
</event>
<event>
 7    1  0.5137842E-006  0.8343726E+02  0.7561462E-02  0.1319571E+00
          2   -1    0    0  501    0  0.00000000000E+00  0.00000000000E+00  0.67818894065E+02  0.67818894065E+02  0.00000000000E+00 0. -1.
         -2   -1    0    0    0  501 -0.00000000000E+00 -0.00000000000E+00 -0.19801325271E+03  0.19801325271E+03  0.00000000000E+00 0.  1.
         23    2    1    2    0    0  0.21158097748E+02  0.18109642440E+02 -0.21735454323E+02  0.97943204218E+02  0.91349970051E+02 0.  0.
          5    1    1    2  502    0  0.38927890946E+02 -0.19333068306E+02  0.17918457307E+00  0.43665234807E+02  0.41800000000E+01 0.  1.
         -5    1    1    2    0  502 -0.60085988694E+02  0.12234258664E+01 -0.10863808889E+03  0.12422370775E+03  0.41800000000E+01 0.  1.
        -11    1    3    3    0    0  0.30869599701E+02  0.33000555081E+02  0.22346323462E+02  0.50411575988E+02  0.00000000000E+00 0. -1.
         11    1    3    3    0    0 -0.97115019531E+01 -0.14890912642E+02 -0.44081777785E+02  0.47531628230E+02  0.00000000000E+00 0.  1.
</event>
<event>
 7    1  0.5137842E-006  0.1609826E+03  0.7561462E-02  0.1187592E+00
         -1   -1    0    0    0  501 -0.00000000000E+00  0.00000000000E+00  0.35672549906E+03  0.35672549906E+03  0.00000000000E+00 0.  1.
          1   -1    0    0  501    0  0.00000000000E+00 -0.00000000000E+00 -0.10163156126E+03  0.10163156126E+03  0.00000000000E+00 0. -1.
         23    2    1    2    0    0 -0.14863531025E+03  0.45640676901E+02  0.11074897331E+03  0.21206206853E+03  0.92355070111E+02 0.  0.
          5    1    1    2  502    0  0.29630119358E+02 -0.30348400917E+01 -0.22048689077E+02  0.37293046504E+02  0.41800000000E+01 0. -1.
         -5    1    1    2    0  502  0.11900519090E+03 -0.42605836809E+02  0.16639365356E+03  0.20900194529E+03  0.41800000000E+01 0. -1.
        -11    1    3    3    0    0 -0.10771161864E+03  0.51303348207E+01  0.11061432275E+03  0.15447861186E+03  0.00000000000E+00 0.  1.
         11    1    3    3    0    0 -0.40923691612E+02  0.40510342080E+02  0.13465056640E+00  0.57583456664E+02  0.00000000000E+00 0. -1.
</event>
<event>
 7    1  0.5137842E-006  0.9218013E+02  0.7561462E-02  0.1297656E+00
          1   -1    0    0  501    0  0.00000000000E+00  0.00000000000E+00  0.22443357669E+03  0.22443357669E+03  0.00000000000E+00 0. -1.
         -1   -1    0    0    0  501 -0.00000000000E+00 -0.00000000000E+00 -0.67486790274E+02  0.67486790274E+02  0.00000000000E+00 0.  1.
         23    2    1    2    0    0  0.14090324320E+02 -0.51592592771E+02  0.42641795678E+02  0.11425249354E+03  0.91514898637E+02 0.  0.
          5    1    1    2  502    0  0.47188823608E+02  0.36491641480E+02  0.93681101925E+02  0.11113975989E+03  0.41800000000E+01 0. -1.
         -5    1    1    2    0  502 -0.61279147928E+02  0.15100951291E+02  0.20623888817E+02  0.66528113536E+02  0.41800000000E+01 0. -1.
        -11    1    3    3    0    0  0.19016744620E+02 -0.14556386723E+02 -0.26465183063E+02  0.35692168398E+02  0.00000000000E+00 0.  1.
         11    1    3    3    0    0 -0.49264202996E+01 -0.37036206048E+02  0.69106978741E+02  0.78560325140E+02  0.00000000000E+00 0. -1.
</event>
<event>
 7    1  0.5137842E-006  0.1604498E+03  0.7561462E-02  0.1188190E+00
         -1   -1    0    0    0  501 -0.00000000000E+00  0.00000000000E+00  0.40271667802E+03  0.40271667802E+03  0.00000000000E+00 0.  1.
          1   -1    0    0  501    0  0.00000000000E+00 -0.00000000000E+00 -0.82230191082E+02  0.82230191082E+02  0.00000000000E+00 0. -1.
         23    2    1    2    0    0  0.87054996156E+02  0.12082602229E+03  0.14483942926E+03  0.22288649465E+03  0.80761557756E+02 0.  0.
          5    1    1    2  502    0 -0.44022649769E+02 -0.84461272146E+02  0.18174997538E+03  0.20523699992E+03  0.41800000000E+01 0.  1.
         -5    1    1    2    0  502 -0.43032346388E+02 -0.36364750142E+02 -0.61029177045E+01  0.56823374531E+02  0.41800000000E+01 0.  1.
        -11    1    3    3    0    0  0.68522930574E+02  0.27361793896E+02  0.70276999926E+02  0.10189659709E+03  0.00000000000E+00 0. -1.
         11    1    3    3    0    0  0.18532065582E+02  0.93464228391E+02  0.74562429332E+02  0.12098989756E+03  0.00000000000E+00 0.  1.
</event>
<event>
 7    1  0.5137842E-006  0.1262238E+03  0.7561462E-02  0.1233169E+00
          2   -1    0    0  501    0  0.00000000000E+00  0.00000000000E+00  0.57405930571E+03  0.57405930571E+03  0.00000000000E+00 0. -1.
         -2   -1    0    0    0  501 -0.00000000000E+00 -0.00000000000E+00 -0.39542944650E+02  0.39542944650E+02  0.00000000000E+00 0.  1.
         23    2    1    2    0    0 -0.10357763438E+03 -0.11259803298E+01  0.26470625697E+03  0.29868131294E+03  0.91714393881E+02 0.  0.
          5    1    1    2  502    0  0.24181430232E+02 -0.24059014718E+02  0.19990980739E+01  0.34424505086E+02  0.41800000000E+01 0. -1.
         -5    1    1    2    0  502  0.79396204149E+02  0.25184995048E+02  0.26781100602E+03  0.28049643234E+03  0.41800000000E+01 0. -1.
        -11    1    3    3    0    0 -0.11720883765E+03  0.92167041567E+01  0.24940164198E+03  0.27572456960E+03  0.00000000000E+00 0. -1.
         11    1    3    3    0    0  0.13631203266E+02 -0.10342684487E+02  0.15304614991E+02  0.22956743342E+02  0.00000000000E+00 0.  1.
</event>
<event>
 7    1  0.5137842E-006  0.1119064E+03  0.7561462E-02  0.1257080E+00
         -2   -1    0    0    0  501 -0.00000000000E+00  0.00000000000E+00  0.11121432104E+03  0.11121432104E+03  0.00000000000E+00 0.  1.
          2   -1    0    0  501    0  0.00000000000E+00 -0.00000000000E+00 -0.42272971965E+03  0.42272971965E+03  0.00000000000E+00 0. -1.
         23    2    1    2    0    0 -0.42664250371E+02 -0.18392028629E+02 -0.37580830979E+03  0.39824461423E+03  0.12332226920E+03 0.  0.
          5    1    1    2  502    0 -0.15942243064E+02 -0.24373782037E+02 -0.10666090255E+02  0.31296553261E+02  0.41800000000E+01 0. -1.
         -5    1    1    2    0  502  0.58606493434E+02  0.42765810666E+02  0.74959001438E+02  0.10440287319E+03  0.41800000000E+01 0.  1.
        -11    1    3    3    0    0 -0.21220941578E+02  0.47714814526E+02 -0.89487748129E+02  0.10361027435E+03  0.00000000000E+00 0.  1.
         11    1    3    3    0    0 -0.21443308793E+02 -0.66106843155E+02 -0.28632056166E+03  0.29463433987E+03  0.00000000000E+00 0. -1.
</event>
<event>
 7    1  0.5137842E-006  0.1147877E+03  0.7561462E-02  0.1251952E+00
          1   -1    0    0  501    0  0.00000000000E+00  0.00000000000E+00  0.22704762985E+03  0.22704762985E+03  0.00000000000E+00 0. -1.
         -1   -1    0    0    0  501 -0.00000000000E+00 -0.00000000000E+00 -0.80194901686E+02  0.80194901686E+02  0.00000000000E+00 0.  1.
         23    2    1    2    0    0 -0.41117000392E+02 -0.32002173997E+02  0.13532042421E+03  0.17124497702E+03  0.91095982800E+02 0.  0.
          5    1    1    2  502    0  0.83578326241E+02  0.37097829638E+02  0.11675797002E+00  0.91537268987E+02  0.41800000000E+01 0. -1.
         -5    1    1    2    0  502 -0.42461325849E+02 -0.50956556413E+01  0.11415545975E+02  0.44460285528E+02  0.41800000000E+01 0. -1.
        -11    1    3    3    0    0 -0.19806458976E+02  0.26340124711E+02  0.15797974271E+02  0.36546873710E+02  0.00000000000E+00 0. -1.
         11    1    3    3    0    0 -0.21310541416E+02 -0.58342298708E+02  0.11952244994E+03  0.13469810331E+03  0.00000000000E+00 0.  1.
</event>
<event>
 7    1  0.5137842E-006  0.2385698E+03  0.7561462E-02  0.1120749E+00
          3   -1    0    0  501    0  0.00000000000E+00  0.00000000000E+00  0.32621837252E+03  0.32621837252E+03  0.00000000000E+00 0. -1.
         -3   -1    0    0    0  501 -0.00000000000E+00 -0.00000000000E+00 -0.19555002051E+03  0.19555002051E+03  0.00000000000E+00 0.  1.
         23    2    1    2    0    0 -0.21679786601E+03 -0.56391665884E+02  0.96217923006E+02  0.25994454698E+03  0.90177292638E+02 0.  0.
          5    1    1    2  502    0  0.13355378552E+03  0.81115774901E+02  0.65534701896E+02  0.16949528642E+03  0.41800000000E+01 0. -1.
         -5    1    1    2    0  502  0.83244080489E+02 -0.24724109017E+02 -0.31084272900E+02  0.92328559638E+02  0.41800000000E+01 0.  1.
        -11    1    3    3    0    0 -0.16262767323E+03 -0.71497948995E+02  0.99490060359E+02  0.20361234963E+03  0.00000000000E+00 0. -1.
         11    1    3    3    0    0 -0.54170192779E+02  0.15106283111E+02 -0.32721373530E+01  0.56332197348E+02  0.00000000000E+00 0.  1.
</event>
<event>
 7    1  0.5137842E-006  0.1313023E+03  0.7561462E-02  0.1225536E+00
         -2   -1    0    0    0  501 -0.00000000000E+00  0.00000000000E+00  0.17703393004E+03  0.17703393004E+03  0.00000000000E+00 0.  1.
          2   -1    0    0  501    0  0.00000000000E+00 -0.00000000000E+00 -0.10860604125E+03  0.10860604125E+03  0.00000000000E+00 0. -1.
         23    2    1    2    0    0 -0.39305528911E+02 -0.76251715297E+02  0.17920693237E+02  0.12576758546E+03  0.90205795925E+02 0.  0.
          5    1    1    2  502    0  0.13153722229E+02  0.10586139930E+03  0.54648358458E+02  0.11993152943E+03  0.41800000000E+01 0.  1.
         -5    1    1    2    0  502  0.26151806683E+02 -0.29609684002E+02 -0.41411629077E+01  0.39940856396E+02  0.41800000000E+01 0.  1.
        -11    1    3    3    0    0  0.20877787074E+02 -0.41928358624E+02  0.29741374870E+02  0.55483498711E+02  0.00000000000E+00 0.  1.
         11    1    3    3    0    0 -0.60183315986E+02 -0.34323356673E+02 -0.11820681634E+02  0.70284086752E+02  0.00000000000E+00 0. -1.
</event>
<event>
 7    1  0.5137842E-006  0.1065249E+03  0.7561462E-02  0.1267144E+00
         -2   -1    0    0    0  501 -0.00000000000E+00  0.00000000000E+00  0.19409269831E+03  0.19409269831E+03  0.00000000000E+00 0.  1.
          2   -1    0    0  501    0  0.00000000000E+00 -0.00000000000E+00 -0.94856020337E+02  0.94856020337E+02  0.00000000000E+00 0. -1.
         23    2    1    2    0    0  0.41750695600E+01  0.32759293891E+02  0.11384133305E+02  0.94038939098E+02  0.87310486389E+02 0.  0.
          5    1    1    2  502    0 -0.13566765645E+02  0.47863801370E+02 -0.25001491719E+02  0.55835003356E+02  0.41800000000E+01 0. -1.
         -5    1    1    2    0  502  0.93916960847E+01 -0.80623095261E+02  0.11285403639E+03  0.13907477619E+03  0.41800000000E+01 0.  1.
        -11    1    3    3    0    0 -0.12830894664E+02  0.53506267963E+02 -0.14351658791E+02  0.56864071954E+02  0.00000000000E+00 0. -1.
         11    1    3    3    0    0  0.17005964224E+02 -0.20746974072E+02  0.25735792096E+02  0.37174867143E+02  0.00000000000E+00 0.  1.
</event>
<event>
 7    1  0.5137842E-006  0.1025180E+03  0.7561462E-02  0.1275088E+00
          2   -1    0    0  501    0  0.00000000000E+00  0.00000000000E+00  0.53891789567E+03  0.53891789567E+03  0.00000000000E+00 0.  1.
         -2   -1    0    0    0  501 -0.00000000000E+00 -0.00000000000E+00 -0.22756246885E+02  0.22756246885E+02  0.00000000000E+00 0. -1.
         23    2    1    2    0    0 -0.17156478116E+02 -0.27645556857E+01  0.26305753383E+03  0.27880703548E+03  0.90730972762E+02 0.  0.
          5    1    1    2  502    0  0.20355207560E+02 -0.56848175062E+02  0.84376028510E+02  0.10384043562E+03  0.41800000000E+01 0. -1.
         -5    1    1    2    0  502 -0.31987294434E+01  0.59612730748E+02  0.16872808644E+03  0.17902667145E+03  0.41800000000E+01 0. -1.
        -11    1    3    3    0    0  0.26904108166E+02  0.21431931742E+02  0.16576433287E+03  0.16929551909E+03  0.00000000000E+00 0.  1.
         11    1    3    3    0    0 -0.44060586282E+02 -0.24196487427E+02  0.97293200965E+02  0.10951151639E+03  0.00000000000E+00 0. -1.
</event>
<event>
 7    1  0.5137842E-006  0.3319376E+03  0.7561462E-02  0.1070283E+00
         -1   -1    0    0    0  501 -0.00000000000E+00  0.00000000000E+00  0.22173429304E+03  0.22173429304E+03  0.00000000000E+00 0.  1.
          1   -1    0    0  501    0  0.00000000000E+00 -0.00000000000E+00 -0.51708774658E+03  0.51708774658E+03  0.00000000000E+00 0. -1.
         23    2    1    2    0    0  0.28773941960E+03  0.13069815719E+03 -0.19000735908E+03  0.38298248949E+03  0.10342537826E+03 0.  0.
          5    1    1    2  502    0 -0.15378926080E+03 -0.17322613220E+01 -0.44900061233E+02  0.16027359535E+03  0.41800000000E+01 0. -1.
         -5    1    1    2    0  502 -0.13395015880E+03 -0.12896589586E+03 -0.60446033218E+02  0.19556595478E+03  0.41800000000E+01 0. -1.
        -11    1    3    3    0    0  0.10998266362E+03  0.88913143950E+02 -0.12621805946E+03  0.18955930998E+03  0.00000000000E+00 0. -1.
         11    1    3    3    0    0  0.17775675598E+03  0.41785013235E+02 -0.63789299618E+02  0.19342317952E+03  0.00000000000E+00 0.  1.
</event>
<event>
 7    1  0.5137842E-006  0.1182612E+03  0.7561462E-02  0.1245993E+00
          2   -1    0    0  501    0  0.00000000000E+00  0.00000000000E+00  0.98536634241E+03  0.98536634241E+03  0.00000000000E+00 0.  1.
         -2   -1    0    0    0  501 -0.00000000000E+00 -0.00000000000E+00 -0.17736220530E+02  0.17736220530E+02  0.00000000000E+00 0. -1.
         23    2    1    2    0    0  0.58313284048E+02 -0.37517802072E+02  0.56789507814E+03  0.57855119414E+03  0.86073456400E+02 0.  0.
          5    1    1    2  502    0 -0.51469452471E+02  0.74189254507E+02  0.35413034298E+03  0.36548450342E+03  0.41800000000E+01 0.  1.
         -5    1    1    2    0  502 -0.68438315771E+01 -0.36671452435E+02  0.45604700767E+02  0.59066865385E+02  0.41800000000E+01 0.  1.
        -11    1    3    3    0    0  0.76969287717E+02 -0.13441100085E+02  0.45291482736E+03  0.45960502093E+03  0.00000000000E+00 0.  1.
         11    1    3    3    0    0 -0.18656003669E+02 -0.24076701987E+02  0.11498025078E+03  0.11894617320E+03  0.00000000000E+00 0. -1.
</event>
<event>
 7    1  0.5137842E-006  0.1654670E+03  0.7561462E-02  0.1182659E+00
         -1   -1    0    0    0  501 -0.00000000000E+00  0.00000000000E+00  0.22049618087E+03  0.22049618087E+03  0.00000000000E+00 0.  1.
          1   -1    0    0  501    0  0.00000000000E+00 -0.00000000000E+00 -0.16857270700E+03  0.16857270700E+03  0.00000000000E+00 0. -1.
         23    2    1    2    0    0 -0.12844910251E+03  0.33099758560E+02 -0.72969299970E+02  0.16806825345E+03  0.72990774259E+02 0.  0.
          5    1    1    2  502    0  0.85027588207E+02  0.41890339271E+02  0.55600906024E+02  0.10997010699E+03  0.41800000000E+01 0.  1.
         -5    1    1    2    0  502  0.43421514298E+02 -0.74990097831E+02  0.69291867822E+02  0.11103052744E+03  0.41800000000E+01 0.  1.
        -11    1    3    3    0    0 -0.90115207920E+02 -0.11096351857E+02 -0.57788680751E+02  0.10762625770E+03  0.00000000000E+00 0. -1.
         11    1    3    3    0    0 -0.38333894586E+02  0.44196110417E+02 -0.15180619219E+02  0.60441995748E+02  0.00000000000E+00 0.  1.
</event>
<event>
 7    1  0.5137842E-006  0.1034221E+03  0.7561462E-02  0.1273260E+00
         -1   -1    0    0    0  501 -0.00000000000E+00  0.00000000000E+00  0.17590740545E+03  0.17590740545E+03  0.00000000000E+00 0.  1.
          1   -1    0    0  501    0  0.00000000000E+00 -0.00000000000E+00 -0.14874395152E+03  0.14874395152E+03  0.00000000000E+00 0. -1.
         23    2    1    2    0    0 -0.81376865752E+02 -0.19987973470E-01 -0.75199626346E+02  0.14368706180E+03  0.91481108691E+02 0.  0.
          5    1    1    2  502    0  0.82986852306E+02  0.94439160914E+01  0.57878971838E+01  0.83827068186E+02  0.41800000000E+01 0.  1.
         -5    1    1    2    0  502 -0.16099865540E+01 -0.94239281179E+01  0.96575183085E+02  0.97137226982E+02  0.41800000000E+01 0.  1.
        -11    1    3    3    0    0  0.14434980719E+02 -0.82363490944E+01 -0.36356349268E+02  0.39974870192E+02  0.00000000000E+00 0. -1.
         11    1    3    3    0    0 -0.95811846471E+02  0.82163611210E+01 -0.38843277078E+02  0.10371219161E+03  0.00000000000E+00 0.  1.
</event>
<event>
 7    1  0.5137842E-006  0.1087853E+03  0.7561462E-02  0.1262836E+00
          2   -1    0    0  501    0  0.00000000000E+00  0.00000000000E+00  0.61542814081E+03  0.61542814081E+03  0.00000000000E+00 0. -1.
         -2   -1    0    0    0  501 -0.00000000000E+00 -0.00000000000E+00 -0.25733511490E+02  0.25733511490E+02  0.00000000000E+00 0.  1.
         23    2    1    2    0    0 -0.37025627630E+02  0.34791352758E+02  0.35606563355E+03  0.37132674169E+03  0.92301020424E+02 0.  0.
          5    1    1    2  502    0  0.35228527517E+02  0.30829292600E+02  0.17669577952E+03  0.18283972581E+03  0.41800000000E+01 0. -1.
         -5    1    1    2    0  502  0.17971001125E+01 -0.65620645358E+02  0.56933216249E+02  0.86995184800E+02  0.41800000000E+01 0. -1.
        -11    1    3    3    0    0 -0.29723554655E+02 -0.28442016188E+02  0.15899482391E+03  0.16423091066E+03  0.00000000000E+00 0.  1.
         11    1    3    3    0    0 -0.73020729744E+01  0.63233368946E+02  0.19707080964E+03  0.20709583103E+03  0.00000000000E+00 0. -1.
</event>
<event>
 7    1  0.5137842E-006  0.1338425E+03  0.7561462E-02  0.1221863E+00
         -2   -1    0    0    0  501 -0.00000000000E+00  0.00000000000E+00  0.10811414597E+03  0.10811414597E+03  0.00000000000E+00 0. -1.
          2   -1    0    0  501    0  0.00000000000E+00 -0.00000000000E+00 -0.23347618053E+03  0.23347618053E+03  0.00000000000E+00 0.  1.
         23    2    1    2    0    0  0.16145452179E+02  0.11134978985E+03 -0.86166854495E+02  0.16883797197E+03  0.91771905509E+02 0.  0.
          5    1    1    2  502    0 -0.30842187775E+02 -0.46393874829E+02 -0.77708824174E+02  0.95706666031E+02  0.41800000000E+01 0. -1.
         -5    1    1    2    0  502  0.14696735596E+02 -0.64955915021E+02  0.38513644106E+02  0.77045688495E+02  0.41800000000E+01 0. -1.
        -11    1    3    3    0    0  0.54253187661E+02  0.73739144205E+02 -0.57459067164E+02  0.10808521712E+03  0.00000000000E+00 0.  1.
         11    1    3    3    0    0 -0.38107735482E+02  0.37610645645E+02 -0.28707787331E+02  0.60752754858E+02  0.00000000000E+00 0. -1.
</event>
<event>
 7    1  0.5137842E-006  0.9161977E+02  0.7561462E-02  0.1298976E+00
          2   -1    0    0  501    0  0.00000000000E+00  0.00000000000E+00  0.84569372804E+02  0.84569372804E+02  0.00000000000E+00 0. -1.
         -2   -1    0    0    0  501 -0.00000000000E+00 -0.00000000000E+00 -0.18644877899E+03  0.18644877899E+03  0.00000000000E+00 0.  1.
         23    2    1    2    0    0  0.15914227191E+02 -0.38511013918E+02  0.67181149547E+01  0.10021601674E+03  0.90894202905E+02 0.  0.
          5    1    1    2  502    0 -0.44000937826E+02  0.30655246684E+02 -0.12570714135E+03  0.13673179756E+03  0.41800000000E+01 0. -1.
         -5    1    1    2    0  502  0.28086710635E+02  0.78557672337E+01  0.17109620211E+02  0.34070337493E+02  0.41800000000E+01 0. -1.
        -11    1    3    3    0    0 -0.11441166044E+02 -0.62539551794E+02  0.38916923404E+01  0.63696476263E+02  0.00000000000E+00 0.  1.
         11    1    3    3    0    0  0.27355393235E+02  0.24028537876E+02  0.28264226143E+01  0.36519540472E+02  0.00000000000E+00 0. -1.
</event>
<event>
 7    1  0.5137842E-006  0.8983784E+02  0.7561462E-02  0.1303245E+00
         -1   -1    0    0    0  501 -0.00000000000E+00  0.00000000000E+00  0.36649755525E+03  0.36649755525E+03  0.00000000000E+00 0.  1.
          1   -1    0    0  501    0  0.00000000000E+00 -0.00000000000E+00 -0.82201291439E+02  0.82201291439E+02  0.00000000000E+00 0. -1.
         23    2    1    2    0    0  0.86121897598E+02 -0.67463553717E+01  0.11431378157E+01  0.12731704930E+03  0.93519140932E+02 0.  0.
          5    1    1    2  502    0 -0.27113704590E+02  0.86164636256E+01  0.25360539944E+03  0.25523042030E+03  0.41800000000E+01 0.  1.
         -5    1    1    2    0  502 -0.59008193008E+02 -0.18701082539E+01  0.29547726561E+02  0.66151377097E+02  0.41800000000E+01 0.  1.
        -11    1    3    3    0    0  0.71644399151E+02 -0.17439483131E+02 -0.38933869231E+02  0.83384061276E+02  0.00000000000E+00 0. -1.
         11    1    3    3    0    0  0.14477498447E+02  0.10693127759E+02  0.40077007047E+02  0.43932988020E+02  0.00000000000E+00 0.  1.
</event>
<event>
 7    1  0.5137842E-006  0.1137663E+03  0.7561462E-02  0.1253750E+00
         -2   -1    0    0    0  501 -0.00000000000E+00  0.00000000000E+00  0.75155514382E+02  0.75155514382E+02  0.00000000000E+00 0.  1.
          2   -1    0    0  501    0  0.00000000000E+00 -0.00000000000E+00 -0.18392501171E+03  0.18392501171E+03  0.00000000000E+00 0. -1.
         23    2    1    2    0    0 -0.12848210823E+02  0.36540501023E+02 -0.63922248099E+02  0.12066207423E+03  0.94725907854E+02 0.  0.
          5    1    1    2  502    0 -0.52843786671E+02 -0.73970578037E+01 -0.38939355919E+02  0.66188579780E+02  0.41800000000E+01 0.  1.
         -5    1    1    2    0  502  0.65691997494E+02 -0.29143443219E+02 -0.59078933078E+01  0.72229872081E+02  0.41800000000E+01 0.  1.
        -11    1    3    3    0    0  0.38857345421E+02  0.26065826699E+00 -0.19785857223E+02  0.43605520085E+02  0.00000000000E+00 0.  1.
         11    1    3    3    0    0 -0.51705556244E+02  0.36279842756E+02 -0.44136390875E+02  0.77056554143E+02  0.00000000000E+00 0. -1.
</event>
<event>
 7    1  0.5137842E-006  0.3880735E+03  0.7561462E-02  0.1047989E+00
          1   -1    0    0  501    0  0.00000000000E+00  0.00000000000E+00  0.31328184321E+04  0.31328184321E+04  0.00000000000E+00 0. -1.
         -1   -1    0    0    0  501 -0.00000000000E+00 -0.00000000000E+00 -0.54941293033E+02  0.54941293033E+02  0.00000000000E+00 0.  1.
         23    2    1    2    0    0 -0.20148493830E+03  0.10106458025E+03  0.13937139683E+04  0.14147495332E+04  0.90925170196E+02 0.  0.
          5    1    1    2  502    0 -0.22288808366E+02  0.17573388672E+03  0.80993066233E+03  0.82908644911E+03  0.41800000000E+01 0. -1.
         -5    1    1    2    0  502  0.22377374666E+03 -0.27679846697E+03  0.87423250845E+03  0.94392374282E+03  0.41800000000E+01 0.  1.
        -11    1    3    3    0    0 -0.15950023361E+02  0.47162968623E+02  0.29906572540E+03  0.30318155775E+03  0.00000000000E+00 0.  1.
         11    1    3    3    0    0 -0.18553491494E+03  0.53901611626E+02  0.10946482429E+04  0.11115679755E+04  0.00000000000E+00 0. -1.
</event>
<event>
 7    1  0.5137842E-006  0.4227233E+02  0.7561462E-02  0.1492126E+00
          2   -1    0    0  501    0  0.00000000000E+00  0.00000000000E+00  0.35658839323E+03  0.35658839323E+03  0.00000000000E+00 0. -1.
         -2   -1    0    0    0  501 -0.00000000000E+00 -0.00000000000E+00 -0.33746712143E+02  0.33746712143E+02  0.00000000000E+00 0.  1.
         23    2    1    2    0    0 -0.62734978186E+01  0.13101546651E+00  0.17319084977E+03  0.19519166126E+03  0.89807239371E+02 0.  0.
          5    1    1    2  502    0 -0.11842121677E+01 -0.92900221816E+01 -0.21349344642E+02  0.23684885207E+02  0.41800000000E+01 0.  1.
         -5    1    1    2    0  502  0.74577099864E+01  0.91590067151E+01  0.17100017597E+03  0.17145855891E+03  0.41800000000E+01 0.  1.
        -11    1    3    3    0    0 -0.26590658276E+02 -0.19912433516E+02  0.18770839648E+02  0.38156421965E+02  0.00000000000E+00 0. -1.
         11    1    3    3    0    0  0.20317160457E+02  0.20043448982E+02  0.15442001012E+03  0.15703523930E+03  0.00000000000E+00 0.  1.
</event>
<event>
 7    1  0.5137842E-006  0.1293648E+03  0.7561462E-02  0.1228401E+00
         -1   -1    0    0    0  501 -0.00000000000E+00  0.00000000000E+00  0.13086872452E+03  0.13086872452E+03  0.00000000000E+00 0.  1.
          1   -1    0    0  501    0  0.00000000000E+00 -0.00000000000E+00 -0.14763502605E+03  0.14763502605E+03  0.00000000000E+00 0. -1.
         23    2    1    2    0    0  0.10063069338E+02  0.72778199231E+02 -0.52658498757E+02  0.12906683164E+03  0.92127074686E+02 0.  0.
          5    1    1    2  502    0 -0.66984474536E+02 -0.40609374482E+02  0.10376801121E+02  0.79127691273E+02  0.41800000000E+01 0. -1.
         -5    1    1    2    0  502  0.56921405198E+02 -0.32168824749E+02  0.25515396107E+02  0.70309227659E+02  0.41800000000E+01 0. -1.
        -11    1    3    3    0    0 -0.16767565013E+02 -0.15297576382E+02  0.59196423575E+00  0.22705010489E+02  0.00000000000E+00 0.  1.
         11    1    3    3    0    0  0.26830634351E+02  0.88075775612E+02 -0.53250462992E+02  0.10636182115E+03  0.00000000000E+00 0. -1.
</event>
<event>
 7    1  0.5137842E-006  0.7775497E+02  0.7561462E-02  0.1335546E+00
          1   -1    0    0  501    0  0.00000000000E+00  0.00000000000E+00  0.47734021938E+02  0.47734021938E+02  0.00000000000E+00 0. -1.
         -1   -1    0    0    0  501 -0.00000000000E+00 -0.00000000000E+00 -0.35383941732E+03  0.35383941732E+03  0.00000000000E+00 0.  1.
         23    2    1    2    0    0  0.32388903435E+02  0.26583564719E+02 -0.52038538841E+02  0.11389856528E+03  0.92245036014E+02 0.  0.
          5    1    1    2  502    0 -0.49520088470E+02 -0.14219197398E+02 -0.24681398958E+02  0.57280612699E+02  0.41800000000E+01 0. -1.
         -5    1    1    2    0  502  0.17131185035E+02 -0.12364367321E+02 -0.22938545759E+03  0.23039426128E+03  0.41800000000E+01 0.  1.
        -11    1    3    3    0    0  0.31730649910E+00 -0.23124400662E+02 -0.49560027596E+02  0.54690354951E+02  0.00000000000E+00 0.  1.
         11    1    3    3    0    0  0.32071596936E+02  0.49707965381E+02 -0.24785112451E+01  0.59208210329E+02  0.00000000000E+00 0. -1.
</event>
<event>
 7    1  0.5137842E-006  0.1112634E+03  0.7561462E-02  0.1258248E+00
         -1   -1    0    0    0  501 -0.00000000000E+00  0.00000000000E+00  0.23011994456E+02  0.23011994456E+02  0.00000000000E+00 0.  1.
          1   -1    0    0  501    0  0.00000000000E+00 -0.00000000000E+00 -0.78198963831E+03  0.78198963831E+03  0.00000000000E+00 0. -1.
         23    2    1    2    0    0  0.41900936504E+02  0.55154463656E+02 -0.45323819585E+03  0.46747818020E+03  0.91177209040E+02 0.  0.
          5    1    1    2  502    0 -0.42342448995E+02 -0.75817142550E+02 -0.10791940291E+03  0.13858279841E+03  0.41800000000E+01 0. -1.
         -5    1    1    2    0  502  0.44151249040E+00  0.20662678894E+02 -0.19782004510E+03  0.19894065415E+03  0.41800000000E+01 0. -1.
        -11    1    3    3    0    0  0.65273236725E+02  0.13376953390E+02 -0.26224010959E+03  0.27057238106E+03  0.00000000000E+00 0.  1.
         11    1    3    3    0    0 -0.23372300221E+02  0.41777510266E+02 -0.19099808626E+03  0.19690579914E+03  0.00000000000E+00 0. -1.
</event>
<event>
 7    1  0.5137842E-006  0.1222025E+03  0.7561462E-02  0.1239507E+00
          2   -1    0    0  501    0  0.00000000000E+00  0.00000000000E+00  0.97262320754E+02  0.97262320754E+02  0.00000000000E+00 0. -1.
         -2   -1    0    0    0  501 -0.00000000000E+00 -0.00000000000E+00 -0.32415605794E+03  0.32415605794E+03  0.00000000000E+00 0.  1.
         23    2    1    2    0    0 -0.37817043324E+02  0.65560448261E+02  0.14982219766E+01  0.11808259594E+03  0.90625347746E+02 0.  0.
          5    1    1    2  502    0 -0.30129677501E+02 -0.49364714182E+02  0.64019705467E+01  0.58336353155E+02  0.41800000000E+01 0. -1.
         -5    1    1    2    0  502  0.67946720824E+02 -0.16195734078E+02 -0.23479392971E+03  0.24499942959E+03  0.41800000000E+01 0.  1.
        -11    1    3    3    0    0  0.28742429420E+02  0.27467154154E+02  0.97963180062E+01  0.40945569391E+02  0.00000000000E+00 0.  1.
         11    1    3    3    0    0 -0.66559472744E+02  0.38093294107E+02 -0.82980960295E+01  0.77137026554E+02  0.00000000000E+00 0. -1.
</event>
<event>
 7    1  0.5137842E-006  0.1977698E+03  0.7561462E-02  0.1151634E+00
         -1   -1    0    0    0  501 -0.00000000000E+00  0.00000000000E+00  0.53334634882E+02  0.53334634882E+02  0.00000000000E+00 0.  1.
          1   -1    0    0  501    0  0.00000000000E+00 -0.00000000000E+00 -0.74001926353E+03  0.74001926353E+03  0.00000000000E+00 0. -1.
         23    2    1    2    0    0  0.12758298449E+03  0.10205534343E+03 -0.31414701962E+03  0.36776598885E+03  0.99351706397E+02 0.  0.
          5    1    1    2  502    0 -0.74990442923E+02 -0.12576803345E+03 -0.24328300002E+03  0.28398108259E+03  0.41800000000E+01 0. -1.
         -5    1    1    2    0  502 -0.52592541570E+02  0.23712690020E+02 -0.12925460900E+03  0.14160682697E+03  0.41800000000E+01 0. -1.
        -11    1    3    3    0    0  0.13107385197E+03  0.11710110666E+03 -0.28795302506E+03  0.33735733057E+03  0.00000000000E+00 0.  1.
         11    1    3    3    0    0 -0.34908674738E+01 -0.15045763236E+02 -0.26193994569E+02  0.30408658282E+02  0.00000000000E+00 0. -1.
</event>
<event>
 7    1  0.5137842E-006  0.7556440E+02  0.7561462E-02  0.1342132E+00
          3   -1    0    0  501    0  0.00000000000E+00  0.00000000000E+00  0.12019805627E+03  0.12019805627E+03  0.00000000000E+00 0. -1.
         -3   -1    0    0    0  501 -0.00000000000E+00 -0.00000000000E+00 -0.14129260432E+03  0.14129260432E+03  0.00000000000E+00 0.  1.
         23    2    1    2    0    0  0.44378194576E+02  0.12380149316E+02  0.45585970095E+02  0.11243923654E+03  0.91879317544E+02 0.  0.
          5    1    1    2  502    0  0.57574575226E+01  0.14744424561E+02 -0.86896822850E+02  0.88425542657E+02  0.41800000000E+01 0. -1.
         -5    1    1    2    0  502 -0.50135652099E+02 -0.27124573877E+02  0.20216304703E+02  0.60625881398E+02  0.41800000000E+01 0. -1.
        -11    1    3    3    0    0  0.15994474735E+02 -0.25600828908E+02  0.56251588976E+02  0.63839383809E+02  0.00000000000E+00 0. -1.
         11    1    3    3    0    0  0.28383719842E+02  0.37980978224E+02 -0.10665618881E+02  0.48599852727E+02  0.00000000000E+00 0.  1.
</event>
<event>
 7    1  0.5137842E-006  0.1043732E+03  0.7561462E-02  0.1271359E+00
         -1   -1    0    0    0  501 -0.00000000000E+00  0.00000000000E+00  0.24475655756E+03  0.24475655756E+03  0.00000000000E+00 0.  1.
          1   -1    0    0  501    0  0.00000000000E+00 -0.00000000000E+00 -0.86293362506E+02  0.86293362506E+02  0.00000000000E+00 0. -1.
         23    2    1    2    0    0 -0.72627875884E+02  0.34044693968E+02  0.10188480480E+02  0.12112821716E+03  0.90190854943E+02 0.  0.
          5    1    1    2  502    0  0.44030660312E+02  0.30768788589E+02  0.12352593544E+03  0.13476478221E+03  0.41800000000E+01 0. -1.
         -5    1    1    2    0  502  0.28597215572E+02 -0.64813482557E+02  0.24748779140E+02  0.75156920696E+02  0.41800000000E+01 0. -1.
        -11    1    3    3    0    0 -0.45669108957E+02  0.34014013565E+02  0.48146992889E+02  0.74570460345E+02  0.00000000000E+00 0.  1.
         11    1    3    3    0    0 -0.26958766927E+02  0.30680403354E-01 -0.37958512409E+02  0.46557756817E+02  0.00000000000E+00 0. -1.
</event>
<event>
 7    1  0.5137842E-006  0.1006036E+03  0.7561462E-02  0.1279032E+00
         -2   -1    0    0    0  501 -0.00000000000E+00  0.00000000000E+00  0.44956529920E+02  0.44956529920E+02  0.00000000000E+00 0.  1.
          2   -1    0    0  501    0  0.00000000000E+00 -0.00000000000E+00 -0.30564759512E+03  0.30564759512E+03  0.00000000000E+00 0. -1.
         23    2    1    2    0    0  0.23425369379E+02  0.20610153510E+02 -0.10277505743E+03  0.14674872284E+03  0.99994744208E+02 0.  0.
          5    1    1    2  502    0  0.27523059669E+02 -0.49947216945E+02 -0.12225635556E+03  0.13496789310E+03  0.41800000000E+01 0.  1.
         -5    1    1    2    0  502 -0.50948429047E+02  0.29337063434E+02 -0.35659652222E+02  0.68887509099E+02  0.41800000000E+01 0.  1.
        -11    1    3    3    0    0  0.30005935725E+02 -0.24968103499E+02 -0.91292518701E+02  0.99287896250E+02  0.00000000000E+00 0. -1.
         11    1    3    3    0    0 -0.65805663461E+01  0.45578257009E+02 -0.11482538726E+02  0.47460826594E+02  0.00000000000E+00 0.  1.
</event>
<event>
 7    1  0.5137842E-006  0.1211256E+03  0.7561462E-02  0.1241252E+00
         -3   -1    0    0    0  501 -0.00000000000E+00  0.00000000000E+00  0.16787359356E+03  0.16787359356E+03  0.00000000000E+00 0.  1.
          3   -1    0    0  501    0  0.00000000000E+00 -0.00000000000E+00 -0.12426860914E+03  0.12426860914E+03  0.00000000000E+00 0. -1.
         23    2    1    2    0    0 -0.85769943753E+02 -0.37006766058E+02  0.27674194815E+01  0.13076756821E+03  0.91468652004E+02 0.  0.
          5    1    1    2  502    0 -0.18331392401E+02 -0.12871833918E+02  0.39799369786E+02  0.45860509058E+02  0.41800000000E+01 0.  1.
         -5    1    1    2    0  502  0.10410133615E+03  0.49878599976E+02  0.10381951553E+01  0.11551412543E+03  0.41800000000E+01 0.  1.
        -11    1    3    3    0    0 -0.64477018343E+02 -0.39025142729E+01 -0.37308343157E+02  0.74595093546E+02  0.00000000000E+00 0. -1.
         11    1    3    3    0    0 -0.21292925410E+02 -0.33104251785E+02  0.40075762638E+02  0.56172474664E+02  0.00000000000E+00 0.  1.
</event>
<event>
 7    1  0.5137842E-006  0.1719794E+03  0.7561462E-02  0.1175799E+00
         -1   -1    0    0    0  501 -0.00000000000E+00  0.00000000000E+00  0.29100370241E+02  0.29100370241E+02  0.00000000000E+00 0.  1.
          1   -1    0    0  501    0  0.00000000000E+00 -0.00000000000E+00 -0.11364483228E+04  0.11364483228E+04  0.00000000000E+00 0. -1.
         23    2    1    2    0    0 -0.12618103779E+03 -0.69496266938E+02 -0.58361307344E+03  0.60814670707E+03  0.92123897066E+02 0.  0.
          5    1    1    2  502    0 -0.25494310846E+02  0.81293075725E+01 -0.77761995220E+02  0.82343462568E+02  0.41800000000E+01 0. -1.
         -5    1    1    2    0  502  0.15167534864E+03  0.61366959365E+02 -0.44597288391E+03  0.47505852341E+03  0.41800000000E+01 0. -1.
        -11    1    3    3    0    0 -0.46652272914E+02 -0.55412796639E+02 -0.41395720925E+03  0.42024705078E+03  0.00000000000E+00 0. -1.
         11    1    3    3    0    0 -0.79528764880E+02 -0.14083470299E+02 -0.16965586419E+03  0.18789965629E+03  0.00000000000E+00 0.  1.
</event>
<event>
 7    1  0.5137842E-006  0.1798767E+03  0.7561462E-02  0.1167922E+00
          2   -1    0    0  501    0  0.00000000000E+00  0.00000000000E+00  0.11449502420E+04  0.11449502420E+04  0.00000000000E+00 0. -1.
         -2   -1    0    0    0  501 -0.00000000000E+00 -0.00000000000E+00 -0.65999795461E+02  0.65999795461E+02  0.00000000000E+00 0.  1.
         23    2    1    2    0    0  0.17819694157E+02 -0.15623066416E+03  0.41417526550E+03  0.45226381176E+03  0.90971660180E+02 0.  0.
          5    1    1    2  502    0  0.25947337947E+02 -0.83468193274E+01  0.55575440022E+03  0.55643810033E+03  0.41800000000E+01 0. -1.
         -5    1    1    2    0  502 -0.43767032103E+02  0.16457748349E+03  0.10902078087E+03  0.20224812541E+03  0.41800000000E+01 0.  1.
        -11    1    3    3    0    0 -0.11611978158E+02 -0.63059980224E+02  0.27395157578E+03  0.28135540694E+03  0.00000000000E+00 0.  1.
         11    1    3    3    0    0  0.29431672314E+02 -0.93170683939E+02  0.14022368972E+03  0.17090840482E+03  0.00000000000E+00 0. -1.
</event>
<event>
 7    1  0.5137842E-006  0.1063614E+03  0.7561462E-02  0.1267460E+00
         -1   -1    0    0    0  501 -0.00000000000E+00  0.00000000000E+00  0.10867719966E+03  0.10867719966E+03  0.00000000000E+00 0.  1.
          1   -1    0    0  501    0  0.00000000000E+00 -0.00000000000E+00 -0.23434823404E+03  0.23434823404E+03  0.00000000000E+00 0. -1.
         23    2    1    2    0    0  0.37915933952E+02  0.59407301849E+02 -0.15850452725E+03  0.19568792159E+03  0.90571695012E+02 0.  0.
          5    1    1    2  502    0 -0.76102252113E+02 -0.37514619516E+02  0.51503167076E+02  0.99342579356E+02  0.41800000000E+01 0. -1.
         -5    1    1    2    0  502  0.38186318161E+02 -0.21892682333E+02 -0.18669674205E+02  0.47994932747E+02  0.41800000000E+01 0. -1.
        -11    1    3    3    0    0  0.48276560989E+02  0.50899152662E+02 -0.16608058562E+03  0.18028896528E+03  0.00000000000E+00 0. -1.
         11    1    3    3    0    0 -0.10360627037E+02  0.85081491873E+01  0.75760583645E+01  0.15398956313E+02  0.00000000000E+00 0.  1.
</event>
<event>
 7    1  0.5137842E-006  0.2425946E+03  0.7561462E-02  0.1118076E+00
         -4   -1    0    0    0  501 -0.00000000000E+00  0.00000000000E+00  0.46198178056E+03  0.46198178056E+03  0.00000000000E+00 0.  1.
          4   -1    0    0  501    0  0.00000000000E+00 -0.00000000000E+00 -0.34366458691E+03  0.34366458691E+03  0.00000000000E+00 0. -1.
         23    2    1    2    0    0  0.95031960083E+02  0.40442029235E+02 -0.10874712921E+03  0.18160589497E+03  0.10241158044E+03 0.  0.
          5    1    1    2  502    0  0.12983357459E+03 -0.30352917027E+02 -0.14003617148E+03  0.19340542491E+03  0.41800000000E+01 0. -1.
         -5    1    1    2    0  502 -0.22486553467E+03 -0.10089112208E+02  0.36710049435E+03  0.43063504760E+03  0.41800000000E+01 0.  1.
        -11    1    3    3    0    0  0.28689215395E+02 -0.21533515877E+02 -0.77829888671E+02  0.85698628673E+02  0.00000000000E+00 0.  1.
         11    1    3    3    0    0  0.66342744689E+02  0.61975545112E+02 -0.30917240544E+02  0.95907266292E+02  0.00000000000E+00 0. -1.
</event>
<event>
 7    1  0.5137842E-006  0.8100517E+02  0.7561462E-02  0.1326223E+00
          2   -1    0    0  501    0  0.00000000000E+00  0.00000000000E+00  0.12020885491E+03  0.12020885491E+03  0.00000000000E+00 0. -1.
         -2   -1    0    0    0  501 -0.00000000000E+00 -0.00000000000E+00 -0.11052235927E+03  0.11052235927E+03  0.00000000000E+00 0.  1.
         23    2    1    2    0    0  0.38934506001E+01 -0.14158111559E+02  0.37162280767E+02  0.10182199073E+03  0.93653999398E+02 0.  0.
          5    1    1    2  502    0 -0.29290266000E+02 -0.12889725926E+02  0.40239523109E+02  0.51582519683E+02  0.41800000000E+01 0.  1.
         -5    1    1    2    0  502  0.25396815400E+02  0.27047837485E+02 -0.67715308246E+02  0.77326703770E+02  0.41800000000E+01 0.  1.
        -11    1    3    3    0    0 -0.29772702256E+02  0.26329159015E+02  0.48426574951E+01  0.40038603193E+02  0.00000000000E+00 0.  1.
         11    1    3    3    0    0  0.33666152856E+02 -0.40487270574E+02  0.32319623272E+02  0.61783387534E+02  0.00000000000E+00 0. -1.
</event>
<event>
 7    1  0.5137842E-006  0.1400165E+03  0.7561462E-02  0.1213307E+00
          1   -1    0    0  501    0  0.00000000000E+00  0.00000000000E+00  0.22532033826E+03  0.22532033826E+03  0.00000000000E+00 0. -1.
         -1   -1    0    0    0  501 -0.00000000000E+00 -0.00000000000E+00 -0.94021619174E+02  0.94021619174E+02  0.00000000000E+00 0.  1.
         23    2    1    2    0    0 -0.70837472714E+02 -0.51534646834E+02  0.10237953605E+03  0.16391401318E+03  0.93340596474E+02 0.  0.
          5    1    1    2  502    0  0.10487907494E+03  0.21563624311E+02  0.19401079679E+02  0.10889666913E+03  0.41800000000E+01 0. -1.
         -5    1    1    2    0  502 -0.34041602229E+02  0.29971022524E+02  0.95181033578E+01  0.46531275127E+02  0.41800000000E+01 0. -1.
        -11    1    3    3    0    0 -0.11138871324E+02 -0.65153484281E+02  0.44709939202E+02  0.79799935036E+02  0.00000000000E+00 0. -1.
         11    1    3    3    0    0 -0.59698601390E+02  0.13618837447E+02  0.57669596844E+02  0.84114078141E+02  0.00000000000E+00 0.  1.
</event>
<event>
 7    1  0.5137842E-006  0.1956256E+03  0.7561462E-02  0.1153483E+00
          2   -1    0    0  501    0  0.00000000000E+00  0.00000000000E+00  0.20760737265E+03  0.20760737265E+03  0.00000000000E+00 0. -1.
         -2   -1    0    0    0  501 -0.00000000000E+00 -0.00000000000E+00 -0.20615926946E+03  0.20615926946E+03  0.00000000000E+00 0.  1.
         23    2    1    2    0    0 -0.61883834143E+02  0.16424913486E+03  0.94129773649E+01  0.19808425701E+03  0.91331163921E+02 0.  0.
          5    1    1    2  502    0 -0.37893201777E+02 -0.33441879475E+02 -0.63122630544E+01  0.51103533230E+02  0.41800000000E+01 0.  1.
         -5    1    1    2    0  502  0.99777035920E+02 -0.13080725538E+03 -0.16526111281E+01  0.16457885187E+03  0.41800000000E+01 0.  1.
        -11    1    3    3    0    0 -0.17200413902E+02  0.62837018255E+02  0.47801005833E+02  0.80803968097E+02  0.00000000000E+00 0.  1.
         11    1    3    3    0    0 -0.44683420241E+02  0.10141211660E+03 -0.38388028468E+02  0.11728028892E+03  0.00000000000E+00 0. -1.
</event>
<event>
 7    1  0.5137842E-006  0.1565645E+03  0.7561462E-02  0.1192631E+00
         -1   -1    0    0    0  501 -0.00000000000E+00  0.00000000000E+00  0.96984770238E+02  0.96984770238E+02  0.00000000000E+00 0.  1.
          1   -1    0    0  501    0  0.00000000000E+00 -0.00000000000E+00 -0.56360676090E+03  0.56360676090E+03  0.00000000000E+00 0. -1.
         23    2    1    2    0    0  0.12417021421E+03 -0.56815872588E+02 -0.44451461208E+03  0.47409237296E+03  0.92325794174E+02 0.  0.
          5    1    1    2  502    0 -0.12917454690E+03  0.73898509378E+02  0.10359462517E+02  0.14923754259E+03  0.41800000000E+01 0.  1.
         -5    1    1    2    0  502  0.50043326896E+01 -0.17082636790E+02 -0.32466841099E+02  0.37261615589E+02  0.41800000000E+01 0.  1.
        -11    1    3    3    0    0  0.78560236393E+02 -0.61978872792E+02 -0.39094032082E+03  0.40354358607E+03  0.00000000000E+00 0. -1.
         11    1    3    3    0    0  0.45609977816E+02  0.51630002037E+01 -0.53574291259E+02  0.70548786888E+02  0.00000000000E+00 0.  1.
</event>
<event>
 7    1  0.5137842E-006  0.9586923E+02  0.7561462E-02  0.1289230E+00
         -1   -1    0    0    0  501 -0.00000000000E+00  0.00000000000E+00  0.54502724832E+02  0.54502724832E+02  0.00000000000E+00 0.  1.
          1   -1    0    0  501    0  0.00000000000E+00 -0.00000000000E+00 -0.24359095902E+03  0.24359095902E+03  0.00000000000E+00 0. -1.
         23    2    1    2    0    0 -0.44526163357E+01 -0.32739816932E+02 -0.10706311582E+03  0.14490536491E+03  0.91887608555E+02 0.  0.
          5    1    1    2  502    0 -0.43681712511E+02  0.32417804218E+02 -0.88979832686E+02  0.10437379491E+03  0.41800000000E+01 0. -1.
         -5    1    1    2    0  502  0.48134328847E+02  0.32201271329E+00  0.69547143169E+01  0.48814524037E+02  0.41800000000E+01 0. -1.
        -11    1    3    3    0    0  0.27211749252E+02 -0.46865311107E+02 -0.92694740358E+02  0.10737388683E+03  0.00000000000E+00 0. -1.
         11    1    3    3    0    0 -0.31664365587E+02  0.14125494176E+02 -0.14368375464E+02  0.37531478085E+02  0.00000000000E+00 0.  1.
</event>
<event>
 7    1  0.5137842E-006  0.1228922E+03  0.7561462E-02  0.1238401E+00
         -2   -1    0    0    0  501 -0.00000000000E+00  0.00000000000E+00  0.32905789514E+02  0.32905789514E+02  0.00000000000E+00 0.  1.
          2   -1    0    0  501    0  0.00000000000E+00 -0.00000000000E+00 -0.63027054324E+03  0.63027054324E+03  0.00000000000E+00 0. -1.
         23    2    1    2    0    0 -0.62210981374E+02  0.51431375554E+02 -0.38003032260E+03  0.39974297568E+03  0.94106364914E+02 0.  0.
          5    1    1    2  502    0  0.58104662382E+02 -0.76990562260E+02 -0.85331818382E+02  0.12885142644E+03  0.41800000000E+01 0. -1.
         -5    1    1    2    0  502  0.41063189926E+01  0.25559186706E+02 -0.13200261275E+03  0.13458193063E+03  0.41800000000E+01 0. -1.
        -11    1    3    3    0    0 -0.85072666491E+02  0.26307628477E+02 -0.29607590360E+03  0.30917695676E+03  0.00000000000E+00 0.  1.
         11    1    3    3    0    0  0.22861685116E+02  0.25123747077E+02 -0.83954419001E+02  0.90566018922E+02  0.00000000000E+00 0. -1.
</event>
<event>
 7    1  0.5137842E-006  0.1297245E+03  0.7561462E-02  0.1227865E+00
         -2   -1    0    0    0  501 -0.00000000000E+00  0.00000000000E+00  0.25524848661E+02  0.25524848661E+02  0.00000000000E+00 0.  1.
          2   -1    0    0  501    0  0.00000000000E+00 -0.00000000000E+00 -0.88035089315E+03  0.88035089315E+03  0.00000000000E+00 0. -1.
         23    2    1    2    0    0 -0.10339729218E+03  0.30952256284E+02 -0.47824475679E+03  0.49836507752E+03  0.89446413529E+02 0.  0.
          5    1    1    2  502    0  0.68607651281E+02 -0.45997205023E+02 -0.35325773554E+03  0.36281021596E+03  0.41800000000E+01 0. -1.
         -5    1    1    2    0  502  0.34789640897E+02  0.15044948738E+02 -0.23323552164E+02  0.44700448340E+02  0.41800000000E+01 0.  1.
        -11    1    3    3    0    0 -0.12673923300E+02  0.45049295648E+02 -0.19838225019E+03  0.20382734007E+03  0.00000000000E+00 0.  1.
         11    1    3    3    0    0 -0.90723368879E+02 -0.14097039363E+02 -0.27986250660E+03  0.29453773745E+03  0.00000000000E+00 0. -1.
</event>
<event>
 7    1  0.5137842E-006  0.9922694E+02  0.7561462E-02  0.1281930E+00
         -1   -1    0    0    0  501 -0.00000000000E+00  0.00000000000E+00  0.20549205032E+02  0.20549205032E+02  0.00000000000E+00 0.  1.
          1   -1    0    0  501    0  0.00000000000E+00 -0.00000000000E+00 -0.84253658898E+03  0.84253658898E+03  0.00000000000E+00 0. -1.
         23    2    1    2    0    0 -0.61962853724E+02 -0.28349161269E+02 -0.27140194512E+03  0.29437394537E+03  0.91399856202E+02 0.  0.
          5    1    1    2  502    0 -0.20545081101E+01  0.30676289706E+02 -0.43809740285E+03  0.43919478883E+03  0.41800000000E+01 0.  1.
         -5    1    1    2    0  502  0.64017361834E+02 -0.23271284371E+01 -0.11248803599E+03  0.12951705981E+03  0.41800000000E+01 0.  1.
        -11    1    3    3    0    0 -0.14741982875E+02 -0.49383024374E+02 -0.73071052491E+02  0.89416932779E+02  0.00000000000E+00 0.  1.
         11    1    3    3    0    0 -0.47220870848E+02  0.21033863105E+02 -0.19833089263E+03  0.20495701259E+03  0.00000000000E+00 0. -1.
</event>
<event>
 7    1  0.5137842E-006  0.6787100E+02  0.7561462E-02  0.1367486E+00
          2   -1    0    0  501    0  0.00000000000E+00  0.00000000000E+00  0.12606677304E+03  0.12606677304E+03  0.00000000000E+00 0. -1.
         -2   -1    0    0    0  501 -0.00000000000E+00 -0.00000000000E+00 -0.11222391706E+03  0.11222391706E+03  0.00000000000E+00 0.  1.
         23    2    1    2    0    0  0.85852788827E+01 -0.40922396930E+02  0.29883678381E+02  0.10542814143E+03  0.92052752203E+02 0.  0.
          5    1    1    2  502    0  0.60855149644E+01  0.42167058929E+02 -0.67081230036E+02  0.79576743928E+02  0.41800000000E+01 0. -1.
         -5    1    1    2    0  502 -0.14670793847E+02 -0.12446619997E+01  0.51040407630E+02  0.53285804739E+02  0.41800000000E+01 0. -1.
        -11    1    3    3    0    0  0.33027393247E+02 -0.41673937904E+02 -0.14180971713E+02  0.55032951618E+02  0.00000000000E+00 0.  1.
         11    1    3    3    0    0 -0.24442114364E+02  0.75154097474E+00  0.44064650094E+02  0.50395189813E+02  0.00000000000E+00 0. -1.
</event>
<event>
 7    1  0.5137842E-006  0.1135573E+03  0.7561462E-02  0.1254121E+00
          3   -1    0    0  501    0  0.00000000000E+00  0.00000000000E+00  0.68014949777E+02  0.68014949777E+02  0.00000000000E+00 0.  1.
         -3   -1    0    0    0  501 -0.00000000000E+00 -0.00000000000E+00 -0.30166862541E+03  0.30166862541E+03  0.00000000000E+00 0. -1.
         23    2    1    2    0    0 -0.74331477807E+02 -0.52561306688E+02 -0.82859523283E+02  0.15364149498E+03  0.91935568896E+02 0.  0.
          5    1    1    2  502    0  0.21044456198E+02  0.47631175739E+02 -0.15365056442E+03  0.16228852820E+03  0.41800000000E+01 0.  1.
         -5    1    1    2    0  502  0.53287021609E+02  0.49301309487E+01  0.28564120690E+01  0.53753552004E+02  0.41800000000E+01 0.  1.
        -11    1    3    3    0    0 -0.81290038587E+02 -0.66886653638E+02 -0.87679449610E+02  0.13700211930E+03  0.00000000000E+00 0.  1.
         11    1    3    3    0    0  0.69585607800E+01  0.14325346950E+02  0.48199263271E+01  0.16639375684E+02  0.00000000000E+00 0. -1.
</event>
<event>
 7    1  0.5137842E-006  0.6272196E+02  0.7561462E-02  0.1386751E+00
         -2   -1    0    0    0  501 -0.00000000000E+00  0.00000000000E+00  0.15193447485E+03  0.15193447485E+03  0.00000000000E+00 0.  1.
          2   -1    0    0  501    0  0.00000000000E+00 -0.00000000000E+00 -0.89846047190E+02  0.89846047190E+02  0.00000000000E+00 0. -1.
         23    2    1    2    0    0  0.36662183913E+02 -0.10237860210E+02  0.24213936892E+01  0.98058191523E+02  0.90336129353E+02 0.  0.
          5    1    1    2  502    0 -0.22323242930E+01  0.32093831706E+02  0.88066231237E+02  0.93851642445E+02  0.41800000000E+01 0. -1.
         -5    1    1    2    0  502 -0.34429859620E+02 -0.21855971496E+02 -0.28399197266E+02  0.49870688073E+02  0.41800000000E+01 0. -1.
        -11    1    3    3    0    0  0.34836188384E+02 -0.21275833809E+02  0.41020891038E+02  0.57869980361E+02  0.00000000000E+00 0.  1.
         11    1    3    3    0    0  0.18259955296E+01  0.11037973599E+02 -0.38599497349E+02  0.40188211162E+02  0.00000000000E+00 0. -1.
</event>
<event>
 7    1  0.5137842E-006  0.1117213E+03  0.7561462E-02  0.1257415E+00
          1   -1    0    0  501    0  0.00000000000E+00  0.00000000000E+00  0.60292377260E+03  0.60292377260E+03  0.00000000000E+00 0. -1.
         -1   -1    0    0    0  501 -0.00000000000E+00 -0.00000000000E+00 -0.30228559070E+02  0.30228559070E+02  0.00000000000E+00 0.  1.
         23    2    1    2    0    0  0.25340707084E+02  0.71968386509E+02  0.29697325312E+03  0.32091689751E+03  0.94725614012E+02 0.  0.
          5    1    1    2  502    0 -0.99015619059E+01  0.15776281258E+02  0.18147487483E+03  0.18247612055E+03  0.41800000000E+01 0.  1.
         -5    1    1    2    0  502 -0.15439145178E+02 -0.87744667768E+02  0.94247085587E+02  0.12975931360E+03  0.41800000000E+01 0.  1.
        -11    1    3    3    0    0 -0.27927166408E+02  0.31016113154E+01  0.35169494866E+02  0.45015996995E+02  0.00000000000E+00 0.  1.
         11    1    3    3    0    0  0.53267873492E+02  0.68866775194E+02  0.26180375825E+03  0.27590090052E+03  0.00000000000E+00 0. -1.
</event>
<event>
 7    1  0.5137842E-006  0.9511660E+02  0.7561462E-02  0.1290914E+00
         -2   -1    0    0    0  501 -0.00000000000E+00  0.00000000000E+00  0.70819040321E+03  0.70819040321E+03  0.00000000000E+00 0.  1.
          2   -1    0    0  501    0  0.00000000000E+00 -0.00000000000E+00 -0.17933878886E+02  0.17933878886E+02  0.00000000000E+00 0. -1.
         23    2    1    2    0    0  0.13441134117E+02  0.18940155125E+02  0.26452254358E+03  0.28178068188E+03  0.94280342901E+02 0.  0.
          5    1    1    2  502    0  0.27468606760E+02 -0.56935866329E+02  0.30137704578E+03  0.30796398062E+03  0.41800000000E+01 0.  1.
         -5    1    1    2    0  502 -0.40909740877E+02  0.37995711205E+02  0.12435693495E+03  0.13637961959E+03  0.41800000000E+01 0.  1.
        -11    1    3    3    0    0  0.19325226888E+02  0.42457310197E+02  0.24822336673E+03  0.25256865874E+03  0.00000000000E+00 0. -1.
         11    1    3    3    0    0 -0.58840927716E+01 -0.23517155073E+02  0.16299176849E+02  0.29212023148E+02  0.00000000000E+00 0.  1.
</event>
<event>
 7    1  0.5137842E-006  0.1245904E+03  0.7561462E-02  0.1235711E+00
         -3   -1    0    0    0  501 -0.00000000000E+00  0.00000000000E+00  0.58833103310E+02  0.58833103310E+02  0.00000000000E+00 0.  1.
          3   -1    0    0  501    0  0.00000000000E+00 -0.00000000000E+00 -0.39027348753E+03  0.39027348753E+03  0.00000000000E+00 0. -1.
         23    2    1    2    0    0 -0.11463125894E+02 -0.90074278128E+02 -0.23099422910E+03  0.26476565173E+03  0.92183174305E+02 0.  0.
          5    1    1    2  502    0 -0.48788500888E+02  0.55957678869E+02 -0.17829786181E+02  0.76465373331E+02  0.41800000000E+01 0. -1.
         -5    1    1    2    0  502  0.60251626782E+02  0.34116599259E+02 -0.82616368940E+02  0.10787556578E+03  0.41800000000E+01 0. -1.
        -11    1    3    3    0    0 -0.26570396610E+02 -0.18674765703E+02 -0.15888437222E+03  0.16216959205E+03  0.00000000000E+00 0. -1.
         11    1    3    3    0    0  0.15107270715E+02 -0.71399512425E+02 -0.72109856874E+02  0.10259605968E+03  0.00000000000E+00 0.  1.
</event>
<event>
 7    1  0.5137842E-006  0.1191149E+03  0.7561462E-02  0.1244564E+00
          1   -1    0    0  501    0  0.00000000000E+00  0.00000000000E+00  0.20375435170E+02  0.20375435170E+02  0.00000000000E+00 0. -1.
         -1   -1    0    0    0  501 -0.00000000000E+00 -0.00000000000E+00 -0.71223541230E+03  0.71223541230E+03  0.00000000000E+00 0.  1.
         23    2    1    2    0    0 -0.27549467080E+02  0.35725993965E+02 -0.25238606683E+03  0.27345899833E+03  0.95109291103E+02 0.  0.
          5    1    1    2  502    0 -0.38561394662E+02 -0.51882984270E+02 -0.21075640827E+03  0.22048709995E+03  0.41800000000E+01 0.  1.
         -5    1    1    2    0  502  0.66110861743E+02  0.16156990304E+02 -0.22871750203E+03  0.23866474920E+03  0.41800000000E+01 0.  1.
        -11    1    3    3    0    0 -0.63270276768E+02  0.21647317092E+02 -0.15987022296E+03  0.17329230349E+03  0.00000000000E+00 0. -1.
         11    1    3    3    0    0  0.35720809688E+02  0.14078676873E+02 -0.92515843874E+02  0.10016669484E+03  0.00000000000E+00 0.  1.
</event>
<event>
 7    1  0.5137842E-006  0.1841516E+03  0.7561462E-02  0.1163845E+00
          1   -1    0    0  501    0  0.00000000000E+00  0.00000000000E+00  0.89965935575E+02  0.89965935575E+02  0.00000000000E+00 0. -1.
         -1   -1    0    0    0  501 -0.00000000000E+00 -0.00000000000E+00 -0.48614497709E+03  0.48614497709E+03  0.00000000000E+00 0.  1.
         23    2    1    2    0    0 -0.14500670346E+03  0.62413497289E+02 -0.73407690232E+02  0.19613501940E+03  0.90320917615E+02 0.  0.
          5    1    1    2  502    0  0.14208450180E+03 -0.14969939251E+02 -0.28602487802E+03  0.31974960200E+03  0.41800000000E+01 0.  1.
         -5    1    1    2    0  502  0.29222016657E+01 -0.47443558038E+02 -0.36746473259E+02  0.60226291259E+02  0.41800000000E+01 0. -1.
        -11    1    3    3    0    0 -0.14883144084E+03  0.38899186384E+02 -0.77027393445E+02  0.17203826268E+03  0.00000000000E+00 0. -1.
         11    1    3    3    0    0  0.38247373805E+01  0.23514310905E+02  0.36197032127E+01  0.24096756726E+02  0.00000000000E+00 0.  1.
</event>
<event>
 7    1  0.5137842E-006  0.1958414E+03  0.7561462E-02  0.1153296E+00
          1   -1    0    0  501    0  0.00000000000E+00  0.00000000000E+00  0.25744706217E+03  0.25744706217E+03  0.00000000000E+00 0. -1.
         -1   -1    0    0    0  501 -0.00000000000E+00 -0.00000000000E+00 -0.37405682057E+03  0.37405682057E+03  0.00000000000E+00 0.  1.
         23    2    1    2    0    0 -0.17436224900E+03  0.98400016280E+01  0.17868506860E+03  0.26633912099E+03  0.92245076399E+02 0.  0.
          5    1    1    2  502    0  0.16184080404E+03 -0.43177684171E+02 -0.27973839070E+03  0.32607943494E+03  0.41800000000E+01 0.  1.
         -5    1    1    2    0  502  0.12521444960E+02  0.33337682543E+02 -0.15556436300E+02  0.39085326807E+02  0.41800000000E+01 0.  1.
        -11    1    3    3    0    0 -0.15971938656E+03 -0.13961138535E+02  0.11656695412E+03  0.19822474776E+03  0.00000000000E+00 0.  1.
         11    1    3    3    0    0 -0.14642862440E+02  0.23801140163E+02  0.62118114485E+02  0.68114373231E+02  0.00000000000E+00 0. -1.
</event>
<event>
 7    1  0.5137842E-006  0.1032385E+03  0.7561462E-02  0.1273630E+00
          2   -1    0    0  501    0  0.00000000000E+00  0.00000000000E+00  0.14036890408E+02  0.14036890408E+02  0.00000000000E+00 0. -1.
         -2   -1    0    0    0  501 -0.00000000000E+00 -0.00000000000E+00 -0.94552524317E+03  0.94552524317E+03  0.00000000000E+00 0.  1.
         23    2    1    2    0    0 -0.36533275281E+01  0.31565508827E+02 -0.34312901333E+03  0.35721306757E+03  0.94095311825E+02 0.  0.
          5    1    1    2  502    0  0.42021698592E+02  0.16871149575E+02 -0.97329736969E+02  0.10742908796E+03  0.41800000000E+01 0. -1.
         -5    1    1    2    0  502 -0.38368371063E+02 -0.48436658402E+02 -0.49102960247E+03  0.49491997805E+03  0.41800000000E+01 0. -1.
        -11    1    3    3    0    0 -0.36948840801E+02 -0.16607580621E+02 -0.15283101850E+03  0.15810866133E+03  0.00000000000E+00 0.  1.
         11    1    3    3    0    0  0.33295513273E+02  0.48173089448E+02 -0.19029799482E+03  0.19910440624E+03  0.00000000000E+00 0. -1.
</event>
<event>
 7    1  0.5137842E-006  0.1286313E+03  0.7561462E-02  0.1229501E+00
          2   -1    0    0  501    0  0.00000000000E+00  0.00000000000E+00  0.97160291951E+02  0.97160291951E+02  0.00000000000E+00 0. -1.
         -2   -1    0    0    0  501 -0.00000000000E+00 -0.00000000000E+00 -0.19510111550E+03  0.19510111550E+03  0.00000000000E+00 0.  1.
         23    2    1    2    0    0 -0.84170772243E+02 -0.29981837115E+01 -0.34718544750E+02  0.12874244819E+03  0.90969954439E+02 0.  0.
          5    1    1    2  502    0  0.61830284139E+02  0.57546553228E+02 -0.61198765972E+02  0.10439037878E+03  0.41800000000E+01 0.  1.
         -5    1    1    2    0  502  0.22340488104E+02 -0.54548369516E+02 -0.20235128256E+01  0.59128580481E+02  0.41800000000E+01 0.  1.
        -11    1    3    3    0    0 -0.39456628574E+02 -0.39534914474E+02 -0.42891233814E+02  0.70423667463E+02  0.00000000000E+00 0.  1.
         11    1    3    3    0    0 -0.44714143669E+02  0.36536730763E+02  0.81726890639E+01  0.58318780726E+02  0.00000000000E+00 0. -1.
</event>
<event>
 7    1  0.5137842E-006  0.9036748E+02  0.7561462E-02  0.1301964E+00
         -1   -1    0    0    0  501 -0.00000000000E+00  0.00000000000E+00  0.63264081300E+03  0.63264081300E+03  0.00000000000E+00 0.  1.
          1   -1    0    0  501    0  0.00000000000E+00 -0.00000000000E+00 -0.34777536458E+02  0.34777536458E+02  0.00000000000E+00 0. -1.
         23    2    1    2    0    0 -0.28353851937E+02  0.66566870461E+02  0.12214967256E+03  0.17023969322E+03  0.93946375545E+02 0.  0.
          5    1    1    2  502    0  0.55920067673E+02 -0.51422853976E+02  0.13478424850E+03  0.15477606379E+03  0.41800000000E+01 0.  1.
         -5    1    1    2    0  502 -0.27566215737E+02 -0.15144016485E+02  0.34092935547E+03  0.34240259244E+03  0.41800000000E+01 0.  1.
        -11    1    3    3    0    0 -0.11159703915E+02  0.37752108105E+02  0.12995680884E+03  0.13578855924E+03  0.00000000000E+00 0.  1.
         11    1    3    3    0    0 -0.17194148022E+02  0.28814762356E+02 -0.78071362712E+01  0.34451133981E+02  0.00000000000E+00 0. -1.
</event>
<event>
 7    1  0.5137842E-006  0.1044525E+03  0.7561462E-02  0.1271202E+00
         -1   -1    0    0    0  501 -0.00000000000E+00  0.00000000000E+00  0.14280804801E+03  0.14280804801E+03  0.00000000000E+00 0.  1.
          1   -1    0    0  501    0  0.00000000000E+00 -0.00000000000E+00 -0.13578451298E+03  0.13578451298E+03  0.00000000000E+00 0. -1.
         23    2    1    2    0    0 -0.37881360802E+02  0.19336410292E+02 -0.72232208250E+02  0.12452298679E+03  0.92084678807E+02 0.  0.
          5    1    1    2  502    0 -0.24590978675E+02 -0.54727873542E+02  0.33894096805E+02  0.69037225993E+02  0.41800000000E+01 0.  1.
         -5    1    1    2    0  502  0.62472339478E+02  0.35391463250E+02  0.45361646470E+02  0.85032348205E+02  0.41800000000E+01 0.  1.
        -11    1    3    3    0    0 -0.10164446000E+02 -0.23621093405E+02 -0.68611081548E+02  0.73271771695E+02  0.00000000000E+00 0. -1.
         11    1    3    3    0    0 -0.27716914802E+02  0.42957503697E+02 -0.36211267025E+01  0.51251215094E+02  0.00000000000E+00 0.  1.
</event>
<event>
 7    1  0.5137842E-006  0.9304576E+02  0.7561462E-02  0.1295639E+00
          1   -1    0    0  501    0  0.00000000000E+00  0.00000000000E+00  0.12858846895E+03  0.12858846895E+03  0.00000000000E+00 0. -1.
         -1   -1    0    0    0  501 -0.00000000000E+00 -0.00000000000E+00 -0.13899303903E+03  0.13899303903E+03  0.00000000000E+00 0.  1.
         23    2    1    2    0    0  0.11982851713E+02 -0.42139563281E+02  0.59200337066E+02  0.11787304693E+03  0.92032840639E+02 0.  0.
          5    1    1    2  502    0  0.50162488875E+02  0.31239096145E+02 -0.52294790729E+01  0.59472483297E+02  0.41800000000E+01 0. -1.
         -5    1    1    2    0  502 -0.62145340588E+02  0.10900467136E+02 -0.64375428070E+02  0.90235977746E+02  0.41800000000E+01 0. -1.
        -11    1    3    3    0    0 -0.11149207604E+02  0.41281577803E+01 -0.20005743840E+02  0.23271792012E+02  0.00000000000E+00 0.  1.
         11    1    3    3    0    0  0.23132059317E+02 -0.46267721061E+02  0.79206080905E+02  0.94601254922E+02  0.00000000000E+00 0. -1.
</event>
<event>
 7    1  0.5137842E-006  0.1480569E+03  0.7561462E-02  0.1202881E+00
          1   -1    0    0  501    0  0.00000000000E+00  0.00000000000E+00  0.11347100260E+04  0.11347100260E+04  0.00000000000E+00 0.  1.
         -1   -1    0    0    0  501 -0.00000000000E+00 -0.00000000000E+00 -0.20728452567E+02  0.20728452567E+02  0.00000000000E+00 0. -1.
         23    2    1    2    0    0 -0.11080711226E+03 -0.10175058644E+02  0.51956189087E+03  0.53789181314E+03  0.83673748874E+02 0.  0.
          5    1    1    2  502    0  0.60188241202E+02  0.65548494951E+02  0.38129153224E+03  0.39156089504E+03  0.41800000000E+01 0.  1.
         -5    1    1    2    0  502  0.50618871063E+02 -0.55373436307E+02  0.21312815031E+03  0.22598577037E+03  0.41800000000E+01 0.  1.
        -11    1    3    3    0    0 -0.63302027056E+02 -0.40849694247E+02  0.37836169663E+03  0.38578934358E+03  0.00000000000E+00 0.  1.
         11    1    3    3    0    0 -0.47505085209E+02  0.30674635603E+02  0.14120019425E+03  0.15210246956E+03  0.00000000000E+00 0. -1.
</event>
<event>
 7    1  0.5137842E-006  0.2048222E+03  0.7561462E-02  0.1145733E+00
         -2   -1    0    0    0  501 -0.00000000000E+00  0.00000000000E+00  0.22952191400E+02  0.22952191400E+02  0.00000000000E+00 0.  1.
          2   -1    0    0  501    0  0.00000000000E+00 -0.00000000000E+00 -0.18563210622E+04  0.18563210622E+04  0.00000000000E+00 0. -1.
         23    2    1    2    0    0  0.14448923904E+03  0.99993572809E+02 -0.92104698999E+03  0.94180048990E+03  0.88231231552E+02 0.  0.
          5    1    1    2  502    0 -0.57473715637E+02 -0.11145042853E+03 -0.60292161810E+03  0.61583794620E+03  0.41800000000E+01 0.  1.
         -5    1    1    2    0  502 -0.87015523401E+02  0.11456855724E+02 -0.30940026269E+03  0.32163481747E+03  0.41800000000E+01 0.  1.
        -11    1    3    3    0    0  0.10199594208E+03  0.17457541981E+02 -0.45897069293E+03  0.47049126978E+03  0.00000000000E+00 0.  1.
         11    1    3    3    0    0  0.42493296959E+02  0.82536030828E+02 -0.46207629705E+03  0.47130922012E+03  0.00000000000E+00 0. -1.
</event>
<event>
 7    1  0.5704919E-006  0.2176055E+03  0.7561462E-02  0.1135681E+00
          1   -1    0    0  501    0  0.00000000000E+00  0.00000000000E+00  0.96266489715E+03  0.96266489715E+03  0.00000000000E+00 0. -1.
         -1   -1    0    0    0  501 -0.00000000000E+00 -0.00000000000E+00 -0.68215036571E+02  0.68215036571E+02  0.00000000000E+00 0.  1.
         23    2    1    2    0    0 -0.17149448079E+03 -0.11076630356E+03  0.65692425098E+03  0.69361797751E+03  0.88751880270E+02 0.  0.
          5    1    1    2  502    0  0.15277250354E+02 -0.18450893670E+02 -0.81812920310E+00  0.24330466312E+02  0.41800000000E+01 0.  1.
         -5    1    1    2    0  502  0.15621723043E+03  0.12921719723E+03  0.23834373880E+03  0.31293148990E+03  0.41800000000E+01 0.  1.
        -11    1    3    3    0    0 -0.12887046468E+03 -0.60956203656E+02  0.31917925605E+03  0.34956923910E+03  0.00000000000E+00 0.  1.
         11    1    3    3    0    0 -0.42624016109E+02 -0.49810099905E+02  0.33774499493E+03  0.34404873841E+03  0.00000000000E+00 0. -1.
</event>
<event>
 7    1  0.5137842E-006  0.9915280E+02  0.7561462E-02  0.1282088E+00
         -1   -1    0    0    0  501 -0.00000000000E+00  0.00000000000E+00  0.34887801419E+02  0.34887801419E+02  0.00000000000E+00 0.  1.
          1   -1    0    0  501    0  0.00000000000E+00 -0.00000000000E+00 -0.45896583226E+03  0.45896583226E+03  0.00000000000E+00 0. -1.
         23    2    1    2    0    0 -0.53654728334E+02 -0.35936668809E+02 -0.17457655457E+03  0.20738030325E+03  0.91429441295E+02 0.  0.
          5    1    1    2  502    0 -0.29909727084E+02  0.63279588637E+01 -0.14999760905E+03  0.15313846662E+03  0.41800000000E+01 0. -1.
         -5    1    1    2    0  502  0.83564455417E+02  0.29608709945E+02 -0.99503867222E+02  0.13333486381E+03  0.41800000000E+01 0. -1.
        -11    1    3    3    0    0 -0.18371518960E+02  0.98865704010E+01  0.25809914826E+01  0.21021857678E+02  0.00000000000E+00 0.  1.
         11    1    3    3    0    0 -0.35283209374E+02 -0.45823239210E+02 -0.17715754605E+03  0.18635844557E+03  0.00000000000E+00 0. -1.
</event>
<event>
 7    1  0.5137842E-006  0.2243485E+03  0.7561462E-02  0.1130682E+00
          1   -1    0    0  501    0  0.00000000000E+00  0.00000000000E+00  0.12420414751E+04  0.12420414751E+04  0.00000000000E+00 0. -1.
         -1   -1    0    0    0  501 -0.00000000000E+00 -0.00000000000E+00 -0.41760845947E+02  0.41760845947E+02  0.00000000000E+00 0.  1.
         23    2    1    2    0    0 -0.19906014080E+03 -0.10028370912E+02  0.60185447726E+03  0.64077281489E+03  0.92927286812E+02 0.  0.
          5    1    1    2  502    0  0.85766696104E+02  0.62023594456E+02  0.21229367533E+03  0.23725288073E+03  0.41800000000E+01 0.  1.
         -5    1    1    2    0  502  0.11329344469E+03 -0.51995223545E+02  0.38613247657E+03  0.40577662543E+03  0.41800000000E+01 0.  1.
        -11    1    3    3    0    0 -0.11191178647E+03  0.38435588176E+02  0.36767300190E+03  0.38624471351E+03  0.00000000000E+00 0.  1.
         11    1    3    3    0    0 -0.87148354329E+02 -0.48463959088E+02  0.23418147535E+03  0.25452810138E+03  0.00000000000E+00 0. -1.
</event>
<event>
 7    1  0.5137842E-006  0.1650855E+03  0.7561462E-02  0.1183072E+00
          2   -1    0    0  501    0  0.00000000000E+00  0.00000000000E+00  0.76121877656E+03  0.76121877656E+03  0.00000000000E+00 0. -1.
         -2   -1    0    0    0  501 -0.00000000000E+00 -0.00000000000E+00 -0.39457147138E+02  0.39457147138E+02  0.00000000000E+00 0.  1.
         23    2    1    2    0    0  0.41143923570E+02 -0.11745233268E+03  0.45563502508E+03  0.48138307752E+03  0.92943629917E+02 0.  0.
          5    1    1    2  502    0  0.36583456229E+02  0.16195127000E+01  0.56767848145E+02  0.67683329366E+02  0.41800000000E+01 0.  1.
         -5    1    1    2    0  502 -0.77727379799E+02  0.11583281998E+03  0.20935875620E+03  0.25160951682E+03  0.41800000000E+01 0.  1.
        -11    1    3    3    0    0  0.54853018400E+02 -0.24979215876E+02  0.21294641579E+03  0.22131197629E+03  0.00000000000E+00 0.  1.
         11    1    3    3    0    0 -0.13709094830E+02 -0.92473116805E+02  0.24268860929E+03  0.26007110122E+03  0.00000000000E+00 0. -1.
</event>
<event>
 7    1  0.5137842E-006  0.8305280E+02  0.7561462E-02  0.1320605E+00
          3   -1    0    0  501    0  0.00000000000E+00  0.00000000000E+00  0.14723788974E+02  0.14723788974E+02  0.00000000000E+00 0. -1.
         -3   -1    0    0    0  501 -0.00000000000E+00 -0.00000000000E+00 -0.90945585523E+03  0.90945585523E+03  0.00000000000E+00 0.  1.
         23    2    1    2    0    0 -0.36360466704E+02  0.50426351461E+01 -0.37572299003E+03  0.38904762091E+03  0.94036027073E+02 0.  0.
          5    1    1    2  502    0  0.51280247286E+02  0.71142964438E+01 -0.78165684436E+02  0.93848940319E+02  0.41800000000E+01 0. -1.
         -5    1    1    2    0  502 -0.14919780581E+02 -0.12156931590E+02 -0.44084339179E+03  0.44128308298E+03  0.41800000000E+01 0. -1.
        -11    1    3    3    0    0 -0.64806423155E+02 -0.31078810607E+01 -0.31354674660E+03  0.32018915302E+03  0.00000000000E+00 0.  1.
         11    1    3    3    0    0  0.28445956451E+02  0.81505162068E+01 -0.62176243427E+02  0.68858467885E+02  0.00000000000E+00 0. -1.
</event>
<event>
 7    1  0.5137842E-006  0.1043499E+03  0.7561462E-02  0.1271406E+00
          2   -1    0    0  501    0  0.00000000000E+00  0.00000000000E+00  0.17188517201E+03  0.17188517201E+03  0.00000000000E+00 0. -1.
         -2   -1    0    0    0  501 -0.00000000000E+00 -0.00000000000E+00 -0.21070576961E+03  0.21070576961E+03  0.00000000000E+00 0.  1.
         23    2    1    2    0    0 -0.82583549553E+02 -0.22490719062E+02  0.11163810789E+03  0.16902474565E+03  0.93703908180E+02 0.  0.
          5    1    1    2  502    0  0.72964999581E+01 -0.23723499864E+02  0.12540264548E+02  0.28120703981E+02  0.41800000000E+01 0. -1.
         -5    1    1    2    0  502  0.75287049595E+02  0.46214218926E+02 -0.16299897003E+03  0.18544549199E+03  0.41800000000E+01 0. -1.
        -11    1    3    3    0    0 -0.68713392513E+02 -0.34369768487E+02  0.25468152420E+02  0.80940954307E+02  0.00000000000E+00 0.  1.
         11    1    3    3    0    0 -0.13870157040E+02  0.11879049425E+02  0.86169955471E+02  0.88083791344E+02  0.00000000000E+00 0. -1.
</event>
<event>
 7    1  0.5137842E-006  0.9249261E+02  0.7561462E-02  0.1296925E+00
          1   -1    0    0  501    0  0.00000000000E+00  0.00000000000E+00  0.80067718513E+02  0.80067718513E+02  0.00000000000E+00 0. -1.
         -1   -1    0    0    0  501 -0.00000000000E+00 -0.00000000000E+00 -0.16392783942E+03  0.16392783942E+03  0.00000000000E+00 0.  1.
         23    2    1    2    0    0 -0.23711798624E+02 -0.29032869655E+01  0.28984293040E+00  0.91358074518E+02  0.88178995807E+02 0.  0.
          5    1    1    2  502    0 -0.30264757544E+02 -0.19447627365E+02  0.13597843363E+02  0.38685132848E+02  0.41800000000E+01 0.  1.
         -5    1    1    2    0  502  0.53976556168E+02  0.22350914330E+02 -0.97747807200E+02  0.11395235057E+03  0.41800000000E+01 0.  1.
        -11    1    3    3    0    0 -0.55999161120E+02 -0.10629943748E+02 -0.68217501416E+01  0.57405905839E+02  0.00000000000E+00 0.  1.
         11    1    3    3    0    0  0.32287362496E+02  0.77266567820E+01  0.71115930720E+01  0.33952168679E+02  0.00000000000E+00 0. -1.
</event>
<event>
 7    1  0.5137842E-006  0.9520246E+02  0.7561462E-02  0.1290721E+00
          2   -1    0    0  501    0  0.00000000000E+00  0.00000000000E+00  0.59550736644E+02  0.59550736644E+02  0.00000000000E+00 0. -1.
         -2   -1    0    0    0  501 -0.00000000000E+00 -0.00000000000E+00 -0.33319477234E+03  0.33319477234E+03  0.00000000000E+00 0.  1.
         23    2    1    2    0    0 -0.47676578453E+02  0.73977415270E+02 -0.68564950953E+02  0.13691422877E+03  0.79363968134E+02 0.  0.
          5    1    1    2  502    0  0.34082867471E+02 -0.13343141997E+02  0.45747747615E+01  0.37122530322E+02  0.41800000000E+01 0.  1.
         -5    1    1    2    0  502  0.13593710982E+02 -0.60634273273E+02 -0.20965385950E+03  0.21870874989E+03  0.41800000000E+01 0.  1.
        -11    1    3    3    0    0 -0.38715227351E+02  0.38146342159E+02 -0.81344457528E+02  0.97831145447E+02  0.00000000000E+00 0.  1.
         11    1    3    3    0    0 -0.89613511015E+01  0.35831073111E+02  0.12779506575E+02  0.39083083325E+02  0.00000000000E+00 0. -1.
</event>
<event>
 7    1  0.6976164E-006  0.2995654E+03  0.7561462E-02  0.1085458E+00
          1   -1    0    0  501    0  0.00000000000E+00  0.00000000000E+00  0.37661235528E+03  0.37661235528E+03  0.00000000000E+00 0. -1.
         -1   -1    0    0    0  501 -0.00000000000E+00 -0.00000000000E+00 -0.26031699645E+03  0.26031699645E+03  0.00000000000E+00 0.  1.
         23    2    1    2    0    0  0.28660727481E+03 -0.49235342564E+01  0.10806015966E+03  0.32406565872E+03  0.10570516493E+03 0.  0.
          5    1    1    2  502    0 -0.69210266492E+02  0.55995870917E+02 -0.35901088583E+01  0.89196187303E+02  0.41800000000E+01 0. -1.
         -5    1    1    2    0  502 -0.21739700832E+03 -0.51072336661E+02  0.11825308027E+02  0.22366750570E+03  0.41800000000E+01 0. -1.
        -11    1    3    3    0    0  0.11762293845E+03 -0.26178021612E+01  0.10077010401E+03  0.15490843231E+03  0.00000000000E+00 0. -1.
         11    1    3    3    0    0  0.16898433636E+03 -0.23057320951E+01  0.72900556473E+01  0.16915722641E+03  0.00000000000E+00 0.  1.
</event>
<event>
 7    1  0.5137842E-006  0.2122913E+03  0.7561462E-02  0.1139764E+00
         -2   -1    0    0    0  501 -0.00000000000E+00  0.00000000000E+00  0.93018214947E+02  0.93018214947E+02  0.00000000000E+00 0. -1.
          2   -1    0    0  501    0  0.00000000000E+00 -0.00000000000E+00 -0.85503574598E+03  0.85503574598E+03  0.00000000000E+00 0.  1.
         23    2    1    2    0    0  0.70356180015E+02 -0.18096757213E+03 -0.65943071608E+03  0.69532323391E+03  0.10452882889E+03 0.  0.
          5    1    1    2  502    0 -0.34985323398E+02 -0.96244344257E+01 -0.10010021417E+02  0.37871830165E+02  0.41800000000E+01 0. -1.
         -5    1    1    2    0  502 -0.35370856618E+02  0.19059200655E+03 -0.92576793538E+02  0.21485889686E+03  0.41800000000E+01 0. -1.
        -11    1    3    3    0    0  0.46149842538E+02 -0.11723908703E+03 -0.56487125239E+03  0.57875240239E+03  0.00000000000E+00 0.  1.
         11    1    3    3    0    0  0.24206337477E+02 -0.63728485098E+02 -0.94559463695E+02  0.11657083152E+03  0.00000000000E+00 0. -1.
</event>
<event>
 7    1  0.5137842E-006  0.2126130E+03  0.7561462E-02  0.1139513E+00
         -2   -1    0    0    0  501 -0.00000000000E+00  0.00000000000E+00  0.13911979694E+03  0.13911979694E+03  0.00000000000E+00 0.  1.
          2   -1    0    0  501    0  0.00000000000E+00 -0.00000000000E+00 -0.34488900204E+03  0.34488900204E+03  0.00000000000E+00 0. -1.
         23    2    1    2    0    0 -0.39180427741E+02  0.18064678666E+03 -0.14587927134E+03  0.25291857685E+03  0.92296680653E+02 0.  0.
          5    1    1    2  502    0 -0.41420154984E+02 -0.31450100235E+02 -0.33283772965E+01  0.52280862073E+02  0.41800000000E+01 0.  1.
         -5    1    1    2    0  502  0.80600582725E+02 -0.14919668642E+03 -0.56561556458E+02  0.17880936006E+03  0.41800000000E+01 0.  1.
        -11    1    3    3    0    0 -0.61820926596E+02  0.16416399392E+03 -0.13967735250E+03  0.22423515931E+03  0.00000000000E+00 0. -1.
         11    1    3    3    0    0  0.22640498855E+02  0.16482792734E+02 -0.62019188411E+01  0.28683417544E+02  0.00000000000E+00 0.  1.
</event>
<event>
 7    1  0.5137842E-006  0.1462942E+03  0.7561462E-02  0.1205102E+00
          1   -1    0    0  501    0  0.00000000000E+00  0.00000000000E+00  0.26028931227E+02  0.26028931227E+02  0.00000000000E+00 0. -1.
         -1   -1    0    0    0  501 -0.00000000000E+00 -0.00000000000E+00 -0.11072055038E+04  0.11072055038E+04  0.00000000000E+00 0.  1.
         23    2    1    2    0    0  0.58804821581E+02  0.10561015537E+03 -0.40438478553E+03  0.43444513443E+03  0.10297576464E+03 0.  0.
          5    1    1    2  502    0 -0.48270366433E+02 -0.29214339589E+02 -0.85813577234E+02  0.10278593460E+03  0.41800000000E+01 0.  1.
         -5    1    1    2    0  502 -0.10534455148E+02 -0.76395815781E+02 -0.59097820978E+03  0.59600336597E+03  0.41800000000E+01 0.  1.
        -11    1    3    3    0    0  0.14657140950E+02  0.11306107930E+03 -0.28767763936E+03  0.30944476668E+03  0.00000000000E+00 0. -1.
         11    1    3    3    0    0  0.44147680631E+02 -0.74509239291E+01 -0.11670714617E+03  0.12500036776E+03  0.00000000000E+00 0.  1.
</event>
<event>
 7    1  0.5137842E-006  0.5852261E+02  0.7561462E-02  0.1404138E+00
          1   -1    0    0  501    0  0.00000000000E+00  0.00000000000E+00  0.39195418999E+03  0.39195418999E+03  0.00000000000E+00 0. -1.
         -1   -1    0    0    0  501 -0.00000000000E+00 -0.00000000000E+00 -0.32288992328E+02  0.32288992328E+02  0.00000000000E+00 0.  1.
         23    2    1    2    0    0  0.22651673320E+02  0.55984590199E+01  0.17721940438E+03  0.20180503430E+03  0.93670238247E+02 0.  0.
          5    1    1    2  502    0  0.72992835785E+01 -0.18068129427E+02 -0.13311421016E+02  0.23966709645E+02  0.41800000000E+01 0. -1.
         -5    1    1    2    0  502 -0.29950956898E+02  0.12469670407E+02  0.19575721429E+03  0.19847143837E+03  0.41800000000E+01 0. -1.
        -11    1    3    3    0    0  0.24368952641E+02 -0.24324614496E+02  0.16642304226E+03  0.16994752637E+03  0.00000000000E+00 0. -1.
         11    1    3    3    0    0 -0.17172793211E+01  0.29923073516E+02  0.10796362123E+02  0.31857507938E+02  0.00000000000E+00 0.  1.
</event>
<event>
 7    1  0.5137842E-006  0.1322118E+03  0.7561462E-02  0.1224210E+00
         -2   -1    0    0    0  501 -0.00000000000E+00  0.00000000000E+00  0.29707537759E+03  0.29707537759E+03  0.00000000000E+00 0.  1.
          2   -1    0    0  501    0  0.00000000000E+00 -0.00000000000E+00 -0.80560811055E+02  0.80560811055E+02  0.00000000000E+00 0. -1.
         23    2    1    2    0    0 -0.23091639311E+02 -0.73178247776E+02  0.49571199373E+01  0.12016289343E+03  0.92337793806E+02 0.  0.
          5    1    1    2  502    0 -0.45522882252E+02  0.21302812697E+01  0.88424360995E+02  0.99565108970E+02  0.41800000000E+01 0. -1.
         -5    1    1    2    0  502  0.68614521564E+02  0.71047966506E+02  0.12313308560E+03  0.15790818625E+03  0.41800000000E+01 0. -1.
        -11    1    3    3    0    0 -0.58971435699E+02 -0.45775566575E+02  0.69221101485E+01  0.74972984018E+02  0.00000000000E+00 0.  1.
         11    1    3    3    0    0  0.35879796388E+02 -0.27402681201E+02 -0.19649902113E+01  0.45189909409E+02  0.00000000000E+00 0. -1.
</event>
<event>
 7    1  0.5137842E-006  0.1020530E+03  0.7561462E-02  0.1276037E+00
          2   -1    0    0  501    0  0.00000000000E+00  0.00000000000E+00  0.11249734515E+04  0.11249734515E+04  0.00000000000E+00 0. -1.
         -2   -1    0    0    0  501 -0.00000000000E+00 -0.00000000000E+00 -0.10051821155E+02  0.10051821155E+02  0.00000000000E+00 0.  1.
         23    2    1    2    0    0 -0.13347023950E+02  0.21906441588E+02  0.48268658615E+03  0.49193719365E+03  0.91421150824E+02 0.  0.
          5    1    1    2  502    0  0.53302144094E+02 -0.39641073250E+02  0.26473557085E+03  0.27297422612E+03  0.41800000000E+01 0. -1.
         -5    1    1    2    0  502 -0.39955120144E+02  0.17734631662E+02  0.36749947331E+03  0.37011385284E+03  0.41800000000E+01 0.  1.
        -11    1    3    3    0    0  0.20705393940E+02  0.46983987896E+02  0.30468774679E+03  0.30898354568E+03  0.00000000000E+00 0. -1.
         11    1    3    3    0    0 -0.34052417890E+02 -0.25077546307E+02  0.17799883935E+03  0.18295364797E+03  0.00000000000E+00 0.  1.
</event>
<event>
 7    1  0.5137842E-006  0.1180943E+03  0.7561462E-02  0.1246274E+00
          2   -1    0    0  501    0  0.00000000000E+00  0.00000000000E+00  0.93845589478E+03  0.93845589478E+03  0.00000000000E+00 0. -1.
         -2   -1    0    0    0  501 -0.00000000000E+00 -0.00000000000E+00 -0.17069967624E+02  0.17069967624E+02  0.00000000000E+00 0.  1.
         23    2    1    2    0    0 -0.51043576819E+02 -0.26480704937E+02  0.52432433741E+03  0.53527271235E+03  0.91072450938E+02 0.  0.
          5    1    1    2  502    0  0.50488719334E+02 -0.39527341217E+02  0.12855356726E+03  0.14371852190E+03  0.41800000000E+01 0.  1.
         -5    1    1    2    0  502  0.55485748538E+00  0.66008046154E+02  0.26850802248E+03  0.27653462814E+03  0.41800000000E+01 0.  1.
        -11    1    3    3    0    0 -0.46300863661E+02  0.25995029158E+02  0.21285047070E+03  0.21937373224E+03  0.00000000000E+00 0. -1.
         11    1    3    3    0    0 -0.47427131582E+01 -0.52475734095E+02  0.31147386671E+03  0.31589898012E+03  0.00000000000E+00 0.  1.
</event>
<event>
 7    1  0.5137842E-006  0.1306833E+03  0.7561462E-02  0.1226445E+00
          1   -1    0    0  501    0  0.00000000000E+00  0.00000000000E+00  0.78873857999E+02  0.78873857999E+02  0.00000000000E+00 0. -1.
         -1   -1    0    0    0  501 -0.00000000000E+00 -0.00000000000E+00 -0.24229942925E+03  0.24229942925E+03  0.00000000000E+00 0.  1.
         23    2    1    2    0    0  0.64897998216E+02  0.56998413365E+02 -0.71427983302E+02  0.14350188893E+03  0.89611751631E+02 0.  0.
          5    1    1    2  502    0 -0.34765474360E+02 -0.89396719906E+02 -0.92367619257E+02  0.13322785454E+03  0.41800000000E+01 0.  1.
         -5    1    1    2    0  502 -0.30132523855E+02  0.32398306541E+02  0.37003130445E+00  0.44443543781E+02  0.41800000000E+01 0.  1.
        -11    1    3    3    0    0  0.67459116466E+02  0.37059797267E+01 -0.56571622565E+02  0.88118188586E+02  0.00000000000E+00 0. -1.
         11    1    3    3    0    0 -0.25611182502E+01  0.53292433638E+02 -0.14856360737E+02  0.55383700347E+02  0.00000000000E+00 0.  1.
</event>
<event>
 7    1  0.5137842E-006  0.1498279E+03  0.7561462E-02  0.1200685E+00
         -2   -1    0    0    0  501 -0.00000000000E+00  0.00000000000E+00  0.10651473731E+03  0.10651473731E+03  0.00000000000E+00 0.  1.
          2   -1    0    0  501    0  0.00000000000E+00 -0.00000000000E+00 -0.25593719869E+03  0.25593719869E+03  0.00000000000E+00 0. -1.
         23    2    1    2    0    0 -0.34490923863E+02 -0.11094778342E+03 -0.11721342321E+03  0.18871778516E+03  0.91522573061E+02 0.  0.
          5    1    1    2  502    0 -0.25553996631E+02 -0.15819964582E+01  0.23017263583E+02  0.34681065143E+02  0.41800000000E+01 0.  1.
         -5    1    1    2    0  502  0.60044920493E+02  0.11252977988E+03 -0.55226301750E+02  0.13905308570E+03  0.41800000000E+01 0.  1.
        -11    1    3    3    0    0 -0.19631197201E+02 -0.12446880597E+03 -0.89804761004E+02  0.15473449086E+03  0.00000000000E+00 0. -1.
         11    1    3    3    0    0 -0.14859726662E+02  0.13521022550E+02 -0.27408662207E+02  0.33983294296E+02  0.00000000000E+00 0.  1.
</event>
<event>
 7    1  0.5137842E-006  0.9836705E+02  0.7561462E-02  0.1283768E+00
          1   -1    0    0  501    0  0.00000000000E+00  0.00000000000E+00  0.42842847941E+02  0.42842847941E+02  0.00000000000E+00 0. -1.
         -1   -1    0    0    0  501 -0.00000000000E+00 -0.00000000000E+00 -0.40114765634E+03  0.40114765634E+03  0.00000000000E+00 0.  1.
         23    2    1    2    0    0 -0.19497975008E+02 -0.95289235398E+01 -0.88403130804E+02  0.13006084501E+03  0.92896385591E+02 0.  0.
          5    1    1    2  502    0  0.65473891006E+02 -0.51221747011E+02 -0.15632286763E+03  0.17710112680E+03  0.41800000000E+01 0. -1.
         -5    1    1    2    0  502 -0.45975915998E+02  0.60750670551E+02 -0.11357880997E+03  0.13682853247E+03  0.41800000000E+01 0.  1.
        -11    1    3    3    0    0 -0.24543860081E+02  0.19882537970E+01 -0.10578195731E+03  0.10861020538E+03  0.00000000000E+00 0.  1.
         11    1    3    3    0    0  0.50458850735E+01 -0.11517177337E+02  0.17378826503E+02  0.21450639632E+02  0.00000000000E+00 0. -1.
</event>
<event>
 7    1  0.5137842E-006  0.9195287E+02  0.7561462E-02  0.1298190E+00
         -1   -1    0    0    0  501 -0.00000000000E+00  0.00000000000E+00  0.15622739828E+03  0.15622739828E+03  0.00000000000E+00 0. -1.
          1   -1    0    0  501    0  0.00000000000E+00 -0.00000000000E+00 -0.11635613461E+03  0.11635613461E+03  0.00000000000E+00 0.  1.
         23    2    1    2    0    0  0.57267959480E+02 -0.27594307634E+02 -0.31808764093E+02  0.11501866290E+03  0.90423616081E+02 0.  0.
          5    1    1    2  502    0 -0.84757239774E+02  0.13930126008E+02  0.87579869295E+02  0.12274177777E+03  0.41800000000E+01 0. -1.
         -5    1    1    2    0  502  0.27489280294E+02  0.13664181626E+02 -0.15899841539E+02  0.34823092217E+02  0.41800000000E+01 0. -1.
        -11    1    3    3    0    0  0.26763205862E+02 -0.24470812367E+02 -0.62101709479E+02  0.71914617194E+02  0.00000000000E+00 0.  1.
         11    1    3    3    0    0  0.30504753618E+02 -0.31234952678E+01  0.30292945386E+02  0.43104045705E+02  0.00000000000E+00 0. -1.
</event>
<event>
 7    1  0.5137842E-006  0.1616146E+03  0.7561462E-02  0.1186886E+00
         -1   -1    0    0    0  501 -0.00000000000E+00  0.00000000000E+00  0.32715558909E+03  0.32715558909E+03  0.00000000000E+00 0.  1.
          1   -1    0    0  501    0  0.00000000000E+00 -0.00000000000E+00 -0.83602080662E+02  0.83602080662E+02  0.00000000000E+00 0. -1.
         23    2    1    2    0    0  0.22055406432E+02  0.11821616340E+03  0.78567501634E+02  0.17132143374E+03  0.93363157110E+02 0.  0.
          5    1    1    2  502    0  0.28960493546E+02 -0.11787559301E+03  0.12673471010E+03  0.17553496734E+03  0.41800000000E+01 0. -1.
         -5    1    1    2    0  502 -0.51015899978E+02 -0.34057038114E+00  0.38251296690E+02  0.63901268667E+02  0.41800000000E+01 0. -1.
        -11    1    3    3    0    0 -0.29069065335E+02  0.97214108721E+01  0.62914854508E+01  0.31290560525E+02  0.00000000000E+00 0. -1.
         11    1    3    3    0    0  0.51124471767E+02  0.10849475252E+03  0.72276016183E+02  0.14003087322E+03  0.00000000000E+00 0.  1.
</event>
<event>
 7    1  0.5137842E-006  0.8248445E+02  0.7561462E-02  0.1322145E+00
          2   -1    0    0  501    0  0.00000000000E+00  0.00000000000E+00  0.45856846717E+02  0.45856846717E+02  0.00000000000E+00 0.  1.
         -2   -1    0    0    0  501 -0.00000000000E+00 -0.00000000000E+00 -0.32253697608E+03  0.32253697608E+03  0.00000000000E+00 0. -1.
         23    2    1    2    0    0  0.41096162394E+01 -0.23487441722E+02 -0.45812412471E+02  0.10471301089E+03  0.91090551914E+02 0.  0.
          5    1    1    2  502    0 -0.18877989115E+02 -0.49175656062E+02 -0.10469080806E+03  0.11727003588E+03  0.41800000000E+01 0.  1.
         -5    1    1    2    0  502  0.14768372876E+02  0.72663097784E+02 -0.12617690883E+03  0.14641077603E+03  0.41800000000E+01 0.  1.
        -11    1    3    3    0    0  0.16750977125E+02 -0.16029050082E+02  0.24002837542E+02  0.33371573101E+02  0.00000000000E+00 0.  1.
         11    1    3    3    0    0 -0.12641360885E+02 -0.74583916398E+01 -0.69815250013E+02  0.71341437785E+02  0.00000000000E+00 0. -1.
</event>
<event>
 7    1  0.5137842E-006  0.1061587E+03  0.7561462E-02  0.1267853E+00
          2   -1    0    0  501    0  0.00000000000E+00  0.00000000000E+00  0.41520799748E+03  0.41520799748E+03  0.00000000000E+00 0. -1.
         -2   -1    0    0    0  501 -0.00000000000E+00 -0.00000000000E+00 -0.42679272019E+02  0.42679272019E+02  0.00000000000E+00 0.  1.
         23    2    1    2    0    0  0.22348971075E+01 -0.26464320842E+02  0.29121421933E+03  0.30632579555E+03  0.91238239980E+02 0.  0.
          5    1    1    2  502    0  0.41865028022E+02  0.58333246392E+02  0.35001092374E+02  0.79987480729E+02  0.41800000000E+01 0. -1.
         -5    1    1    2    0  502 -0.44099925130E+02 -0.31868925551E+02  0.46313413760E+02  0.71573993226E+02  0.41800000000E+01 0. -1.
        -11    1    3    3    0    0  0.39594159138E+02  0.75387517612E+00  0.20203296115E+03  0.20587759265E+03  0.00000000000E+00 0. -1.
         11    1    3    3    0    0 -0.37359262031E+02 -0.27218196018E+02  0.89181258178E+02  0.10044820289E+03  0.00000000000E+00 0.  1.
</event>
<event>
 7    1  0.5137842E-006  0.1922169E+03  0.7561462E-02  0.1156477E+00
          1   -1    0    0  501    0  0.00000000000E+00  0.00000000000E+00  0.74207409766E+03  0.74207409766E+03  0.00000000000E+00 0. -1.
         -1   -1    0    0    0  501 -0.00000000000E+00 -0.00000000000E+00 -0.62149710601E+02  0.62149710601E+02  0.00000000000E+00 0.  1.
         23    2    1    2    0    0  0.70653702880E+02  0.15165223737E+03  0.47476237391E+03  0.51142811509E+03  0.90382843434E+02 0.  0.
          5    1    1    2  502    0  0.41886160230E+01 -0.11004580465E+03  0.63439745260E+02  0.12716012466E+03  0.41800000000E+01 0. -1.
         -5    1    1    2    0  502 -0.74842318903E+02 -0.41606432722E+02  0.14172226789E+03  0.16563556852E+03  0.41800000000E+01 0. -1.
        -11    1    3    3    0    0  0.91186164965E+02  0.12827969396E+03  0.41884325244E+03  0.44743744443E+03  0.00000000000E+00 0.  1.
         11    1    3    3    0    0 -0.20532462085E+02  0.23372543412E+02  0.55919121474E+02  0.63990670658E+02  0.00000000000E+00 0. -1.
</event>
<event>
 7    1  0.5137842E-006  0.1264102E+03  0.7561462E-02  0.1232882E+00
          2   -1    0    0  501    0  0.00000000000E+00  0.00000000000E+00  0.54283555304E+02  0.54283555304E+02  0.00000000000E+00 0. -1.
         -2   -1    0    0    0  501 -0.00000000000E+00 -0.00000000000E+00 -0.50189508920E+03  0.50189508920E+03  0.00000000000E+00 0.  1.
         23    2    1    2    0    0  0.22671252523E+02 -0.63504427524E+02 -0.32260853467E+02  0.11719091204E+03  0.90256020253E+02 0.  0.
          5    1    1    2  502    0  0.40199240815E+02  0.65961604868E+02 -0.19475078196E+03  0.20955250357E+03  0.41800000000E+01 0.  1.
         -5    1    1    2    0  502 -0.62870493338E+02 -0.24571773439E+01 -0.22059989848E+03  0.22943522890E+03  0.41800000000E+01 0.  1.
        -11    1    3    3    0    0  0.48228041891E+02 -0.49079337329E+01 -0.99933805100E+01  0.49496459390E+02  0.00000000000E+00 0. -1.
         11    1    3    3    0    0 -0.25556789368E+02 -0.58596493791E+02 -0.22267472957E+02  0.67694452648E+02  0.00000000000E+00 0.  1.
</event>
<event>
 7    1  0.5137842E-006  0.5722424E+02  0.7561462E-02  0.1409864E+00
         -2   -1    0    0    0  501 -0.00000000000E+00  0.00000000000E+00  0.12455274540E+04  0.12455274540E+04  0.00000000000E+00 0.  1.
          2   -1    0    0  501    0  0.00000000000E+00 -0.00000000000E+00 -0.15497430394E+02  0.15497430394E+02  0.00000000000E+00 0. -1.
         23    2    1    2    0    0 -0.22884052856E+02  0.10281426148E+02  0.19716030378E+03  0.21802441547E+03  0.89627410741E+02 0.  0.
          5    1    1    2  502    0  0.89407268060E+01  0.11453601734E+02  0.67674265707E+01  0.16564783455E+02  0.41800000000E+01 0. -1.
         -5    1    1    2    0  502  0.13943326050E+02 -0.21735027882E+02  0.10261022932E+04  0.10264356854E+04  0.41800000000E+01 0.  1.
        -11    1    3    3    0    0 -0.39049799077E+01 -0.29149173684E+02  0.15319631691E+03  0.15599370086E+03  0.00000000000E+00 0.  1.
         11    1    3    3    0    0 -0.18979072949E+02  0.39430599832E+02  0.43963986867E+02  0.62030714605E+02  0.00000000000E+00 0. -1.
</event>
<event>
 7    1  0.5137842E-006  0.6827894E+02  0.7561462E-02  0.1366045E+00
         -1   -1    0    0    0  501 -0.00000000000E+00  0.00000000000E+00  0.53148032130E+02  0.53148032130E+02  0.00000000000E+00 0.  1.
          1   -1    0    0  501    0  0.00000000000E+00 -0.00000000000E+00 -0.26934761999E+03  0.26934761999E+03  0.00000000000E+00 0. -1.
         23    2    1    2    0    0 -0.12614404402E+02  0.17609076838E+02 -0.15343640549E+03  0.18087665055E+03  0.93297531578E+02 0.  0.
          5    1    1    2  502    0  0.52431314293E+01 -0.31574217401E+02 -0.97785117358E+02  0.10297486688E+03  0.41800000000E+01 0. -1.
         -5    1    1    2    0  502  0.73712729722E+01  0.13965140563E+02  0.35021934986E+02  0.38644134695E+02  0.41800000000E+01 0. -1.
        -11    1    3    3    0    0  0.17388029465E+02 -0.28232601002E+02 -0.25911924617E+02  0.42081482452E+02  0.00000000000E+00 0.  1.
         11    1    3    3    0    0 -0.30002433867E+02  0.45841677840E+02 -0.12752448087E+03  0.13879516810E+03  0.00000000000E+00 0. -1.
</event>
<event>
 7    1  0.5137842E-006  0.1122833E+03  0.7561462E-02  0.1256399E+00
         -2   -1    0    0    0  501 -0.00000000000E+00  0.00000000000E+00  0.37620203396E+02  0.37620203396E+02  0.00000000000E+00 0.  1.
          2   -1    0    0  501    0  0.00000000000E+00 -0.00000000000E+00 -0.65139389912E+03  0.65139389912E+03  0.00000000000E+00 0. -1.
         23    2    1    2    0    0  0.49544354428E+02 -0.51022454830E+02 -0.47414793287E+03  0.48852130496E+03  0.93695619990E+02 0.  0.
          5    1    1    2  502    0 -0.73244048366E+02  0.15705243311E+02 -0.26507457746E+02  0.79570490791E+02  0.41800000000E+01 0.  1.
         -5    1    1    2    0  502  0.23699693939E+02  0.35317211519E+02 -0.11311830510E+03  0.12092230676E+03  0.41800000000E+01 0.  1.
        -11    1    3    3    0    0  0.44841446164E+02 -0.72265188176E+02 -0.43916752238E+03  0.44732664288E+03  0.00000000000E+00 0. -1.
         11    1    3    3    0    0  0.47029082633E+01  0.21242733346E+02 -0.34980410490E+02  0.41194662084E+02  0.00000000000E+00 0.  1.
</event>
<event>
 7    1  0.5137842E-006  0.1192150E+03  0.7561462E-02  0.1244398E+00
          1   -1    0    0  501    0  0.00000000000E+00  0.00000000000E+00  0.89218437159E+02  0.89218437159E+02  0.00000000000E+00 0. -1.
         -1   -1    0    0    0  501 -0.00000000000E+00 -0.00000000000E+00 -0.19324696935E+03  0.19324696935E+03  0.00000000000E+00 0.  1.
         23    2    1    2    0    0  0.72141217848E+02  0.24654030187E+02 -0.32772657397E+02  0.12354631356E+03  0.91528509244E+02 0.  0.
          5    1    1    2  502    0 -0.66601322732E+02  0.26425815005E+02 -0.10012948874E+01  0.71781159643E+02  0.41800000000E+01 0. -1.
         -5    1    1    2    0  502 -0.55398951168E+01 -0.51079845192E+02 -0.70254579907E+02  0.87137933305E+02  0.41800000000E+01 0.  1.
        -11    1    3    3    0    0  0.71744539041E+01 -0.29605055100E+02 -0.23344064552E+02  0.38378085232E+02  0.00000000000E+00 0. -1.
         11    1    3    3    0    0  0.64966763944E+02  0.54259085287E+02 -0.94285928448E+01  0.85168228329E+02  0.00000000000E+00 0.  1.
</event>
<event>
 7    1  0.5137842E-006  0.1882663E+03  0.7561462E-02  0.1160034E+00
          1   -1    0    0  501    0  0.00000000000E+00  0.00000000000E+00  0.25075624306E+03  0.25075624306E+03  0.00000000000E+00 0. -1.
         -1   -1    0    0    0  501 -0.00000000000E+00 -0.00000000000E+00 -0.19206073017E+03  0.19206073017E+03  0.00000000000E+00 0.  1.
         23    2    1    2    0    0 -0.88824221103E+00  0.18127660900E+03  0.83746702102E+02  0.22114699846E+03  0.95028873876E+02 0.  0.
          5    1    1    2  502    0 -0.21925000321E+02 -0.12897207890E+03 -0.70437452868E+02  0.14863852106E+03  0.41800000000E+01 0.  1.
         -5    1    1    2    0  502  0.22813242532E+02 -0.52304530099E+02  0.45386263659E+02  0.73031453721E+02  0.41800000000E+01 0.  1.
        -11    1    3    3    0    0 -0.21682221719E+02  0.38850217772E+02  0.60881766832E+02  0.75405886324E+02  0.00000000000E+00 0. -1.
         11    1    3    3    0    0  0.20793979508E+02  0.14242639123E+03  0.22864935270E+02  0.14574111214E+03  0.00000000000E+00 0.  1.
</event>
<event>
 7    1  0.5137842E-006  0.1055215E+03  0.7561462E-02  0.1269096E+00
         -2   -1    0    0    0  501 -0.00000000000E+00  0.00000000000E+00  0.29824418254E+02  0.29824418254E+02  0.00000000000E+00 0.  1.
          2   -1    0    0  501    0  0.00000000000E+00 -0.00000000000E+00 -0.43496316377E+03  0.43496316377E+03  0.00000000000E+00 0. -1.
         23    2    1    2    0    0  0.26538813268E+02 -0.11790180984E+02 -0.22000846408E+03  0.23947920591E+03  0.90018047195E+02 0.  0.
          5    1    1    2  502    0 -0.61403472423E+02 -0.24774530667E+02 -0.56835676055E+02  0.87360919570E+02  0.41800000000E+01 0. -1.
         -5    1    1    2    0  502  0.34864659155E+02  0.36564711651E+02 -0.12829460538E+03  0.13794745654E+03  0.41800000000E+01 0. -1.
        -11    1    3    3    0    0  0.41393806783E+01 -0.49752844543E+02 -0.10351054776E+03  0.11492133618E+03  0.00000000000E+00 0.  1.
         11    1    3    3    0    0  0.22399432590E+02  0.37962663560E+02 -0.11649791632E+03  0.12455786973E+03  0.00000000000E+00 0. -1.
</event>
<event>
 7    1  0.7432522E-006  0.1836346E+03  0.7561462E-02  0.1164331E+00
          2   -1    0    0  501    0  0.00000000000E+00  0.00000000000E+00  0.59311865551E+02  0.59311865551E+02  0.00000000000E+00 0. -1.
         -2   -1    0    0    0  501 -0.00000000000E+00 -0.00000000000E+00 -0.72681797426E+03  0.72681797426E+03  0.00000000000E+00 0.  1.
         23    2    1    2    0    0  0.14429189752E+02 -0.16582001763E+03 -0.23499321682E+03  0.30610953860E+03  0.10381116467E+03 0.  0.
          5    1    1    2  502    0 -0.46165619541E+02  0.60193350999E+02 -0.78681042955E+02  0.10937405018E+03  0.41800000000E+01 0. -1.
         -5    1    1    2    0  502  0.31736429790E+02  0.10562666663E+03 -0.35383184894E+03  0.37064625103E+03  0.41800000000E+01 0. -1.
        -11    1    3    3    0    0 -0.28593624482E+02 -0.79323860158E+02 -0.16974395687E+03  0.18953332437E+03  0.00000000000E+00 0. -1.
         11    1    3    3    0    0  0.43022814234E+02 -0.86496157470E+02 -0.65249259941E+02  0.11657621423E+03  0.00000000000E+00 0.  1.
</event>
<event>
 7    1  0.5137842E-006  0.1601441E+03  0.7561462E-02  0.1188534E+00
          2   -1    0    0  501    0  0.00000000000E+00  0.00000000000E+00  0.66160251140E+03  0.66160251140E+03  0.00000000000E+00 0.  1.
         -2   -1    0    0    0  501 -0.00000000000E+00 -0.00000000000E+00 -0.73496615368E+02  0.73496615368E+02  0.00000000000E+00 0. -1.
         23    2    1    2    0    0 -0.47430164070E+02  0.13840792341E+03  0.49017610553E+03  0.51913181894E+03  0.88424302503E+02 0.  0.
          5    1    1    2  502    0  0.50724008992E+02 -0.11433968572E+03  0.11031935679E+02  0.12564101569E+03  0.41800000000E+01 0.  1.
         -5    1    1    2    0  502 -0.32938449224E+01 -0.24068237687E+02  0.86897854826E+02  0.90326292147E+02  0.41800000000E+01 0.  1.
        -11    1    3    3    0    0  0.21012324555E+02  0.72433484027E+02  0.19787534344E+03  0.21176113650E+03  0.00000000000E+00 0. -1.
         11    1    3    3    0    0 -0.68442488624E+02  0.65974439378E+02  0.29230076209E+03  0.30737068243E+03  0.00000000000E+00 0.  1.
</event>
<event>
 7    1  0.5137842E-006  0.1139671E+03  0.7561462E-02  0.1253395E+00
          2   -1    0    0  501    0  0.00000000000E+00  0.00000000000E+00  0.11899730909E+03  0.11899730909E+03  0.00000000000E+00 0. -1.
         -2   -1    0    0    0  501 -0.00000000000E+00 -0.00000000000E+00 -0.14139746139E+03  0.14139746139E+03  0.00000000000E+00 0.  1.
         23    2    1    2    0    0 -0.51023336341E+02 -0.47045338901E+02 -0.27143715608E+02  0.11724972723E+03  0.90521116179E+02 0.  0.
          5    1    1    2  502    0 -0.34877803856E+02 -0.94375813598E+01  0.15807896271E+02  0.39659691480E+02  0.41800000000E+01 0.  1.
         -5    1    1    2    0  502  0.85901140197E+02  0.56482920260E+02 -0.11064332966E+02  0.10348535178E+03  0.41800000000E+01 0.  1.
        -11    1    3    3    0    0 -0.60625170838E+02 -0.50041861135E+02 -0.49387738180E+02  0.92837211761E+02  0.00000000000E+00 0.  1.
         11    1    3    3    0    0  0.96018344974E+01  0.29965222339E+01  0.22244022572E+02  0.24412515467E+02  0.00000000000E+00 0. -1.
</event>
<event>
 7    1  0.5137842E-006  0.1674748E+03  0.7561462E-02  0.1180507E+00
          1   -1    0    0  501    0  0.00000000000E+00  0.00000000000E+00  0.27446688942E+02  0.27446688942E+02  0.00000000000E+00 0. -1.
         -1   -1    0    0    0  501 -0.00000000000E+00 -0.00000000000E+00 -0.13777301055E+04  0.13777301055E+04  0.00000000000E+00 0.  1.
         23    2    1    2    0    0 -0.15048452303E+03 -0.36022333144E+02 -0.70336674710E+03  0.72616422510E+03  0.92986562083E+02 0.  0.
          5    1    1    2  502    0  0.55914672829E+02  0.52344247855E+02 -0.11333159521E+03  0.13684989512E+03  0.41800000000E+01 0. -1.
         -5    1    1    2    0  502  0.94569850196E+02 -0.16321914711E+02 -0.53358507419E+03  0.54216267418E+03  0.41800000000E+01 0.  1.
        -11    1    3    3    0    0 -0.11572330984E+03 -0.48188707227E+02 -0.64559002572E+03  0.65764771516E+03  0.00000000000E+00 0.  1.
         11    1    3    3    0    0 -0.34761213189E+02  0.12166374083E+02 -0.57776721383E+02  0.68516509941E+02  0.00000000000E+00 0. -1.
</event>
<event>
 7    1  0.5137842E-006  0.1036940E+03  0.7561462E-02  0.1272714E+00
          1   -1    0    0  501    0  0.00000000000E+00  0.00000000000E+00  0.40828929087E+02  0.40828929087E+02  0.00000000000E+00 0. -1.
         -1   -1    0    0    0  501 -0.00000000000E+00 -0.00000000000E+00 -0.58238694756E+03  0.58238694756E+03  0.00000000000E+00 0.  1.
         23    2    1    2    0    0 -0.44490891971E+02 -0.32509943125E+02 -0.55763099498E+02  0.11855715467E+03  0.88937842267E+02 0.  0.
          5    1    1    2  502    0  0.77280411451E+02  0.55363323805E+02 -0.30728251602E+03  0.32167899631E+03  0.41800000000E+01 0.  1.
         -5    1    1    2    0  502 -0.32789519480E+02 -0.22853380680E+02 -0.17851240295E+03  0.18297972566E+03  0.41800000000E+01 0.  1.
        -11    1    3    3    0    0 -0.18941854108E+02 -0.40965982795E+02  0.11102707571E+02  0.46478766107E+02  0.00000000000E+00 0. -1.
         11    1    3    3    0    0 -0.25549037863E+02  0.84560396695E+01 -0.66865807070E+02  0.72078388562E+02  0.00000000000E+00 0.  1.
</event>
<event>
 7    1  0.5137842E-006  0.1163878E+03  0.7561462E-02  0.1249178E+00
         -2   -1    0    0    0  501 -0.00000000000E+00  0.00000000000E+00  0.20708167752E+03  0.20708167752E+03  0.00000000000E+00 0.  1.
          2   -1    0    0  501    0  0.00000000000E+00 -0.00000000000E+00 -0.80421257112E+02  0.80421257112E+02  0.00000000000E+00 0. -1.
         23    2    1    2    0    0  0.34792101286E+02  0.31339482639E+02  0.65666354096E+00  0.10388178134E+03  0.92727233345E+02 0.  0.
          5    1    1    2  502    0  0.20723385370E+02  0.37114179982E+02  0.58956607313E+02  0.72802987595E+02  0.41800000000E+01 0. -1.
         -5    1    1    2    0  502 -0.55515486656E+02 -0.68453662621E+02  0.67047149558E+02  0.11081816570E+03  0.41800000000E+01 0. -1.
        -11    1    3    3    0    0  0.26392481557E+02  0.63406089296E+02 -0.92138811466E+01  0.69294955432E+02  0.00000000000E+00 0. -1.
         11    1    3    3    0    0  0.83996197295E+01 -0.32066606657E+02  0.98705446876E+01  0.34586825910E+02  0.00000000000E+00 0.  1.
</event>
<event>
 7    1  0.5137842E-006  0.1421808E+03  0.7561462E-02  0.1210424E+00
          4   -1    0    0  501    0  0.00000000000E+00  0.00000000000E+00  0.15998802163E+02  0.15998802163E+02  0.00000000000E+00 0. -1.
         -4   -1    0    0    0  501 -0.00000000000E+00 -0.00000000000E+00 -0.18693625284E+04  0.18693625284E+04  0.00000000000E+00 0.  1.
         23    2    1    2    0    0 -0.95242635528E+02 -0.75271864415E+02 -0.55454503914E+03  0.57489778183E+03  0.90830864373E+02 0.  0.
          5    1    1    2  502    0  0.72385360383E+02  0.16507181863E+02 -0.28060424425E+03  0.29029009928E+03  0.41800000000E+01 0. -1.
         -5    1    1    2    0  502  0.22857275145E+02  0.58764682552E+02 -0.10182144428E+04  0.10201734494E+04  0.41800000000E+01 0. -1.
        -11    1    3    3    0    0  0.15337188262E+02 -0.11375975756E+02 -0.34832917984E+02  0.39723725196E+02  0.00000000000E+00 0. -1.
         11    1    3    3    0    0 -0.11057982379E+03 -0.63895888659E+02 -0.51971212115E+03  0.53517405663E+03  0.00000000000E+00 0.  1.
</event>
<event>
 7    1  0.5137842E-006  0.1315000E+03  0.7561462E-02  0.1225247E+00
         -1   -1    0    0    0  501 -0.00000000000E+00  0.00000000000E+00  0.52781215641E+02  0.52781215641E+02  0.00000000000E+00 0.  1.
          1   -1    0    0  501    0  0.00000000000E+00 -0.00000000000E+00 -0.39281318057E+03  0.39281318057E+03  0.00000000000E+00 0. -1.
         23    2    1    2    0    0  0.49260774743E+02 -0.81480813325E+02 -0.14001717289E+03  0.19119449355E+03  0.88796276906E+02 0.  0.
          5    1    1    2  502    0  0.39254899776E+02  0.46811997321E+02 -0.91169957958E+02  0.10982597090E+03  0.41800000000E+01 0.  1.
         -5    1    1    2    0  502 -0.88515674519E+02  0.34668816005E+02 -0.10884483409E+03  0.14457393177E+03  0.41800000000E+01 0.  1.
        -11    1    3    3    0    0  0.45400503892E+02 -0.28750177421E+02 -0.12526205610E+03  0.13630246202E+03  0.00000000000E+00 0. -1.
         11    1    3    3    0    0  0.38602708512E+01 -0.52730635904E+02 -0.14755116789E+02  0.54892031528E+02  0.00000000000E+00 0.  1.
</event>
<event>
 7    1  0.5137842E-006  0.1014761E+03  0.7561462E-02  0.1277222E+00
         -1   -1    0    0    0  501 -0.00000000000E+00  0.00000000000E+00  0.10875877079E+03  0.10875877079E+03  0.00000000000E+00 0.  1.
          1   -1    0    0  501    0  0.00000000000E+00 -0.00000000000E+00 -0.20357289076E+03  0.20357289076E+03  0.00000000000E+00 0. -1.
         23    2    1    2    0    0 -0.23366881838E+01  0.16443043235E+02 -0.15398727462E+03  0.18004718227E+03  0.91809984849E+02 0.  0.
          5    1    1    2  502    0  0.16984900527E+02  0.47697109389E+02  0.36555958373E+02  0.62588430101E+02  0.41800000000E+01 0. -1.
         -5    1    1    2    0  502 -0.14648212343E+02 -0.64140152624E+02  0.22617196270E+02  0.69696049175E+02  0.41800000000E+01 0.  1.
        -11    1    3    3    0    0  0.27769315756E+02 -0.23381003354E+02 -0.10062484675E+03  0.10697273484E+03  0.00000000000E+00 0.  1.
         11    1    3    3    0    0 -0.30106003940E+02  0.39824046589E+02 -0.53362427867E+02  0.73074447435E+02  0.00000000000E+00 0. -1.
</event>
<event>
 7    1  0.5137842E-006  0.1160897E+03  0.7561462E-02  0.1249691E+00
          2   -1    0    0  501    0  0.00000000000E+00  0.00000000000E+00  0.31580920450E+03  0.31580920450E+03  0.00000000000E+00 0. -1.
         -2   -1    0    0    0  501 -0.00000000000E+00 -0.00000000000E+00 -0.72598785737E+02  0.72598785737E+02  0.00000000000E+00 0.  1.
         23    2    1    2    0    0 -0.68888752401E+02  0.61015213244E+02  0.17734969590E+03  0.21972069394E+03  0.91409803925E+02 0.  0.
          5    1    1    2  502    0 -0.25252168951E+02 -0.12305687442E+02 -0.17861674994E+02  0.33550168610E+02  0.41800000000E+01 0.  1.
         -5    1    1    2    0  502  0.94140921352E+02 -0.48709525802E+02  0.83722397853E+02  0.13513712768E+03  0.41800000000E+01 0.  1.
        -11    1    3    3    0    0 -0.31286816646E+02  0.72912648084E+01  0.16330313845E+01  0.32166663331E+02  0.00000000000E+00 0.  1.
         11    1    3    3    0    0 -0.37601935755E+02  0.53723948435E+02  0.17571666452E+03  0.18755403061E+03  0.00000000000E+00 0. -1.
</event>
<event>
 7    1  0.5137842E-006  0.1152289E+03  0.7561462E-02  0.1251182E+00
         -4   -1    0    0    0  501 -0.00000000000E+00  0.00000000000E+00  0.14323515785E+03  0.14323515785E+03  0.00000000000E+00 0.  1.
          4   -1    0    0  501    0  0.00000000000E+00 -0.00000000000E+00 -0.13309488439E+03  0.13309488439E+03  0.00000000000E+00 0. -1.
         23    2    1    2    0    0  0.69124614731E+02 -0.44562683490E+02 -0.22444243379E+02  0.12311922176E+03  0.88828788033E+02 0.  0.
          5    1    1    2  502    0  0.29831922755E+02  0.34702133034E+02 -0.62358931364E+01  0.46373919563E+02  0.41800000000E+01 0.  1.
         -5    1    1    2    0  502 -0.98956537486E+02  0.98605504556E+01  0.38820409975E+02  0.10683690092E+03  0.41800000000E+01 0.  1.
        -11    1    3    3    0    0  0.53129137948E+02 -0.22446536710E+02 -0.55642434755E+02  0.80141330503E+02  0.00000000000E+00 0. -1.
         11    1    3    3    0    0  0.15995476783E+02 -0.22116146779E+02  0.33198191376E+02  0.42977891252E+02  0.00000000000E+00 0.  1.
</event>
<event>
 7    1  0.5137842E-006  0.1397952E+03  0.7561462E-02  0.1213605E+00
          2   -1    0    0  501    0  0.00000000000E+00  0.00000000000E+00  0.34909116336E+03  0.34909116336E+03  0.00000000000E+00 0. -1.
         -2   -1    0    0    0  501 -0.00000000000E+00 -0.00000000000E+00 -0.72207599049E+02  0.72207599049E+02  0.00000000000E+00 0.  1.
         23    2    1    2    0    0  0.11512279235E+03 -0.12649772116E+02  0.12850748034E+03  0.19529916910E+03  0.90632879767E+02 0.  0.
          5    1    1    2  502    0 -0.10762128908E+03  0.52527158797E+02  0.14013830821E+03  0.18438454952E+03  0.41800000000E+01 0.  1.
         -5    1    1    2    0  502 -0.75015032653E+01 -0.39877386681E+02  0.82377757577E+01  0.41615043784E+02  0.41800000000E+01 0.  1.
        -11    1    3    3    0    0  0.68200720163E+02  0.60296781292E+01  0.12757587878E+03  0.14478708539E+03  0.00000000000E+00 0. -1.
         11    1    3    3    0    0  0.46922072184E+02 -0.18679450246E+02  0.93160156528E+00  0.50512083713E+02  0.00000000000E+00 0.  1.
</event>
<event>
 7    1  0.5137842E-006  0.1509115E+03  0.7561462E-02  0.1199357E+00
          1   -1    0    0  501    0  0.00000000000E+00  0.00000000000E+00  0.89611753835E+03  0.89611753835E+03  0.00000000000E+00 0. -1.
         -1   -1    0    0    0  501 -0.00000000000E+00 -0.00000000000E+00 -0.25923483806E+02  0.25923483806E+02  0.00000000000E+00 0.  1.
         23    2    1    2    0    0 -0.39143094217E+02 -0.98045288613E+02  0.34543345567E+03  0.37234503563E+03  0.90396309766E+02 0.  0.
          5    1    1    2  502    0  0.84323543515E+02  0.55959856106E+02  0.34633225719E+03  0.36083995102E+03  0.41800000000E+01 0.  1.
         -5    1    1    2    0  502 -0.45180449298E+02  0.42085432507E+02  0.17842834169E+03  0.18885603550E+03  0.41800000000E+01 0.  1.
        -11    1    3    3    0    0 -0.57954112997E+02 -0.24820777115E+02  0.14426096500E+03  0.15743562562E+03  0.00000000000E+00 0.  1.
         11    1    3    3    0    0  0.18811018779E+02 -0.73224511498E+02  0.20117249066E+03  0.21490941001E+03  0.00000000000E+00 0. -1.
</event>
<event>
 7    1  0.5137842E-006  0.1228711E+03  0.7561462E-02  0.1238434E+00
          2   -1    0    0  501    0  0.00000000000E+00  0.00000000000E+00  0.33181774529E+03  0.33181774529E+03  0.00000000000E+00 0. -1.
         -2   -1    0    0    0  501 -0.00000000000E+00 -0.00000000000E+00 -0.62216335445E+02  0.62216335445E+02  0.00000000000E+00 0.  1.
         23    2    1    2    0    0  0.90809510399E+02 -0.14905599558E+02  0.10397266902E+03  0.16699048775E+03  0.92773719432E+02 0.  0.
          5    1    1    2  502    0 -0.54344286462E+02 -0.38129418748E+02  0.22782023885E+02  0.70311073505E+02  0.41800000000E+01 0.  1.
         -5    1    1    2    0  502 -0.36465223937E+02  0.53035018306E+02  0.14284671694E+03  0.15673251948E+03  0.41800000000E+01 0.  1.
        -11    1    3    3    0    0  0.62254788030E+02  0.23782092114E+02  0.98033981075E+02  0.11854074398E+03  0.00000000000E+00 0. -1.
         11    1    3    3    0    0  0.28554722369E+02 -0.38687691672E+02  0.59386879462E+01  0.48449743766E+02  0.00000000000E+00 0.  1.
</event>
<event>
 7    1  0.5137842E-006  0.1197368E+03  0.7561462E-02  0.1243532E+00
         -2   -1    0    0    0  501 -0.00000000000E+00  0.00000000000E+00  0.44534795624E+03  0.44534795624E+03  0.00000000000E+00 0. -1.
          2   -1    0    0  501    0  0.00000000000E+00 -0.00000000000E+00 -0.72732040044E+02  0.72732040044E+02  0.00000000000E+00 0.  1.
         23    2    1    2    0    0 -0.63403868244E+02 -0.55112904111E+01 -0.63915096098E+01  0.11392126617E+03  0.94269712316E+02 0.  0.
          5    1    1    2  502    0 -0.37257752783E+02 -0.19398931176E+01  0.76239457250E+02  0.84981354247E+02  0.41800000000E+01 0.  1.
         -5    1    1    2    0  502  0.10066162103E+03  0.74511835287E+01  0.30276796855E+03  0.31917737587E+03  0.41800000000E+01 0.  1.
        -11    1    3    3    0    0 -0.79813266141E+02 -0.16043590031E+02  0.17310170905E+02  0.83229779827E+02  0.00000000000E+00 0.  1.
         11    1    3    3    0    0  0.16409397897E+02  0.10532299620E+02 -0.23701680515E+02  0.30691486342E+02  0.00000000000E+00 0. -1.
</event>
<event>
 7    1  0.5137842E-006  0.2470127E+03  0.7561462E-02  0.1115207E+00
          2   -1    0    0  501    0  0.00000000000E+00  0.00000000000E+00  0.18942542543E+04  0.18942542543E+04  0.00000000000E+00 0. -1.
         -2   -1    0    0    0  501 -0.00000000000E+00 -0.00000000000E+00 -0.32224792568E+02  0.32224792568E+02  0.00000000000E+00 0.  1.
         23    2    1    2    0    0 -0.17226869747E+03  0.11058227584E+03  0.84711810827E+03  0.87627523395E+03  0.91346879544E+02 0.  0.
          5    1    1    2  502    0 -0.30284640976E+02 -0.49754465636E+02  0.22720464238E+03  0.23458919039E+03  0.41800000000E+01 0. -1.
         -5    1    1    2    0  502  0.20255333845E+03 -0.60827810206E+02  0.78770671113E+03  0.81561462258E+03  0.41800000000E+01 0.  1.
        -11    1    3    3    0    0 -0.64241403493E+02  0.95393617279E+02  0.42417329431E+03  0.43948820660E+03  0.00000000000E+00 0.  1.
         11    1    3    3    0    0 -0.10802729398E+03  0.15188658564E+02  0.42294481397E+03  0.43678702734E+03  0.00000000000E+00 0. -1.
</event>
<event>
 7    1  0.5137842E-006  0.1169722E+03  0.7561462E-02  0.1248177E+00
         -3   -1    0    0    0  501 -0.00000000000E+00  0.00000000000E+00  0.15898662484E+04  0.15898662484E+04  0.00000000000E+00 0.  1.
          3   -1    0    0  501    0  0.00000000000E+00 -0.00000000000E+00 -0.11298241598E+02  0.11298241598E+02  0.00000000000E+00 0. -1.
         23    2    1    2    0    0  0.69097404039E+02  0.73767126480E+01  0.47931982371E+03  0.49264129151E+03  0.90105946364E+02 0.  0.
          5    1    1    2  502    0 -0.92509959486E+02  0.61788270055E+01  0.10282554980E+04  0.10324355244E+04  0.41800000000E+01 0. -1.
         -5    1    1    2    0  502  0.23412555447E+02 -0.13555539653E+02  0.70992685044E+02  0.76087674019E+02  0.41800000000E+01 0. -1.
        -11    1    3    3    0    0  0.48713472039E+02  0.47950008307E+02  0.29348218952E+03  0.30133702265E+03  0.00000000000E+00 0. -1.
         11    1    3    3    0    0  0.20383932000E+02 -0.40573295659E+02  0.18583763418E+03  0.19130426886E+03  0.00000000000E+00 0.  1.
</event>
<event>
 7    1  0.5137842E-006  0.9616351E+02  0.7561462E-02  0.1288577E+00
          2   -1    0    0  501    0  0.00000000000E+00  0.00000000000E+00  0.70310346247E+02  0.70310346247E+02  0.00000000000E+00 0.  1.
         -2   -1    0    0    0  501 -0.00000000000E+00 -0.00000000000E+00 -0.22598481852E+03  0.22598481852E+03  0.00000000000E+00 0. -1.
         23    2    1    2    0    0  0.10076791959E+02 -0.47885008628E+02 -0.23431838477E+02  0.10780010419E+03  0.93152002782E+02 0.  0.
          5    1    1    2  502    0  0.44470344117E+02 -0.12672634663E+02 -0.77106468982E+02  0.90006039431E+02  0.41800000000E+01 0.  1.
         -5    1    1    2    0  502 -0.54547136077E+02  0.60557643291E+02 -0.55136164815E+02  0.98489021143E+02  0.41800000000E+01 0.  1.
        -11    1    3    3    0    0  0.26486078012E+02 -0.29620760199E+02  0.29474729587E+02  0.49473846095E+02  0.00000000000E+00 0.  1.
         11    1    3    3    0    0 -0.16409286053E+02 -0.18264248429E+02 -0.52906568064E+02  0.58326258098E+02  0.00000000000E+00 0. -1.
</event>
<event>
 7    1  0.5137842E-006  0.1116573E+03  0.7561462E-02  0.1257531E+00
         -2   -1    0    0    0  501 -0.00000000000E+00  0.00000000000E+00  0.43082853490E+02  0.43082853490E+02  0.00000000000E+00 0.  1.
          2   -1    0    0  501    0  0.00000000000E+00 -0.00000000000E+00 -0.41596759356E+03  0.41596759356E+03  0.00000000000E+00 0. -1.
         23    2    1    2    0    0 -0.52126435584E+02  0.60805166566E+01 -0.26660790858E+03  0.28671571410E+03  0.91498556432E+02 0.  0.
          5    1    1    2  502    0  0.31990197622E+02  0.58574751623E+02 -0.62906679842E+02  0.91810114041E+02  0.41800000000E+01 0.  1.
         -5    1    1    2    0  502  0.20136237962E+02 -0.64655268279E+02 -0.43370151654E+02  0.80524618907E+02  0.41800000000E+01 0.  1.
        -11    1    3    3    0    0 -0.13062365108E+02 -0.31678271063E+02 -0.35625838818E+02  0.49430138895E+02  0.00000000000E+00 0.  1.
         11    1    3    3    0    0 -0.39064070476E+02  0.37758787719E+02 -0.23098206976E+03  0.23728557521E+03  0.00000000000E+00 0. -1.
</event>
<event>
 7    1  0.5137842E-006  0.1513897E+03  0.7561462E-02  0.1198776E+00
          1   -1    0    0  501    0  0.00000000000E+00  0.00000000000E+00  0.91913524422E+03  0.91913524422E+03  0.00000000000E+00 0. -1.
         -1   -1    0    0    0  501 -0.00000000000E+00 -0.00000000000E+00 -0.27578388145E+02  0.27578388145E+02  0.00000000000E+00 0.  1.
         23    2    1    2    0    0  0.11091361493E+03 -0.30485534469E+02  0.37993379665E+03  0.40760803817E+03  0.92538776511E+02 0.  0.
          5    1    1    2  502    0 -0.13017775580E+03  0.45124840014E+02  0.47796000700E+03  0.49743918219E+03  0.41800000000E+01 0.  1.
         -5    1    1    2    0  502  0.19264140870E+02 -0.14639305545E+02  0.33663052428E+02  0.41666412001E+02  0.41800000000E+01 0.  1.
        -11    1    3    3    0    0  0.59238585398E+02 -0.57083833805E+02  0.28172663133E+03  0.29349219560E+03  0.00000000000E+00 0. -1.
         11    1    3    3    0    0  0.51675029528E+02  0.26598299336E+02  0.98207165323E+02  0.11411584257E+03  0.00000000000E+00 0.  1.
</event>
<event>
 7    1  0.5137842E-006  0.2422994E+03  0.7561462E-02  0.1118270E+00
          1   -1    0    0  501    0  0.00000000000E+00  0.00000000000E+00  0.21605006989E+03  0.21605006989E+03  0.00000000000E+00 0. -1.
         -1   -1    0    0    0  501 -0.00000000000E+00 -0.00000000000E+00 -0.29816763961E+03  0.29816763961E+03  0.00000000000E+00 0.  1.
         23    2    1    2    0    0  0.54755713941E+02 -0.21733293314E+03  0.90985679447E+01  0.24180937608E+03  0.90317209800E+02 0.  0.
          5    1    1    2  502    0 -0.18016074435E+02  0.21882389542E+03 -0.75780348638E+02  0.23231144996E+03  0.41800000000E+01 0. -1.
         -5    1    1    2    0  502 -0.36739639506E+02 -0.14909622832E+01 -0.15435789030E+02  0.40096883452E+02  0.41800000000E+01 0. -1.
        -11    1    3    3    0    0  0.59950488268E+02 -0.16788364822E+03  0.40754799346E+02  0.18286589089E+03  0.00000000000E+00 0.  1.
         11    1    3    3    0    0 -0.51947743272E+01 -0.49449284918E+02 -0.31656231401E+02  0.58943485185E+02  0.00000000000E+00 0. -1.
</event>
<event>
 7    1  0.5137842E-006  0.1108466E+03  0.7561462E-02  0.1259010E+00
         -2   -1    0    0    0  501 -0.00000000000E+00  0.00000000000E+00  0.38620437756E+03  0.38620437756E+03  0.00000000000E+00 0. -1.
          2   -1    0    0  501    0  0.00000000000E+00 -0.00000000000E+00 -0.44711252166E+02  0.44711252166E+02  0.00000000000E+00 0.  1.
         23    2    1    2    0    0 -0.54429445413E+01 -0.41284769334E+02  0.55039087434E+02  0.11557829412E+03  0.92709131708E+02 0.  0.
          5    1    1    2  502    0  0.33681844286E+02  0.76956706887E+02  0.15787010561E+03  0.17887773482E+03  0.41800000000E+01 0.  1.
         -5    1    1    2    0  502 -0.28238899745E+02 -0.35671937552E+02  0.12858393235E+03  0.13645960079E+03  0.41800000000E+01 0.  1.
        -11    1    3    3    0    0 -0.35903275165E+02 -0.48740768086E+02  0.11020983857E+02  0.61531859441E+02  0.00000000000E+00 0.  1.
         11    1    3    3    0    0  0.30460330624E+02  0.74559987511E+01  0.44018103576E+02  0.54046434679E+02  0.00000000000E+00 0. -1.
</event>
<event>
 6    1  0.5137842E-006  0.1684930E+03  0.7561462E-02  0.1179429E+00
         -3   -1    0    0    0  501 -0.00000000000E+00  0.00000000000E+00  0.52428830715E+03  0.52428830715E+03  0.00000000000E+00 0.  1.
          3   -1    0    0  501    0  0.00000000000E+00 -0.00000000000E+00 -0.78430570160E+02  0.78430570160E+02  0.00000000000E+00 0. -1.
          5    1    1    2  502    0  0.71039458992E+00 -0.57035878956E+01  0.15250097878E+03  0.15266648782E+03  0.41800000000E+01 0. -1.
         -5    1    1    2    0  502  0.13766436701E+03 -0.73878185062E+01  0.15740842972E+03  0.20928675054E+03  0.41800000000E+01 0. -1.
        -11    1    1    2    0    0 -0.16302984015E+03  0.24369641506E+02  0.13592342741E+03  0.21365342573E+03  0.00000000000E+00 0.  1.
         11    1    1    2    0    0  0.24655078556E+02 -0.11278235104E+02  0.24901087014E-01  0.27112213220E+02  0.00000000000E+00 0. -1.
</event>
<event>
 7    1  0.5137842E-006  0.1262347E+03  0.7561462E-02  0.1233152E+00
          1   -1    0    0  501    0  0.00000000000E+00  0.00000000000E+00  0.43105824593E+03  0.43105824593E+03  0.00000000000E+00 0. -1.
         -1   -1    0    0    0  501 -0.00000000000E+00 -0.00000000000E+00 -0.55937471130E+02  0.55937471130E+02  0.00000000000E+00 0.  1.
         23    2    1    2    0    0  0.23491550208E+02  0.77457718305E+02  0.29138681457E+03  0.31608615354E+03  0.91938184114E+02 0.  0.
          5    1    1    2  502    0 -0.19615405746E+02 -0.10779510843E+03  0.86863310896E+02  0.13988301084E+03  0.41800000000E+01 0.  1.
         -5    1    1    2    0  502 -0.38761444611E+01  0.30337390121E+02 -0.31293506684E+01  0.31026552674E+02  0.41800000000E+01 0.  1.
        -11    1    3    3    0    0  0.46838738286E+02  0.21927208682E+02  0.72461053765E+02  0.89024009107E+02  0.00000000000E+00 0.  1.
         11    1    3    3    0    0 -0.23347188078E+02  0.55530509623E+02  0.21892576081E+03  0.22706214444E+03  0.00000000000E+00 0. -1.
</event>
<event>
 7    1  0.5137842E-006  0.8162345E+02  0.7561462E-02  0.1324506E+00
         -1   -1    0    0    0  501 -0.00000000000E+00  0.00000000000E+00  0.42586822064E+02  0.42586822064E+02  0.00000000000E+00 0.  1.
          1   -1    0    0  501    0  0.00000000000E+00 -0.00000000000E+00 -0.41084989582E+03  0.41084989582E+03  0.00000000000E+00 0. -1.
         23    2    1    2    0    0 -0.51927011084E+02  0.29778882395E+02 -0.24332276769E+03  0.26677841230E+03  0.91550836543E+02 0.  0.
          5    1    1    2  502    0  0.18780117544E+02 -0.29864034438E+02  0.18028444562E+02  0.39837803418E+02  0.41800000000E+01 0.  1.
         -5    1    1    2    0  502  0.33146893541E+02  0.85152042690E-01 -0.14296875062E+03  0.14682050217E+03  0.41800000000E+01 0.  1.
        -11    1    3    3    0    0 -0.12427558806E+02  0.48881274491E+02 -0.60507584182E+02  0.78771764975E+02  0.00000000000E+00 0. -1.
         11    1    3    3    0    0 -0.39499452279E+02 -0.19102392096E+02 -0.18281518351E+03  0.18800664732E+03  0.00000000000E+00 0.  1.
</event>
<event>
 7    1  0.5137842E-006  0.1136474E+03  0.7561462E-02  0.1253961E+00
         -1   -1    0    0    0  501 -0.00000000000E+00  0.00000000000E+00  0.12746508524E+03  0.12746508524E+03  0.00000000000E+00 0.  1.
          1   -1    0    0  501    0  0.00000000000E+00 -0.00000000000E+00 -0.12359508806E+03  0.12359508806E+03  0.00000000000E+00 0. -1.
         23    2    1    2    0    0 -0.46762245296E+02  0.29619689904E+01 -0.47522197144E+02  0.10794111758E+03  0.84837755725E+02 0.  0.
          5    1    1    2  502    0 -0.10986011854E+02 -0.54455701316E+02  0.16206602504E+02  0.58019326323E+02  0.41800000000E+01 0. -1.
         -5    1    1    2    0  502  0.57748257150E+02  0.51493732326E+02  0.35185591822E+02  0.85099729404E+02  0.41800000000E+01 0. -1.
        -11    1    3    3    0    0 -0.70282997150E+02  0.51869454947E+01 -0.46221708874E+02  0.84279596957E+02  0.00000000000E+00 0.  1.
         11    1    3    3    0    0  0.23520751854E+02 -0.22249765043E+01 -0.13004882701E+01  0.23661520618E+02  0.00000000000E+00 0. -1.
</event>
<event>
 7    1  0.5137842E-006  0.1197617E+03  0.7561462E-02  0.1243491E+00
         -2   -1    0    0    0  501 -0.00000000000E+00  0.00000000000E+00  0.46911360083E+02  0.46911360083E+02  0.00000000000E+00 0.  1.
          2   -1    0    0  501    0  0.00000000000E+00 -0.00000000000E+00 -0.36702667957E+03  0.36702667957E+03  0.00000000000E+00 0. -1.
         23    2    1    2    0    0  0.93679161594E+01 -0.58007599889E+02 -0.21065148167E+03  0.23763999225E+03  0.92984298083E+02 0.  0.
          5    1    1    2  502    0 -0.59010734601E+01  0.93440577627E+02 -0.48374830934E+02  0.10546829326E+03  0.41800000000E+01 0. -1.
         -5    1    1    2    0  502 -0.34668426994E+01 -0.35432977738E+02 -0.61089006881E+02  0.70829754139E+02  0.41800000000E+01 0. -1.
        -11    1    3    3    0    0  0.34958398044E+02  0.10764089501E+02 -0.73023309066E+02  0.81672265082E+02  0.00000000000E+00 0.  1.
         11    1    3    3    0    0 -0.25590481885E+02 -0.68771689390E+02 -0.13762817260E+03  0.15596772717E+03  0.00000000000E+00 0. -1.
</event>
<event>
 7    1  0.5137842E-006  0.8984100E+02  0.7561462E-02  0.1303237E+00
          1   -1    0    0  501    0  0.00000000000E+00  0.00000000000E+00  0.23268915633E+03  0.23268915633E+03  0.00000000000E+00 0. -1.
         -1   -1    0    0    0  501 -0.00000000000E+00 -0.00000000000E+00 -0.58534177024E+02  0.58534177024E+02  0.00000000000E+00 0.  1.
         23    2    1    2    0    0  0.21486766102E+02 -0.26108937756E+02  0.11947216244E+03  0.15057599939E+03  0.85183192276E+02 0.  0.
          5    1    1    2  502    0  0.29310308393E+02  0.60950305251E+02  0.31109202090E+02  0.74560638027E+02  0.41800000000E+01 0.  1.
         -5    1    1    2    0  502 -0.50797074495E+02 -0.34841367495E+02  0.23573614778E+02  0.66086695937E+02  0.41800000000E+01 0.  1.
        -11    1    3    3    0    0  0.62789059618E+01 -0.32923750403E+02  0.12767534011E+03  0.13200147906E+03  0.00000000000E+00 0. -1.
         11    1    3    3    0    0  0.15207860140E+02  0.68148126474E+01 -0.82031776772E+01  0.18574520329E+02  0.00000000000E+00 0.  1.
</event>
<event>
 7    1  0.5137842E-006  0.8688662E+02  0.7561462E-02  0.1310571E+00
          1   -1    0    0  501    0  0.00000000000E+00  0.00000000000E+00  0.64314987988E+02  0.64314987988E+02  0.00000000000E+00 0. -1.
         -1   -1    0    0    0  501 -0.00000000000E+00 -0.00000000000E+00 -0.29985144823E+03  0.29985144823E+03  0.00000000000E+00 0.  1.
         23    2    1    2    0    0 -0.52690827960E+02  0.26670369722E+02 -0.22586043496E+02  0.11023073205E+03  0.90294257598E+02 0.  0.
          5    1    1    2  502    0  0.48137006399E+02 -0.78591210393E+01 -0.99276727248E+01  0.49949657199E+02  0.41800000000E+01 0.  1.
         -5    1    1    2    0  502  0.45538215614E+01 -0.18811248683E+02 -0.20302274403E+03  0.20398604697E+03  0.41800000000E+01 0.  1.
        -11    1    3    3    0    0 -0.19496098778E+02  0.56884625618E+02 -0.33943813672E+00  0.60133798463E+02  0.00000000000E+00 0.  1.
         11    1    3    3    0    0 -0.33194729183E+02 -0.30214255896E+02 -0.22246605359E+02  0.50096933588E+02  0.00000000000E+00 0. -1.
</event>
<event>
 7    1  0.5137842E-006  0.8961867E+02  0.7561462E-02  0.1303778E+00
          1   -1    0    0  501    0  0.00000000000E+00  0.00000000000E+00  0.40926385927E+02  0.40926385927E+02  0.00000000000E+00 0. -1.
         -1   -1    0    0    0  501 -0.00000000000E+00 -0.00000000000E+00 -0.31164107104E+03  0.31164107104E+03  0.00000000000E+00 0.  1.
         23    2    1    2    0    0  0.28726245239E+01 -0.27627397390E+02 -0.74630964350E+02  0.12212046457E+03  0.92585646665E+02 0.  0.
          5    1    1    2  502    0  0.12947516190E+02  0.53604729311E+02 -0.32794488450E+02  0.64296625516E+02  0.41800000000E+01 0. -1.
         -5    1    1    2    0  502 -0.15820140714E+02 -0.25977331921E+02 -0.16328923232E+03  0.16615036689E+03  0.41800000000E+01 0.  1.
        -11    1    3    3    0    0 -0.35534785819E+02  0.12515708284E+02 -0.46502137380E+02  0.59848247576E+02  0.00000000000E+00 0. -1.
         11    1    3    3    0    0  0.38407410342E+02 -0.40143105675E+02 -0.28128826970E+02  0.62272216992E+02  0.00000000000E+00 0.  1.
</event>
<event>
 7    1  0.5137842E-006  0.8237042E+02  0.7561462E-02  0.1322456E+00
         -2   -1    0    0    0  501 -0.00000000000E+00  0.00000000000E+00  0.46744879846E+02  0.46744879846E+02  0.00000000000E+00 0.  1.
          2   -1    0    0  501    0  0.00000000000E+00 -0.00000000000E+00 -0.27475846931E+03  0.27475846931E+03  0.00000000000E+00 0. -1.
         23    2    1    2    0    0 -0.15365329692E+02  0.13392584512E+02 -0.14076122372E+03  0.16900144941E+03  0.91281504825E+02 0.  0.
          5    1    1    2  502    0 -0.16542408511E+02  0.20115472761E+02  0.21636760355E+02  0.34116056665E+02  0.41800000000E+01 0.  1.
         -5    1    1    2    0  502  0.31907738203E+02 -0.33508057272E+02 -0.10888912610E+03  0.11838584308E+03  0.41800000000E+01 0.  1.
        -11    1    3    3    0    0 -0.78118427903E+00  0.51291393945E+02 -0.93860523578E+02  0.10696361638E+03  0.00000000000E+00 0.  1.
         11    1    3    3    0    0 -0.14584145413E+02 -0.37898809433E+02 -0.46900700145E+02  0.62037833038E+02  0.00000000000E+00 0. -1.
</event>
<event>
 7    1  0.5137842E-006  0.1088511E+03  0.7561462E-02  0.1262712E+00
         -2   -1    0    0    0  501 -0.00000000000E+00  0.00000000000E+00  0.77371118899E+02  0.77371118899E+02  0.00000000000E+00 0.  1.
          2   -1    0    0  501    0  0.00000000000E+00 -0.00000000000E+00 -0.25210210090E+03  0.25210210090E+03  0.00000000000E+00 0. -1.
         23    2    1    2    0    0  0.30154640000E+02  0.13185881937E+02 -0.68781397554E+02  0.11910896812E+03  0.91503529115E+02 0.  0.
          5    1    1    2  502    0  0.41876096336E+02  0.17662008806E+02 -0.12201085793E+03  0.13026770840E+03  0.41800000000E+01 0. -1.
         -5    1    1    2    0  502 -0.72030736336E+02 -0.30847890743E+02  0.16061273477E+02  0.80096543285E+02  0.41800000000E+01 0.  1.
        -11    1    3    3    0    0 -0.26167699728E+02  0.24836490592E+02 -0.42859433438E+02  0.56022591949E+02  0.00000000000E+00 0.  1.
         11    1    3    3    0    0  0.56322339728E+02 -0.11650608655E+02 -0.25921964115E+02  0.63086376168E+02  0.00000000000E+00 0. -1.
</event>
<event>
 7    1  0.5137842E-006  0.9795801E+02  0.7561462E-02  0.1284650E+00
          1   -1    0    0  501    0  0.00000000000E+00  0.00000000000E+00  0.15430478125E+03  0.15430478125E+03  0.00000000000E+00 0. -1.
         -1   -1    0    0    0  501 -0.00000000000E+00 -0.00000000000E+00 -0.11514157137E+03  0.11514157137E+03  0.00000000000E+00 0.  1.
         23    2    1    2    0    0 -0.34360255114E+02  0.68417348623E+02  0.27811735080E+02  0.12234561972E+03  0.91287443461E+02 0.  0.
          5    1    1    2  502    0  0.63926491925E+02 -0.52052694252E+02  0.49275521512E+02  0.96133390500E+02  0.41800000000E+01 0.  1.
         -5    1    1    2    0  502 -0.29566236811E+02 -0.16364654370E+02 -0.37924046710E+02  0.50967342394E+02  0.41800000000E+01 0.  1.
        -11    1    3    3    0    0 -0.13446958348E+02  0.86207470514E+01  0.52105511381E+02  0.54498828289E+02  0.00000000000E+00 0. -1.
         11    1    3    3    0    0 -0.20913296766E+02  0.59796601571E+02 -0.24293776302E+02  0.67846791436E+02  0.00000000000E+00 0.  1.
</event>
<event>
 7    1  0.5137842E-006  0.2481417E+03  0.7561462E-02  0.1114485E+00
         -2   -1    0    0    0  501 -0.00000000000E+00  0.00000000000E+00  0.46169247705E+02  0.46169247705E+02  0.00000000000E+00 0.  1.
          2   -1    0    0  501    0  0.00000000000E+00 -0.00000000000E+00 -0.15345926979E+04  0.15345926979E+04  0.00000000000E+00 0. -1.
         23    2    1    2    0    0 -0.38903329375E+02 -0.23016444985E+03 -0.90278385259E+03  0.93803464721E+03  0.10198613563E+03 0.  0.
          5    1    1    2  502    0  0.30679475983E+02  0.19473477077E+02 -0.26586569334E+02  0.45219073686E+02  0.41800000000E+01 0.  1.
         -5    1    1    2    0  502  0.82238533925E+01  0.21069097277E+03 -0.55905302826E+03  0.59750822469E+03  0.41800000000E+01 0.  1.
        -11    1    3    3    0    0 -0.59015451553E+02 -0.92743761802E+02 -0.30137536408E+03  0.32079797217E+03  0.00000000000E+00 0.  1.
         11    1    3    3    0    0  0.20112122178E+02 -0.13742068805E+03 -0.60140848851E+03  0.61723667504E+03  0.00000000000E+00 0. -1.
</event>
<event>
 7    1  0.5137842E-006  0.1112530E+03  0.7561462E-02  0.1258267E+00
         -2   -1    0    0    0  501 -0.00000000000E+00  0.00000000000E+00  0.56818961988E+02  0.56818961988E+02  0.00000000000E+00 0. -1.
          2   -1    0    0  501    0  0.00000000000E+00 -0.00000000000E+00 -0.24455590732E+03  0.24455590732E+03  0.00000000000E+00 0.  1.
         23    2    1    2    0    0  0.33597043140E+02 -0.50357379871E+01 -0.11964413169E+03  0.15495778619E+03  0.92428768730E+02 0.  0.
          5    1    1    2  502    0 -0.33846281729E+02 -0.54538693190E+02 -0.56429305221E+02  0.85567392910E+02  0.41800000000E+01 0. -1.
         -5    1    1    2    0  502  0.24923858915E+00  0.59574431177E+02 -0.11663508429E+02  0.60849690212E+02  0.41800000000E+01 0. -1.
        -11    1    3    3    0    0  0.44869240731E+02  0.34976571502E+02 -0.67868030694E+02  0.88558900784E+02  0.00000000000E+00 0. -1.
         11    1    3    3    0    0 -0.11272197591E+02 -0.40012309489E+02 -0.51776100992E+02  0.66398885406E+02  0.00000000000E+00 0.  1.
</event>
<event>
 6    1  0.1066010E-005  0.7170470E+02  0.7561462E-02  0.1354390E+00
         -2   -1    0    0    0  501 -0.00000000000E+00  0.00000000000E+00  0.36282510524E+02  0.36282510524E+02  0.00000000000E+00 0.  1.
          2   -1    0    0  501    0  0.00000000000E+00 -0.00000000000E+00 -0.18200829454E+03  0.18200829454E+03  0.00000000000E+00 0. -1.
          5    1    1    2  502    0 -0.26027713581E+02 -0.66345381741E+02 -0.67912212301E+02  0.98532697782E+02  0.41800000000E+01 0. -1.
         -5    1    1    2    0  502  0.15221482134E+02  0.47204378669E+02 -0.17325357122E+02  0.52702820449E+02  0.41800000000E+01 0.  1.
        -11    1    1    2    0    0  0.41992780449E+01  0.10910888943E+02 -0.52588229528E+02  0.53872101486E+02  0.00000000000E+00 0.  1.
         11    1    1    2    0    0  0.66069534022E+01  0.82301141295E+01 -0.78999850596E+01  0.13183185343E+02  0.00000000000E+00 0. -1.
</event>
<event>
 7    1  0.5137842E-006  0.5529336E+02  0.7561462E-02  0.1418717E+00
          2   -1    0    0  501    0  0.00000000000E+00  0.00000000000E+00  0.99124961277E+02  0.99124961277E+02  0.00000000000E+00 0. -1.
         -2   -1    0    0    0  501 -0.00000000000E+00 -0.00000000000E+00 -0.12796138464E+03  0.12796138464E+03  0.00000000000E+00 0.  1.
         23    2    1    2    0    0  0.20129172996E+02 -0.20947194175E+02  0.30469133990E+02  0.97405182363E+02  0.87837536826E+02 0.  0.
          5    1    1    2  502    0  0.14282433492E+02  0.10988813840E+02  0.28941376855E+02  0.34348473478E+02  0.41800000000E+01 0. -1.
         -5    1    1    2    0  502 -0.34411606488E+02  0.99583803349E+01 -0.88246934207E+02  0.95332690075E+02  0.41800000000E+01 0.  1.
        -11    1    3    3    0    0  0.14270326608E+02  0.14351902793E+02 -0.24523257931E+02  0.31796375813E+02  0.00000000000E+00 0. -1.
         11    1    3    3    0    0  0.58588463879E+01 -0.35299096968E+02  0.54992391921E+02  0.65608806550E+02  0.00000000000E+00 0.  1.
</event>
<event>
 7    1  0.5137842E-006  0.1142074E+03  0.7561462E-02  0.1252971E+00
         -2   -1    0    0    0  501 -0.00000000000E+00  0.00000000000E+00  0.32242926011E+02  0.32242926011E+02  0.00000000000E+00 0.  1.
          2   -1    0    0  501    0  0.00000000000E+00 -0.00000000000E+00 -0.56449416907E+03  0.56449416907E+03  0.00000000000E+00 0. -1.
         23    2    1    2    0    0  0.53367717359E+02  0.57707216713E+02 -0.27131314288E+03  0.29687989158E+03  0.91370741547E+02 0.  0.
          5    1    1    2  502    0 -0.63506736904E+02 -0.77521662231E+02 -0.25825922171E+03  0.27705236282E+03  0.41800000000E+01 0.  1.
         -5    1    1    2    0  502  0.10139019545E+02  0.19814445518E+02 -0.26788784740E+01  0.22804840679E+02  0.41800000000E+01 0.  1.
        -11    1    3    3    0    0  0.17530379583E+02 -0.15857073095E+02 -0.14126596928E+03  0.14323000751E+03  0.00000000000E+00 0. -1.
         11    1    3    3    0    0  0.35837337776E+02  0.73564289808E+02 -0.13004717360E+03  0.15364988407E+03  0.00000000000E+00 0.  1.
</event>
<event>
 7    1  0.5137842E-006  0.1521612E+03  0.7561462E-02  0.1197842E+00
          1   -1    0    0  501    0  0.00000000000E+00  0.00000000000E+00  0.54269324857E+02  0.54269324857E+02  0.00000000000E+00 0. -1.
         -1   -1    0    0    0  501 -0.00000000000E+00 -0.00000000000E+00 -0.54572271844E+03  0.54572271844E+03  0.00000000000E+00 0.  1.
         23    2    1    2    0    0 -0.62602623380E+02 -0.91684431616E+02 -0.10239226059E+03  0.17650413751E+03  0.91347753529E+02 0.  0.
          5    1    1    2  502    0  0.82506178286E+02  0.10695324148E+03 -0.27233130847E+03  0.30401986660E+03  0.41800000000E+01 0. -1.
         -5    1    1    2    0  502 -0.19903554906E+02 -0.15268809864E+02 -0.11672982452E+03  0.11946803918E+03  0.41800000000E+01 0. -1.
        -11    1    3    3    0    0 -0.82240942003E+02 -0.46491922079E+02 -0.68735070045E+02  0.11683142220E+03  0.00000000000E+00 0.  1.
         11    1    3    3    0    0  0.19638318623E+02 -0.45192509537E+02 -0.33657190549E+02  0.59672715308E+02  0.00000000000E+00 0. -1.
</event>
<event>
 7    1  0.5137842E-006  0.1356703E+03  0.7561462E-02  0.1219277E+00
          2   -1    0    0  501    0  0.00000000000E+00  0.00000000000E+00  0.48824929755E+03  0.48824929755E+03  0.00000000000E+00 0. -1.
         -2   -1    0    0    0  501 -0.00000000000E+00 -0.00000000000E+00 -0.50980687203E+02  0.50980687203E+02  0.00000000000E+00 0.  1.
         23    2    1    2    0    0 -0.38562768740E+01 -0.11063827978E+03  0.24354557370E+03  0.28342988591E+03  0.93607445936E+02 0.  0.
          5    1    1    2  502    0 -0.42445552376E+02  0.42267905174E+02  0.15149480215E+03  0.16296118618E+03  0.41800000000E+01 0. -1.
         -5    1    1    2    0  502  0.46301829250E+02  0.68370374603E+02  0.42228234505E+02  0.92838912664E+02  0.41800000000E+01 0. -1.
        -11    1    3    3    0    0  0.18894698575E+02 -0.36630601828E+01  0.33889520218E+01  0.19542585293E+02  0.00000000000E+00 0.  1.
         11    1    3    3    0    0 -0.22750975449E+02 -0.10697521959E+03  0.24015662167E+03  0.26388730061E+03  0.00000000000E+00 0. -1.
</event>
<event>
 7    1  0.5137842E-006  0.2429167E+03  0.7561462E-02  0.1117865E+00
          1   -1    0    0  501    0  0.00000000000E+00  0.00000000000E+00  0.70347193367E+03  0.70347193367E+03  0.00000000000E+00 0. -1.
         -1   -1    0    0    0  501 -0.00000000000E+00 -0.00000000000E+00 -0.10211737227E+03  0.10211737227E+03  0.00000000000E+00 0.  1.
         23    2    1    2    0    0 -0.85983483431E+02  0.21950315875E+03  0.39220523956E+03  0.46647737349E+03  0.90561547666E+02 0.  0.
          5    1    1    2  502    0  0.26689954235E+02 -0.16633127581E+03  0.19566760478E+03  0.25822805992E+03  0.41800000000E+01 0. -1.
         -5    1    1    2    0  502  0.59293529196E+02 -0.53171882947E+02  0.13481717052E+02  0.80883872529E+02  0.41800000000E+01 0. -1.
        -11    1    3    3    0    0 -0.18071889362E+02  0.84939939175E+02  0.72898536363E+02  0.11338246362E+03  0.00000000000E+00 0. -1.
         11    1    3    3    0    0 -0.67911594068E+02  0.13456321958E+03  0.31930670320E+03  0.35309490988E+03  0.00000000000E+00 0.  1.
</event>
<event>
 7    1  0.5137842E-006  0.1127745E+03  0.7561462E-02  0.1255517E+00
          2   -1    0    0  501    0  0.00000000000E+00  0.00000000000E+00  0.14690650782E+03  0.14690650782E+03  0.00000000000E+00 0. -1.
         -2   -1    0    0    0  501 -0.00000000000E+00 -0.00000000000E+00 -0.13876646055E+03  0.13876646055E+03  0.00000000000E+00 0.  1.
         23    2    1    2    0    0 -0.65111512269E+02  0.16276402584E+02  0.67820795166E+02  0.13167981779E+03  0.90749566644E+02 0.  0.
          5    1    1    2  502    0 -0.66480687322E+01 -0.46172918315E+02  0.11804758078E+02  0.48300723771E+02  0.41800000000E+01 0.  1.
         -5    1    1    2    0  502  0.71759581001E+02  0.29896515731E+02 -0.71485505973E+02  0.10569242680E+03  0.41800000000E+01 0.  1.
        -11    1    3    3    0    0  0.42951230260E+01  0.29836089770E+02 -0.45596448944E+01  0.30486565830E+02  0.00000000000E+00 0.  1.
         11    1    3    3    0    0 -0.69406635295E+02 -0.13559687186E+02  0.72380440061E+02  0.10119325196E+03  0.00000000000E+00 0. -1.
</event>
<event>
 7    1  0.5137842E-006  0.4930158E+02  0.7561462E-02  0.1449145E+00
          1   -1    0    0  501    0  0.00000000000E+00  0.00000000000E+00  0.68003494114E+02  0.68003494114E+02  0.00000000000E+00 0. -1.
         -1   -1    0    0    0  501 -0.00000000000E+00 -0.00000000000E+00 -0.18125650258E+03  0.18125650258E+03  0.00000000000E+00 0.  1.
         23    2    1    2    0    0 -0.46626078403E+01  0.14474864316E+02 -0.32797240676E+02  0.99755506035E+02  0.92974407122E+02 0.  0.
          5    1    1    2  502    0 -0.27670077568E+01 -0.38194473138E+02 -0.10650491959E+03  0.11325742539E+03  0.41800000000E+01 0. -1.
         -5    1    1    2    0  502  0.74296155970E+01  0.23719608822E+02  0.26049151801E+02  0.36247065263E+02  0.41800000000E+01 0. -1.
        -11    1    3    3    0    0 -0.36727455282E+01 -0.98596588491E+01 -0.61339150976E+02  0.62234985135E+02  0.00000000000E+00 0.  1.
         11    1    3    3    0    0 -0.98986231206E+00  0.24334523165E+02  0.28541910300E+02  0.37520520900E+02  0.00000000000E+00 0. -1.
</event>
<event>
 7    1  0.5137842E-006  0.1275389E+03  0.7561462E-02  0.1231154E+00
         -3   -1    0    0    0  501 -0.00000000000E+00  0.00000000000E+00  0.33314797206E+03  0.33314797206E+03  0.00000000000E+00 0.  1.
          3   -1    0    0  501    0  0.00000000000E+00 -0.00000000000E+00 -0.99810458436E+02  0.99810458436E+02  0.00000000000E+00 0. -1.
         23    2    1    2    0    0  0.37757973300E+01  0.97019198507E+02 -0.22008323683E+02  0.13249804632E+03  0.87432170518E+02 0.  0.
          5    1    1    2  502    0 -0.62207488919E+02 -0.36700796757E+02  0.14158124032E+03  0.15899509480E+03  0.41800000000E+01 0. -1.
         -5    1    1    2    0  502  0.58431691589E+02 -0.60318401751E+02  0.11376459699E+03  0.14146528938E+03  0.41800000000E+01 0. -1.
        -11    1    3    3    0    0  0.10025322745E+02  0.38106959712E+02  0.33194736267E+02  0.51522208711E+02  0.00000000000E+00 0.  1.
         11    1    3    3    0    0 -0.62495254149E+01  0.58912238795E+02 -0.55203059950E+02  0.80975837604E+02  0.00000000000E+00 0. -1.
</event>
<event>
 7    1  0.5137842E-006  0.1215579E+03  0.7561462E-02  0.1240549E+00
          1   -1    0    0  501    0  0.00000000000E+00  0.00000000000E+00  0.27895808977E+02  0.27895808977E+02  0.00000000000E+00 0. -1.
         -1   -1    0    0    0  501 -0.00000000000E+00 -0.00000000000E+00 -0.55233936050E+03  0.55233936050E+03  0.00000000000E+00 0.  1.
         23    2    1    2    0    0 -0.12971477546E+02  0.57709070362E+02 -0.26054765121E+03  0.28226354346E+03  0.91044128781E+02 0.  0.
          5    1    1    2  502    0 -0.54621469025E+02 -0.18289598275E+02 -0.13911565652E+03  0.15062752927E+03  0.41800000000E+01 0.  1.
         -5    1    1    2    0  502  0.67592946571E+02 -0.39419472087E+02 -0.12478024379E+03  0.14734409675E+03  0.41800000000E+01 0.  1.
        -11    1    3    3    0    0 -0.50973324627E+02  0.41321813750E+02 -0.13563653120E+03  0.15067528235E+03  0.00000000000E+00 0. -1.
         11    1    3    3    0    0  0.38001847081E+02  0.16387256612E+02 -0.12491112000E+03  0.13158826111E+03  0.00000000000E+00 0.  1.
</event>
<event>
 7    1  0.5137842E-006  0.7936765E+02  0.7561462E-02  0.1330856E+00
         -1   -1    0    0    0  501 -0.00000000000E+00  0.00000000000E+00  0.36762352671E+03  0.36762352671E+03  0.00000000000E+00 0.  1.
          1   -1    0    0  501    0  0.00000000000E+00 -0.00000000000E+00 -0.45703631998E+02  0.45703631998E+02  0.00000000000E+00 0. -1.
         23    2    1    2    0    0  0.41279731460E+02 -0.30527033045E+02  0.66944764414E+02  0.12471836535E+03  0.91853977576E+02 0.  0.
          5    1    1    2  502    0 -0.40101152635E+02 -0.54234903969E+01  0.11250285931E+02  0.42208506540E+02  0.41800000000E+01 0. -1.
         -5    1    1    2    0  502 -0.11785788247E+01  0.35950523442E+02  0.24372484437E+03  0.24640028682E+03  0.41800000000E+01 0. -1.
        -11    1    3    3    0    0 -0.17040515960E+02 -0.11246298217E+02 -0.12771067303E+02  0.24082328954E+02  0.00000000000E+00 0. -1.
         11    1    3    3    0    0  0.58320247420E+02 -0.19280734828E+02  0.79715831717E+02  0.10063603639E+03  0.00000000000E+00 0.  1.
</event>
<event>
 7    1  0.5137842E-006  0.1905060E+03  0.7561462E-02  0.1158006E+00
          2   -1    0    0  501    0  0.00000000000E+00  0.00000000000E+00  0.56295472684E+02  0.56295472684E+02  0.00000000000E+00 0.  1.
         -2   -1    0    0    0  501 -0.00000000000E+00 -0.00000000000E+00 -0.84687498453E+03  0.84687498453E+03  0.00000000000E+00 0. -1.
         23    2    1    2    0    0  0.25573716570E+01  0.17084891806E+03 -0.21645666313E+03  0.29123886302E+03  0.93651990710E+02 0.  0.
          5    1    1    2  502    0 -0.22893266622E+02 -0.18160505220E+03 -0.54277905333E+03  0.57282725998E+03  0.41800000000E+01 0.  1.
         -5    1    1    2    0  502  0.20335894965E+02  0.10756134135E+02 -0.31343795381E+02  0.39104334216E+02  0.41800000000E+01 0.  1.
        -11    1    3    3    0    0 -0.16572122808E+02  0.78085868940E+02 -0.16536247856E+03  0.18362131548E+03  0.00000000000E+00 0. -1.
         11    1    3    3    0    0  0.19129494465E+02  0.92763049124E+02 -0.51094184573E+02  0.10761754754E+03  0.00000000000E+00 0.  1.
</event>
<event>
 7    1  0.5137842E-006  0.1759381E+03  0.7561462E-02  0.1171793E+00
          1   -1    0    0  501    0  0.00000000000E+00  0.00000000000E+00  0.48502104750E+03  0.48502104750E+03  0.00000000000E+00 0. -1.
         -1   -1    0    0    0  501 -0.00000000000E+00 -0.00000000000E+00 -0.13902041440E+03  0.13902041440E+03  0.00000000000E+00 0.  1.
         23    2    1    2    0    0 -0.12547121828E+03  0.12015637059E+03  0.35742206452E+03  0.40966180889E+03  0.99456952737E+02 0.  0.
          5    1    1    2  502    0  0.32900958877E+02 -0.26860374557E+02 -0.60488125724E+02  0.74028633447E+02  0.41800000000E+01 0. -1.
         -5    1    1    2    0  502  0.92570259399E+02 -0.93295996037E+02  0.49066694301E+02  0.14035101956E+03  0.41800000000E+01 0. -1.
        -11    1    3    3    0    0 -0.23385859528E+02  0.45745942695E+02  0.20675689088E+03  0.21304460008E+03  0.00000000000E+00 0. -1.
         11    1    3    3    0    0 -0.10208535875E+03  0.74410427898E+02  0.15066517364E+03  0.19661720881E+03  0.00000000000E+00 0.  1.
</event>
<event>
 7    1  0.5137842E-006  0.9394452E+02  0.7561462E-02  0.1293571E+00
         -1   -1    0    0    0  501 -0.00000000000E+00  0.00000000000E+00  0.35110625416E+03  0.35110625416E+03  0.00000000000E+00 0.  1.
          1   -1    0    0  501    0  0.00000000000E+00 -0.00000000000E+00 -0.49100360187E+02  0.49100360187E+02  0.00000000000E+00 0. -1.
         23    2    1    2    0    0 -0.32495684230E+02 -0.68355233612E+02  0.15676708286E+03  0.19412581676E+03  0.85909877256E+02 0.  0.
          5    1    1    2  502    0  0.45345845084E+02  0.53744920804E+02  0.16415045782E+03  0.17862700631E+03  0.41800000000E+01 0.  1.
         -5    1    1    2    0  502 -0.12850160854E+02  0.14610312808E+02 -0.18911646708E+02  0.27453791278E+02  0.41800000000E+01 0.  1.
        -11    1    3    3    0    0 -0.10867075447E+02  0.10899722947E+02  0.80732355523E+02  0.82186437552E+02  0.00000000000E+00 0.  1.
         11    1    3    3    0    0 -0.21628608783E+02 -0.79254956559E+02  0.76034727332E+02  0.11193937921E+03  0.00000000000E+00 0. -1.
</event>
<event>
 7    1  0.5137842E-006  0.1078756E+03  0.7561462E-02  0.1264555E+00
          2   -1    0    0  501    0  0.00000000000E+00  0.00000000000E+00  0.78236856377E+02  0.78236856377E+02  0.00000000000E+00 0. -1.
         -2   -1    0    0    0  501 -0.00000000000E+00 -0.00000000000E+00 -0.20982985140E+03  0.20982985140E+03  0.00000000000E+00 0.  1.
         23    2    1    2    0    0 -0.61050393764E+02  0.10795400703E+02 -0.28578543608E+02  0.11456420795E+03  0.92002898500E+02 0.  0.
          5    1    1    2  502    0  0.82337749741E+02  0.20483914603E+02 -0.28109809122E+02  0.89480330569E+02  0.41800000000E+01 0.  1.
         -5    1    1    2    0  502 -0.21287355977E+02 -0.31279315306E+02 -0.74904642295E+02  0.84022169264E+02  0.41800000000E+01 0.  1.
        -11    1    3    3    0    0 -0.34467501469E+02  0.40294664384E+02 -0.46938182192E+02  0.70815687406E+02  0.00000000000E+00 0.  1.
         11    1    3    3    0    0 -0.26582892296E+02 -0.29499263681E+02  0.18359638583E+02  0.43748520540E+02  0.00000000000E+00 0. -1.
</event>
<event>
 7    1  0.5137842E-006  0.1018378E+03  0.7561462E-02  0.1276478E+00
          1   -1    0    0  501    0  0.00000000000E+00  0.00000000000E+00  0.55599087012E+03  0.55599087012E+03  0.00000000000E+00 0. -1.
         -1   -1    0    0    0  501 -0.00000000000E+00 -0.00000000000E+00 -0.26201323638E+02  0.26201323638E+02  0.00000000000E+00 0.  1.
         23    2    1    2    0    0 -0.32707285747E+01 -0.43650230205E+02  0.31287017289E+03  0.32798276496E+03  0.88141413445E+02 0.  0.
          5    1    1    2  502    0  0.46940524034E+02 -0.90085234663E+00  0.16895457527E+03  0.17540622918E+03  0.41800000000E+01 0.  1.
         -5    1    1    2    0  502 -0.43669795459E+02  0.44551082551E+02  0.47964798330E+02  0.78803199623E+02  0.41800000000E+01 0.  1.
        -11    1    3    3    0    0 -0.43138064610E+02 -0.18947189030E+02  0.10829595781E+03  0.11810124075E+03  0.00000000000E+00 0.  1.
         11    1    3    3    0    0  0.39867336035E+02 -0.24703041175E+02  0.20457421508E+03  0.20988152420E+03  0.00000000000E+00 0. -1.
</event>
<event>
 7    1  0.5137842E-006  0.1104861E+03  0.7561462E-02  0.1259672E+00
          1   -1    0    0  501    0  0.00000000000E+00  0.00000000000E+00  0.11196097329E+03  0.11196097329E+03  0.00000000000E+00 0. -1.
         -1   -1    0    0    0  501 -0.00000000000E+00 -0.00000000000E+00 -0.12225761017E+03  0.12225761017E+03  0.00000000000E+00 0.  1.
         23    2    1    2    0    0  0.18252196302E+02  0.33770992370E+02  0.21715486886E+02  0.99514590463E+02  0.89207447832E+02 0.  0.
          5    1    1    2  502    0  0.16605073733E+02 -0.71248753346E+02 -0.38781619432E+02  0.82907175400E+02  0.41800000000E+01 0.  1.
         -5    1    1    2    0  502 -0.34857270035E+02  0.37477760975E+02  0.67694956593E+01  0.51796817600E+02  0.41800000000E+01 0.  1.
        -11    1    3    3    0    0 -0.31363248421E+02 -0.69873703460E+01  0.13217956364E+02  0.34744655219E+02  0.00000000000E+00 0.  1.
         11    1    3    3    0    0  0.49615444723E+02  0.40758362716E+02  0.84975305223E+01  0.64769935243E+02  0.00000000000E+00 0. -1.
</event>
<event>
 7    1  0.5137842E-006  0.2074837E+03  0.7561462E-02  0.1143574E+00
         -1   -1    0    0    0  501 -0.00000000000E+00  0.00000000000E+00  0.64003606508E+03  0.64003606508E+03  0.00000000000E+00 0.  1.
          1   -1    0    0  501    0  0.00000000000E+00 -0.00000000000E+00 -0.21237581533E+03  0.21237581533E+03  0.00000000000E+00 0. -1.
         23    2    1    2    0    0  0.17462191296E+03  0.55276070691E+02 -0.12972972078E+03  0.24213571023E+03  0.90838566924E+02 0.  0.
          5    1    1    2  502    0 -0.12713390883E+03  0.12725328194E+02  0.16254883223E+03  0.20679593809E+03  0.41800000000E+01 0. -1.
         -5    1    1    2    0  502 -0.47488004127E+02 -0.68001398886E+02  0.39484113829E+03  0.40348023207E+03  0.41800000000E+01 0.  1.
        -11    1    3    3    0    0 -0.92065767441E+00 -0.14976519125E+02 -0.13540095068E+02  0.20210836452E+02  0.00000000000E+00 0.  1.
         11    1    3    3    0    0  0.17554257064E+03  0.70252589816E+02 -0.11618962571E+03  0.22192487378E+03  0.00000000000E+00 0. -1.
</event>
<event>
 7    1  0.5137842E-006  0.1135349E+03  0.7561462E-02  0.1254160E+00
         -1   -1    0    0    0  501 -0.00000000000E+00  0.00000000000E+00  0.43666190053E+03  0.43666190053E+03  0.00000000000E+00 0.  1.
          1   -1    0    0  501    0  0.00000000000E+00 -0.00000000000E+00 -0.40816620979E+02  0.40816620979E+02  0.00000000000E+00 0. -1.
         23    2    1    2    0    0  0.62047955769E+02 -0.19238777263E+02  0.10143830905E+03  0.15106997412E+03  0.91171964829E+02 0.  0.
          5    1    1    2  502    0 -0.72758572218E+02 -0.19730615786E+02  0.87596803132E+02  0.11564505761E+03  0.41800000000E+01 0. -1.
         -5    1    1    2    0  502  0.10710616449E+02  0.38969393049E+02  0.20681016736E+03  0.21076348978E+03  0.41800000000E+01 0. -1.
        -11    1    3    3    0    0 -0.10512297446E+02 -0.35120165894E+02  0.24292024251E+02  0.43977686299E+02  0.00000000000E+00 0.  1.
         11    1    3    3    0    0  0.72560253215E+02  0.15881388631E+02  0.77146284803E+02  0.10709228782E+03  0.00000000000E+00 0. -1.
</event>
<event>
 7    1  0.5137842E-006  0.8621259E+02  0.7561462E-02  0.1312292E+00
          1   -1    0    0  501    0  0.00000000000E+00  0.00000000000E+00  0.17082128085E+03  0.17082128085E+03  0.00000000000E+00 0. -1.
         -1   -1    0    0    0  501 -0.00000000000E+00 -0.00000000000E+00 -0.89999189884E+02  0.89999189884E+02  0.00000000000E+00 0.  1.
         23    2    1    2    0    0 -0.10313665377E+02 -0.18656499941E+02  0.97649994747E+02  0.13281584700E+03  0.87464798963E+02 0.  0.
          5    1    1    2  502    0 -0.33854121578E+02  0.18256159235E+02  0.40171826258E+02  0.55773084214E+02  0.41800000000E+01 0. -1.
         -5    1    1    2    0  502  0.44167786955E+02  0.40034070621E+00 -0.56999730036E+02  0.72231539520E+02  0.41800000000E+01 0. -1.
        -11    1    3    3    0    0 -0.45950081048E+02 -0.26268422203E+02  0.65570436269E+02  0.84266969009E+02  0.00000000000E+00 0.  1.
         11    1    3    3    0    0  0.35636415671E+02  0.76119222622E+01  0.32079558478E+02  0.48548877995E+02  0.00000000000E+00 0. -1.
</event>
<event>
 7    1  0.5137842E-006  0.1042098E+03  0.7561462E-02  0.1271684E+00
          1   -1    0    0  501    0  0.00000000000E+00  0.00000000000E+00  0.83415901059E+02  0.83415901059E+02  0.00000000000E+00 0.  1.
         -1   -1    0    0    0  501 -0.00000000000E+00 -0.00000000000E+00 -0.14161712225E+03  0.14161712225E+03  0.00000000000E+00 0. -1.
         23    2    1    2    0    0  0.32351097916E+01  0.15195029198E+02 -0.78689748315E+01  0.89344627323E+02  0.87630969519E+02 0.  0.
          5    1    1    2  502    0 -0.43472058264E+02 -0.50014007284E+02 -0.66737515314E+01  0.66732541790E+02  0.41800000000E+01 0. -1.
         -5    1    1    2    0  502  0.40236948472E+02  0.34818978086E+02 -0.43658494829E+02  0.68955854197E+02  0.41800000000E+01 0. -1.
        -11    1    3    3    0    0 -0.40955786624E+02  0.17176429693E+02 -0.79021891529E+01  0.45109320416E+02  0.00000000000E+00 0. -1.
         11    1    3    3    0    0  0.44190896416E+02 -0.19814004946E+01  0.33214321340E-01  0.44235306907E+02  0.00000000000E+00 0.  1.
</event>
<event>
 7    1  0.5137842E-006  0.6230452E+02  0.7561462E-02  0.1388407E+00
         -3   -1    0    0    0  501 -0.00000000000E+00  0.00000000000E+00  0.21553630595E+04  0.21553630595E+04  0.00000000000E+00 0.  1.
          3   -1    0    0  501    0  0.00000000000E+00 -0.00000000000E+00 -0.11245956504E+02  0.11245956504E+02  0.00000000000E+00 0. -1.
         23    2    1    2    0    0 -0.23966405781E+02  0.20352328693E+02  0.26059621617E+03  0.27867390234E+03  0.93595673354E+02 0.  0.
          5    1    1    2  502    0 -0.11939224074E+02 -0.14877339363E+02  0.17303928855E+04  0.17305030745E+04  0.41800000000E+01 0.  1.
         -5    1    1    2    0  502  0.35905629855E+02 -0.54749893295E+01  0.15312800124E+03  0.15743203907E+03  0.41800000000E+01 0.  1.
        -11    1    3    3    0    0 -0.19484330421E+02 -0.19998772585E+02  0.19195583507E+02  0.33883040935E+02  0.00000000000E+00 0. -1.
         11    1    3    3    0    0 -0.44820753592E+01  0.40351101278E+02  0.24140063267E+03  0.24479086140E+03  0.00000000000E+00 0.  1.
</event>
<event>
 7    1  0.5137842E-006  0.1244434E+03  0.7561462E-02  0.1235942E+00
          2   -1    0    0  501    0  0.00000000000E+00  0.00000000000E+00  0.69388051836E+02  0.69388051836E+02  0.00000000000E+00 0. -1.
         -2   -1    0    0    0  501 -0.00000000000E+00 -0.00000000000E+00 -0.28192347604E+03  0.28192347604E+03  0.00000000000E+00 0.  1.
         23    2    1    2    0    0  0.11884633887E+02 -0.86753269255E+02 -0.82667597934E+02  0.15085844894E+03  0.90867847001E+02 0.  0.
          5    1    1    2  502    0  0.20584045705E+00 -0.17650426776E+02  0.13518697464E+02  0.22623163280E+02  0.41800000000E+01 0.  1.
         -5    1    1    2    0  502 -0.12090474344E+02  0.10440369603E+03 -0.14338652373E+03  0.17782991566E+03  0.41800000000E+01 0.  1.
        -11    1    3    3    0    0  0.14031918173E+02  0.16855322240E+02 -0.89732946660E+01  0.23696342178E+02  0.00000000000E+00 0.  1.
         11    1    3    3    0    0 -0.21472842853E+01 -0.10360859150E+03 -0.73694303268E+02  0.12716210676E+03  0.00000000000E+00 0. -1.
</event>
<event>
 7    1  0.7103038E-006  0.1605712E+03  0.7561462E-02  0.1188053E+00
         -3   -1    0    0    0  501 -0.00000000000E+00  0.00000000000E+00  0.15926950351E+03  0.15926950351E+03  0.00000000000E+00 0.  1.
          3   -1    0    0  501    0  0.00000000000E+00 -0.00000000000E+00 -0.18859073750E+03  0.18859073750E+03  0.00000000000E+00 0. -1.
         23    2    1    2    0    0 -0.15892840034E+02  0.12917726072E+03 -0.48393389046E+02  0.16633646800E+03  0.91578127487E+02 0.  0.
          5    1    1    2  502    0  0.44790861273E+01  0.25038208839E+02  0.12558434903E+01  0.25807434148E+02  0.41800000000E+01 0. -1.
         -5    1    1    2    0  502  0.11413753906E+02 -0.15421546956E+03  0.17816311567E+02  0.15571633886E+03  0.41800000000E+01 0. -1.
        -11    1    3    3    0    0 -0.31357326045E+02  0.43581034544E+02  0.18306266157E+02  0.56724843316E+02  0.00000000000E+00 0.  1.
         11    1    3    3    0    0  0.15464486011E+02  0.85596226172E+02 -0.66699655203E+02  0.10961162469E+03  0.00000000000E+00 0. -1.
</event>
<event>
 7    1  0.5137842E-006  0.1092890E+03  0.7561462E-02  0.1261892E+00
         -1   -1    0    0    0  501 -0.00000000000E+00  0.00000000000E+00  0.11839643319E+04  0.11839643319E+04  0.00000000000E+00 0.  1.
          1   -1    0    0  501    0  0.00000000000E+00 -0.00000000000E+00 -0.19136298805E+02  0.19136298805E+02  0.00000000000E+00 0. -1.
         23    2    1    2    0    0  0.30313686832E+02 -0.70969145787E+02  0.24299757138E+03  0.27102470807E+03  0.91929502459E+02 0.  0.
          5    1    1    2  502    0 -0.15702182346E+02  0.79899205716E+02  0.32793886884E+03  0.33792279547E+03  0.41800000000E+01 0.  1.
         -5    1    1    2    0  502 -0.14611504486E+02 -0.89300599296E+01  0.59389159285E+03  0.59415312714E+03  0.41800000000E+01 0. -1.
        -11    1    3    3    0    0 -0.25668444787E+02  0.38667964066E+01  0.64813041382E+02  0.69817988408E+02  0.00000000000E+00 0.  1.
         11    1    3    3    0    0  0.55982131619E+02 -0.74835942193E+02  0.17818453000E+03  0.20120671966E+03  0.00000000000E+00 0. -1.
</event>
<event>
 7    1  0.5137842E-006  0.9545035E+02  0.7561462E-02  0.1290165E+00
          1   -1    0    0  501    0  0.00000000000E+00  0.00000000000E+00  0.13424681705E+03  0.13424681705E+03  0.00000000000E+00 0. -1.
         -1   -1    0    0    0  501 -0.00000000000E+00 -0.00000000000E+00 -0.10279745607E+03  0.10279745607E+03  0.00000000000E+00 0.  1.
         23    2    1    2    0    0 -0.35387743437E+02 -0.25421196537E+02  0.76669767946E+01  0.10245856400E+03  0.92414529083E+02 0.  0.
          5    1    1    2  502    0  0.55849885812E+02 -0.34661618826E+02  0.26313962383E+02  0.70926261577E+02  0.41800000000E+01 0. -1.
         -5    1    1    2    0  502 -0.20462142375E+02  0.60082815363E+02 -0.25315782007E+01  0.63659447537E+02  0.41800000000E+01 0. -1.
        -11    1    3    3    0    0  0.96588309620E+01 -0.97718682654E+01 -0.35543102774E+02  0.38106358783E+02  0.00000000000E+00 0.  1.
         11    1    3    3    0    0 -0.45046574399E+02 -0.15649328272E+02  0.43210079568E+02  0.64352205221E+02  0.00000000000E+00 0. -1.
</event>
<event>
 7    1  0.5137842E-006  0.1592289E+03  0.7561462E-02  0.1189570E+00
         -2   -1    0    0    0  501 -0.00000000000E+00  0.00000000000E+00  0.46602806281E+03  0.46602806281E+03  0.00000000000E+00 0.  1.
          2   -1    0    0  501    0  0.00000000000E+00 -0.00000000000E+00 -0.80659353565E+02  0.80659353565E+02  0.00000000000E+00 0. -1.
         23    2    1    2    0    0 -0.13605046501E+03 -0.46707183842E+02  0.85015101320E+02  0.19094752828E+03  0.92423487561E+02 0.  0.
          5    1    1    2  502    0  0.68823287149E+02 -0.19560611059E+02  0.47956835753E+02  0.86235682026E+02  0.41800000000E+01 0. -1.
         -5    1    1    2    0  502  0.67227177864E+02  0.66267794901E+02  0.25239677218E+03  0.26950420607E+03  0.41800000000E+01 0. -1.
        -11    1    3    3    0    0 -0.10889493884E+03 -0.14008494348E+02  0.17516130096E+02  0.11118075567E+03  0.00000000000E+00 0. -1.
         11    1    3    3    0    0 -0.27155526173E+02 -0.32698689495E+02  0.67498971224E+02  0.79766772610E+02  0.00000000000E+00 0.  1.
</event>
<event>
 7    1  0.5137842E-006  0.8017172E+02  0.7561462E-02  0.1328565E+00
         -1   -1    0    0    0  501 -0.00000000000E+00  0.00000000000E+00  0.19095388189E+02  0.19095388189E+02  0.00000000000E+00 0.  1.
          1   -1    0    0  501    0  0.00000000000E+00 -0.00000000000E+00 -0.55838752911E+03  0.55838752911E+03  0.00000000000E+00 0. -1.
         23    2    1    2    0    0 -0.14784455356E+02  0.35702442151E+01 -0.22505362608E+03  0.23892002769E+03  0.78754798298E+02 0.  0.
          5    1    1    2  502    0 -0.15941833235E+02  0.30157371621E+02 -0.17986727554E+02  0.38789223737E+02  0.41800000000E+01 0. -1.
         -5    1    1    2    0  502  0.30726288591E+02 -0.33727615836E+02 -0.29625178729E+03  0.29977366588E+03  0.41800000000E+01 0. -1.
        -11    1    3    3    0    0  0.23473425323E+02  0.26623285890E+02 -0.95489089055E+02  0.10187230819E+03  0.00000000000E+00 0.  1.
         11    1    3    3    0    0 -0.38257880679E+02 -0.23053041674E+02 -0.12956453702E+03  0.13704771949E+03  0.00000000000E+00 0. -1.
</event>
<event>
 7    1  0.5137842E-006  0.8235546E+02  0.7561462E-02  0.1322497E+00
          2   -1    0    0  501    0  0.00000000000E+00  0.00000000000E+00  0.26069456589E+02  0.26069456589E+02  0.00000000000E+00 0. -1.
         -2   -1    0    0    0  501 -0.00000000000E+00 -0.00000000000E+00 -0.50162256009E+03  0.50162256009E+03  0.00000000000E+00 0.  1.
         23    2    1    2    0    0  0.11771257937E+02 -0.13608732514E+02 -0.10960335312E+03  0.14054290956E+03  0.86114193362E+02 0.  0.
          5    1    1    2  502    0  0.14543258118E+02  0.41299754991E+02 -0.41633050081E+02  0.60563680354E+02  0.41800000000E+01 0. -1.
         -5    1    1    2    0  502 -0.26314516055E+02 -0.27691022478E+02 -0.32431670031E+03  0.32658542677E+03  0.41800000000E+01 0. -1.
        -11    1    3    3    0    0 -0.30782036200E+02 -0.23359588613E+02 -0.76671170911E+02  0.85858445023E+02  0.00000000000E+00 0. -1.
         11    1    3    3    0    0  0.42553294137E+02  0.97508560996E+01 -0.32932182205E+02  0.54684464534E+02  0.00000000000E+00 0.  1.
</event>
<event>
 7    1  0.5137842E-006  0.1402555E+03  0.7561462E-02  0.1212986E+00
          3   -1    0    0  501    0  0.00000000000E+00  0.00000000000E+00  0.52411491367E+03  0.52411491367E+03  0.00000000000E+00 0. -1.
         -3   -1    0    0    0  501 -0.00000000000E+00 -0.00000000000E+00 -0.39205069472E+02  0.39205069472E+02  0.00000000000E+00 0.  1.
         23    2    1    2    0    0  0.31894351542E+02 -0.86739644350E+02  0.25309307086E+03  0.28416537504E+03  0.90293091033E+02 0.  0.
          5    1    1    2  502    0 -0.76709424142E+02  0.28620221623E+02  0.11928510913E+03  0.14474067327E+03  0.41800000000E+01 0. -1.
         -5    1    1    2    0  502  0.44815072600E+02  0.58119422726E+02  0.11253166421E+03  0.13441393484E+03  0.41800000000E+01 0. -1.
        -11    1    3    3    0    0 -0.28051203941E+02 -0.40719552207E+02  0.66658125559E+02  0.82995528057E+02  0.00000000000E+00 0.  1.
         11    1    3    3    0    0  0.59945555482E+02 -0.46020092142E+02  0.18643494531E+03  0.20116984698E+03  0.00000000000E+00 0. -1.
</event>
<event>
 7    1  0.5137842E-006  0.1036742E+03  0.7561462E-02  0.1272754E+00
          1   -1    0    0  501    0  0.00000000000E+00  0.00000000000E+00  0.50253890349E+03  0.50253890349E+03  0.00000000000E+00 0. -1.
         -1   -1    0    0    0  501 -0.00000000000E+00 -0.00000000000E+00 -0.25324807429E+02  0.25324807429E+02  0.00000000000E+00 0.  1.
         23    2    1    2    0    0 -0.65260685262E+01 -0.14059729989E+02  0.25619782844E+03  0.27343107862E+03  0.94270684083E+02 0.  0.
          5    1    1    2  502    0 -0.50339051294E+02 -0.12803831344E+02  0.50191723455E+02  0.72350809848E+02  0.41800000000E+01 0.  1.
         -5    1    1    2    0  502  0.56865119820E+02  0.26863561333E+02  0.17082454416E+03  0.18208182245E+03  0.41800000000E+01 0.  1.
        -11    1    3    3    0    0 -0.21472924600E+00  0.38886810113E+02  0.74060927059E+02  0.83649572780E+02  0.00000000000E+00 0.  1.
         11    1    3    3    0    0 -0.63113392802E+01 -0.52946540102E+02  0.18213690138E+03  0.18978150584E+03  0.00000000000E+00 0. -1.
</event>
<event>
 7    1  0.5137842E-006  0.9729384E+02  0.7561462E-02  0.1286092E+00
         -2   -1    0    0    0  501 -0.00000000000E+00  0.00000000000E+00  0.95097716601E+02  0.95097716601E+02  0.00000000000E+00 0.  1.
          2   -1    0    0  501    0  0.00000000000E+00 -0.00000000000E+00 -0.18330543634E+03  0.18330543634E+03  0.00000000000E+00 0. -1.
         23    2    1    2    0    0 -0.24152773081E+02 -0.56721803794E+02 -0.79106222953E+02  0.13864818864E+03  0.95732994463E+02 0.  0.
          5    1    1    2  502    0  0.35943527829E+02  0.84076290003E+02  0.24402448181E+02  0.94729676504E+02  0.41800000000E+01 0.  1.
         -5    1    1    2    0  502 -0.11790754748E+02 -0.27354486208E+02 -0.33503944965E+02  0.45025287800E+02  0.41800000000E+01 0.  1.
        -11    1    3    3    0    0  0.17803684135E+01 -0.44096797564E+02  0.97765755986E+01  0.45202640382E+02  0.00000000000E+00 0.  1.
         11    1    3    3    0    0 -0.25933141495E+02 -0.12625006231E+02 -0.88882798552E+02  0.93445548254E+02  0.00000000000E+00 0. -1.
</event>
<event>
 7    1  0.5137842E-006  0.1049941E+03  0.7561462E-02  0.1270131E+00
          2   -1    0    0  501    0  0.00000000000E+00  0.00000000000E+00  0.10276464708E+03  0.10276464708E+03  0.00000000000E+00 0. -1.
         -2   -1    0    0    0  501 -0.00000000000E+00 -0.00000000000E+00 -0.20968568945E+03  0.20968568945E+03  0.00000000000E+00 0.  1.
         23    2    1    2    0    0 -0.35295286994E+02  0.80855998360E+02 -0.11320843498E+01  0.12637123357E+03  0.90470753860E+02 0.  0.
          5    1    1    2  502    0  0.19098904349E+02 -0.85992823703E+02 -0.10054497006E+02  0.88758656962E+02  0.41800000000E+01 0.  1.
         -5    1    1    2    0  502  0.16196382645E+02  0.51368253427E+01 -0.95734461011E+02  0.97320446004E+02  0.41800000000E+01 0.  1.
        -11    1    3    3    0    0 -0.26589534435E+02  0.39212049723E+01  0.32313717342E+02  0.42030411827E+02  0.00000000000E+00 0. -1.
         11    1    3    3    0    0 -0.87057525588E+01  0.76934793388E+02 -0.33445801692E+02  0.84340821742E+02  0.00000000000E+00 0.  1.
</event>
<event>
 7    1  0.5137842E-006  0.8063555E+02  0.7561462E-02  0.1327257E+00
          2   -1    0    0  501    0  0.00000000000E+00  0.00000000000E+00  0.87827240916E+02  0.87827240916E+02  0.00000000000E+00 0. -1.
         -2   -1    0    0    0  501 -0.00000000000E+00 -0.00000000000E+00 -0.16221934712E+03  0.16221934712E+03  0.00000000000E+00 0.  1.
         23    2    1    2    0    0  0.28577908861E+02 -0.25907573161E+02  0.22320842531E+01  0.98366953947E+02  0.90460909827E+02 0.  0.
          5    1    1    2  502    0 -0.32068942639E+02  0.50745349048E+02 -0.10028044765E+03  0.11694933994E+03  0.41800000000E+01 0. -1.
         -5    1    1    2    0  502  0.34910337780E+01 -0.24837775887E+02  0.23656257186E+02  0.34730294152E+02  0.41800000000E+01 0. -1.
        -11    1    3    3    0    0 -0.11771357444E+02 -0.32697735277E+02  0.32414429349E+02  0.47522647005E+02  0.00000000000E+00 0. -1.
         11    1    3    3    0    0  0.40349266306E+02  0.67901621157E+01 -0.30182345096E+02  0.50844306943E+02  0.00000000000E+00 0.  1.
</event>
<event>
 7    1  0.5137842E-006  0.1186686E+03  0.7561462E-02  0.1245310E+00
         -2   -1    0    0    0  501 -0.00000000000E+00  0.00000000000E+00  0.87984672005E+02  0.87984672005E+02  0.00000000000E+00 0.  1.
          2   -1    0    0  501    0  0.00000000000E+00 -0.00000000000E+00 -0.27370219038E+03  0.27370219038E+03  0.00000000000E+00 0. -1.
         23    2    1    2    0    0  0.54242135058E+02  0.93214318715E+02 -0.11613702178E+03  0.18246523710E+03  0.90413696380E+02 0.  0.
          5    1    1    2  502    0 -0.10048344582E+02 -0.49857055309E+02 -0.98368235052E+02  0.11081731480E+03  0.41800000000E+01 0.  1.
         -5    1    1    2    0  502 -0.44193790476E+02 -0.43357263407E+02  0.28787738459E+02  0.68404310481E+02  0.41800000000E+01 0.  1.
        -11    1    3    3    0    0  0.65734402927E+02  0.91455778338E+02 -0.65033339848E+02  0.13005578192E+03  0.00000000000E+00 0.  1.
         11    1    3    3    0    0 -0.11492267869E+02  0.17585403775E+01 -0.51103681935E+02  0.52409455181E+02  0.00000000000E+00 0. -1.
</event>
<event>
 7    1  0.5137842E-006  0.1127013E+03  0.7561462E-02  0.1255648E+00
         -1   -1    0    0    0  501 -0.00000000000E+00  0.00000000000E+00  0.80889663599E+02  0.80889663599E+02  0.00000000000E+00 0.  1.
          1   -1    0    0  501    0  0.00000000000E+00 -0.00000000000E+00 -0.37571465241E+03  0.37571465241E+03  0.00000000000E+00 0. -1.
         23    2    1    2    0    0  0.87026992999E+02  0.47888338968E+02 -0.26054537193E+03  0.29323492043E+03  0.90751513503E+02 0.  0.
          5    1    1    2  502    0 -0.23151096266E+02  0.10916237009E+02  0.40910495959E+02  0.48438399729E+02  0.41800000000E+01 0.  1.
         -5    1    1    2    0  502 -0.63875896733E+02 -0.58804575977E+02 -0.75190112838E+02  0.11493099585E+03  0.41800000000E+01 0.  1.
        -11    1    3    3    0    0  0.35441732370E+02  0.49564713475E+02 -0.21797505626E+03  0.22633139943E+03  0.00000000000E+00 0. -1.
         11    1    3    3    0    0  0.51585260629E+02 -0.16763745072E+01 -0.42570315670E+02  0.66903520997E+02  0.00000000000E+00 0.  1.
</event>
<event>
 7    1  0.5137842E-006  0.9640147E+02  0.7561462E-02  0.1288050E+00
         -2   -1    0    0    0  501 -0.00000000000E+00  0.00000000000E+00  0.27049913414E+02  0.27049913414E+02  0.00000000000E+00 0.  1.
          2   -1    0    0  501    0  0.00000000000E+00 -0.00000000000E+00 -0.51252225581E+03  0.51252225581E+03  0.00000000000E+00 0. -1.
         23    2    1    2    0    0  0.30039020174E+02 -0.13750685497E+02 -0.29734426902E+03  0.31124800386E+03  0.85850343611E+02 0.  0.
          5    1    1    2  502    0  0.35117492196E+02 -0.17079240323E+02 -0.12947364960E+03  0.13529906522E+03  0.41800000000E+01 0.  1.
         -5    1    1    2    0  502 -0.65156512370E+02  0.30829925819E+02 -0.58654423775E+02  0.93025100154E+02  0.41800000000E+01 0.  1.
        -11    1    3    3    0    0  0.86001463037E+01 -0.43675443202E+02 -0.23214565915E+03  0.23637494351E+03  0.00000000000E+00 0. -1.
         11    1    3    3    0    0  0.21438873870E+02  0.29924757706E+02 -0.65198609872E+02  0.74873060347E+02  0.00000000000E+00 0.  1.
</event>
<event>
 7    1  0.5137842E-006  0.2484959E+03  0.7561462E-02  0.1114259E+00
          2   -1    0    0  501    0  0.00000000000E+00  0.00000000000E+00  0.39737818934E+03  0.39737818934E+03  0.00000000000E+00 0. -1.
         -2   -1    0    0    0  501 -0.00000000000E+00 -0.00000000000E+00 -0.31143925135E+03  0.31143925135E+03  0.00000000000E+00 0.  1.
         23    2    1    2    0    0  0.13420421064E+03 -0.20900889411E+03  0.26787185483E+03  0.37648913352E+03  0.91067277743E+02 0.  0.
          5    1    1    2  502    0 -0.28875716616E+02  0.44311302643E+02  0.14663205940E+02  0.55043442484E+02  0.41800000000E+01 0.  1.
         -5    1    1    2    0  502 -0.10532849402E+03  0.16469759147E+03 -0.19659612279E+03  0.27728486469E+03  0.41800000000E+01 0.  1.
        -11    1    3    3    0    0  0.83114370957E+01 -0.12014689720E+02 -0.65284235363E+01  0.16001658337E+02  0.00000000000E+00 0.  1.
         11    1    3    3    0    0  0.12589277354E+03 -0.19699420439E+03  0.27440027837E+03  0.36048747518E+03  0.00000000000E+00 0. -1.
</event>
<event>
 7    1  0.5137842E-006  0.1519107E+03  0.7561462E-02  0.1198145E+00
          1   -1    0    0  501    0  0.00000000000E+00  0.00000000000E+00  0.51461861260E+03  0.51461861260E+03  0.00000000000E+00 0. -1.
         -1   -1    0    0    0  501 -0.00000000000E+00 -0.00000000000E+00 -0.48583833842E+02  0.48583833842E+02  0.00000000000E+00 0.  1.
         23    2    1    2    0    0 -0.11394366175E+03 -0.31334788268E+01  0.25548886531E+03  0.29307082781E+03  0.87309639073E+02 0.  0.
          5    1    1    2  502    0  0.74679446095E+02  0.56808305299E+02  0.16351863724E+03  0.18857364700E+03  0.41800000000E+01 0.  1.
         -5    1    1    2    0  502  0.39264215653E+02 -0.53674826473E+02  0.47027276207E+02  0.81557971622E+02  0.41800000000E+01 0.  1.
        -11    1    3    3    0    0 -0.24122285142E+02  0.37571693710E+02  0.88890602415E+02  0.99473896106E+02  0.00000000000E+00 0. -1.
         11    1    3    3    0    0 -0.89821376605E+02 -0.40705172537E+02  0.16659826290E+03  0.19359693171E+03  0.00000000000E+00 0.  1.
</event>
<event>
 7    1  0.5137842E-006  0.1455974E+03  0.7561462E-02  0.1205990E+00
         -1   -1    0    0    0  501 -0.00000000000E+00  0.00000000000E+00  0.28782626528E+03  0.28782626528E+03  0.00000000000E+00 0.  1.
          1   -1    0    0  501    0  0.00000000000E+00 -0.00000000000E+00 -0.87406602347E+02  0.87406602347E+02  0.00000000000E+00 0. -1.
         23    2    1    2    0    0  0.33003064130E+02  0.10861397778E+03  0.11799427613E+03  0.18727728222E+03  0.90906175960E+02 0.  0.
          5    1    1    2  502    0 -0.41443845907E+01  0.18244003299E+02  0.50378335579E+02  0.53902399536E+02  0.41800000000E+01 0. -1.
         -5    1    1    2    0  502 -0.28858679539E+02 -0.12685798108E+03  0.32047051226E+02  0.13405318586E+03  0.41800000000E+01 0. -1.
        -11    1    3    3    0    0  0.58706048204E+02  0.47351500280E+02  0.41965718547E+02  0.86311564739E+02  0.00000000000E+00 0.  1.
         11    1    3    3    0    0 -0.25702984074E+02  0.61262477500E+02  0.76028557580E+02  0.10096571749E+03  0.00000000000E+00 0. -1.
</event>
<event>
 7    1  0.5137842E-006  0.9563554E+02  0.7561462E-02  0.1289751E+00
         -1   -1    0    0    0  501 -0.00000000000E+00  0.00000000000E+00  0.19340960610E+03  0.19340960610E+03  0.00000000000E+00 0.  1.
          1   -1    0    0  501    0  0.00000000000E+00 -0.00000000000E+00 -0.98145270685E+02  0.98145270685E+02  0.00000000000E+00 0. -1.
         23    2    1    2    0    0  0.11415043234E+02 -0.82358831267E+02  0.27785539106E+02  0.12690320268E+03  0.91755688479E+02 0.  0.
          5    1    1    2  502    0 -0.44885046874E+01  0.10991469846E+02 -0.36312474875E+02  0.38432113073E+02  0.41800000000E+01 0.  1.
         -5    1    1    2    0  502 -0.69265385469E+01  0.71367361422E+02  0.10379127119E+03  0.12621956103E+03  0.41800000000E+01 0.  1.
        -11    1    3    3    0    0  0.39588840278E+02 -0.42904691572E+02 -0.17102651163E+02  0.60832470854E+02  0.00000000000E+00 0. -1.
         11    1    3    3    0    0 -0.28173797043E+02 -0.39454139695E+02  0.44888190268E+02  0.66070731829E+02  0.00000000000E+00 0.  1.
</event>
<event>
 7    1  0.5137842E-006  0.1590904E+03  0.7561462E-02  0.1189728E+00
         -1   -1    0    0    0  501 -0.00000000000E+00  0.00000000000E+00  0.63275490585E+02  0.63275490585E+02  0.00000000000E+00 0.  1.
          1   -1    0    0  501    0  0.00000000000E+00 -0.00000000000E+00 -0.52476742036E+03  0.52476742036E+03  0.00000000000E+00 0. -1.
         23    2    1    2    0    0 -0.96216555662E+02 -0.85805191888E+02 -0.32929037706E+03  0.36500894535E+03  0.90439047001E+02 0.  0.
          5    1    1    2  502    0  0.10884969017E+03  0.96269872814E+02 -0.75401897366E+02  0.16376526490E+03  0.41800000000E+01 0. -1.
         -5    1    1    2    0  502 -0.12633134507E+02 -0.10464680926E+02 -0.56799655346E+02  0.59268700693E+02  0.41800000000E+01 0. -1.
        -11    1    3    3    0    0 -0.70116044554E+02 -0.10301622761E+03 -0.28215094663E+03  0.30844409468E+03  0.00000000000E+00 0. -1.
         11    1    3    3    0    0 -0.26100511108E+02  0.17211035722E+02 -0.47139430429E+02  0.56564850675E+02  0.00000000000E+00 0.  1.
</event>
<event>
 7    1  0.5137842E-006  0.7807889E+02  0.7561462E-02  0.1334593E+00
          2   -1    0    0  501    0  0.00000000000E+00  0.00000000000E+00  0.12411796877E+03  0.12411796877E+03  0.00000000000E+00 0. -1.
         -2   -1    0    0    0  501 -0.00000000000E+00 -0.00000000000E+00 -0.10447223034E+03  0.10447223034E+03  0.00000000000E+00 0.  1.
         23    2    1    2    0    0 -0.19046878508E+02 -0.23060383652E+02  0.97720199401E+01  0.99593525060E+02  0.94492396440E+02 0.  0.
          5    1    1    2  502    0 -0.47087498643E+02  0.33094475097E+02  0.20293006078E+02  0.61169888884E+02  0.41800000000E+01 0.  1.
         -5    1    1    2    0  502  0.66134377151E+02 -0.10034091445E+02 -0.10419287591E+02  0.67826785167E+02  0.41800000000E+01 0.  1.
        -11    1    3    3    0    0 -0.15859609801E+02 -0.11910903211E+02 -0.42048367939E+02  0.46491527020E+02  0.00000000000E+00 0.  1.
         11    1    3    3    0    0 -0.31872687062E+01 -0.11149480440E+02  0.51820387879E+02  0.53101998039E+02  0.00000000000E+00 0. -1.
</event>
<event>
 7    1  0.5137842E-006  0.1268387E+03  0.7561462E-02  0.1232223E+00
         -2   -1    0    0    0  501 -0.00000000000E+00  0.00000000000E+00  0.18910043191E+03  0.18910043191E+03  0.00000000000E+00 0.  1.
          2   -1    0    0  501    0  0.00000000000E+00 -0.00000000000E+00 -0.22934223535E+03  0.22934223535E+03  0.00000000000E+00 0. -1.
         23    2    1    2    0    0  0.13309318495E+02 -0.12467481789E+03 -0.14354441572E+03  0.21340635899E+03  0.96001701036E+02 0.  0.
          5    1    1    2  502    0 -0.11025800112E+02  0.92791389066E+02  0.13206398739E+03  0.16183380153E+03  0.41800000000E+01 0.  1.
         -5    1    1    2    0  502 -0.22835183825E+01  0.31883428821E+02 -0.28761375118E+02  0.43202506736E+02  0.41800000000E+01 0.  1.
        -11    1    3    3    0    0 -0.54640467578E+01 -0.67577394414E+02 -0.13711230706E+03  0.15295863752E+03  0.00000000000E+00 0. -1.
         11    1    3    3    0    0  0.18773365253E+02 -0.57097423473E+02 -0.64321086535E+01  0.60447721478E+02  0.00000000000E+00 0.  1.
</event>
<event>
 7    1  0.5137842E-006  0.6309908E+02  0.7561462E-02  0.1385268E+00
          2   -1    0    0  501    0  0.00000000000E+00  0.00000000000E+00  0.31552189122E+03  0.31552189122E+03  0.00000000000E+00 0. -1.
         -2   -1    0    0    0  501 -0.00000000000E+00 -0.00000000000E+00 -0.50348324767E+02  0.50348324767E+02  0.00000000000E+00 0.  1.
         23    2    1    2    0    0  0.32228517084E+01  0.12748157988E+02  0.20853670730E+03  0.22792515365E+03  0.91046224908E+02 0.  0.
          5    1    1    2  502    0 -0.67786648612E+01  0.12754671346E+02  0.92435188105E+02  0.93650244733E+02  0.41800000000E+01 0. -1.
         -5    1    1    2    0  502  0.35558131527E+01 -0.25502829334E+02 -0.35798328949E+02  0.44294817606E+02  0.41800000000E+01 0. -1.
        -11    1    3    3    0    0  0.38282517591E+02 -0.14224884466E+02  0.14403253021E+03  0.14971061502E+03  0.00000000000E+00 0. -1.
         11    1    3    3    0    0 -0.35059665883E+02  0.26973042454E+02  0.64504177087E+02  0.78214538628E+02  0.00000000000E+00 0.  1.
</event>
<event>
 7    1  0.5137842E-006  0.1124904E+03  0.7561462E-02  0.1256026E+00
         -3   -1    0    0    0  501 -0.00000000000E+00  0.00000000000E+00  0.26350925992E+02  0.26350925992E+02  0.00000000000E+00 0.  1.
          3   -1    0    0  501    0  0.00000000000E+00 -0.00000000000E+00 -0.53625390823E+03  0.53625390823E+03  0.00000000000E+00 0. -1.
         23    2    1    2    0    0 -0.32686349917E+02 -0.28252575655E+02 -0.27402817059E+03  0.29215939520E+03  0.91646431606E+02 0.  0.
          5    1    1    2  502    0 -0.39144027145E+01  0.71633907003E+02 -0.10009244024E+03  0.12321813249E+03  0.41800000000E+01 0.  1.
         -5    1    1    2    0  502  0.36600752631E+02 -0.43381331348E+02 -0.13578237141E+03  0.14722730654E+03  0.41800000000E+01 0.  1.
        -11    1    3    3    0    0  0.12194811194E+02 -0.46264936439E+02 -0.90530219492E+02  0.10239569525E+03  0.00000000000E+00 0.  1.
         11    1    3    3    0    0 -0.44881161111E+02  0.18012360784E+02 -0.18349795110E+03  0.18976369995E+03  0.00000000000E+00 0. -1.
</event>
<event>
 7    1  0.5137842E-006  0.7927400E+02  0.7561462E-02  0.1331124E+00
          4   -1    0    0  501    0  0.00000000000E+00  0.00000000000E+00  0.39791999908E+02  0.39791999908E+02  0.00000000000E+00 0. -1.
         -4   -1    0    0    0  501 -0.00000000000E+00 -0.00000000000E+00 -0.45847230961E+03  0.45847230961E+03  0.00000000000E+00 0.  1.
         23    2    1    2    0    0 -0.24301911392E+02 -0.46614171802E+02 -0.73131874266E+02  0.12936722517E+03  0.92866269472E+02 0.  0.
          5    1    1    2  502    0 -0.12145425655E+02  0.80841492203E-01 -0.28092747715E+03  0.28122097667E+03  0.41800000000E+01 0. -1.
         -5    1    1    2    0  502  0.36447337046E+02  0.46533330310E+02 -0.64620958285E+02  0.87676107676E+02  0.41800000000E+01 0.  1.
        -11    1    3    3    0    0 -0.18817206392E+02 -0.64787347417E+02 -0.16239800674E+02  0.69391777378E+02  0.00000000000E+00 0. -1.
         11    1    3    3    0    0 -0.54847049995E+01  0.18173175614E+02 -0.56892073592E+02  0.59975447797E+02  0.00000000000E+00 0.  1.
</event>
<event>
 7    1  0.5137842E-006  0.1142420E+03  0.7561462E-02  0.1252910E+00
         -1   -1    0    0    0  501 -0.00000000000E+00  0.00000000000E+00  0.30028312288E+02  0.30028312288E+02  0.00000000000E+00 0.  1.
          1   -1    0    0  501    0  0.00000000000E+00 -0.00000000000E+00 -0.64197728002E+03  0.64197728002E+03  0.00000000000E+00 0. -1.
         23    2    1    2    0    0 -0.53864699940E+02  0.69006553263E+02 -0.28161910081E+03  0.30809711903E+03  0.89169538045E+02 0.  0.
          5    1    1    2  502    0  0.18190188102E+02 -0.75719645315E+02 -0.82983026406E+02  0.11387713863E+03  0.41800000000E+01 0.  1.
         -5    1    1    2    0  502  0.35674511838E+02  0.67130920520E+01 -0.24734684052E+03  0.25003133466E+03  0.41800000000E+01 0.  1.
        -11    1    3    3    0    0  0.12370296614E+02  0.39601646528E+02 -0.17020050729E+03  0.17518426678E+03  0.00000000000E+00 0. -1.
         11    1    3    3    0    0 -0.66234996554E+02  0.29404906735E+02 -0.11141859353E+03  0.13291285225E+03  0.00000000000E+00 0.  1.
</event>
<event>
 7    1  0.5137842E-006  0.7763002E+02  0.7561462E-02  0.1335915E+00
         -2   -1    0    0    0  501 -0.00000000000E+00  0.00000000000E+00  0.44919626844E+02  0.44919626844E+02  0.00000000000E+00 0.  1.
          2   -1    0    0  501    0  0.00000000000E+00 -0.00000000000E+00 -0.28970742605E+03  0.28970742605E+03  0.00000000000E+00 0. -1.
         23    2    1    2    0    0  0.81558155597E+01  0.40745557709E+02 -0.14282721942E+03  0.17393159290E+03  0.90143588798E+02 0.  0.
          5    1    1    2  502    0  0.13871526169E+02 -0.28393998044E+02 -0.12330984245E+03  0.12736336996E+03  0.41800000000E+01 0. -1.
         -5    1    1    2    0  502 -0.22027341729E+02 -0.12351559665E+02  0.21349262661E+02  0.33332090033E+02  0.41800000000E+01 0.  1.
        -11    1    3    3    0    0 -0.37999845071E+02  0.29218521957E+01 -0.70707359894E+02  0.80324692274E+02  0.00000000000E+00 0.  1.
         11    1    3    3    0    0  0.46155660631E+02  0.37823705513E+02 -0.72119859524E+02  0.93606900626E+02  0.00000000000E+00 0. -1.
</event>
<event>
 7    1  0.5137842E-006  0.1978251E+03  0.7561462E-02  0.1151587E+00
         -1   -1    0    0    0  501 -0.00000000000E+00  0.00000000000E+00  0.15155224463E+03  0.15155224463E+03  0.00000000000E+00 0.  1.
          1   -1    0    0  501    0  0.00000000000E+00 -0.00000000000E+00 -0.29150917051E+03  0.29150917051E+03  0.00000000000E+00 0. -1.
         23    2    1    2    0    0 -0.14570867531E+03 -0.10228073000E+03 -0.90902762951E+02  0.21908604855E+03  0.89682877784E+02 0.  0.
          5    1    1    2  502    0  0.20671509587E+02  0.85798893741E+02  0.63901706922E+00  0.88355204819E+02  0.41800000000E+01 0. -1.
         -5    1    1    2    0  502  0.12503716572E+03  0.16481836261E+02 -0.49693179998E+02  0.13562016176E+03  0.41800000000E+01 0. -1.
        -11    1    3    3    0    0 -0.12251224086E+03 -0.69196283269E+02 -0.10577731993E+03  0.17602902088E+03  0.00000000000E+00 0. -1.
         11    1    3    3    0    0 -0.23196434448E+02 -0.33084446733E+02  0.14874556981E+02  0.43057027674E+02  0.00000000000E+00 0.  1.
</event>
<event>
 7    1  0.5137842E-006  0.2146433E+03  0.7561462E-02  0.1137941E+00
          1   -1    0    0  501    0  0.00000000000E+00  0.00000000000E+00  0.98605520016E+03  0.98605520016E+03  0.00000000000E+00 0. -1.
         -1   -1    0    0    0  501 -0.00000000000E+00 -0.00000000000E+00 -0.57764608350E+02  0.57764608350E+02  0.00000000000E+00 0.  1.
         23    2    1    2    0    0 -0.20311261929E+03  0.34034477452E+02  0.56037342566E+03  0.60401994553E+03  0.91698618547E+02 0.  0.
          5    1    1    2  502    0  0.87606709133E+02  0.12328007667E+02  0.58188813034E+02  0.10597323068E+03  0.41800000000E+01 0. -1.
         -5    1    1    2    0  502  0.11550591016E+03 -0.46362485119E+02  0.30972835312E+03  0.33382663230E+03  0.41800000000E+01 0. -1.
        -11    1    3    3    0    0 -0.72869606639E+02 -0.19397804191E+02  0.28422939474E+03  0.29406224377E+03  0.00000000000E+00 0. -1.
         11    1    3    3    0    0 -0.13024301265E+03  0.53432281643E+02  0.27614403092E+03  0.30995770176E+03  0.00000000000E+00 0.  1.
</event>
<event>
 7    1  0.5137842E-006  0.1108760E+03  0.7561462E-02  0.1258956E+00
          2   -1    0    0  501    0  0.00000000000E+00  0.00000000000E+00  0.34835722985E+03  0.34835722985E+03  0.00000000000E+00 0. -1.
         -2   -1    0    0    0  501 -0.00000000000E+00 -0.00000000000E+00 -0.42019590948E+02  0.42019590948E+02  0.00000000000E+00 0.  1.
         23    2    1    2    0    0 -0.37156451254E+02 -0.13517945281E+02  0.18635715367E+03  0.21259362471E+03  0.94359545509E+02 0.  0.
          5    1    1    2  502    0 -0.23411987609E+02 -0.34603786428E+02  0.98402640510E+01  0.43125936460E+02  0.41800000000E+01 0. -1.
         -5    1    1    2    0  502  0.60568438863E+02  0.48121731709E+02  0.11014022118E+03  0.13465725963E+03  0.41800000000E+01 0. -1.
        -11    1    3    3    0    0 -0.69276149974E+02 -0.92094896908E+01  0.12903760492E+03  0.14674707199E+03  0.00000000000E+00 0.  1.
         11    1    3    3    0    0  0.32119698720E+02 -0.43084555906E+01  0.57319548756E+02  0.65846552719E+02  0.00000000000E+00 0. -1.
</event>
<event>
 7    1  0.5137842E-006  0.2438207E+03  0.7561462E-02  0.1117273E+00
          1   -1    0    0  501    0  0.00000000000E+00  0.00000000000E+00  0.75262332147E+03  0.75262332147E+03  0.00000000000E+00 0. -1.
         -1   -1    0    0    0  501 -0.00000000000E+00 -0.00000000000E+00 -0.11983533137E+03  0.11983533137E+03  0.00000000000E+00 0.  1.
         23    2    1    2    0    0  0.10336797312E+03  0.20261069909E+03  0.54648058012E+03  0.59890444180E+03  0.91156309158E+02 0.  0.
          5    1    1    2  502    0 -0.77841218150E+02 -0.20778080292E+03  0.48017917749E+02  0.22705794443E+03  0.41800000000E+01 0.  1.
         -5    1    1    2    0  502 -0.25526754974E+02  0.51701038296E+01  0.38289492226E+02  0.46496266604E+02  0.41800000000E+01 0.  1.
        -11    1    3    3    0    0  0.94411644099E+02  0.10454229255E+03  0.25615374584E+03  0.29233096138E+03  0.00000000000E+00 0. -1.
         11    1    3    3    0    0  0.89563290257E+01  0.98068406533E+02  0.29032683428E+03  0.30657348041E+03  0.00000000000E+00 0.  1.
</event>
<event>
 7    1  0.5137842E-006  0.9704515E+02  0.7561462E-02  0.1286635E+00
          1   -1    0    0  501    0  0.00000000000E+00  0.00000000000E+00  0.42256737445E+02  0.42256737445E+02  0.00000000000E+00 0. -1.
         -1   -1    0    0    0  501 -0.00000000000E+00 -0.00000000000E+00 -0.37679426322E+03  0.37679426322E+03  0.00000000000E+00 0.  1.
         23    2    1    2    0    0 -0.20986706000E+02  0.46531640120E+02 -0.11717654468E+03  0.16312114270E+03  0.10135348643E+03 0.  0.
          5    1    1    2  502    0 -0.19084782102E+02  0.12658438838E+01  0.86713055089E+01  0.21412501205E+02  0.41800000000E+01 0.  1.
         -5    1    1    2    0  502  0.40071488102E+02 -0.47797484004E+02 -0.22603228660E+03  0.23451735676E+03  0.41800000000E+01 0.  1.
        -11    1    3    3    0    0 -0.35662972388E+02  0.73275715642E+02 -0.96306160762E+02  0.12615884711E+03  0.00000000000E+00 0.  1.
         11    1    3    3    0    0  0.14676266387E+02 -0.26744075521E+02 -0.20870383919E+02  0.36962295593E+02  0.00000000000E+00 0. -1.
</event>
<event>
 7    1  0.5137842E-006  0.5418616E+02  0.7561462E-02  0.1423987E+00
          1   -1    0    0  501    0  0.00000000000E+00  0.00000000000E+00  0.24969423774E+02  0.24969423774E+02  0.00000000000E+00 0. -1.
         -1   -1    0    0    0  501 -0.00000000000E+00 -0.00000000000E+00 -0.51872188261E+03  0.51872188261E+03  0.00000000000E+00 0.  1.
         23    2    1    2    0    0  0.17032841124E+02 -0.17561909680E+02 -0.14767033879E+03  0.17488386800E+03  0.90439482426E+02 0.  0.
          5    1    1    2  502    0 -0.71185007270E+01  0.15079550190E+02  0.47232917572E+01  0.17828285716E+02  0.41800000000E+01 0.  1.
         -5    1    1    2    0  502 -0.99143403973E+01  0.24823594900E+01 -0.35080541180E+03  0.35097915266E+03  0.41800000000E+01 0.  1.
        -11    1    3    3    0    0 -0.26842006507E+02 -0.23736500343E+02 -0.23010036342E+02  0.42583759044E+02  0.00000000000E+00 0. -1.
         11    1    3    3    0    0  0.43874847631E+02  0.61745906630E+01 -0.12466030245E+03  0.13230010896E+03  0.00000000000E+00 0.  1.
</event>
<event>
 7    1  0.5137842E-006  0.1298100E+03  0.7561462E-02  0.1227738E+00
          1   -1    0    0  501    0  0.00000000000E+00  0.00000000000E+00  0.36332755464E+02  0.36332755464E+02  0.00000000000E+00 0. -1.
         -1   -1    0    0    0  501 -0.00000000000E+00 -0.00000000000E+00 -0.93216339071E+03  0.93216339071E+03  0.00000000000E+00 0.  1.
         23    2    1    2    0    0  0.33329542360E+02 -0.10052702395E+03 -0.14911904728E+03  0.20400790774E+03  0.90367002946E+02 0.  0.
          5    1    1    2  502    0 -0.10430716647E+02 -0.24263826517E+02 -0.26447503400E+03  0.26582334197E+03  0.41800000000E+01 0. -1.
         -5    1    1    2    0  502 -0.22898825713E+02  0.12479085047E+03 -0.48223655397E+03  0.49866489646E+03  0.41800000000E+01 0. -1.
        -11    1    3    3    0    0  0.16965679978E+02 -0.47234303335E+02 -0.13842550597E+03  0.14724311330E+03  0.00000000000E+00 0.  1.
         11    1    3    3    0    0  0.16363862382E+02 -0.53292720617E+02 -0.10693541302E+02  0.56764794445E+02  0.00000000000E+00 0. -1.
</event>
<event>
 7    1  0.5137842E-006  0.3017650E+03  0.7561462E-02  0.1084362E+00
          1   -1    0    0  501    0  0.00000000000E+00  0.00000000000E+00  0.65749245722E+02  0.65749245722E+02  0.00000000000E+00 0. -1.
         -1   -1    0    0    0  501 -0.00000000000E+00 -0.00000000000E+00 -0.14030182845E+04  0.14030182845E+04  0.00000000000E+00 0.  1.
         23    2    1    2    0    0  0.17974008824E+02  0.28051080372E+03 -0.57368814079E+03  0.64553467762E+03  0.92669094787E+02 0.  0.
          5    1    1    2  502    0 -0.54387641410E+02 -0.25983593917E+03 -0.65245755736E+03  0.70440831013E+03  0.41800000000E+01 0. -1.
         -5    1    1    2    0  502  0.36413632586E+02 -0.20674864553E+02 -0.11112334063E+03  0.11882454248E+03  0.41800000000E+01 0. -1.
        -11    1    3    3    0    0  0.51137602744E+02  0.98942371827E+02 -0.21232973889E+03  0.23976773214E+03  0.00000000000E+00 0.  1.
         11    1    3    3    0    0 -0.33163593920E+02  0.18156843189E+03 -0.36135840190E+03  0.40576694548E+03  0.00000000000E+00 0. -1.
</event>
<event>
 7    1  0.5137842E-006  0.1219839E+03  0.7561462E-02  0.1239860E+00
         -2   -1    0    0    0  501 -0.00000000000E+00  0.00000000000E+00  0.21892872631E+03  0.21892872631E+03  0.00000000000E+00 0.  1.
          2   -1    0    0  501    0  0.00000000000E+00 -0.00000000000E+00 -0.10946555674E+03  0.10946555674E+03  0.00000000000E+00 0. -1.
         23    2    1    2    0    0  0.67972658841E+02 -0.86711990876E+02  0.53154805448E+02  0.15244616709E+03  0.90967844900E+02 0.  0.
          5    1    1    2  502    0 -0.70054313833E+02  0.90926826712E+02  0.87333900438E+02  0.14429129311E+03  0.41800000000E+01 0.  1.
         -5    1    1    2    0  502  0.20816549913E+01 -0.42148358362E+01 -0.31025536322E+02  0.31656822846E+02  0.41800000000E+01 0.  1.
        -11    1    3    3    0    0  0.21768876513E+02  0.29335129012E+01 -0.18510152233E+02  0.28724818855E+02  0.00000000000E+00 0. -1.
         11    1    3    3    0    0  0.46203782328E+02 -0.89645503777E+02  0.71664957681E+02  0.12372134823E+03  0.00000000000E+00 0.  1.
</event>
<event>
 7    1  0.5137842E-006  0.1349388E+03  0.7561462E-02  0.1220306E+00
          1   -1    0    0  501    0  0.00000000000E+00  0.00000000000E+00  0.19753382898E+02  0.19753382898E+02  0.00000000000E+00 0. -1.
         -1   -1    0    0    0  501 -0.00000000000E+00 -0.00000000000E+00 -0.12985655183E+04  0.12985655183E+04  0.00000000000E+00 0.  1.
         23    2    1    2    0    0  0.55553992730E+02  0.76589308718E+02 -0.28268255325E+03  0.31153444815E+03  0.90510320709E+02 0.  0.
          5    1    1    2  502    0  0.28576258473E+02 -0.55514919273E+01 -0.11128682146E+03  0.11510712680E+03  0.41800000000E+01 0. -1.
         -5    1    1    2    0  502 -0.84130251202E+02 -0.71037816791E+02 -0.88484276065E+03  0.89167732620E+03  0.41800000000E+01 0.  1.
        -11    1    3    3    0    0 -0.23321534872E+02  0.32237966127E+02 -0.72514636729E+02  0.82713680783E+02  0.00000000000E+00 0. -1.
         11    1    3    3    0    0  0.78875527601E+02  0.44351342591E+02 -0.21016791652E+03  0.22882076737E+03  0.00000000000E+00 0.  1.
</event>
<event>
 7    1  0.5137842E-006  0.1636525E+03  0.7561462E-02  0.1184634E+00
         -2   -1    0    0    0  501 -0.00000000000E+00  0.00000000000E+00  0.44426230322E+02  0.44426230322E+02  0.00000000000E+00 0.  1.
          2   -1    0    0  501    0  0.00000000000E+00 -0.00000000000E+00 -0.66814020520E+03  0.66814020520E+03  0.00000000000E+00 0. -1.
         23    2    1    2    0    0 -0.10232330105E+03  0.86666795402E+02 -0.24994013411E+03  0.29622935387E+03  0.85443361904E+02 0.  0.
          5    1    1    2  502    0 -0.10463409714E+02 -0.49560277995E+02 -0.19625676326E+03  0.20273108697E+03  0.41800000000E+01 0. -1.
         -5    1    1    2    0  502  0.11278671076E+03 -0.37106517407E+02 -0.17751707752E+03  0.21360599469E+03  0.41800000000E+01 0. -1.
        -11    1    3    3    0    0  0.58383985408E+01  0.39066034180E+02 -0.47041342065E+02  0.61425807177E+02  0.00000000000E+00 0.  1.
         11    1    3    3    0    0 -0.10816169959E+03  0.47600761222E+02 -0.20289879204E+03  0.23480354669E+03  0.00000000000E+00 0. -1.
</event>
<event>
 7    1  0.5137842E-006  0.1437925E+03  0.7561462E-02  0.1208315E+00
         -1   -1    0    0    0  501 -0.00000000000E+00  0.00000000000E+00  0.57232646260E+02  0.57232646260E+02  0.00000000000E+00 0.  1.
          1   -1    0    0  501    0  0.00000000000E+00 -0.00000000000E+00 -0.43357024666E+03  0.43357024666E+03  0.00000000000E+00 0. -1.
         23    2    1    2    0    0 -0.34491957201E+02 -0.83673264102E+02 -0.27229082518E+03  0.30396130174E+03  0.10029590838E+03 0.  0.
          5    1    1    2  502    0  0.42396794370E+02 -0.21993711149E+02 -0.21940780114E+02  0.52726480396E+02  0.41800000000E+01 0.  1.
         -5    1    1    2    0  502 -0.79048371691E+01  0.10566697525E+03 -0.82105995104E+02  0.13411511079E+03  0.41800000000E+01 0.  1.
        -11    1    3    3    0    0 -0.64033852657E+02 -0.26617864207E+02 -0.11867343826E+03  0.13744900847E+03  0.00000000000E+00 0.  1.
         11    1    3    3    0    0  0.29541895457E+02 -0.57055399896E+02 -0.15361738692E+03  0.16651229326E+03  0.00000000000E+00 0. -1.
</event>
<event>
 7    1  0.5137842E-006  0.9969850E+02  0.7561462E-02  0.1280931E+00
         -2   -1    0    0    0  501 -0.00000000000E+00  0.00000000000E+00  0.28296583664E+03  0.28296583664E+03  0.00000000000E+00 0.  1.
          2   -1    0    0  501    0  0.00000000000E+00 -0.00000000000E+00 -0.54537116804E+02  0.54537116804E+02  0.00000000000E+00 0. -1.
         23    2    1    2    0    0  0.49534155466E+02 -0.42390803993E+01  0.55411855107E+02  0.11829214672E+03  0.91929080977E+02 0.  0.
          5    1    1    2  502    0 -0.77422383884E+02 -0.24596138235E+02  0.65688621339E+02  0.10455459299E+03  0.41800000000E+01 0. -1.
         -5    1    1    2    0  502  0.27888228417E+02  0.28835218634E+02  0.10732824339E+03  0.11465621373E+03  0.41800000000E+01 0. -1.
        -11    1    3    3    0    0  0.63493654089E+02 -0.15925463960E+01  0.25614907262E+01  0.63565254254E+02  0.00000000000E+00 0. -1.
         11    1    3    3    0    0 -0.13959498623E+02 -0.26465340033E+01  0.52850364381E+02  0.54726892468E+02  0.00000000000E+00 0.  1.
</event>
<event>
 7    1  0.5137842E-006  0.1106458E+03  0.7561462E-02  0.1259379E+00
         -3   -1    0    0    0  501 -0.00000000000E+00  0.00000000000E+00  0.11013675948E+03  0.11013675948E+03  0.00000000000E+00 0.  1.
          3   -1    0    0  501    0  0.00000000000E+00 -0.00000000000E+00 -0.16179307274E+03  0.16179307274E+03  0.00000000000E+00 0. -1.
         23    2    1    2    0    0 -0.23213842356E+02  0.65234145177E+02 -0.60307426295E+02  0.12869201393E+03  0.90168024313E+02 0.  0.
          5    1    1    2  502    0 -0.44062267171E+02 -0.56717576892E+02  0.19250420104E+02  0.74474277378E+02  0.41800000000E+01 0. -1.
         -5    1    1    2    0  502  0.67276109527E+02 -0.85165682852E+01 -0.10599307075E+02  0.68763540913E+02  0.41800000000E+01 0. -1.
        -11    1    3    3    0    0 -0.34798970765E+02  0.36527239749E+02  0.10394729024E+02  0.51509785492E+02  0.00000000000E+00 0.  1.
         11    1    3    3    0    0  0.11585128408E+02  0.28706905428E+02 -0.70702155319E+02  0.77182228436E+02  0.00000000000E+00 0. -1.
</event>
<event>
 7    1  0.5137842E-006  0.2347843E+03  0.7561462E-02  0.1123317E+00
          2   -1    0    0  501    0  0.00000000000E+00  0.00000000000E+00  0.52956786860E+03  0.52956786860E+03  0.00000000000E+00 0. -1.
         -2   -1    0    0    0  501 -0.00000000000E+00 -0.00000000000E+00 -0.11342414431E+03  0.11342414431E+03  0.00000000000E+00 0.  1.
         23    2    1    2    0    0  0.12964726531E+03 -0.17968059005E+03  0.20150920529E+03  0.31011055357E+03  0.80430515200E+02 0.  0.
          5    1    1    2  502    0 -0.80767245211E+02  0.47323149100E+02  0.15175436968E+03  0.17835271082E+03  0.41800000000E+01 0. -1.
         -5    1    1    2    0  502 -0.48880020095E+02  0.13235744095E+03  0.62880149328E+02  0.15452874852E+03  0.41800000000E+01 0. -1.
        -11    1    3    3    0    0  0.11394407060E+03 -0.94324411970E+02  0.14061023623E+03  0.20408719815E+03  0.00000000000E+00 0.  1.
         11    1    3    3    0    0  0.15703194708E+02 -0.85356178083E+02  0.60898969065E+02  0.10602335542E+03  0.00000000000E+00 0. -1.
</event>
<event>
 7    1  0.5137842E-006  0.1250609E+03  0.7561462E-02  0.1234974E+00
         -1   -1    0    0    0  501 -0.00000000000E+00  0.00000000000E+00  0.91820971550E+03  0.91820971550E+03  0.00000000000E+00 0.  1.
          1   -1    0    0  501    0  0.00000000000E+00 -0.00000000000E+00 -0.18986016364E+02  0.18986016364E+02  0.00000000000E+00 0. -1.
         23    2    1    2    0    0 -0.68719673589E+02  0.14182145598E+02  0.34623241510E+03  0.36590720859E+03  0.95329288462E+02 0.  0.
          5    1    1    2  502    0 -0.13832077680E+02 -0.44821283179E+02  0.29296344261E+03  0.29672432476E+03  0.41800000000E+01 0.  1.
         -5    1    1    2    0  502  0.82551751269E+02  0.30639137580E+02  0.26002784142E+03  0.27456419851E+03  0.41800000000E+01 0.  1.
        -11    1    3    3    0    0 -0.20641030785E+01 -0.33092812688E+02  0.14442709913E+03  0.14818428302E+03  0.00000000000E+00 0.  1.
         11    1    3    3    0    0 -0.66655570511E+02  0.47274958286E+02  0.20180531598E+03  0.21772292557E+03  0.00000000000E+00 0. -1.
</event>
<event>
 7    1  0.5137842E-006  0.2032268E+03  0.7561462E-02  0.1147045E+00
          1   -1    0    0  501    0  0.00000000000E+00  0.00000000000E+00  0.99566089230E+03  0.99566089230E+03  0.00000000000E+00 0. -1.
         -1   -1    0    0    0  501 -0.00000000000E+00 -0.00000000000E+00 -0.53746341560E+02  0.53746341560E+02  0.00000000000E+00 0.  1.
         23    2    1    2    0    0  0.10994230041E+03  0.15294867079E+03  0.63367303151E+03  0.66712282711E+03  0.89614453454E+02 0.  0.
          5    1    1    2  502    0 -0.13183951290E+01 -0.92690917924E+02  0.80546633615E+02  0.12287626711E+03  0.41800000000E+01 0. -1.
         -5    1    1    2    0  502 -0.10862390528E+03 -0.60257752870E+02  0.22769488562E+03  0.25940813965E+03  0.41800000000E+01 0. -1.
        -11    1    3    3    0    0  0.53647676240E+02  0.58149831644E+02  0.13560277975E+03  0.15699550937E+03  0.00000000000E+00 0.  1.
         11    1    3    3    0    0  0.56294624170E+02  0.94798839149E+02  0.49807025176E+03  0.51012731774E+03  0.00000000000E+00 0. -1.
</event>
<event>
 7    1  0.5137842E-006  0.1244975E+03  0.7561462E-02  0.1235857E+00
         -1   -1    0    0    0  501 -0.00000000000E+00  0.00000000000E+00  0.15363703261E+03  0.15363703261E+03  0.00000000000E+00 0.  1.
          1   -1    0    0  501    0  0.00000000000E+00 -0.00000000000E+00 -0.14823335487E+03  0.14823335487E+03  0.00000000000E+00 0. -1.
         23    2    1    2    0    0  0.68454154774E+02  0.74368021228E+02  0.29933654206E+02  0.13918644495E+03  0.90886021567E+02 0.  0.
          5    1    1    2  502    0 -0.78510772025E+02 -0.28354658043E+02 -0.60579724410E+02  0.10322452890E+03  0.41800000000E+01 0. -1.
         -5    1    1    2    0  502  0.10056617251E+02 -0.46013363185E+02  0.36049747944E+02  0.59459413628E+02  0.41800000000E+01 0. -1.
        -11    1    3    3    0    0  0.50531580903E+02  0.10256234661E+02 -0.20686324104E+02  0.55556772971E+02  0.00000000000E+00 0. -1.
         11    1    3    3    0    0  0.17922573871E+02  0.64111786568E+02  0.50619978310E+02  0.83629671978E+02  0.00000000000E+00 0.  1.
</event>
<event>
 7    1  0.5137842E-006  0.1576515E+03  0.7561462E-02  0.1191374E+00
         -3   -1    0    0    0  501 -0.00000000000E+00  0.00000000000E+00  0.36625449273E+03  0.36625449273E+03  0.00000000000E+00 0.  1.
          3   -1    0    0  501    0  0.00000000000E+00 -0.00000000000E+00 -0.10083648564E+03  0.10083648564E+03  0.00000000000E+00 0. -1.
         23    2    1    2    0    0 -0.29095418193E+02 -0.14600242783E+03  0.64725538149E+02  0.18764789331E+03  0.94122708653E+02 0.  0.
          5    1    1    2  502    0  0.37281999981E+02  0.87566202942E+02  0.19858278208E+03  0.22025072340E+03  0.41800000000E+01 0.  1.
         -5    1    1    2    0  502 -0.81865817874E+01  0.58436224884E+02  0.21096868611E+01  0.59192361658E+02  0.41800000000E+01 0.  1.
        -11    1    3    3    0    0  0.14413976740E+02 -0.83462737572E+02 -0.43496575627E+01  0.84809850898E+02  0.00000000000E+00 0. -1.
         11    1    3    3    0    0 -0.43509394934E+02 -0.62539690254E+02  0.69075195712E+02  0.10283804241E+03  0.00000000000E+00 0.  1.
</event>
<event>
 7    1  0.5137842E-006  0.8931273E+02  0.7561462E-02  0.1304525E+00
         -1   -1    0    0    0  501 -0.00000000000E+00  0.00000000000E+00  0.14771442218E+03  0.14771442218E+03  0.00000000000E+00 0.  1.
          1   -1    0    0  501    0  0.00000000000E+00 -0.00000000000E+00 -0.82758120468E+02  0.82758120468E+02  0.00000000000E+00 0. -1.
         23    2    1    2    0    0 -0.30030382672E+01  0.40646772393E+01  0.13903082069E+01  0.90096142759E+02  0.89943549759E+02 0.  0.
          5    1    1    2  502    0 -0.33273217372E+02 -0.41483304001E+02 -0.56408583390E+01  0.53640126658E+02  0.41800000000E+01 0.  1.
         -5    1    1    2    0  502  0.36276255639E+02  0.37418626761E+02  0.69206851844E+02  0.86736273231E+02  0.41800000000E+01 0.  1.
        -11    1    3    3    0    0 -0.33772864227E+02  0.19048934064E+02  0.27086849097E+02  0.47298685405E+02  0.00000000000E+00 0.  1.
         11    1    3    3    0    0  0.30769825960E+02 -0.14984256824E+02 -0.25696540890E+02  0.42797457353E+02  0.00000000000E+00 0. -1.
</event>
<event>
 7    1  0.5137842E-006  0.1237840E+03  0.7561462E-02  0.1236982E+00
         -2   -1    0    0    0  501 -0.00000000000E+00  0.00000000000E+00  0.35146421716E+03  0.35146421716E+03  0.00000000000E+00 0.  1.
          2   -1    0    0  501    0  0.00000000000E+00 -0.00000000000E+00 -0.52213974318E+02  0.52213974318E+02  0.00000000000E+00 0. -1.
         23    2    1    2    0    0 -0.50145637094E+02 -0.31056466067E+02  0.82403231335E+02  0.14648347946E+03  0.10577347596E+03 0.  0.
          5    1    1    2  502    0 -0.36152024751E+02  0.81357662776E+01  0.11880840391E+03  0.12452336658E+03  0.41800000000E+01 0.  1.
         -5    1    1    2    0  502  0.86297661845E+02  0.22920699789E+02  0.98038607601E+02  0.13267134543E+03  0.41800000000E+01 0.  1.
        -11    1    3    3    0    0  0.28046580364E+02  0.13247566677E+02  0.17371226424E+02  0.35550924045E+02  0.00000000000E+00 0.  1.
         11    1    3    3    0    0 -0.78192217459E+02 -0.44304032744E+02  0.65032004911E+02  0.11093255542E+03  0.00000000000E+00 0. -1.
</event>
<event>
 7    1  0.5137842E-006  0.9047532E+02  0.7561462E-02  0.1301705E+00
         -1   -1    0    0    0  501 -0.00000000000E+00  0.00000000000E+00  0.21784207074E+02  0.21784207074E+02  0.00000000000E+00 0.  1.
          1   -1    0    0  501    0  0.00000000000E+00 -0.00000000000E+00 -0.57066257891E+03  0.57066257891E+03  0.00000000000E+00 0. -1.
         23    2    1    2    0    0  0.49384671840E+01 -0.22734557277E+02 -0.27667754851E+03  0.29197605059E+03  0.90323306602E+02 0.  0.
          5    1    1    2  502    0  0.15930591132E+02 -0.29910061389E+02 -0.22220600012E+03  0.22481408851E+03  0.41800000000E+01 0.  1.
         -5    1    1    2    0  502 -0.20869058316E+02  0.52644618666E+02 -0.49994823206E+02  0.75656646879E+02  0.41800000000E+01 0.  1.
        -11    1    3    3    0    0 -0.28310226108E+02 -0.42704875945E+02 -0.11830461026E+03  0.12892306288E+03  0.00000000000E+00 0.  1.
         11    1    3    3    0    0  0.33248693292E+02  0.19970318668E+02 -0.15837293825E+03  0.16305298771E+03  0.00000000000E+00 0. -1.
</event>
<event>
 7    1  0.5137842E-006  0.1081713E+03  0.7561462E-02  0.1263994E+00
          4   -1    0    0  501    0  0.00000000000E+00  0.00000000000E+00  0.10610584751E+03  0.10610584751E+03  0.00000000000E+00 0. -1.
         -4   -1    0    0    0  501 -0.00000000000E+00 -0.00000000000E+00 -0.12634907938E+03  0.12634907938E+03  0.00000000000E+00 0.  1.
         23    2    1    2    0    0  0.31674164804E+02 -0.74544600856E+01  0.69668880521E+01  0.10036904699E+03  0.94692060772E+02 0.  0.
          5    1    1    2  502    0  0.10782921626E+02 -0.49220059032E+02 -0.33839402461E+02  0.60839651288E+02  0.41800000000E+01 0. -1.
         -5    1    1    2    0  502 -0.42457086430E+02  0.56674519118E+02  0.66292825391E+01  0.71246228619E+02  0.41800000000E+01 0. -1.
        -11    1    3    3    0    0 -0.10824317672E+02  0.33875940290E+02  0.18328344566E+02  0.40008416591E+02  0.00000000000E+00 0. -1.
         11    1    3    3    0    0  0.42498482476E+02 -0.41330400376E+02 -0.11361456514E+02  0.60360630398E+02  0.00000000000E+00 0.  1.
</event>
<event>
 7    1  0.5137842E-006  0.9301026E+02  0.7561462E-02  0.1295721E+00
          1   -1    0    0  501    0  0.00000000000E+00  0.00000000000E+00  0.20469919991E+03  0.20469919991E+03  0.00000000000E+00 0. -1.
         -1   -1    0    0    0  501 -0.00000000000E+00 -0.00000000000E+00 -0.77888355678E+02  0.77888355678E+02  0.00000000000E+00 0.  1.
         23    2    1    2    0    0 -0.37323650076E+02 -0.59421686144E+01  0.12934884145E+03  0.16145620849E+03  0.88930423660E+02 0.  0.
          5    1    1    2  502    0 -0.46282441655E+01 -0.36918259809E+02  0.34170632704E+02  0.50690068956E+02  0.41800000000E+01 0. -1.
         -5    1    1    2    0  502  0.41951894242E+02  0.42860428423E+02 -0.36708629925E+02  0.70441278141E+02  0.41800000000E+01 0.  1.
        -11    1    3    3    0    0 -0.31043288343E+02  0.35146471032E+02  0.10037528928E+03  0.11078880302E+03  0.00000000000E+00 0.  1.
         11    1    3    3    0    0 -0.62803617338E+01 -0.41088639646E+02  0.28973552175E+02  0.50667405471E+02  0.00000000000E+00 0. -1.
</event>
<event>
 7    1  0.5137842E-006  0.8833977E+02  0.7561462E-02  0.1306923E+00
         -1   -1    0    0    0  501 -0.00000000000E+00  0.00000000000E+00  0.30601038601E+03  0.30601038601E+03  0.00000000000E+00 0.  1.
          1   -1    0    0  501    0  0.00000000000E+00 -0.00000000000E+00 -0.50199833161E+02  0.50199833161E+02  0.00000000000E+00 0. -1.
         23    2    1    2    0    0  0.48346657027E+02 -0.41075493736E+01  0.67606301782E+02  0.12507586117E+03  0.93376055813E+02 0.  0.
          5    1    1    2  502    0 -0.50701654024E+02 -0.39422305981E+02  0.38144392982E+02  0.74814724792E+02  0.41800000000E+01 0.  1.
         -5    1    1    2    0  502  0.23549969970E+01  0.43529855354E+02  0.15005985809E+03  0.15631963321E+03  0.41800000000E+01 0.  1.
        -11    1    3    3    0    0  0.96206817243E+01 -0.23370655680E+02  0.76804791404E+02  0.80856175067E+02  0.00000000000E+00 0.  1.
         11    1    3    3    0    0  0.38725975303E+02  0.19263106307E+02 -0.91984896223E+01  0.44219686103E+02  0.00000000000E+00 0. -1.
</event>
<event>
 7    1  0.5137842E-006  0.2119049E+03  0.7561462E-02  0.1140066E+00
          1   -1    0    0  501    0  0.00000000000E+00  0.00000000000E+00  0.92202848180E+02  0.92202848180E+02  0.00000000000E+00 0. -1.
         -1   -1    0    0    0  501 -0.00000000000E+00 -0.00000000000E+00 -0.64356131224E+03  0.64356131224E+03  0.00000000000E+00 0.  1.
         23    2    1    2    0    0 -0.14357117977E+03  0.14759887845E+03 -0.14915078140E+03  0.26695782602E+03  0.81378207782E+02 0.  0.
          5    1    1    2  502    0  0.22376691729E+01 -0.96298697442E+01  0.80792328963E+01  0.13434580708E+02  0.41800000000E+01 0. -1.
         -5    1    1    2    0  502  0.14133351060E+03 -0.13796900871E+03 -0.41028691556E+03  0.45537175369E+03  0.41800000000E+01 0. -1.
        -11    1    3    3    0    0 -0.14823422070E+03  0.12951036597E+03 -0.15113966713E+03  0.24817235555E+03  0.00000000000E+00 0.  1.
         11    1    3    3    0    0  0.46630409282E+01  0.18088512479E+02  0.19888857272E+01  0.18785470472E+02  0.00000000000E+00 0. -1.
</event>
<event>
 7    1  0.5137842E-006  0.9236416E+02  0.7561462E-02  0.1297225E+00
         -4   -1    0    0    0  501 -0.00000000000E+00  0.00000000000E+00  0.56834025101E+02  0.56834025101E+02  0.00000000000E+00 0. -1.
          4   -1    0    0  501    0  0.00000000000E+00 -0.00000000000E+00 -0.21108687613E+03  0.21108687613E+03  0.00000000000E+00 0.  1.
         23    2    1    2    0    0 -0.10228817239E+02  0.90414153898E+01 -0.78280646703E+02  0.12093208332E+03  0.91161029136E+02 0.  0.
          5    1    1    2  502    0  0.56805979441E+02  0.81788323174E+01 -0.78217188359E+02  0.97104137673E+02  0.41800000000E+01 0. -1.
         -5    1    1    2    0  502 -0.46577162202E+02 -0.17220247707E+02  0.22449840288E+01  0.49884680245E+02  0.41800000000E+01 0. -1.
        -11    1    3    3    0    0 -0.43498180014E+02  0.37035867689E+01 -0.75384818274E+02  0.87113024547E+02  0.00000000000E+00 0.  1.
         11    1    3    3    0    0  0.33269362775E+02  0.53378286209E+01 -0.28958284286E+01  0.33819058771E+02  0.00000000000E+00 0. -1.
</event>
<event>
 7    1  0.5137842E-006  0.9985296E+02  0.7561462E-02  0.1280605E+00
         -1   -1    0    0    0  501 -0.00000000000E+00  0.00000000000E+00  0.40288786766E+03  0.40288786766E+03  0.00000000000E+00 0.  1.
          1   -1    0    0  501    0  0.00000000000E+00 -0.00000000000E+00 -0.70837702225E+02  0.70837702225E+02  0.00000000000E+00 0. -1.
         23    2    1    2    0    0  0.21162606975E+02  0.64800937511E+02  0.28005805313E-01  0.11243198392E+03  0.89408795915E+02 0.  0.
          5    1    1    2  502    0  0.22167940244E+02 -0.31541161288E+02  0.18398841513E+02  0.42921465481E+02  0.41800000000E+01 0. -1.
         -5    1    1    2    0  502 -0.43330547218E+02 -0.33259776223E+02  0.31362331812E+03  0.31837212049E+03  0.41800000000E+01 0. -1.
        -11    1    3    3    0    0 -0.24858750974E+02  0.53142702976E+02  0.18458967713E+02  0.61504779234E+02  0.00000000000E+00 0.  1.
         11    1    3    3    0    0  0.46021357949E+02  0.11658234535E+02 -0.18430961908E+02  0.50927204683E+02  0.00000000000E+00 0. -1.
</event>
<event>
 7    1  0.5137842E-006  0.9043387E+02  0.7561462E-02  0.1301804E+00
         -2   -1    0    0    0  501 -0.00000000000E+00  0.00000000000E+00  0.16991567149E+03  0.16991567149E+03  0.00000000000E+00 0.  1.
          2   -1    0    0  501    0  0.00000000000E+00 -0.00000000000E+00 -0.94548522307E+02  0.94548522307E+02  0.00000000000E+00 0. -1.
         23    2    1    2    0    0 -0.30790975616E+02  0.56588483914E+02  0.16463558981E+02  0.11192826632E+03  0.90036366738E+02 0.  0.
          5    1    1    2  502    0  0.35522115783E+01 -0.34242692619E+02 -0.36741096418E+02  0.50522873740E+02  0.41800000000E+01 0.  1.
         -5    1    1    2    0  502  0.27238764038E+02 -0.22345791294E+02  0.95644686617E+02  0.10201305374E+03  0.41800000000E+01 0.  1.
        -11    1    3    3    0    0 -0.62558900037E+02  0.30478092902E+02  0.10082793492E+02  0.70314954636E+02  0.00000000000E+00 0.  1.
         11    1    3    3    0    0  0.31767924421E+02  0.26110391012E+02  0.63807654893E+01  0.41613311681E+02  0.00000000000E+00 0. -1.
</event>
<event>
 7    1  0.5137842E-006  0.9854395E+02  0.7561462E-02  0.1283388E+00
          2   -1    0    0  501    0  0.00000000000E+00  0.00000000000E+00  0.35701031066E+03  0.35701031066E+03  0.00000000000E+00 0. -1.
         -2   -1    0    0    0  501 -0.00000000000E+00 -0.00000000000E+00 -0.45446222548E+02  0.45446222548E+02  0.00000000000E+00 0.  1.
         23    2    1    2    0    0 -0.47411712376E+02  0.73030400513E+01  0.21272610549E+03  0.23596936886E+03  0.90155100890E+02 0.  0.
          5    1    1    2  502    0 -0.14939973824E+02 -0.50128099319E+02  0.17454711854E+02  0.55300709988E+02  0.41800000000E+01 0.  1.
         -5    1    1    2    0  502  0.62351686201E+02  0.42825059268E+02  0.81383270762E+02  0.11118645436E+03  0.41800000000E+01 0.  1.
        -11    1    3    3    0    0 -0.49199614166E+02 -0.11042973651E+02  0.21157487988E+03  0.21750052666E+03  0.00000000000E+00 0. -1.
         11    1    3    3    0    0  0.17879017895E+01  0.18346013703E+02  0.11512256089E+01  0.18468842194E+02  0.00000000000E+00 0.  1.
</event>
<event>
 7    1  0.5137842E-006  0.1149015E+03  0.7561462E-02  0.1251753E+00
         -1   -1    0    0    0  501 -0.00000000000E+00  0.00000000000E+00  0.14550722265E+03  0.14550722265E+03  0.00000000000E+00 0.  1.
          1   -1    0    0  501    0  0.00000000000E+00 -0.00000000000E+00 -0.12165809311E+03  0.12165809311E+03  0.00000000000E+00 0. -1.
         23    2    1    2    0    0  0.89294014823E+01 -0.74811663585E+02 -0.88539990200E+01  0.11753091712E+03  0.89769727422E+02 0.  0.
          5    1    1    2  502    0 -0.33964529865E+02  0.10273009941E+03  0.24822605028E+02  0.11108868860E+03  0.41800000000E+01 0.  1.
         -5    1    1    2    0  502  0.25035128383E+02 -0.27918435826E+02  0.78805235310E+01  0.38545710050E+02  0.41800000000E+01 0.  1.
        -11    1    3    3    0    0  0.22948550711E+02 -0.37887662493E+02  0.36495463856E+02  0.57393639290E+02  0.00000000000E+00 0.  1.
         11    1    3    3    0    0 -0.14019149229E+02 -0.36924001091E+02 -0.45349462876E+02  0.60137277830E+02  0.00000000000E+00 0. -1.
</event>
<event>
 7    1  0.5137842E-006  0.1045495E+03  0.7561462E-02  0.1271010E+00
         -1   -1    0    0    0  501 -0.00000000000E+00  0.00000000000E+00  0.35068577587E+02  0.35068577587E+02  0.00000000000E+00 0.  1.
          1   -1    0    0  501    0  0.00000000000E+00 -0.00000000000E+00 -0.62898063031E+03  0.62898063031E+03  0.00000000000E+00 0. -1.
         23    2    1    2    0    0  0.85848397849E+02  0.21390250398E+02 -0.33946743270E+03  0.36289800015E+03  0.92894189395E+02 0.  0.
          5    1    1    2  502    0 -0.31987352771E+02 -0.17416482718E+02 -0.24304677078E+03  0.24579611428E+03  0.41800000000E+01 0. -1.
         -5    1    1    2    0  502 -0.53861045078E+02 -0.39737676794E+01 -0.11397849253E+02  0.55355093479E+02  0.41800000000E+01 0.  1.
        -11    1    3    3    0    0  0.57533288394E+02  0.51299965018E+02 -0.28099685706E+03  0.29137776058E+03  0.00000000000E+00 0. -1.
         11    1    3    3    0    0  0.28315109455E+02 -0.29909714620E+02 -0.58470575638E+02  0.71520239566E+02  0.00000000000E+00 0.  1.
</event>
<event>
 7    1  0.5137842E-006  0.1923132E+03  0.7561462E-02  0.1156391E+00
         -2   -1    0    0    0  501 -0.00000000000E+00  0.00000000000E+00  0.10451766741E+03  0.10451766741E+03  0.00000000000E+00 0.  1.
          2   -1    0    0  501    0  0.00000000000E+00 -0.00000000000E+00 -0.48983245092E+03  0.48983245092E+03  0.00000000000E+00 0. -1.
         23    2    1    2    0    0 -0.18075426160E+03 -0.37356999150E+02 -0.28154829938E+03  0.34841843812E+03  0.89768116085E+02 0.  0.
          5    1    1    2  502    0  0.73555306319E+02  0.45220014968E+02  0.12719997633E+02  0.87375646384E+02  0.41800000000E+01 0.  1.
         -5    1    1    2    0  502  0.10719895528E+03 -0.78630158180E+01 -0.11648648176E+03  0.15855603383E+03  0.41800000000E+01 0.  1.
        -11    1    3    3    0    0 -0.10311040762E+02  0.93151750422E+01  0.22703889924E+01  0.14079940122E+02  0.00000000000E+00 0.  1.
         11    1    3    3    0    0 -0.17044322084E+03 -0.46672174192E+02 -0.28381868837E+03  0.33433849800E+03  0.00000000000E+00 0. -1.
</event>
<event>
 7    1  0.5137842E-006  0.1054191E+03  0.7561462E-02  0.1269296E+00
         -2   -1    0    0    0  501 -0.00000000000E+00  0.00000000000E+00  0.30070205458E+02  0.30070205458E+02  0.00000000000E+00 0.  1.
          2   -1    0    0  501    0  0.00000000000E+00 -0.00000000000E+00 -0.51156060858E+03  0.51156060858E+03  0.00000000000E+00 0. -1.
         23    2    1    2    0    0 -0.41557725697E+01  0.66307820914E+01 -0.34125861717E+03  0.35354985674E+03  0.92080506593E+02 0.  0.
          5    1    1    2  502    0 -0.32424651678E+02  0.48715586066E+02 -0.70981930101E+02  0.92089484541E+02  0.41800000000E+01 0.  1.
         -5    1    1    2    0  502  0.36580424247E+02 -0.55346368157E+02 -0.69249855855E+02  0.95991472758E+02  0.41800000000E+01 0.  1.
        -11    1    3    3    0    0  0.23293726701E+02 -0.31211585102E+02 -0.91338965334E+02  0.99295354053E+02  0.00000000000E+00 0.  1.
         11    1    3    3    0    0 -0.27449499271E+02  0.37842367194E+02 -0.24991965183E+03  0.25425450269E+03  0.00000000000E+00 0. -1.
</event>
<event>
 7    1  0.5137842E-006  0.9868128E+02  0.7561462E-02  0.1283094E+00
          2   -1    0    0  501    0  0.00000000000E+00  0.00000000000E+00  0.62448790175E+03  0.62448790175E+03  0.00000000000E+00 0.  1.
         -2   -1    0    0    0  501 -0.00000000000E+00 -0.00000000000E+00 -0.28167179513E+02  0.28167179513E+02  0.00000000000E+00 0. -1.
         23    2    1    2    0    0 -0.52850539252E+02 -0.42833442125E+02  0.35201846936E+03  0.36988647053E+03  0.90945670848E+02 0.  0.
          5    1    1    2  502    0 -0.64182322503E+01 -0.54486521634E+01 -0.12018846677E+02  0.15258000887E+02  0.41800000000E+01 0.  1.
         -5    1    1    2    0  502  0.59268771502E+02  0.48282094288E+02  0.25632109955E+03  0.26751060985E+03  0.41800000000E+01 0.  1.
        -11    1    3    3    0    0 -0.48943813810E+02  0.16720446736E+02  0.12801007195E+03  0.13806393001E+03  0.00000000000E+00 0.  1.
         11    1    3    3    0    0 -0.39067254424E+01 -0.59553888861E+02  0.22400839741E+03  0.23182254052E+03  0.00000000000E+00 0. -1.
</event>
<event>
 7    1  0.5137842E-006  0.1067006E+03  0.7561462E-02  0.1266805E+00
          2   -1    0    0  501    0  0.00000000000E+00  0.00000000000E+00  0.66278580841E+02  0.66278580841E+02  0.00000000000E+00 0.  1.
         -2   -1    0    0    0  501 -0.00000000000E+00 -0.00000000000E+00 -0.19740316342E+03  0.19740316342E+03  0.00000000000E+00 0. -1.
         23    2    1    2    0    0 -0.29716432253E+02 -0.13324509564E+02 -0.35932788095E+02  0.10315291557E+03  0.91042571526E+02 0.  0.
          5    1    1    2  502    0 -0.42692256828E+02  0.11361362773E+02 -0.48223522784E+01  0.44636720742E+02  0.41800000000E+01 0. -1.
         -5    1    1    2    0  502  0.72408689080E+02  0.19631467913E+01 -0.90369442210E+02  0.11589210795E+03  0.41800000000E+01 0. -1.
        -11    1    3    3    0    0 -0.28732725517E+01  0.38234178332E+02 -0.17718933953E+02  0.42238237514E+02  0.00000000000E+00 0. -1.
         11    1    3    3    0    0 -0.26843159701E+02 -0.51558687896E+02 -0.18213854142E+02  0.60914678059E+02  0.00000000000E+00 0.  1.
</event>
<event>
 7    1  0.5137842E-006  0.1625079E+03  0.7561462E-02  0.1185894E+00
          4   -1    0    0  501    0  0.00000000000E+00  0.00000000000E+00  0.16298038703E+03  0.16298038703E+03  0.00000000000E+00 0. -1.
         -4   -1    0    0    0  501 -0.00000000000E+00 -0.00000000000E+00 -0.16919941236E+03  0.16919941236E+03  0.00000000000E+00 0.  1.
         23    2    1    2    0    0 -0.12582128075E+03  0.24236792516E+01  0.14292342698E+01  0.15457691556E+03  0.89750271326E+02 0.  0.
          5    1    1    2  502    0 -0.22566571910E+02 -0.10198253584E+01  0.14993293512E+02  0.27432853695E+02  0.41800000000E+01 0.  1.
         -5    1    1    2    0  502  0.14838785266E+03 -0.14038538932E+01 -0.22641553108E+02  0.15017003013E+03  0.41800000000E+01 0.  1.
        -11    1    3    3    0    0 -0.39675162043E+02  0.42877678832E+02 -0.78981967205E+01  0.58949091058E+02  0.00000000000E+00 0.  1.
         11    1    3    3    0    0 -0.86146118705E+02 -0.40453999580E+02  0.93274309903E+01  0.95627824502E+02  0.00000000000E+00 0. -1.
</event>
<event>
 7    1  0.5137842E-006  0.1102700E+03  0.7561462E-02  0.1260071E+00
          2   -1    0    0  501    0  0.00000000000E+00  0.00000000000E+00  0.19761402319E+03  0.19761402319E+03  0.00000000000E+00 0. -1.
         -2   -1    0    0    0  501 -0.00000000000E+00 -0.00000000000E+00 -0.86730284506E+02  0.86730284506E+02  0.00000000000E+00 0.  1.
         23    2    1    2    0    0  0.12270665220E+02  0.71486139728E+02  0.48384854521E+02  0.12681700769E+03  0.92090292072E+02 0.  0.
          5    1    1    2  502    0 -0.96639891060E+00 -0.95948664698E+02  0.77427048683E+01  0.96356121045E+02  0.41800000000E+01 0. -1.
         -5    1    1    2    0  502 -0.11304266310E+02  0.24462524970E+02  0.54756179297E+02  0.61171178964E+02  0.41800000000E+01 0. -1.
        -11    1    3    3    0    0  0.29123129756E+02  0.74603812915E+02  0.64850315702E+02  0.10305071099E+03  0.00000000000E+00 0. -1.
         11    1    3    3    0    0 -0.16852464536E+02 -0.31176731871E+01 -0.16465461180E+02  0.23766296702E+02  0.00000000000E+00 0.  1.
</event>
<event>
 7    1  0.5137842E-006  0.1257452E+03  0.7561462E-02  0.1233909E+00
          2   -1    0    0  501    0  0.00000000000E+00  0.00000000000E+00  0.42180786340E+03  0.42180786340E+03  0.00000000000E+00 0.  1.
         -2   -1    0    0    0  501 -0.00000000000E+00 -0.00000000000E+00 -0.52025963730E+02  0.52025963730E+02  0.00000000000E+00 0. -1.
         23    2    1    2    0    0 -0.54819023348E+02  0.83557334830E+02  0.17776744991E+03  0.22383036416E+03  0.92259482700E+02 0.  0.
          5    1    1    2  502    0  0.76173896995E+02 -0.34326172775E+02  0.48432459542E+02  0.96663976010E+02  0.41800000000E+01 0.  1.
         -5    1    1    2    0  502 -0.21354873647E+02 -0.49231162055E+02  0.14358199021E+03  0.15333948695E+03  0.41800000000E+01 0.  1.
        -11    1    3    3    0    0 -0.35948616022E+02  0.87618941537E+02  0.18097986511E+03  0.20426231538E+03  0.00000000000E+00 0.  1.
         11    1    3    3    0    0 -0.18870407327E+02 -0.40616067071E+01 -0.32124151970E+01  0.19568048781E+02  0.00000000000E+00 0. -1.
</event>
<event>
 7    1  0.5137842E-006  0.7303022E+02  0.7561462E-02  0.1350082E+00
          2   -1    0    0  501    0  0.00000000000E+00  0.00000000000E+00  0.45265167561E+03  0.45265167561E+03  0.00000000000E+00 0. -1.
         -2   -1    0    0    0  501 -0.00000000000E+00 -0.00000000000E+00 -0.26634965826E+02  0.26634965826E+02  0.00000000000E+00 0.  1.
         23    2    1    2    0    0  0.45742276428E+01 -0.13880963377E+02  0.18502947734E+03  0.20737503130E+03  0.92492656037E+02 0.  0.
          5    1    1    2  502    0 -0.81292940609E+01 -0.30032592375E+02  0.49733276228E+01  0.31784405206E+02  0.41800000000E+01 0.  1.
         -5    1    1    2    0  502  0.35550664181E+01  0.43913555752E+02  0.23601390482E+03  0.24012720493E+03  0.41800000000E+01 0.  1.
        -11    1    3    3    0    0 -0.32044407576E+02 -0.10103697512E+02  0.21814438726E+02  0.40059936311E+02  0.00000000000E+00 0.  1.
         11    1    3    3    0    0  0.36618635219E+02 -0.37772658651E+01  0.16321503861E+03  0.16731509499E+03  0.00000000000E+00 0. -1.
</event>
<event>
 7    1  0.5137842E-006  0.9375644E+02  0.7561462E-02  0.1294002E+00
         -1   -1    0    0    0  501 -0.00000000000E+00  0.00000000000E+00  0.12157392695E+02  0.12157392695E+02  0.00000000000E+00 0.  1.
          1   -1    0    0  501    0  0.00000000000E+00 -0.00000000000E+00 -0.14376212222E+04  0.14376212222E+04  0.00000000000E+00 0. -1.
         23    2    1    2    0    0 -0.68264766893E+02 -0.22032793726E+02 -0.55193236123E+03  0.56442536192E+03  0.93814366731E+02 0.  0.
          5    1    1    2  502    0  0.21620782777E+02 -0.62890797699E+01 -0.74871621130E+03  0.74906638440E+03  0.41800000000E+01 0.  1.
         -5    1    1    2    0  502  0.46643984116E+02  0.28321873496E+02 -0.12481525694E+03  0.13628686854E+03  0.41800000000E+01 0.  1.
        -11    1    3    3    0    0  0.30617273322E+01  0.24518546620E+02 -0.55673442308E+02  0.60910306854E+02  0.00000000000E+00 0.  1.
         11    1    3    3    0    0 -0.71326494225E+02 -0.46551340347E+02 -0.49625891892E+03  0.50351505507E+03  0.00000000000E+00 0. -1.
</event>
<event>
 7    1  0.5137842E-006  0.1156541E+03  0.7561462E-02  0.1250444E+00
         -4   -1    0    0    0  501 -0.00000000000E+00  0.00000000000E+00  0.30267247074E+02  0.30267247074E+02  0.00000000000E+00 0.  1.
          4   -1    0    0  501    0  0.00000000000E+00 -0.00000000000E+00 -0.48440721562E+03  0.48440721562E+03  0.00000000000E+00 0. -1.
         23    2    1    2    0    0  0.36809356129E+01  0.53305407297E+02 -0.22556503894E+03  0.24869250472E+03  0.90074188194E+02 0.  0.
          5    1    1    2  502    0  0.52647428501E+02  0.70058353287E+01 -0.94817086571E+02  0.10875930196E+03  0.41800000000E+01 0.  1.
         -5    1    1    2    0  502 -0.56328364114E+02 -0.60311242626E+02 -0.13375784304E+03  0.15722265601E+03  0.41800000000E+01 0.  1.
        -11    1    3    3    0    0 -0.33958228601E+02  0.45809876478E+02 -0.80593074246E+02  0.98726641232E+02  0.00000000000E+00 0.  1.
         11    1    3    3    0    0  0.37639164214E+02  0.74955308189E+01 -0.14497196469E+03  0.14996586349E+03  0.00000000000E+00 0. -1.
</event>
<event>
 7    1  0.5137842E-006  0.2145723E+03  0.7561462E-02  0.1137996E+00
         -1   -1    0    0    0  501 -0.00000000000E+00  0.00000000000E+00  0.15906969678E+03  0.15906969678E+03  0.00000000000E+00 0.  1.
          1   -1    0    0  501    0  0.00000000000E+00 -0.00000000000E+00 -0.36485383376E+03  0.36485383376E+03  0.00000000000E+00 0. -1.
         23    2    1    2    0    0 -0.14070402381E+03  0.13754555101E+03 -0.19537014695E+03  0.29053760324E+03  0.86753695365E+02 0.  0.
          5    1    1    2  502    0  0.11158095825E+03 -0.16013816577E+03 -0.14734053721E+01  0.19522854736E+03  0.41800000000E+01 0. -1.
         -5    1    1    2    0  502  0.29123065558E+02  0.22592614763E+02 -0.89405846555E+01  0.38157379932E+02  0.41800000000E+01 0. -1.
        -11    1    3    3    0    0 -0.96803795193E+02  0.97790309747E+02 -0.75785622814E+02  0.15709035639E+03  0.00000000000E+00 0.  1.
         11    1    3    3    0    0 -0.43900228619E+02  0.39755241260E+02 -0.11958452414E+03  0.13344724686E+03  0.00000000000E+00 0. -1.
</event>
<event>
 7    1  0.5137842E-006  0.1100576E+03  0.7561462E-02  0.1260463E+00
         -2   -1    0    0    0  501 -0.00000000000E+00  0.00000000000E+00  0.73200897739E+02  0.73200897739E+02  0.00000000000E+00 0. -1.
          2   -1    0    0  501    0  0.00000000000E+00 -0.00000000000E+00 -0.26826789517E+03  0.26826789517E+03  0.00000000000E+00 0.  1.
         23    2    1    2    0    0  0.50896929664E+02  0.43938952059E+02 -0.16010287308E+03  0.19521155835E+03  0.89182361420E+02 0.  0.
          5    1    1    2  502    0 -0.74065968559E+02 -0.18558098097E+02 -0.65047699832E+02  0.10039345774E+03  0.41800000000E+01 0.  1.
         -5    1    1    2    0  502  0.23169038894E+02 -0.25380853962E+02  0.30083575475E+02  0.45863776823E+02  0.41800000000E+01 0.  1.
        -11    1    3    3    0    0 -0.14738592878E+02  0.40727725983E+02 -0.43621025445E+02  0.61471681648E+02  0.00000000000E+00 0.  1.
         11    1    3    3    0    0  0.65635522542E+02  0.32112260755E+01 -0.11648184763E+03  0.13373987670E+03  0.00000000000E+00 0. -1.
</event>
<event>
 7    1  0.5137842E-006  0.1506662E+03  0.7561462E-02  0.1199657E+00
         -1   -1    0    0    0  501 -0.00000000000E+00  0.00000000000E+00  0.11665435640E+03  0.11665435640E+03  0.00000000000E+00 0.  1.
          1   -1    0    0  501    0  0.00000000000E+00 -0.00000000000E+00 -0.19796621457E+03  0.19796621457E+03  0.00000000000E+00 0. -1.
         23    2    1    2    0    0  0.82526893994E+02 -0.66378201302E+02 -0.40984525677E+02  0.14581230171E+03  0.91458964271E+02 0.  0.
          5    1    1    2  502    0 -0.11172667219E+03  0.71093192628E+02 -0.41711454730E+02  0.13890431661E+03  0.41800000000E+01 0.  1.
         -5    1    1    2    0  502  0.29199778196E+02 -0.47149913263E+01  0.13841222368E+01  0.29903952653E+02  0.41800000000E+01 0.  1.
        -11    1    3    3    0    0  0.85874982412E+02 -0.14632302641E+02 -0.17339257631E+02  0.88821544346E+02  0.00000000000E+00 0. -1.
         11    1    3    3    0    0 -0.33480884177E+01 -0.51745898661E+02 -0.23645268046E+02  0.56990757367E+02  0.00000000000E+00 0.  1.
</event>
<event>
 7    1  0.5137842E-006  0.1133638E+03  0.7561462E-02  0.1254464E+00
         -2   -1    0    0    0  501 -0.00000000000E+00  0.00000000000E+00  0.56034161746E+02  0.56034161746E+02  0.00000000000E+00 0.  1.
          2   -1    0    0  501    0  0.00000000000E+00 -0.00000000000E+00 -0.23187540437E+03  0.23187540437E+03  0.00000000000E+00 0. -1.
         23    2    1    2    0    0 -0.25183775681E+01 -0.31950596239E+02 -0.83481649840E+02  0.12914794172E+03  0.93181662166E+02 0.  0.
          5    1    1    2  502    0  0.20661335986E+02 -0.44888994300E+02 -0.29047152600E+02  0.57472794331E+02  0.41800000000E+01 0.  1.
         -5    1    1    2    0  502 -0.18142958418E+02  0.76839590539E+02 -0.63312440182E+02  0.10128883007E+03  0.41800000000E+01 0.  1.
        -11    1    3    3    0    0  0.37448080057E+02  0.11365787442E+02 -0.39543367871E+02  0.55634681330E+02  0.00000000000E+00 0.  1.
         11    1    3    3    0    0 -0.39966457625E+02 -0.43316383680E+02 -0.43938281969E+02  0.73513260386E+02  0.00000000000E+00 0. -1.
</event>
<event>
 7    1  0.5137842E-006  0.3584043E+03  0.7561462E-02  0.1059217E+00
          2   -1    0    0  501    0  0.00000000000E+00  0.00000000000E+00  0.15523240339E+04  0.15523240339E+04  0.00000000000E+00 0. -1.
         -2   -1    0    0    0  501 -0.00000000000E+00 -0.00000000000E+00 -0.95557435968E+02  0.95557435968E+02  0.00000000000E+00 0.  1.
         23    2    1    2    0    0 -0.18371647809E+03 -0.30269224261E+03  0.94214515396E+03  0.10108114548E+04  0.93423593792E+02 0.  0.
          5    1    1    2  502    0  0.16552512538E+03  0.21539109092E+03  0.30061730057E+03  0.40519146460E+03  0.41800000000E+01 0. -1.
         -5    1    1    2    0  502  0.18191352705E+02  0.87301151685E+02  0.21400414344E+03  0.23187855056E+03  0.41800000000E+01 0. -1.
        -11    1    3    3    0    0 -0.10252999603E+03 -0.20181636268E+03  0.70720275991E+03  0.74254830681E+03  0.00000000000E+00 0. -1.
         11    1    3    3    0    0 -0.81186482056E+02 -0.10087587993E+03  0.23494239405E+03  0.26826314794E+03  0.00000000000E+00 0.  1.
</event>
<event>
 7    1  0.5137842E-006  0.9643032E+02  0.7561462E-02  0.1287987E+00
          2   -1    0    0  501    0  0.00000000000E+00  0.00000000000E+00  0.37618202599E+03  0.37618202599E+03  0.00000000000E+00 0.  1.
         -2   -1    0    0    0  501 -0.00000000000E+00 -0.00000000000E+00 -0.50237205532E+02  0.50237205532E+02  0.00000000000E+00 0. -1.
         23    2    1    2    0    0  0.10844113600E+02  0.46968941758E+02  0.25002292142E+03  0.27235658867E+03  0.96659059949E+02 0.  0.
          5    1    1    2  502    0 -0.38511865576E+02 -0.46308736223E+02  0.10021795556E+03  0.11699903357E+03  0.41800000000E+01 0. -1.
         -5    1    1    2    0  502  0.27667751976E+02 -0.66020553480E+00 -0.24296056513E+02  0.37063609280E+02  0.41800000000E+01 0. -1.
        -11    1    3    3    0    0  0.44303145426E+02  0.54464414786E+02  0.19773237545E+03  0.20982667484E+03  0.00000000000E+00 0.  1.
         11    1    3    3    0    0 -0.33459031826E+02 -0.74954730282E+01  0.52290545967E+02  0.62529913835E+02  0.00000000000E+00 0. -1.
</event>
<event>
 7    1  0.5137842E-006  0.8397131E+02  0.7561462E-02  0.1318145E+00
         -2   -1    0    0    0  501 -0.00000000000E+00  0.00000000000E+00  0.75255143988E+02  0.75255143988E+02  0.00000000000E+00 0.  1.
          2   -1    0    0  501    0  0.00000000000E+00 -0.00000000000E+00 -0.29052291485E+03  0.29052291485E+03  0.00000000000E+00 0. -1.
         23    2    1    2    0    0 -0.11057906139E+02 -0.16884273635E+02 -0.21547807993E+03  0.23438438681E+03  0.89988231820E+02 0.  0.
          5    1    1    2  502    0  0.47430646901E+01 -0.30664434948E+02 -0.51794607228E+02  0.60522375789E+02  0.41800000000E+01 0. -1.
         -5    1    1    2    0  502  0.63148414491E+01  0.47548708583E+02  0.52004916299E+02  0.70871296233E+02  0.41800000000E+01 0.  1.
        -11    1    3    3    0    0  0.21661246164E+02  0.26448837682E+02 -0.52962421943E+02  0.63037835766E+02  0.00000000000E+00 0.  1.
         11    1    3    3    0    0 -0.32719152303E+02 -0.43333111317E+02 -0.16251565799E+03  0.17134655105E+03  0.00000000000E+00 0. -1.
</event>
<event>
 7    1  0.5137842E-006  0.1217330E+03  0.7561462E-02  0.1240265E+00
          2   -1    0    0  501    0  0.00000000000E+00  0.00000000000E+00  0.39536121633E+03  0.39536121633E+03  0.00000000000E+00 0. -1.
         -2   -1    0    0    0  501 -0.00000000000E+00 -0.00000000000E+00 -0.53653230194E+02  0.53653230194E+02  0.00000000000E+00 0.  1.
         23    2    1    2    0    0 -0.73866504629E+02 -0.11856557753E+02  0.25371357604E+03  0.27875688246E+03  0.87965802359E+02 0.  0.
          5    1    1    2  502    0  0.60755954193E+01  0.51738713772E+02  0.73477222427E+02  0.90167521748E+02  0.41800000000E+01 0. -1.
         -5    1    1    2    0  502  0.67790909210E+02 -0.39882156019E+02  0.14517187668E+02  0.80090042315E+02  0.41800000000E+01 0. -1.
        -11    1    3    3    0    0  0.14149249570E+02  0.14801791685E+02  0.25456096387E+02  0.32669667028E+02  0.00000000000E+00 0.  1.
         11    1    3    3    0    0 -0.88015754199E+02 -0.26658349439E+02  0.22825747965E+03  0.24608721543E+03  0.00000000000E+00 0. -1.
</event>
<event>
 7    1  0.5137842E-006  0.1696741E+03  0.7561462E-02  0.1178188E+00
         -3   -1    0    0    0  501 -0.00000000000E+00  0.00000000000E+00  0.59129033640E+02  0.59129033640E+02  0.00000000000E+00 0.  1.
          3   -1    0    0  501    0  0.00000000000E+00 -0.00000000000E+00 -0.62832881833E+03  0.62832881833E+03  0.00000000000E+00 0. -1.
         23    2    1    2    0    0 -0.53993228205E+02 -0.32095221018E+02 -0.15926899099E+03  0.19418035132E+03  0.91618914223E+02 0.  0.
          5    1    1    2  502    0  0.13787964373E+03  0.96166182904E+02 -0.23600044906E+03  0.28977994280E+03  0.41800000000E+01 0. -1.
         -5    1    1    2    0  502 -0.83886415525E+02 -0.64070961886E+02 -0.17393034464E+03  0.20349755786E+03  0.41800000000E+01 0.  1.
        -11    1    3    3    0    0 -0.33531257483E+02 -0.90397099553E+01 -0.29528683900E+01  0.34853708787E+02  0.00000000000E+00 0.  1.
         11    1    3    3    0    0 -0.20461970723E+02 -0.23055511063E+02 -0.15631612260E+03  0.15932664253E+03  0.00000000000E+00 0. -1.
</event>
<event>
 7    1  0.5137842E-006  0.1426970E+03  0.7561462E-02  0.1209745E+00
         -2   -1    0    0    0  501 -0.00000000000E+00  0.00000000000E+00  0.94826912085E+02  0.94826912085E+02  0.00000000000E+00 0.  1.
          2   -1    0    0  501    0  0.00000000000E+00 -0.00000000000E+00 -0.27239930252E+03  0.27239930252E+03  0.00000000000E+00 0. -1.
         23    2    1    2    0    0  0.43482399957E+02  0.91426903365E+02 -0.15455970896E+03  0.20466085080E+03  0.88021374968E+02 0.  0.
          5    1    1    2  502    0 -0.71536534409E+02 -0.15248344759E+02  0.11672478804E+02  0.74186972809E+02  0.41800000000E+01 0.  1.
         -5    1    1    2    0  502  0.28054134452E+02 -0.76178558607E+02 -0.34685160274E+02  0.88378390993E+02  0.41800000000E+01 0.  1.
        -11    1    3    3    0    0  0.31187468067E+02  0.10674131100E+03 -0.14523729603E+03  0.18292139786E+03  0.00000000000E+00 0. -1.
         11    1    3    3    0    0  0.12294931890E+02 -0.15314407630E+02 -0.93224129298E+01  0.21739452939E+02  0.00000000000E+00 0.  1.
</event>
<event>
 7    1  0.5137842E-006  0.2046095E+03  0.7561462E-02  0.1145907E+00
         -1   -1    0    0    0  501 -0.00000000000E+00  0.00000000000E+00  0.76735942319E+02  0.76735942319E+02  0.00000000000E+00 0.  1.
          1   -1    0    0  501    0  0.00000000000E+00 -0.00000000000E+00 -0.61170328344E+03  0.61170328344E+03  0.00000000000E+00 0. -1.
         23    2    1    2    0    0  0.17744639403E+03 -0.16644935751E+02 -0.23638392433E+03  0.31015926441E+03  0.92504772718E+02 0.  0.
          5    1    1    2  502    0 -0.14771032791E+03 -0.42129942813E+02 -0.14567684738E+03  0.21173683977E+03  0.41800000000E+01 0. -1.
         -5    1    1    2    0  502 -0.29736066120E+02  0.58774878564E+02 -0.15290656941E+03  0.16654312158E+03  0.41800000000E+01 0.  1.
        -11    1    3    3    0    0  0.76596942094E-01 -0.12132225618E+02 -0.55395889929E+02  0.56708918051E+02  0.00000000000E+00 0. -1.
         11    1    3    3    0    0  0.17736979709E+03 -0.45127101334E+01 -0.18098803440E+03  0.25345034636E+03  0.00000000000E+00 0.  1.
</event>
<event>
 7    1  0.5137842E-006  0.1224535E+03  0.7561462E-02  0.1239104E+00
          1   -1    0    0  501    0  0.00000000000E+00  0.00000000000E+00  0.46541761124E+03  0.46541761124E+03  0.00000000000E+00 0. -1.
         -1   -1    0    0    0  501 -0.00000000000E+00 -0.00000000000E+00 -0.40644314696E+02  0.40644314696E+02  0.00000000000E+00 0.  1.
         23    2    1    2    0    0  0.61208377292E+02  0.43303410809E+02  0.27327572276E+03  0.29577455899E+03  0.84742659020E+02 0.  0.
          5    1    1    2  502    0  0.23740611005E+02  0.15252314829E+02  0.20010599022E+01  0.28595915081E+02  0.41800000000E+01 0. -1.
         -5    1    1    2    0  502 -0.84948988297E+02 -0.58555725638E+02  0.14949651389E+03  0.18169145187E+03  0.41800000000E+01 0. -1.
        -11    1    3    3    0    0 -0.73753148241E+01  0.43919954186E+02  0.11086351659E+03  0.11947416857E+03  0.00000000000E+00 0.  1.
         11    1    3    3    0    0  0.68583692116E+02 -0.61654337716E+00  0.16241220617E+03  0.17630039042E+03  0.00000000000E+00 0. -1.
</event>
<event>
 7    1  0.5137842E-006  0.1489915E+03  0.7561462E-02  0.1201718E+00
          1   -1    0    0  501    0  0.00000000000E+00  0.00000000000E+00  0.18720643078E+03  0.18720643078E+03  0.00000000000E+00 0. -1.
         -1   -1    0    0    0  501 -0.00000000000E+00 -0.00000000000E+00 -0.20003538040E+03  0.20003538040E+03  0.00000000000E+00 0.  1.
         23    2    1    2    0    0 -0.82425783010E+02 -0.68865655657E+02  0.11527512957E+03  0.17844826817E+03  0.83779118405E+02 0.  0.
          5    1    1    2  502    0  0.89785724804E+02 -0.44152757518E+01 -0.82381778224E+02  0.12200492130E+03  0.41800000000E+01 0.  1.
         -5    1    1    2    0  502 -0.73599417941E+01  0.73280931409E+02 -0.45722300970E+02  0.86788621705E+02  0.41800000000E+01 0.  1.
        -11    1    3    3    0    0 -0.11835899842E+02  0.18464060376E+02  0.85794591795E+01  0.23550311473E+02  0.00000000000E+00 0.  1.
         11    1    3    3    0    0 -0.70589883168E+02 -0.87329716034E+02  0.10669567039E+03  0.15489795670E+03  0.00000000000E+00 0. -1.
</event>
<event>
 7    1  0.5137842E-006  0.6088191E+02  0.7561462E-02  0.1394168E+00
         -2   -1    0    0    0  501 -0.00000000000E+00  0.00000000000E+00  0.14199972933E+03  0.14199972933E+03  0.00000000000E+00 0.  1.
          2   -1    0    0  501    0  0.00000000000E+00 -0.00000000000E+00 -0.90840705679E+02  0.90840705679E+02  0.00000000000E+00 0. -1.
         23    2    1    2    0    0 -0.16922372871E+02  0.24510236565E+01 -0.10348959375E+02  0.92398551842E+02  0.90210959433E+02 0.  0.
          5    1    1    2  502    0 -0.75567685014E+01  0.30955117809E+02 -0.27425701171E+02  0.42248852688E+02  0.41800000000E+01 0. -1.
         -5    1    1    2    0  502  0.24479141372E+02 -0.33406141465E+02  0.88933684195E+02  0.98193030478E+02  0.41800000000E+01 0. -1.
        -11    1    3    3    0    0 -0.14253016881E+00 -0.19984471141E+02 -0.44169941005E+02  0.48480749685E+02  0.00000000000E+00 0. -1.
         11    1    3    3    0    0 -0.16779842702E+02  0.22435494798E+02  0.33820981630E+02  0.43917802157E+02  0.00000000000E+00 0.  1.
</event>
<event>
 7    1  0.5137842E-006  0.1299049E+03  0.7561462E-02  0.1227597E+00
          2   -1    0    0  501    0  0.00000000000E+00  0.00000000000E+00  0.82711866939E+02  0.82711866939E+02  0.00000000000E+00 0. -1.
         -2   -1    0    0    0  501 -0.00000000000E+00 -0.00000000000E+00 -0.25967316336E+03  0.25967316336E+03  0.00000000000E+00 0.  1.
         23    2    1    2    0    0 -0.66766679466E+02  0.56065317705E+02 -0.33675612546E+02  0.13315802528E+03  0.94846736795E+02 0.  0.
          5    1    1    2  502    0  0.31271504716E+02 -0.89835298011E+02 -0.12416415104E+03  0.15646883581E+03  0.41800000000E+01 0. -1.
         -5    1    1    2    0  502  0.35495174750E+02  0.33769980306E+02 -0.19121532839E+02  0.52758169211E+02  0.41800000000E+01 0. -1.
        -11    1    3    3    0    0 -0.29699490848E+02  0.69830496366E+02  0.72770332485E+01  0.76231969621E+02  0.00000000000E+00 0. -1.
         11    1    3    3    0    0 -0.37067188619E+02 -0.13765178661E+02 -0.40952645795E+02  0.56926055662E+02  0.00000000000E+00 0.  1.
</event>
<event>
 7    1  0.5137842E-006  0.1027407E+03  0.7561462E-02  0.1274636E+00
          2   -1    0    0  501    0  0.00000000000E+00  0.00000000000E+00  0.72992756032E+02  0.72992756032E+02  0.00000000000E+00 0. -1.
         -2   -1    0    0    0  501 -0.00000000000E+00 -0.00000000000E+00 -0.21963133002E+03  0.21963133002E+03  0.00000000000E+00 0.  1.
         23    2    1    2    0    0  0.13218812592E+02  0.33109133974E+02  0.33385835295E+00  0.96361583761E+02  0.89523692980E+02 0.  0.
          5    1    1    2  502    0 -0.29232293037E+02  0.36366184823E+02 -0.20749643415E+02  0.51235207198E+02  0.41800000000E+01 0. -1.
         -5    1    1    2    0  502  0.16013480445E+02 -0.69475318796E+02 -0.12622278893E+03  0.14502729509E+03  0.41800000000E+01 0. -1.
        -11    1    3    3    0    0  0.44470048257E+02  0.33959252037E+02  0.20007967016E+02  0.59423351765E+02  0.00000000000E+00 0. -1.
         11    1    3    3    0    0 -0.31251235665E+02 -0.85011806340E+00 -0.19674108663E+02  0.36938231996E+02  0.00000000000E+00 0.  1.
</event>
<event>
 7    1  0.5137842E-006  0.1823065E+03  0.7561462E-02  0.1165589E+00
         -1   -1    0    0    0  501 -0.00000000000E+00  0.00000000000E+00  0.45292455859E+03  0.45292455859E+03  0.00000000000E+00 0.  1.
          1   -1    0    0  501    0  0.00000000000E+00 -0.00000000000E+00 -0.11077241584E+03  0.11077241584E+03  0.00000000000E+00 0. -1.
         23    2    1    2    0    0 -0.34227661812E+02  0.15051615610E+03  0.11067746589E+02  0.17757519106E+03  0.87085058326E+02 0.  0.
          5    1    1    2  502    0  0.36118782534E+02 -0.16672748155E+03  0.32690346360E+03  0.36876275092E+03  0.41800000000E+01 0. -1.
         -5    1    1    2    0  502 -0.18911207223E+01  0.16211325446E+02  0.41809325604E+01  0.17359032444E+02  0.41800000000E+01 0. -1.
        -11    1    3    3    0    0 -0.32566169994E-01  0.14184045093E+03  0.63486568414E+01  0.14198246379E+03  0.00000000000E+00 0. -1.
         11    1    3    3    0    0 -0.34195095642E+02  0.86757051714E+01  0.47190897480E+01  0.35592727266E+02  0.00000000000E+00 0.  1.
</event>
<event>
 7    1  0.5137842E-006  0.1073349E+03  0.7561462E-02  0.1265586E+00
         -2   -1    0    0    0  501 -0.00000000000E+00  0.00000000000E+00  0.16682434706E+02  0.16682434706E+02  0.00000000000E+00 0.  1.
          2   -1    0    0  501    0  0.00000000000E+00 -0.00000000000E+00 -0.73488159873E+03  0.73488159873E+03  0.00000000000E+00 0. -1.
         23    2    1    2    0    0 -0.96885731490E+01  0.11372576483E+02 -0.37009208072E+03  0.38136262744E+03  0.90808047304E+02 0.  0.
          5    1    1    2  502    0 -0.49006094381E+02  0.24650735270E+02 -0.18743352537E+03  0.19534086840E+03  0.41800000000E+01 0. -1.
         -5    1    1    2    0  502  0.58694667530E+02 -0.36023311753E+02 -0.16067355794E+03  0.17486053759E+03  0.41800000000E+01 0. -1.
        -11    1    3    3    0    0 -0.40240380018E+02 -0.21631167225E+02 -0.21922249439E+03  0.22393235056E+03  0.00000000000E+00 0.  1.
         11    1    3    3    0    0  0.30551806869E+02  0.33003743709E+02 -0.15086958632E+03  0.15743027688E+03  0.00000000000E+00 0. -1.
</event>
<event>
 7    1  0.5137842E-006  0.9942998E+02  0.7561462E-02  0.1281499E+00
         -1   -1    0    0    0  501 -0.00000000000E+00  0.00000000000E+00  0.11115618108E+03  0.11115618108E+03  0.00000000000E+00 0.  1.
          1   -1    0    0  501    0  0.00000000000E+00 -0.00000000000E+00 -0.10896261139E+03  0.10896261139E+03  0.00000000000E+00 0. -1.
         23    2    1    2    0    0  0.99391240417E+01 -0.12212189900E+02  0.22508545944E+01  0.94039857688E+02  0.92684975690E+02 0.  0.
          5    1    1    2  502    0  0.48747275401E+02  0.33718610839E+02 -0.15807807779E+02  0.61486590104E+02  0.41800000000E+01 0. -1.
         -5    1    1    2    0  502 -0.58686399442E+02 -0.21506420939E+02  0.15750522874E+02  0.64592344685E+02  0.41800000000E+01 0. -1.
        -11    1    3    3    0    0  0.40031513398E+02  0.76301237351E+01 -0.25915778844E+02  0.48294600591E+02  0.00000000000E+00 0.  1.
         11    1    3    3    0    0 -0.30092389356E+02 -0.19842313635E+02  0.28166633439E+02  0.45745257097E+02  0.00000000000E+00 0. -1.
</event>
<event>
 7    1  0.5137842E-006  0.9389671E+02  0.7561462E-02  0.1293680E+00
         -1   -1    0    0    0  501 -0.00000000000E+00  0.00000000000E+00  0.71536311181E+03  0.71536311181E+03  0.00000000000E+00 0.  1.
          1   -1    0    0  501    0  0.00000000000E+00 -0.00000000000E+00 -0.27591322857E+02  0.27591322857E+02  0.00000000000E+00 0. -1.
         23    2    1    2    0    0  0.36695718279E+02  0.57806967635E+02  0.16047194308E+03  0.19669583993E+03  0.90828341832E+02 0.  0.
          5    1    1    2  502    0  0.29248109237E+02 -0.41648232054E+02  0.38682222242E+03  0.39017807638E+03  0.41800000000E+01 0.  1.
         -5    1    1    2    0  502 -0.65943827516E+02 -0.16158735582E+02  0.14047762345E+03  0.15608051836E+03  0.41800000000E+01 0.  1.
        -11    1    3    3    0    0  0.14978643185E+02  0.28895582098E+02  0.15703625086E+03  0.16037362158E+03  0.00000000000E+00 0.  1.
         11    1    3    3    0    0  0.21717075095E+02  0.28911385537E+02  0.34356922274E+01  0.36322218344E+02  0.00000000000E+00 0. -1.
</event>
<event>
 7    1  0.5137842E-006  0.1861356E+03  0.7561462E-02  0.1161994E+00
         -2   -1    0    0    0  501 -0.00000000000E+00  0.00000000000E+00  0.10165181907E+03  0.10165181907E+03  0.00000000000E+00 0. -1.
          2   -1    0    0  501    0  0.00000000000E+00 -0.00000000000E+00 -0.38663629591E+03  0.38663629591E+03  0.00000000000E+00 0.  1.
         23    2    1    2    0    0  0.10813375864E+03 -0.12483048496E+03 -0.13247962158E+03  0.23103007326E+03  0.92458016853E+02 0.  0.
          5    1    1    2  502    0 -0.21447197252E+02  0.11795162816E+03 -0.93388560828E+02  0.15202455246E+03  0.41800000000E+01 0. -1.
         -5    1    1    2    0  502 -0.86686561392E+02  0.68788568007E+01 -0.59116294431E+02  0.10523348927E+03  0.41800000000E+01 0. -1.
        -11    1    3    3    0    0  0.33444398998E+02 -0.34619095228E+02  0.72836139360E+01  0.48683268283E+02  0.00000000000E+00 0. -1.
         11    1    3    3    0    0  0.74689359646E+02 -0.90211389735E+02 -0.13976323551E+03  0.18234680497E+03  0.00000000000E+00 0.  1.
</event>
<event>
 7    1  0.5137842E-006  0.1100721E+03  0.7561462E-02  0.1260436E+00
          1   -1    0    0  501    0  0.00000000000E+00  0.00000000000E+00  0.83861651977E+02  0.83861651977E+02  0.00000000000E+00 0. -1.
         -1   -1    0    0    0  501 -0.00000000000E+00 -0.00000000000E+00 -0.15473897467E+03  0.15473897467E+03  0.00000000000E+00 0.  1.
         23    2    1    2    0    0 -0.22210604385E+02  0.24988080406E+02 -0.13260269022E+02  0.96879378654E+02  0.89955901220E+02 0.  0.
          5    1    1    2  502    0  0.46141823826E+02  0.39259295262E+02 -0.29295520810E+02  0.67424477084E+02  0.41800000000E+01 0.  1.
         -5    1    1    2    0  502 -0.23931219441E+02 -0.64247375668E+02 -0.28321532865E+02  0.74296770912E+02  0.41800000000E+01 0.  1.
        -11    1    3    3    0    0  0.40121055338E+01  0.52540452947E+02  0.80115003292E+01  0.53298971136E+02  0.00000000000E+00 0. -1.
         11    1    3    3    0    0 -0.26222709919E+02 -0.27552372541E+02 -0.21271769351E+02  0.43580407518E+02  0.00000000000E+00 0.  1.
</event>
<event>
 7    1  0.5137842E-006  0.8360180E+02  0.7561462E-02  0.1319130E+00
          1   -1    0    0  501    0  0.00000000000E+00  0.00000000000E+00  0.19173876677E+03  0.19173876677E+03  0.00000000000E+00 0. -1.
         -1   -1    0    0    0  501 -0.00000000000E+00 -0.00000000000E+00 -0.10002661851E+03  0.10002661851E+03  0.00000000000E+00 0.  1.
         23    2    1    2    0    0  0.16999191220E+02  0.52507277926E+01  0.13201614235E+03  0.15914418093E+03  0.87075058660E+02 0.  0.
          5    1    1    2  502    0 -0.53852282432E+02 -0.29879702996E+02  0.13089903742E+02  0.63100578082E+02  0.41800000000E+01 0. -1.
         -5    1    1    2    0  502  0.36853091213E+02  0.24628975204E+02 -0.53393897824E+02  0.69520626266E+02  0.41800000000E+01 0. -1.
        -11    1    3    3    0    0 -0.11953404675E+02  0.23754995738E+02  0.43643024084E+01  0.26948670493E+02  0.00000000000E+00 0. -1.
         11    1    3    3    0    0  0.28952595895E+02 -0.18504267945E+02  0.12765183994E+03  0.13219551044E+03  0.00000000000E+00 0.  1.
</event>
<event>
 7    1  0.5137842E-006  0.6321945E+02  0.7561462E-02  0.1384797E+00
          1   -1    0    0  501    0  0.00000000000E+00  0.00000000000E+00  0.23619873727E+02  0.23619873727E+02  0.00000000000E+00 0. -1.
         -1   -1    0    0    0  501 -0.00000000000E+00 -0.00000000000E+00 -0.74789548045E+03  0.74789548045E+03  0.00000000000E+00 0.  1.
         23    2    1    2    0    0 -0.41466640391E+02 -0.21242165345E+02 -0.15194915083E+03  0.18382620954E+03  0.92373259225E+02 0.  0.
          5    1    1    2  502    0  0.49923656735E+02  0.34239708781E+02 -0.11453978646E+03  0.12962084802E+03  0.41800000000E+01 0. -1.
         -5    1    1    2    0  502 -0.84570163439E+01 -0.12997543437E+02 -0.45778666943E+03  0.45806829662E+03  0.41800000000E+01 0. -1.
        -11    1    3    3    0    0 -0.37047533215E+02 -0.11163960169E+02 -0.16341533419E+03  0.16793369279E+03  0.00000000000E+00 0.  1.
         11    1    3    3    0    0 -0.44191071764E+01 -0.10078205176E+02  0.11466183359E+02  0.15892516749E+02  0.00000000000E+00 0. -1.
</event>
<event>
 7    1  0.5137842E-006  0.6359754E+02  0.7561462E-02  0.1383326E+00
         -1   -1    0    0    0  501 -0.00000000000E+00  0.00000000000E+00  0.20050988037E+03  0.20050988037E+03  0.00000000000E+00 0.  1.
          1   -1    0    0  501    0  0.00000000000E+00 -0.00000000000E+00 -0.68132733360E+02  0.68132733360E+02  0.00000000000E+00 0. -1.
         23    2    1    2    0    0  0.12209191516E+01 -0.24105914005E+02  0.18180325712E+02  0.97556075728E+02  0.92758169100E+02 0.  0.
          5    1    1    2  502    0 -0.23556857869E+01  0.42576117105E+02 -0.11181845561E+02  0.44280707689E+02  0.41800000000E+01 0.  1.
         -5    1    1    2    0  502  0.11347666353E+01 -0.18470203100E+02  0.12537866686E+03  0.12680583032E+03  0.41800000000E+01 0.  1.
        -11    1    3    3    0    0 -0.28332425016E+02 -0.21774386233E+02 -0.26112921083E+02  0.44257596530E+02  0.00000000000E+00 0. -1.
         11    1    3    3    0    0  0.29553344167E+02 -0.23315277719E+01  0.44293246795E+02  0.53298479198E+02  0.00000000000E+00 0.  1.
</event>
<event>
 7    1  0.5137842E-006  0.8613431E+02  0.7561462E-02  0.1312493E+00
          2   -1    0    0  501    0  0.00000000000E+00  0.00000000000E+00  0.34289493911E+03  0.34289493911E+03  0.00000000000E+00 0. -1.
         -2   -1    0    0    0  501 -0.00000000000E+00 -0.00000000000E+00 -0.35691709783E+02  0.35691709783E+02  0.00000000000E+00 0.  1.
         23    2    1    2    0    0  0.20439344722E+02  0.11224903737E+02  0.11609570631E+03  0.14899241831E+03  0.90425452240E+02 0.  0.
          5    1    1    2  502    0 -0.50019239269E+02 -0.22888811598E+02  0.25259597296E+02  0.60674060759E+02  0.41800000000E+01 0.  1.
         -5    1    1    2    0  502  0.29579894547E+02  0.11663907861E+02  0.16584792572E+03  0.16892016983E+03  0.41800000000E+01 0.  1.
        -11    1    3    3    0    0 -0.19419120153E+01 -0.34272835884E+02  0.18462201569E+02  0.38977572892E+02  0.00000000000E+00 0.  1.
         11    1    3    3    0    0  0.22381256738E+02  0.45497739620E+02  0.97633504739E+02  0.11001484541E+03  0.00000000000E+00 0. -1.
</event>
<event>
 7    1  0.5137842E-006  0.1766121E+03  0.7561462E-02  0.1171123E+00
         -1   -1    0    0    0  501 -0.00000000000E+00  0.00000000000E+00  0.90502569617E+03  0.90502569617E+03  0.00000000000E+00 0. -1.
          1   -1    0    0  501    0  0.00000000000E+00 -0.00000000000E+00 -0.42176533516E+02  0.42176533516E+02  0.00000000000E+00 0.  1.
         23    2    1    2    0    0  0.29257320811E+02 -0.13446250065E+03  0.21249335627E+03  0.27078085142E+03  0.96086878073E+02 0.  0.
          5    1    1    2  502    0  0.11064311802E+02 -0.21650644806E+02  0.84703595013E+02  0.88223244241E+02  0.41800000000E+01 0.  1.
         -5    1    1    2    0  502 -0.40321632613E+02  0.15611314545E+03  0.56565221137E+03  0.58819813403E+03  0.41800000000E+01 0.  1.
        -11    1    3    3    0    0  0.61157944089E+02 -0.57468916995E+02  0.11778896465E+03  0.14462783528E+03  0.00000000000E+00 0.  1.
         11    1    3    3    0    0 -0.31900623278E+02 -0.76993583650E+02  0.94704391621E+02  0.12615301614E+03  0.00000000000E+00 0. -1.
</event>
<event>
 7    1  0.5137842E-006  0.2211848E+03  0.7561462E-02  0.1133003E+00
         -1   -1    0    0    0  501 -0.00000000000E+00  0.00000000000E+00  0.60350872762E+03  0.60350872762E+03  0.00000000000E+00 0.  1.
          1   -1    0    0  501    0  0.00000000000E+00 -0.00000000000E+00 -0.83405142604E+02  0.83405142604E+02  0.00000000000E+00 0. -1.
         23    2    1    2    0    0 -0.18213883367E+03  0.70088651769E+02  0.22651203525E+03  0.31284083074E+03  0.92058185007E+02 0.  0.
          5    1    1    2  502    0  0.14400574468E+02  0.31158015388E+02  0.59115873787E+02  0.68486184019E+02  0.41800000000E+01 0. -1.
         -5    1    1    2    0  502  0.16773825920E+03 -0.10124666716E+03  0.23447567598E+03  0.30558685547E+03  0.41800000000E+01 0. -1.
        -11    1    3    3    0    0 -0.13377617293E+03  0.92420431303E+01  0.17109662592E+03  0.21738338301E+03  0.00000000000E+00 0.  1.
         11    1    3    3    0    0 -0.48362660733E+02  0.60846608639E+02  0.55415409330E+02  0.95457447730E+02  0.00000000000E+00 0. -1.
</event>
<event>
 7    1  0.5137842E-006  0.1281259E+03  0.7561462E-02  0.1230263E+00
         -2   -1    0    0    0  501 -0.00000000000E+00  0.00000000000E+00  0.23856625463E+03  0.23856625463E+03  0.00000000000E+00 0. -1.
          2   -1    0    0  501    0  0.00000000000E+00 -0.00000000000E+00 -0.90740327885E+02  0.90740327885E+02  0.00000000000E+00 0.  1.
         23    2    1    2    0    0 -0.96254789595E+02 -0.63817749557E+01  0.39056024433E+02  0.13751344055E+03  0.89882488371E+02 0.  0.
          5    1    1    2  502    0  0.10625402504E+03  0.22193966000E+02  0.32843562648E+02  0.11348419261E+03  0.41800000000E+01 0. -1.
         -5    1    1    2    0  502 -0.99992354445E+01 -0.15812191045E+02  0.75926339662E+02  0.78308949358E+02  0.41800000000E+01 0. -1.
        -11    1    3    3    0    0 -0.16266339069E+02  0.34853683518E+02  0.26364615920E+02  0.46631169985E+02  0.00000000000E+00 0.  1.
         11    1    3    3    0    0 -0.79988450526E+02 -0.41235458474E+02  0.12691408512E+02  0.90882270565E+02  0.00000000000E+00 0. -1.
</event>
<event>
 7    1  0.5137842E-006  0.1002583E+03  0.7561462E-02  0.1279754E+00
         -3   -1    0    0    0  501 -0.00000000000E+00  0.00000000000E+00  0.51420906008E+03  0.51420906008E+03  0.00000000000E+00 0.  1.
          3   -1    0    0  501    0  0.00000000000E+00 -0.00000000000E+00 -0.28493274092E+02  0.28493274092E+02  0.00000000000E+00 0. -1.
         23    2    1    2    0    0  0.28708446476E+02  0.31106528444E+02  0.13599338466E+03  0.16887565869E+03  0.90735860695E+02 0.  0.
          5    1    1    2  502    0  0.40739731299E+02 -0.34403960053E+02  0.22193981058E+03  0.22829391165E+03  0.41800000000E+01 0. -1.
         -5    1    1    2    0  502 -0.69448177776E+02  0.32974316089E+01  0.12778259075E+03  0.14553276384E+03  0.41800000000E+01 0. -1.
        -11    1    3    3    0    0  0.46315773041E+01 -0.20188705487E+02 -0.88477375012E+00  0.20732056390E+02  0.00000000000E+00 0. -1.
         11    1    3    3    0    0  0.24076869172E+02  0.51295233931E+02  0.13687815841E+03  0.14814360230E+03  0.00000000000E+00 0.  1.
</event>
<event>
 7    1  0.5137842E-006  0.1320571E+03  0.7561462E-02  0.1224435E+00
          1   -1    0    0  501    0  0.00000000000E+00  0.00000000000E+00  0.28651077707E+03  0.28651077707E+03  0.00000000000E+00 0. -1.
         -1   -1    0    0    0  501 -0.00000000000E+00 -0.00000000000E+00 -0.76267718372E+02  0.76267718372E+02  0.00000000000E+00 0.  1.
         23    2    1    2    0    0  0.18733458790E+02  0.92408871518E+02  0.13786913338E+03  0.19021950719E+03  0.91023189142E+02 0.  0.
          5    1    1    2  502    0  0.24976554303E+02  0.54910329368E+01  0.58991403461E+02  0.64431652081E+02  0.41800000000E+01 0.  1.
         -5    1    1    2    0  502 -0.43710013092E+02 -0.97899904455E+02  0.13382521855E+02  0.10812733617E+03  0.41800000000E+01 0.  1.
        -11    1    3    3    0    0 -0.36839124828E+02  0.31680481656E+02  0.46819974206E+02  0.67475062213E+02  0.00000000000E+00 0. -1.
         11    1    3    3    0    0  0.55572583618E+02  0.60728389862E+02  0.91049159174E+02  0.12274444497E+03  0.00000000000E+00 0.  1.
</event>
<event>
 7    1  0.5137842E-006  0.9808315E+02  0.7561462E-02  0.1284379E+00
         -1   -1    0    0    0  501 -0.00000000000E+00  0.00000000000E+00  0.22661394123E+03  0.22661394123E+03  0.00000000000E+00 0.  1.
          1   -1    0    0  501    0  0.00000000000E+00 -0.00000000000E+00 -0.79081666418E+02  0.79081666418E+02  0.00000000000E+00 0. -1.
         23    2    1    2    0    0 -0.52843660800E+02  0.56989182612E+02  0.49495788772E+02  0.12801286117E+03  0.88866417157E+02 0.  0.
          5    1    1    2  502    0 -0.10021962325E+02 -0.22082495512E+02  0.10260052868E+03  0.10551027070E+03  0.41800000000E+01 0. -1.
         -5    1    1    2    0  502  0.62865623125E+02 -0.34906687100E+02 -0.45640426372E+01  0.72172475781E+02  0.41800000000E+01 0.  1.
        -11    1    3    3    0    0 -0.14693728027E+02  0.59510051703E+02 -0.49355524051E+01  0.61495622401E+02  0.00000000000E+00 0. -1.
         11    1    3    3    0    0 -0.38149932774E+02 -0.25208690906E+01  0.54431341177E+02  0.66517238773E+02  0.00000000000E+00 0.  1.
</event>
<event>
 7    1  0.5137842E-006  0.1233015E+03  0.7561462E-02  0.1237748E+00
          2   -1    0    0  501    0  0.00000000000E+00  0.00000000000E+00  0.62650960574E+02  0.62650960574E+02  0.00000000000E+00 0. -1.
         -2   -1    0    0    0  501 -0.00000000000E+00 -0.00000000000E+00 -0.36622544215E+03  0.36622544215E+03  0.00000000000E+00 0.  1.
         23    2    1    2    0    0 -0.33535244367E+02 -0.74817201139E+02 -0.45387319024E+02  0.13049340022E+03  0.90809099601E+02 0.  0.
          5    1    1    2  502    0 -0.30731839080E+02 -0.14334143224E+02 -0.31711908639E+02  0.46615782142E+02  0.41800000000E+01 0.  1.
         -5    1    1    2    0  502  0.64267083447E+02  0.89151344363E+02 -0.22647525391E+03  0.25176722037E+03  0.41800000000E+01 0.  1.
        -11    1    3    3    0    0 -0.51589540145E+02 -0.50732469485E+02 -0.62723583532E+02  0.95757569118E+02  0.00000000000E+00 0.  1.
         11    1    3    3    0    0  0.18054295778E+02 -0.24084731654E+02  0.17336264508E+02  0.34735831097E+02  0.00000000000E+00 0. -1.
</event>
<event>
 7    1  0.5137842E-006  0.1340975E+03  0.7561462E-02  0.1221499E+00
          2   -1    0    0  501    0  0.00000000000E+00  0.00000000000E+00  0.68239875000E+03  0.68239875000E+03  0.00000000000E+00 0. -1.
         -2   -1    0    0    0  501 -0.00000000000E+00 -0.00000000000E+00 -0.32599373260E+02  0.32599373260E+02  0.00000000000E+00 0.  1.
         23    2    1    2    0    0 -0.82067356434E+01 -0.10919698428E+03  0.27631643378E+03  0.30618462907E+03  0.73531786419E+02 0.  0.
          5    1    1    2  502    0 -0.42437909072E+02  0.73066643113E+02  0.11410391990E+03  0.14204537091E+03  0.41800000000E+01 0.  1.
         -5    1    1    2    0  502  0.50644644715E+02  0.36130341172E+02  0.25937902307E+03  0.26676812328E+03  0.41800000000E+01 0.  1.
        -11    1    3    3    0    0 -0.29888505590E+02 -0.50660009007E+02  0.19495701758E+03  0.20363692687E+03  0.00000000000E+00 0. -1.
         11    1    3    3    0    0  0.21681769947E+02 -0.58536975278E+02  0.81359416193E+02  0.10254770220E+03  0.00000000000E+00 0.  1.
</event>
<event>
 7    1  0.5137842E-006  0.1659792E+03  0.7561462E-02  0.1182107E+00
          2   -1    0    0  501    0  0.00000000000E+00  0.00000000000E+00  0.53433153267E+03  0.53433153267E+03  0.00000000000E+00 0. -1.
         -2   -1    0    0    0  501 -0.00000000000E+00 -0.00000000000E+00 -0.84937675608E+02  0.84937675608E+02  0.00000000000E+00 0.  1.
         23    2    1    2    0    0 -0.12032578021E+03 -0.10618599587E+03  0.34258395644E+03  0.38946629409E+03  0.92555215534E+02 0.  0.
          5    1    1    2  502    0  0.86268102808E+02  0.80348370376E+02  0.13434241227E+03  0.17878311530E+03  0.41800000000E+01 0.  1.
         -5    1    1    2    0  502  0.34057677407E+02  0.25837625490E+02 -0.27532511638E+02  0.51019798887E+02  0.41800000000E+01 0.  1.
        -11    1    3    3    0    0 -0.11103037088E+03 -0.64656859836E+02  0.31092169001E+03  0.33642317116E+03  0.00000000000E+00 0. -1.
         11    1    3    3    0    0 -0.92954093377E+01 -0.41529136031E+02  0.31662266434E+02  0.53043122928E+02  0.00000000000E+00 0.  1.
</event>
<event>
 7    1  0.5137842E-006  0.1242589E+03  0.7561462E-02  0.1236232E+00
          2   -1    0    0  501    0  0.00000000000E+00  0.00000000000E+00  0.12347067919E+03  0.12347067919E+03  0.00000000000E+00 0.  1.
         -2   -1    0    0    0  501 -0.00000000000E+00 -0.00000000000E+00 -0.29528057602E+03  0.29528057602E+03  0.00000000000E+00 0. -1.
         23    2    1    2    0    0 -0.98072912025E+02 -0.47506532628E+02  0.41935352109E+02  0.14817876715E+03  0.91231609438E+02 0.  0.
          5    1    1    2  502    0 -0.60018652480E+01  0.25179767328E+02  0.55247720752E+01  0.26796241819E+02  0.41800000000E+01 0.  1.
         -5    1    1    2    0  502  0.10407477727E+03  0.22326765300E+02 -0.21927002102E+03  0.24377624624E+03  0.41800000000E+01 0.  1.
        -11    1    3    3    0    0 -0.52946232534E+02 -0.46761684439E+02 -0.18242145542E+02  0.72957073304E+02  0.00000000000E+00 0. -1.
         11    1    3    3    0    0 -0.45126679491E+02 -0.74484818913E+00  0.60177497651E+02  0.75221693841E+02  0.00000000000E+00 0.  1.
</event>
<event>
 7    1  0.5137842E-006  0.9050462E+02  0.7561462E-02  0.1301634E+00
          1   -1    0    0  501    0  0.00000000000E+00  0.00000000000E+00  0.95391420097E+03  0.95391420097E+03  0.00000000000E+00 0. -1.
         -1   -1    0    0    0  501 -0.00000000000E+00 -0.00000000000E+00 -0.15282265916E+02  0.15282265916E+02  0.00000000000E+00 0.  1.
         23    2    1    2    0    0 -0.34220455115E+02 -0.29811979057E+02  0.52103556454E+03  0.53091003575E+03  0.91255755469E+02 0.  0.
          5    1    1    2  502    0  0.14453711396E+02 -0.20312796201E+02  0.35369039033E+03  0.35459256065E+03  0.41800000000E+01 0.  1.
         -5    1    1    2    0  502  0.19766743719E+02  0.50124775257E+02  0.63905980196E+02  0.83693870484E+02  0.41800000000E+01 0.  1.
        -11    1    3    3    0    0  0.25207052117E+02  0.13079457732E+02  0.12999212413E+03  0.13305795740E+03  0.00000000000E+00 0.  1.
         11    1    3    3    0    0 -0.59427507232E+02 -0.42891436789E+02  0.39104344041E+03  0.39785207835E+03  0.00000000000E+00 0. -1.
</event>
<event>
 7    1  0.5137842E-006  0.1410479E+03  0.7561462E-02  0.1211926E+00
         -2   -1    0    0    0  501 -0.00000000000E+00  0.00000000000E+00  0.22880360010E+03  0.22880360010E+03  0.00000000000E+00 0.  1.
          2   -1    0    0  501    0  0.00000000000E+00 -0.00000000000E+00 -0.10042491894E+03  0.10042491894E+03  0.00000000000E+00 0. -1.
         23    2    1    2    0    0  0.90717848075E+02 -0.45927191149E+02  0.29025387024E+02  0.13986765381E+03  0.91550273864E+02 0.  0.
          5    1    1    2  502    0 -0.11262275465E+03  0.63201774726E+02  0.95963258240E+02  0.16094958380E+03  0.41800000000E+01 0.  1.
         -5    1    1    2    0  502  0.21904906572E+02 -0.17274583576E+02  0.33900358953E+01  0.28411281440E+02  0.41800000000E+01 0.  1.
        -11    1    3    3    0    0  0.44062765232E+02 -0.61352868648E+02  0.45330550971E+02  0.88094044195E+02  0.00000000000E+00 0.  1.
         11    1    3    3    0    0  0.46655082843E+02  0.15425677499E+02 -0.16305163947E+02  0.51773609617E+02  0.00000000000E+00 0. -1.
</event>
<event>
 7    1  0.5137842E-006  0.1248669E+03  0.7561462E-02  0.1235277E+00
         -4   -1    0    0    0  501 -0.00000000000E+00  0.00000000000E+00  0.47450362572E+02  0.47450362572E+02  0.00000000000E+00 0. -1.
          4   -1    0    0  501    0  0.00000000000E+00 -0.00000000000E+00 -0.36883732767E+03  0.36883732767E+03  0.00000000000E+00 0.  1.
         23    2    1    2    0    0  0.64331361605E+02 -0.40112450491E+02 -0.14364163978E+03  0.18609716933E+03  0.90838884767E+02 0.  0.
          5    1    1    2  502    0 -0.86521749776E+02  0.56887719667E+02 -0.87399916634E+02  0.13556711866E+03  0.41800000000E+01 0. -1.
         -5    1    1    2    0  502  0.22190388171E+02 -0.16775269175E+02 -0.90345408689E+02  0.94623402255E+02  0.41800000000E+01 0. -1.
        -11    1    3    3    0    0  0.87573373390E+02 -0.29373879416E+02 -0.10634981260E+03  0.14086235536E+03  0.00000000000E+00 0. -1.
         11    1    3    3    0    0 -0.23242011785E+02 -0.10738571076E+02 -0.37291827178E+02  0.45234813969E+02  0.00000000000E+00 0.  1.
</event>
<event>
 7    1  0.5137842E-006  0.1210821E+03  0.7561462E-02  0.1241322E+00
          2   -1    0    0  501    0  0.00000000000E+00  0.00000000000E+00  0.59795875237E+03  0.59795875237E+03  0.00000000000E+00 0. -1.
         -2   -1    0    0    0  501 -0.00000000000E+00 -0.00000000000E+00 -0.45100753497E+02  0.45100753497E+02  0.00000000000E+00 0.  1.
         23    2    1    2    0    0  0.36531239928E+02 -0.86724137569E+02  0.38399082970E+03  0.40547153838E+03  0.90014463332E+02 0.  0.
          5    1    1    2  502    0 -0.57999240947E+02  0.68643626468E+02  0.18444581809E+03  0.20521596336E+03  0.41800000000E+01 0. -1.
         -5    1    1    2    0  502  0.21468001019E+02  0.18080511100E+02 -0.15578648922E+02  0.32372004134E+02  0.41800000000E+01 0.  1.
        -11    1    3    3    0    0 -0.25646904705E+02 -0.19232678123E+02  0.16407252290E+03  0.16717491558E+03  0.00000000000E+00 0.  1.
         11    1    3    3    0    0  0.62178144633E+02 -0.67491459445E+02  0.21991830680E+03  0.23829662279E+03  0.00000000000E+00 0. -1.
</event>
<event>
 7    1  0.5137842E-006  0.9872818E+02  0.7561462E-02  0.1282993E+00
          2   -1    0    0  501    0  0.00000000000E+00  0.00000000000E+00  0.16101588208E+03  0.16101588208E+03  0.00000000000E+00 0. -1.
         -2   -1    0    0    0  501 -0.00000000000E+00 -0.00000000000E+00 -0.86811177736E+02  0.86811177736E+02  0.00000000000E+00 0.  1.
         23    2    1    2    0    0  0.13047293258E+02 -0.63543373700E+01  0.79957489131E+02  0.12173761407E+03  0.90643461685E+02 0.  0.
          5    1    1    2  502    0  0.45054795837E+02  0.18929706040E+02 -0.34457802527E+02  0.59942313550E+02  0.41800000000E+01 0. -1.
         -5    1    1    2    0  502 -0.58102089096E+02 -0.12575368670E+02  0.28705017740E+02  0.66147132197E+02  0.41800000000E+01 0. -1.
        -11    1    3    3    0    0 -0.31357800945E+02 -0.25538752495E+02  0.51973216020E+02  0.65854041201E+02  0.00000000000E+00 0. -1.
         11    1    3    3    0    0  0.44405094203E+02  0.19184415125E+02  0.27984273112E+02  0.55883572868E+02  0.00000000000E+00 0.  1.
</event>
<event>
 7    1  0.5137842E-006  0.1366240E+03  0.7561462E-02  0.1217945E+00
          1   -1    0    0  501    0  0.00000000000E+00  0.00000000000E+00  0.61676155838E+03  0.61676155838E+03  0.00000000000E+00 0. -1.
         -1   -1    0    0    0  501 -0.00000000000E+00 -0.00000000000E+00 -0.35936651443E+02  0.35936651443E+02  0.00000000000E+00 0.  1.
         23    2    1    2    0    0 -0.32797451126E+02  0.96347519582E+02  0.26172367360E+03  0.29516271744E+03  0.90902316352E+02 0.  0.
          5    1    1    2  502    0  0.72282337515E+02 -0.20023252269E+02  0.15530474896E+03  0.17251870738E+03  0.41800000000E+01 0.  1.
         -5    1    1    2    0  502 -0.39484886389E+02 -0.76324267314E+02  0.16379648438E+03  0.18501678500E+03  0.41800000000E+01 0.  1.
        -11    1    3    3    0    0  0.11074202671E+02  0.34727205662E+02  0.18061182738E+03  0.18425321970E+03  0.00000000000E+00 0. -1.
         11    1    3    3    0    0 -0.43871653797E+02  0.61620313921E+02  0.81111846213E+02  0.11090949775E+03  0.00000000000E+00 0.  1.
</event>
<event>
 7    1  0.5137842E-006  0.1353091E+03  0.7561462E-02  0.1219784E+00
         -2   -1    0    0    0  501 -0.00000000000E+00  0.00000000000E+00  0.20122240876E+03  0.20122240876E+03  0.00000000000E+00 0.  1.
          2   -1    0    0  501    0  0.00000000000E+00 -0.00000000000E+00 -0.98720600255E+02  0.98720600255E+02  0.00000000000E+00 0. -1.
         23    2    1    2    0    0 -0.33327546287E+01 -0.87565805667E+02  0.33603522090E+02  0.13239300439E+03  0.93380047868E+02 0.  0.
          5    1    1    2  502    0  0.23427055781E+02 -0.21519824319E+02 -0.73111317462E+01  0.32906759620E+02  0.41800000000E+01 0. -1.
         -5    1    1    2    0  502 -0.20094301153E+02  0.10908562999E+03  0.76209418160E+02  0.13464324500E+03  0.41800000000E+01 0. -1.
        -11    1    3    3    0    0 -0.46897075973E+02 -0.59301624051E+02  0.14020560224E+02  0.76893396718E+02  0.00000000000E+00 0.  1.
         11    1    3    3    0    0  0.43564321344E+02 -0.28264181616E+02  0.19582961867E+02  0.55499607675E+02  0.00000000000E+00 0. -1.
</event>
<event>
 7    1  0.5137842E-006  0.7343951E+02  0.7561462E-02  0.1348773E+00
          2   -1    0    0  501    0  0.00000000000E+00  0.00000000000E+00  0.12408079837E+03  0.12408079837E+03  0.00000000000E+00 0. -1.
         -2   -1    0    0    0  501 -0.00000000000E+00 -0.00000000000E+00 -0.30733326922E+03  0.30733326922E+03  0.00000000000E+00 0.  1.
         23    2    1    2    0    0 -0.35996810825E+02 -0.39886620922E+01  0.87372470967E+02  0.13108573991E+03  0.90762562267E+02 0.  0.
          5    1    1    2  502    0  0.49486876596E+02 -0.22939033696E+02 -0.40153145956E+02  0.67859396935E+02  0.41800000000E+01 0.  1.
         -5    1    1    2    0  502 -0.13490065772E+02  0.26927695789E+02 -0.23047179586E+03  0.23246893075E+03  0.41800000000E+01 0.  1.
        -11    1    3    3    0    0 -0.35969582487E+02 -0.23040226080E+02  0.10952778045E+01  0.42730112516E+02  0.00000000000E+00 0.  1.
         11    1    3    3    0    0 -0.27228337193E-01  0.19051563988E+02  0.86277193162E+02  0.88355627391E+02  0.00000000000E+00 0. -1.
</event>
<event>
 6    1  0.5137842E-006  0.1126073E+03  0.7561462E-02  0.1255816E+00
          1   -1    0    0  501    0  0.00000000000E+00  0.00000000000E+00  0.11192603544E+03  0.11192603544E+03  0.00000000000E+00 0. -1.
         -1   -1    0    0    0  501 -0.00000000000E+00 -0.00000000000E+00 -0.20026227905E+03  0.20026227905E+03  0.00000000000E+00 0.  1.
          5    1    1    2  502    0 -0.57945717127E+02  0.21243335545E+02 -0.39958359057E+01  0.61987293400E+02  0.41800000000E+01 0. -1.
         -5    1    1    2    0  502  0.43728627820E+02  0.21415678492E+02 -0.84920194674E+02  0.97978242686E+02  0.41800000000E+01 0. -1.
        -11    1    1    2    0    0  0.45518912907E+02 -0.62579380427E+02 -0.48025436823E+02  0.91074655469E+02  0.00000000000E+00 0.  1.
         11    1    1    2    0    0 -0.31301823599E+02  0.19920366389E+02  0.48605223791E+02  0.61148122927E+02  0.00000000000E+00 0. -1.
</event>
<event>
 7    1  0.5137842E-006  0.1126056E+03  0.7561462E-02  0.1255819E+00
         -2   -1    0    0    0  501 -0.00000000000E+00  0.00000000000E+00  0.78873551756E+02  0.78873551756E+02  0.00000000000E+00 0.  1.
          2   -1    0    0  501    0  0.00000000000E+00 -0.00000000000E+00 -0.16441782021E+03  0.16441782021E+03  0.00000000000E+00 0. -1.
         23    2    1    2    0    0 -0.40456405221E+01  0.30820588701E+02 -0.52712368281E+02  0.11028287176E+03  0.91746619220E+02 0.  0.
          5    1    1    2  502    0 -0.56152475190E+02  0.79392191286E+01 -0.19099891854E+02  0.59986748030E+02  0.41800000000E+01 0.  1.
         -5    1    1    2    0  502  0.60198115712E+02 -0.38759807829E+02 -0.13732008315E+02  0.73021752175E+02  0.41800000000E+01 0.  1.
        -11    1    3    3    0    0 -0.41551504264E+02  0.40361237411E+02 -0.35393001939E+02  0.67883883052E+02  0.00000000000E+00 0.  1.
         11    1    3    3    0    0  0.37505863742E+02 -0.95406487102E+01 -0.17319366342E+02  0.42398988706E+02  0.00000000000E+00 0. -1.
</event>
<event>
 7    1  0.5137842E-006  0.2825248E+03  0.7561462E-02  0.1094318E+00
          3   -1    0    0  501    0  0.00000000000E+00  0.00000000000E+00  0.54088005706E+03  0.54088005706E+03  0.00000000000E+00 0. -1.
         -3   -1    0    0    0  501 -0.00000000000E+00 -0.00000000000E+00 -0.16491691345E+03  0.16491691345E+03  0.00000000000E+00 0.  1.
         23    2    1    2    0    0 -0.22640592394E+02 -0.27224211489E+03  0.17060610493E+03  0.34186497655E+03  0.11461611410E+03 0.  0.
          5    1    1    2  502    0 -0.20610406308E+02  0.19687291088E+03  0.85103069069E+02  0.21550808952E+03  0.41800000000E+01 0. -1.
         -5    1    1    2    0  502  0.43250998702E+02  0.75369204015E+02  0.12025396961E+03  0.14842390444E+03  0.41800000000E+01 0. -1.
        -11    1    3    3    0    0  0.19047922022E+02 -0.14290620736E+03  0.14327452369E+03  0.20325500381E+03  0.00000000000E+00 0. -1.
         11    1    3    3    0    0 -0.41688514417E+02 -0.12933590753E+03  0.27331581237E+02  0.13860997274E+03  0.00000000000E+00 0.  1.
</event>
<event>
 7    1  0.5137842E-006  0.1499345E+03  0.7561462E-02  0.1200554E+00
         -2   -1    0    0    0  501 -0.00000000000E+00  0.00000000000E+00  0.13066892086E+03  0.13066892086E+03  0.00000000000E+00 0.  1.
          2   -1    0    0  501    0  0.00000000000E+00 -0.00000000000E+00 -0.22661276645E+03  0.22661276645E+03  0.00000000000E+00 0. -1.
         23    2    1    2    0    0  0.10037701729E+03  0.55960234658E+02 -0.11499215959E+03  0.18634973891E+03  0.91082023264E+02 0.  0.
          5    1    1    2  502    0 -0.63134090774E+02  0.23003682625E+02 -0.26521782140E+02  0.72359934771E+02  0.41800000000E+01 0.  1.
         -5    1    1    2    0  502 -0.37242926516E+02 -0.78963917283E+02  0.45570096144E+02  0.98572013628E+02  0.41800000000E+01 0.  1.
        -11    1    3    3    0    0  0.11204436867E+03  0.28961618322E+02 -0.80245628771E+02  0.14082640669E+03  0.00000000000E+00 0.  1.
         11    1    3    3    0    0 -0.11667351375E+02  0.26998616337E+02 -0.34746530820E+02  0.45523332218E+02  0.00000000000E+00 0. -1.
</event>
<event>
 7    1  0.5137842E-006  0.1368662E+03  0.7561462E-02  0.1217609E+00
          2   -1    0    0  501    0  0.00000000000E+00  0.00000000000E+00  0.23449107123E+03  0.23449107123E+03  0.00000000000E+00 0. -1.
         -2   -1    0    0    0  501 -0.00000000000E+00 -0.00000000000E+00 -0.10458131615E+03  0.10458131615E+03  0.00000000000E+00 0.  1.
         23    2    1    2    0    0  0.83950113148E+02  0.42052847214E+02  0.10773633964E+03  0.17016436805E+03  0.92372776399E+02 0.  0.
          5    1    1    2  502    0 -0.95119652569E+02 -0.67725368311E+02  0.51908653857E+02  0.12785325402E+03  0.41800000000E+01 0. -1.
         -5    1    1    2    0  502  0.11169539421E+02  0.25672521096E+02 -0.29735238426E+02  0.41054765309E+02  0.41800000000E+01 0.  1.
        -11    1    3    3    0    0  0.72167670166E+02 -0.12090066564E+02  0.79233556523E+02  0.10785313536E+03  0.00000000000E+00 0. -1.
         11    1    3    3    0    0  0.11782442982E+02  0.54142913778E+02  0.28502783119E+02  0.62311232699E+02  0.00000000000E+00 0.  1.
</event>
<event>
 7    1  0.5137842E-006  0.1549300E+03  0.7561462E-02  0.1194543E+00
         -3   -1    0    0    0  501 -0.00000000000E+00  0.00000000000E+00  0.84647316247E+03  0.84647316247E+03  0.00000000000E+00 0.  1.
          3   -1    0    0  501    0  0.00000000000E+00 -0.00000000000E+00 -0.29628050720E+02  0.29628050720E+02  0.00000000000E+00 0. -1.
         23    2    1    2    0    0  0.32409196088E+02  0.46123371327E+02  0.20850735572E+03  0.23460158394E+03  0.91568905323E+02 0.  0.
          5    1    1    2  502    0 -0.10602956419E+01 -0.12113454288E+03  0.33271684929E+03  0.35410828275E+03  0.41800000000E+01 0. -1.
         -5    1    1    2    0  502 -0.31348900446E+02  0.75011171554E+02  0.27562090673E+03  0.28739134650E+03  0.41800000000E+01 0.  1.
        -11    1    3    3    0    0  0.16692445337E+02 -0.27385893468E+02  0.54738208885E+02  0.63442071249E+02  0.00000000000E+00 0.  1.
         11    1    3    3    0    0  0.15716750752E+02  0.73509264795E+02  0.15376914684E+03  0.17115951269E+03  0.00000000000E+00 0. -1.
</event>
<event>
 7    1  0.5137842E-006  0.1802330E+03  0.7561462E-02  0.1167578E+00
          2   -1    0    0  501    0  0.00000000000E+00  0.00000000000E+00  0.47469321723E+03  0.47469321723E+03  0.00000000000E+00 0. -1.
         -2   -1    0    0    0  501 -0.00000000000E+00 -0.00000000000E+00 -0.84632968568E+02  0.84632968568E+02  0.00000000000E+00 0.  1.
         23    2    1    2    0    0 -0.68259078724E+02 -0.13003982285E+03  0.30114429783E+03  0.34688954668E+03  0.89859958415E+02 0.  0.
          5    1    1    2  502    0 -0.13184884877E+02  0.10349565476E+03  0.66497758010E+02  0.12379263291E+03  0.41800000000E+01 0.  1.
         -5    1    1    2    0  502  0.81443963601E+02  0.26544168088E+02  0.22418192825E+02  0.88644006205E+02  0.41800000000E+01 0.  1.
        -11    1    3    3    0    0  0.19447954612E+02 -0.40613576440E+02  0.10384306604E+03  0.11318598807E+03  0.00000000000E+00 0.  1.
         11    1    3    3    0    0 -0.87707033336E+02 -0.89426246408E+02  0.19730123178E+03  0.23370355861E+03  0.00000000000E+00 0. -1.
</event>
<event>
 7    1  0.5137842E-006  0.9350527E+02  0.7561462E-02  0.1294579E+00
          2   -1    0    0  501    0  0.00000000000E+00  0.00000000000E+00  0.43607936290E+03  0.43607936290E+03  0.00000000000E+00 0.  1.
         -2   -1    0    0    0  501 -0.00000000000E+00 -0.00000000000E+00 -0.31904959928E+02  0.31904959928E+02  0.00000000000E+00 0. -1.
         23    2    1    2    0    0  0.74999517068E+01 -0.39407596301E+02  0.24093252203E+03  0.25844274818E+03  0.84468727900E+02 0.  0.
          5    1    1    2  502    0 -0.24516158802E+02 -0.20297549879E+02  0.13917006024E+03  0.14282440492E+03  0.41800000000E+01 0.  1.
         -5    1    1    2    0  502  0.17016207095E+02  0.59705146180E+02  0.24071820697E+02  0.66717169724E+02  0.41800000000E+01 0.  1.
        -11    1    3    3    0    0 -0.33884794166E+02  0.22581497342E+01  0.10535231981E+03  0.11069051362E+03  0.00000000000E+00 0. -1.
         11    1    3    3    0    0  0.41384745873E+02 -0.41665746035E+02  0.13558020222E+03  0.14775223456E+03  0.00000000000E+00 0.  1.
</event>
<event>
 7    1  0.5137842E-006  0.1102776E+03  0.7561462E-02  0.1260057E+00
          1   -1    0    0  501    0  0.00000000000E+00  0.00000000000E+00  0.18503910707E+03  0.18503910707E+03  0.00000000000E+00 0. -1.
         -1   -1    0    0    0  501 -0.00000000000E+00 -0.00000000000E+00 -0.18892168087E+03  0.18892168087E+03  0.00000000000E+00 0.  1.
         23    2    1    2    0    0  0.13785597428E+01 -0.36566485824E+02  0.14430774268E+03  0.17478446704E+03  0.91574434245E+02 0.  0.
          5    1    1    2  502    0  0.57248692404E+02  0.88199751682E+01 -0.10837509526E+03  0.12295461934E+03  0.41800000000E+01 0. -1.
         -5    1    1    2    0  502 -0.58627252146E+02  0.27746510655E+02 -0.39815221229E+02  0.76221701564E+02  0.41800000000E+01 0.  1.
        -11    1    3    3    0    0 -0.35341504247E+02  0.11346843163E+02  0.42516248349E+02  0.56439384705E+02  0.00000000000E+00 0.  1.
         11    1    3    3    0    0  0.36720063990E+02 -0.47913328986E+02  0.10179149433E+03  0.11834508233E+03  0.00000000000E+00 0. -1.
</event>
<event>
 7    1  0.5137842E-006  0.1459819E+03  0.7561462E-02  0.1205499E+00
          2   -1    0    0  501    0  0.00000000000E+00  0.00000000000E+00  0.15463937772E+03  0.15463937772E+03  0.00000000000E+00 0. -1.
         -2   -1    0    0    0  501 -0.00000000000E+00 -0.00000000000E+00 -0.15702582266E+03  0.15702582266E+03  0.00000000000E+00 0.  1.
         23    2    1    2    0    0  0.40523523407E+02  0.10448535637E+03 -0.62396341585E+01  0.14367715005E+03  0.89693058633E+02 0.  0.
          5    1    1    2  502    0 -0.63487006488E+02 -0.29876838441E+02  0.41067511854E+02  0.81407852188E+02  0.41800000000E+01 0.  1.
         -5    1    1    2    0  502  0.22963483081E+02 -0.74608517925E+02 -0.37214322639E+02  0.86580198150E+02  0.41800000000E+01 0.  1.
        -11    1    3    3    0    0 -0.28398193164E+02  0.21460501092E+02 -0.30541792481E+01  0.35725879877E+02  0.00000000000E+00 0. -1.
         11    1    3    3    0    0  0.68921716571E+02  0.83024855274E+02 -0.31854549104E+01  0.10795127017E+03  0.00000000000E+00 0.  1.
</event>
<event>
 7    1  0.5137842E-006  0.1270741E+03  0.7561462E-02  0.1231863E+00
          2   -1    0    0  501    0  0.00000000000E+00  0.00000000000E+00  0.21812661377E+03  0.21812661377E+03  0.00000000000E+00 0.  1.
         -2   -1    0    0    0  501 -0.00000000000E+00 -0.00000000000E+00 -0.96305236708E+02  0.96305236708E+02  0.00000000000E+00 0. -1.
         23    2    1    2    0    0  0.26665541406E+02  0.91713137431E+02  0.51720371740E+02  0.14213775281E+03  0.91683113189E+02 0.  0.
          5    1    1    2  502    0 -0.41669625827E+02 -0.14921899204E+02 -0.23450812673E+02  0.50263642998E+02  0.41800000000E+01 0.  1.
         -5    1    1    2    0  502  0.15004084421E+02 -0.76791238227E+02  0.93551817996E+02  0.12203045468E+03  0.41800000000E+01 0.  1.
        -11    1    3    3    0    0  0.59451384707E+02  0.70786782624E+02  0.28033214286E+02  0.96597602667E+02  0.00000000000E+00 0.  1.
         11    1    3    3    0    0 -0.32785843301E+02  0.20926354807E+02  0.23687157454E+02  0.45540150140E+02  0.00000000000E+00 0. -1.
</event>
<event>
 7    1  0.5137842E-006  0.1069487E+03  0.7561462E-02  0.1266327E+00
          1   -1    0    0  501    0  0.00000000000E+00  0.00000000000E+00  0.79711253708E+03  0.79711253708E+03  0.00000000000E+00 0. -1.
         -1   -1    0    0    0  501 -0.00000000000E+00 -0.00000000000E+00 -0.19182015493E+02  0.19182015493E+02  0.00000000000E+00 0.  1.
         23    2    1    2    0    0 -0.59786053666E+02 -0.41754996622E+02  0.30804337674E+03  0.32460633472E+03  0.71838002727E+02 0.  0.
          5    1    1    2  502    0 -0.25523981819E+02  0.14008788758E+02  0.28103830625E+03  0.28257339187E+03  0.41800000000E+01 0.  1.
         -5    1    1    2    0  502  0.85310035485E+02  0.27746207864E+02  0.18884883860E+03  0.20911482598E+03  0.41800000000E+01 0.  1.
        -11    1    3    3    0    0 -0.69731582692E+02 -0.46340607052E+02  0.29869444541E+03  0.31020689420E+03  0.00000000000E+00 0. -1.
         11    1    3    3    0    0  0.99455290257E+01  0.45856104292E+01  0.93489313239E+01  0.14399440528E+02  0.00000000000E+00 0.  1.
</event>
<event>
 7    1  0.5137842E-006  0.1843088E+03  0.7561462E-02  0.1163697E+00
         -1   -1    0    0    0  501 -0.00000000000E+00  0.00000000000E+00  0.96935622260E+02  0.96935622260E+02  0.00000000000E+00 0.  1.
          1   -1    0    0  501    0  0.00000000000E+00 -0.00000000000E+00 -0.39658717492E+03  0.39658717492E+03  0.00000000000E+00 0. -1.
         23    2    1    2    0    0  0.10666870323E+03 -0.12184432022E+03 -0.16686914272E+03  0.24958622322E+03  0.90684736357E+02 0.  0.
          5    1    1    2  502    0 -0.12664879079E+03  0.61363298986E+02 -0.92121337256E+02  0.16825333235E+03  0.41800000000E+01 0. -1.
         -5    1    1    2    0  502  0.19980087559E+02  0.60481021237E+02 -0.40661072687E+02  0.75683241611E+02  0.41800000000E+01 0. -1.
        -11    1    3    3    0    0  0.87530943080E+02 -0.82704750151E+02 -0.16715689103E+03  0.20601739711E+03  0.00000000000E+00 0.  1.
         11    1    3    3    0    0  0.19137760150E+02 -0.39139570072E+02  0.28774831057E+00  0.43568826104E+02  0.00000000000E+00 0. -1.
</event>
<event>
 7    1  0.5137842E-006  0.1375300E+03  0.7561462E-02  0.1216692E+00
         -1   -1    0    0    0  501 -0.00000000000E+00  0.00000000000E+00  0.83306734351E+02  0.83306734351E+02  0.00000000000E+00 0.  1.
          1   -1    0    0  501    0  0.00000000000E+00 -0.00000000000E+00 -0.26990945506E+03  0.26990945506E+03  0.00000000000E+00 0. -1.
         23    2    1    2    0    0 -0.10332800992E+03 -0.69401394900E+01 -0.79502939771E+02  0.15868507191E+03  0.90196404834E+02 0.  0.
          5    1    1    2  502    0 -0.16210319946E+02 -0.19948868383E+02  0.70923407735E+01  0.26990841413E+02  0.41800000000E+01 0. -1.
         -5    1    1    2    0  502  0.11953832986E+03  0.26889007873E+02 -0.11419212171E+03  0.16754027609E+03  0.41800000000E+01 0. -1.
        -11    1    3    3    0    0  0.11370814352E+02  0.11997959766E+01 -0.32516668792E+02  0.34468372151E+02  0.00000000000E+00 0.  1.
         11    1    3    3    0    0 -0.11469882427E+03 -0.81399354666E+01 -0.46986270979E+02  0.12421669976E+03  0.00000000000E+00 0. -1.
</event>
<event>
 7    1  0.5137842E-006  0.2130112E+03  0.7561462E-02  0.1139203E+00
          2   -1    0    0  501    0  0.00000000000E+00  0.00000000000E+00  0.48652378637E+03  0.48652378637E+03  0.00000000000E+00 0.  1.
         -2   -1    0    0    0  501 -0.00000000000E+00 -0.00000000000E+00 -0.10354380922E+03  0.10354380922E+03  0.00000000000E+00 0. -1.
         23    2    1    2    0    0 -0.98801925605E+02 -0.16607164810E+03  0.22506238649E+03  0.31091427853E+03  0.93128931998E+02 0.  0.
          5    1    1    2  502    0  0.51884693089E+02  0.16768750578E+03  0.15087522752E+03  0.23149930378E+03  0.41800000000E+01 0. -1.
         -5    1    1    2    0  502  0.46917232516E+02 -0.16158576747E+01  0.70423631289E+01  0.47654013277E+02  0.41800000000E+01 0. -1.
        -11    1    3    3    0    0 -0.24434054942E+02 -0.10281636411E+03  0.16607223441E+03  0.19684566242E+03  0.00000000000E+00 0.  1.
         11    1    3    3    0    0 -0.74367870663E+02 -0.63255283991E+02  0.58990152078E+02  0.11406861611E+03  0.00000000000E+00 0. -1.
</event>
<event>
 7    1  0.5137842E-006  0.1032295E+03  0.7561462E-02  0.1273648E+00
          2   -1    0    0  501    0  0.00000000000E+00  0.00000000000E+00  0.25634494188E+03  0.25634494188E+03  0.00000000000E+00 0. -1.
         -2   -1    0    0    0  501 -0.00000000000E+00 -0.00000000000E+00 -0.44680266883E+02  0.44680266883E+02  0.00000000000E+00 0.  1.
         23    2    1    2    0    0  0.21428830788E+02  0.13956366659E+02  0.94185413593E+02  0.13624543253E+03  0.95068137634E+02 0.  0.
          5    1    1    2  502    0  0.22688985421E+02  0.38132676550E+02  0.29932555321E+02  0.53687254990E+02  0.41800000000E+01 0. -1.
         -5    1    1    2    0  502 -0.44117816209E+02 -0.52089043209E+02  0.87546706083E+02  0.11109252124E+03  0.41800000000E+01 0.  1.
        -11    1    3    3    0    0 -0.34413783830E+02 -0.44559155435E+01  0.56818169488E+02  0.66576783377E+02  0.00000000000E+00 0. -1.
         11    1    3    3    0    0  0.55842614618E+02  0.18412282203E+02  0.37367244105E+02  0.69668649156E+02  0.00000000000E+00 0.  1.
</event>
<event>
 7    1  0.5137842E-006  0.9604636E+02  0.7561462E-02  0.1288837E+00
          3   -1    0    0  501    0  0.00000000000E+00  0.00000000000E+00  0.51670550443E+03  0.51670550443E+03  0.00000000000E+00 0. -1.
         -3   -1    0    0    0  501 -0.00000000000E+00 -0.00000000000E+00 -0.24510220829E+02  0.24510220829E+02  0.00000000000E+00 0.  1.
         23    2    1    2    0    0  0.19166721640E+02  0.17771518449E+01  0.27231626779E+03  0.28751259645E+03  0.90204334332E+02 0.  0.
          5    1    1    2  502    0  0.27302028719E+02 -0.34651382229E+02  0.17660084155E+03  0.18207539290E+03  0.41800000000E+01 0.  1.
         -5    1    1    2    0  502 -0.46468750359E+02  0.32874230384E+02  0.43278174265E+02  0.71627735905E+02  0.41800000000E+01 0.  1.
        -11    1    3    3    0    0  0.98199845023E+01 -0.43438110620E+02  0.15985105866E+03  0.16593873118E+03  0.00000000000E+00 0.  1.
         11    1    3    3    0    0  0.93467371378E+01  0.45215262465E+02  0.11246520912E+03  0.12157386527E+03  0.00000000000E+00 0. -1.
</event>
<event>
 7    1  0.5137842E-006  0.1087324E+03  0.7561462E-02  0.1262935E+00
         -1   -1    0    0    0  501 -0.00000000000E+00  0.00000000000E+00  0.47213736653E+02  0.47213736653E+02  0.00000000000E+00 0.  1.
          1   -1    0    0  501    0  0.00000000000E+00 -0.00000000000E+00 -0.35597548353E+03  0.35597548353E+03  0.00000000000E+00 0. -1.
         23    2    1    2    0    0  0.41583450845E+02  0.29970839723E+02 -0.21516007087E+03  0.23876321228E+03  0.89925418123E+02 0.  0.
          5    1    1    2  502    0 -0.17379515888E+02 -0.67473296072E+02 -0.11304074763E+02  0.70710308736E+02  0.41800000000E+01 0.  1.
         -5    1    1    2    0  502 -0.24203934957E+02  0.37502456349E+02 -0.82297601245E+02  0.93715699166E+02  0.41800000000E+01 0.  1.
        -11    1    3    3    0    0 -0.26056758867E+02  0.23141945677E+02 -0.86259623717E+02  0.93033472558E+02  0.00000000000E+00 0.  1.
         11    1    3    3    0    0  0.67640209712E+02  0.68288940462E+01 -0.12890044715E+03  0.14572973973E+03  0.00000000000E+00 0. -1.
</event>
<event>
 7    1  0.5137842E-006  0.1255673E+03  0.7561462E-02  0.1234185E+00
          2   -1    0    0  501    0  0.00000000000E+00  0.00000000000E+00  0.44112041254E+03  0.44112041254E+03  0.00000000000E+00 0. -1.
         -2   -1    0    0    0  501 -0.00000000000E+00 -0.00000000000E+00 -0.85932031192E+02  0.85932031192E+02  0.00000000000E+00 0.  1.
         23    2    1    2    0    0 -0.18126041469E+02 -0.10482933338E+03  0.33270097163E+03  0.36130046870E+03  0.92359891950E+02 0.  0.
          5    1    1    2  502    0  0.39813119587E+02  0.29982603444E+01 -0.29003377853E+02  0.49525169189E+02  0.41800000000E+01 0. -1.
         -5    1    1    2    0  502 -0.21687078118E+02  0.10183107304E+03  0.51490787573E+02  0.11622680585E+03  0.41800000000E+01 0. -1.
        -11    1    3    3    0    0 -0.12364438225E+02 -0.44431021201E+02  0.36128703318E+02  0.58585648251E+02  0.00000000000E+00 0.  1.
         11    1    3    3    0    0 -0.57616032446E+01 -0.60398312179E+02  0.29657226831E+03  0.30271482045E+03  0.00000000000E+00 0. -1.
</event>
<event>
 7    1  0.5137842E-006  0.1657427E+03  0.7561462E-02  0.1182362E+00
         -2   -1    0    0    0  501 -0.00000000000E+00  0.00000000000E+00  0.16190735251E+03  0.16190735251E+03  0.00000000000E+00 0.  1.
          2   -1    0    0  501    0  0.00000000000E+00 -0.00000000000E+00 -0.21773548290E+03  0.21773548290E+03  0.00000000000E+00 0. -1.
         23    2    1    2    0    0  0.15040087757E+03  0.29922699300E+02 -0.15067256559E+02  0.17758977315E+03  0.88291072034E+02 0.  0.
          5    1    1    2  502    0  0.53479157369E+01 -0.26847450378E+01 -0.43253997409E+02  0.43865575917E+02  0.41800000000E+01 0.  1.
         -5    1    1    2    0  502 -0.15574879331E+03 -0.27237954263E+02  0.24931235734E+01  0.15818748634E+03  0.41800000000E+01 0.  1.
        -11    1    3    3    0    0  0.98103736125E+02 -0.12209838891E+02  0.21428392413E+02  0.10115631077E+03  0.00000000000E+00 0.  1.
         11    1    3    3    0    0  0.52297141447E+02  0.42132538191E+02 -0.36495648972E+02  0.76433462383E+02  0.00000000000E+00 0. -1.
</event>
<event>
 7    1  0.5137842E-006  0.9746036E+02  0.7561462E-02  0.1285729E+00
         -2   -1    0    0    0  501 -0.00000000000E+00  0.00000000000E+00  0.53908820800E+02  0.53908820800E+02  0.00000000000E+00 0. -1.
          2   -1    0    0  501    0  0.00000000000E+00 -0.00000000000E+00 -0.22581660563E+03  0.22581660563E+03  0.00000000000E+00 0.  1.
         23    2    1    2    0    0  0.19887108197E+02  0.12149097559E+02 -0.71676245467E+02  0.11774336950E+03  0.90459489571E+02 0.  0.
          5    1    1    2  502    0  0.52313290272E+02  0.53409909198E+01 -0.38594152317E+02  0.65361973013E+02  0.41800000000E+01 0.  1.
         -5    1    1    2    0  502 -0.72200398469E+02 -0.17490088479E+02 -0.61637387049E+02  0.96620083918E+02  0.41800000000E+01 0.  1.
        -11    1    3    3    0    0  0.30826149778E+02 -0.17996229487E+02 -0.77338683283E+02  0.85178563723E+02  0.00000000000E+00 0.  1.
         11    1    3    3    0    0 -0.10939041582E+02  0.30145327046E+02  0.56624378159E+01  0.32564805779E+02  0.00000000000E+00 0. -1.
</event>
<event>
 7    1  0.5137842E-006  0.9209547E+02  0.7561462E-02  0.1297855E+00
          2   -1    0    0  501    0  0.00000000000E+00  0.00000000000E+00  0.16312339698E+03  0.16312339698E+03  0.00000000000E+00 0.  1.
         -2   -1    0    0    0  501 -0.00000000000E+00 -0.00000000000E+00 -0.83587808344E+02  0.83587808344E+02  0.00000000000E+00 0. -1.
         23    2    1    2    0    0 -0.11663816939E+02 -0.17298376197E+02  0.69811148966E+02  0.11952103273E+03  0.94743877370E+02 0.  0.
          5    1    1    2  502    0 -0.41395258842E+02 -0.12162693341E+02 -0.31604962848E+02  0.53645546325E+02  0.41800000000E+01 0.  1.
         -5    1    1    2    0  502  0.53059075781E+02  0.29461069538E+02  0.41329402515E+02  0.73544626271E+02  0.41800000000E+01 0.  1.
        -11    1    3    3    0    0  0.33212131327E+02 -0.84561129711E+01  0.65061824749E+02  0.73536334920E+02  0.00000000000E+00 0.  1.
         11    1    3    3    0    0 -0.44875948266E+02 -0.88422632262E+01  0.47493242173E+01  0.45984697805E+02  0.00000000000E+00 0. -1.
</event>
<event>
 7    1  0.5137842E-006  0.9352904E+02  0.7561462E-02  0.1294524E+00
         -1   -1    0    0    0  501 -0.00000000000E+00  0.00000000000E+00  0.62387803647E+03  0.62387803647E+03  0.00000000000E+00 0.  1.
          1   -1    0    0  501    0  0.00000000000E+00 -0.00000000000E+00 -0.87849832963E+02  0.87849832963E+02  0.00000000000E+00 0. -1.
         23    2    1    2    0    0  0.57335285537E+01 -0.25807419254E+02 -0.59019214458E+02  0.10542825153E+03  0.83264351957E+02 0.  0.
          5    1    1    2  502    0 -0.52288610856E+02 -0.19722467734E+01  0.17370491651E+03  0.18146310645E+03  0.41800000000E+01 0. -1.
         -5    1    1    2    0  502  0.46555082302E+02  0.27779666027E+02  0.42134250146E+03  0.42483651146E+03  0.41800000000E+01 0.  1.
        -11    1    3    3    0    0  0.35743475677E+02 -0.33737920912E+02 -0.14666571084E+02  0.51292803279E+02  0.00000000000E+00 0.  1.
         11    1    3    3    0    0 -0.30009947123E+02  0.79305016582E+01 -0.44352643374E+02  0.54135448249E+02  0.00000000000E+00 0. -1.
</event>
<event>
 7    1  0.5137842E-006  0.1624491E+03  0.7561462E-02  0.1185959E+00
          2   -1    0    0  501    0  0.00000000000E+00  0.00000000000E+00  0.34625827048E+03  0.34625827048E+03  0.00000000000E+00 0.  1.
         -2   -1    0    0    0  501 -0.00000000000E+00 -0.00000000000E+00 -0.10743432796E+03  0.10743432796E+03  0.00000000000E+00 0. -1.
         23    2    1    2    0    0  0.75313097778E+02  0.13980734140E+03  0.11189100298E+03  0.21499005724E+03  0.92103055113E+02 0.  0.
          5    1    1    2  502    0 -0.30592915818E+02 -0.40004872038E+02  0.11862910623E+03  0.12894438154E+03  0.41800000000E+01 0. -1.
         -5    1    1    2    0  502 -0.44720181959E+02 -0.99802469358E+02  0.83038333156E+01  0.10975815966E+03  0.41800000000E+01 0. -1.
        -11    1    3    3    0    0  0.49010324430E+01  0.52632145615E+02 -0.49578712065E+01  0.53091838902E+02  0.00000000000E+00 0. -1.
         11    1    3    3    0    0  0.70412065335E+02  0.87175195780E+02  0.11684887418E+03  0.16189821834E+03  0.00000000000E+00 0.  1.
</event>
<event>
 7    1  0.5137842E-006  0.1143410E+03  0.7561462E-02  0.1252736E+00
         -1   -1    0    0    0  501 -0.00000000000E+00  0.00000000000E+00  0.75256311238E+03  0.75256311238E+03  0.00000000000E+00 0.  1.
          1   -1    0    0  501    0  0.00000000000E+00 -0.00000000000E+00 -0.18707724069E+02  0.18707724069E+02  0.00000000000E+00 0. -1.
         23    2    1    2    0    0  0.44307529599E+02  0.10143940556E+02  0.25733632306E+03  0.27651505243E+03  0.90402070486E+02 0.  0.
          5    1    1    2  502    0  0.42181985676E+02  0.84150749670E+01  0.12525518346E+03  0.13250081806E+03  0.41800000000E+01 0.  1.
         -5    1    1    2    0  502 -0.86489515275E+02 -0.18559015523E+02  0.35126388180E+03  0.36225496596E+03  0.41800000000E+01 0.  1.
        -11    1    3    3    0    0 -0.26028108350E+02  0.20325721204E+01  0.38556114189E+02  0.46563587867E+02  0.00000000000E+00 0. -1.
         11    1    3    3    0    0  0.70335637949E+02  0.81113684352E+01  0.21878020887E+03  0.22995146457E+03  0.00000000000E+00 0.  1.
</event>
<event>
 7    1  0.5137842E-006  0.1660654E+03  0.7561462E-02  0.1182014E+00
          2   -1    0    0  501    0  0.00000000000E+00  0.00000000000E+00  0.19902185216E+03  0.19902185216E+03  0.00000000000E+00 0. -1.
         -2   -1    0    0    0  501 -0.00000000000E+00 -0.00000000000E+00 -0.15725430350E+03  0.15725430350E+03  0.00000000000E+00 0.  1.
         23    2    1    2    0    0 -0.72487272724E+01  0.75527958988E+02  0.56299172675E+02  0.13331385500E+03  0.94053019378E+02 0.  0.
          5    1    1    2  502    0 -0.60135364743E+02 -0.11730999604E+03  0.25045245291E+02  0.13424840399E+03  0.41800000000E+01 0. -1.
         -5    1    1    2    0  502  0.67384092016E+02  0.41782037050E+02 -0.39576869305E+02  0.88713896661E+02  0.41800000000E+01 0.  1.
        -11    1    3    3    0    0  0.21896206788E+02 -0.14468472538E+02  0.12320170299E+02  0.28992536376E+02  0.00000000000E+00 0.  1.
         11    1    3    3    0    0 -0.29144934061E+02  0.89996431526E+02  0.43979002376E+02  0.10432131862E+03  0.00000000000E+00 0. -1.
</event>
<event>
 7    1  0.5137842E-006  0.1106226E+03  0.7561462E-02  0.1259421E+00
          2   -1    0    0  501    0  0.00000000000E+00  0.00000000000E+00  0.45367433958E+03  0.45367433958E+03  0.00000000000E+00 0.  1.
         -2   -1    0    0    0  501 -0.00000000000E+00 -0.00000000000E+00 -0.35449130317E+02  0.35449130317E+02  0.00000000000E+00 0. -1.
         23    2    1    2    0    0  0.60922636553E+02  0.17220729548E+01  0.23558015778E+03  0.25950772672E+03  0.90176029560E+02 0.  0.
          5    1    1    2  502    0 -0.13392601054E+02  0.44099086510E+02  0.14774214379E+03  0.15482023333E+03  0.41800000000E+01 0.  1.
         -5    1    1    2    0  502 -0.47530035498E+02 -0.45821159465E+02  0.34902907690E+02  0.74795509854E+02  0.41800000000E+01 0.  1.
        -11    1    3    3    0    0 -0.20766746567E+02  0.15577157338E+02  0.53869442764E+02  0.59798181054E+02  0.00000000000E+00 0.  1.
         11    1    3    3    0    0  0.81689383120E+02 -0.13855084383E+02  0.18171071502E+03  0.19970954566E+03  0.00000000000E+00 0. -1.
</event>
<event>
 7    1  0.5137842E-006  0.2088518E+03  0.7561462E-02  0.1142479E+00
          1   -1    0    0  501    0  0.00000000000E+00  0.00000000000E+00  0.55341256179E+03  0.55341256179E+03  0.00000000000E+00 0. -1.
         -1   -1    0    0    0  501 -0.00000000000E+00 -0.00000000000E+00 -0.82340312277E+02  0.82340312277E+02  0.00000000000E+00 0.  1.
         23    2    1    2    0    0  0.43434202436E+01  0.18253205188E+03  0.25979055268E+03  0.32977046810E+03  0.88997837672E+02 0.  0.
          5    1    1    2  502    0  0.31661982957E+02 -0.17482126701E+03  0.19932099021E+03  0.26704173101E+03  0.41800000000E+01 0. -1.
         -5    1    1    2    0  502 -0.36005403200E+02 -0.77107848689E+01  0.11960706628E+02  0.38940674955E+02  0.41800000000E+01 0. -1.
        -11    1    3    3    0    0 -0.31468784620E+02  0.21860915889E+02  0.43641053993E+02  0.58075172342E+02  0.00000000000E+00 0.  1.
         11    1    3    3    0    0  0.35812204863E+02  0.16067113599E+03  0.21614949869E+03  0.27169529576E+03  0.00000000000E+00 0. -1.
</event>
<event>
 7    1  0.5137842E-006  0.1151674E+03  0.7561462E-02  0.1251289E+00
         -1   -1    0    0    0  501 -0.00000000000E+00  0.00000000000E+00  0.16671362423E+04  0.16671362423E+04  0.00000000000E+00 0.  1.
          1   -1    0    0  501    0  0.00000000000E+00 -0.00000000000E+00 -0.92034899833E+01  0.92034899833E+01  0.00000000000E+00 0. -1.
         23    2    1    2    0    0  0.38656193615E+02 -0.79754279770E+01  0.42377334001E+03  0.43523149734E+03  0.91020348364E+02 0.  0.
          5    1    1    2  502    0 -0.82909885234E+02 -0.90891555756E+01  0.77440072943E+03  0.77889063671E+03  0.41800000000E+01 0.  1.
         -5    1    1    2    0  502  0.44253691619E+02  0.17064583553E+02  0.45975868288E+03  0.46221759823E+03  0.41800000000E+01 0.  1.
        -11    1    3    3    0    0  0.40807500789E+02 -0.45789582730E+02  0.26195402960E+03  0.26903875489E+03  0.00000000000E+00 0. -1.
         11    1    3    3    0    0 -0.21513071740E+01  0.37814154753E+02  0.16181931041E+03  0.16619274245E+03  0.00000000000E+00 0.  1.
</event>
<event>
 7    1  0.5137842E-006  0.1048939E+03  0.7561462E-02  0.1270329E+00
         -1   -1    0    0    0  501 -0.00000000000E+00  0.00000000000E+00  0.76321614333E+03  0.76321614333E+03  0.00000000000E+00 0.  1.
          1   -1    0    0  501    0  0.00000000000E+00 -0.00000000000E+00 -0.26685864973E+02  0.26685864973E+02  0.00000000000E+00 0. -1.
         23    2    1    2    0    0 -0.72780673317E+02 -0.21109836425E+02  0.18507751916E+03  0.21938557679E+03  0.90186981335E+02 0.  0.
          5    1    1    2  502    0  0.72852680789E+01  0.27493505976E+02  0.44058665264E+03  0.44152354285E+03  0.41800000000E+01 0. -1.
         -5    1    1    2    0  502  0.65495405238E+02 -0.63836695507E+01  0.11086610656E+03  0.12899288867E+03  0.41800000000E+01 0. -1.
        -11    1    3    3    0    0 -0.84696491534E+01 -0.45529319456E+02  0.98189192171E+02  0.10856229247E+03  0.00000000000E+00 0.  1.
         11    1    3    3    0    0 -0.64311024164E+02  0.24419483032E+02  0.86888326986E+02  0.11082328432E+03  0.00000000000E+00 0. -1.
</event>
<event>
 7    1  0.5137842E-006  0.5287145E+02  0.7561462E-02  0.1430442E+00
         -1   -1    0    0    0  501 -0.00000000000E+00  0.00000000000E+00  0.41367592559E+02  0.41367592559E+02  0.00000000000E+00 0.  1.
          1   -1    0    0  501    0  0.00000000000E+00 -0.00000000000E+00 -0.34929001828E+03  0.34929001828E+03  0.00000000000E+00 0. -1.
         23    2    1    2    0    0 -0.23967213972E+02 -0.76983097969E+01 -0.20740940570E+03  0.22823293698E+03  0.91858154931E+02 0.  0.
          5    1    1    2  502    0  0.35222607953E+02  0.21579648197E+01 -0.12750689704E+03  0.13236604593E+03  0.41800000000E+01 0.  1.
         -5    1    1    2    0  502 -0.11255393981E+02  0.55403449771E+01  0.26993877024E+02  0.30058627928E+02  0.41800000000E+01 0.  1.
        -11    1    3    3    0    0  0.64714216266E+01  0.16741232717E+02 -0.79795301819E+00  0.17966215510E+02  0.00000000000E+00 0.  1.
         11    1    3    3    0    0 -0.30438635599E+02 -0.24439542514E+02 -0.20661145269E+03  0.21026672147E+03  0.00000000000E+00 0. -1.
</event>
<event>
 7    1  0.5137842E-006  0.1406779E+03  0.7561462E-02  0.1212420E+00
          1   -1    0    0  501    0  0.00000000000E+00  0.00000000000E+00  0.81627914427E+03  0.81627914427E+03  0.00000000000E+00 0. -1.
         -1   -1    0    0    0  501 -0.00000000000E+00 -0.00000000000E+00 -0.30499289124E+02  0.30499289124E+02  0.00000000000E+00 0.  1.
         23    2    1    2    0    0 -0.81558878867E+02 -0.79128615449E+02  0.34919634785E+03  0.37862712874E+03  0.92234618009E+02 0.  0.
          5    1    1    2  502    0  0.10986632416E+03  0.37544685787E+02  0.26620889724E+03  0.29045629961E+03  0.41800000000E+01 0.  1.
         -5    1    1    2    0  502 -0.28307445296E+02  0.41583929663E+02  0.17037461006E+03  0.17769500505E+03  0.41800000000E+01 0.  1.
        -11    1    3    3    0    0 -0.76033847478E+01 -0.14976017157E+02  0.88588037988E+00  0.16818957565E+02  0.00000000000E+00 0.  1.
         11    1    3    3    0    0 -0.73955494120E+02 -0.64152598292E+02  0.34831046747E+03  0.36180817117E+03  0.00000000000E+00 0. -1.
</event>
<event>
 7    1  0.5137842E-006  0.2292699E+03  0.7561462E-02  0.1127155E+00
          2   -1    0    0  501    0  0.00000000000E+00  0.00000000000E+00  0.15737378217E+03  0.15737378217E+03  0.00000000000E+00 0.  1.
         -2   -1    0    0    0  501 -0.00000000000E+00 -0.00000000000E+00 -0.35874855752E+03  0.35874855752E+03  0.00000000000E+00 0. -1.
         23    2    1    2    0    0  0.15333585786E+03 -0.14537583940E+03 -0.95947256014E+02  0.24890076752E+03  0.89998311936E+02 0.  0.
          5    1    1    2  502    0 -0.12320637447E+03  0.31248361836E+02 -0.60771310487E+02  0.14094997483E+03  0.41800000000E+01 0.  1.
         -5    1    1    2    0  502 -0.30129483388E+02  0.11412747756E+03 -0.44656208852E+02  0.12627159733E+03  0.41800000000E+01 0.  1.
        -11    1    3    3    0    0  0.91948614634E+02 -0.67368177577E+02 -0.96934520147E+02  0.14963061277E+03  0.00000000000E+00 0. -1.
         11    1    3    3    0    0  0.61387243224E+02 -0.78007661819E+02  0.98726413302E+00  0.99270154748E+02  0.00000000000E+00 0.  1.
</event>
<event>
 7    1  0.5137842E-006  0.1550356E+03  0.7561462E-02  0.1194418E+00
         -2   -1    0    0    0  501 -0.00000000000E+00  0.00000000000E+00  0.11586526342E+03  0.11586526342E+03  0.00000000000E+00 0. -1.
          2   -1    0    0  501    0  0.00000000000E+00 -0.00000000000E+00 -0.25764510555E+03  0.25764510555E+03  0.00000000000E+00 0.  1.
         23    2    1    2    0    0  0.11198802192E+03  0.12521128171E+02 -0.14570293231E+03  0.20510397772E+03  0.90223065155E+02 0.  0.
          5    1    1    2  502    0 -0.52198319770E+02  0.55059625588E+02 -0.11244013850E+02  0.76812285502E+02  0.41800000000E+01 0.  1.
         -5    1    1    2    0  502 -0.59789702155E+02 -0.67580753758E+02  0.15167104031E+02  0.91594105744E+02  0.41800000000E+01 0.  1.
        -11    1    3    3    0    0  0.16800644696E+02  0.41075611536E+02 -0.36588131970E+02  0.57516596964E+02  0.00000000000E+00 0.  1.
         11    1    3    3    0    0  0.95187377229E+02 -0.28554483365E+02 -0.10911480034E+03  0.14758738075E+03  0.00000000000E+00 0. -1.
</event>
<event>
 7    1  0.5137842E-006  0.8915792E+02  0.7561462E-02  0.1304904E+00
          1   -1    0    0  501    0  0.00000000000E+00  0.00000000000E+00  0.27122405002E+03  0.27122405002E+03  0.00000000000E+00 0. -1.
         -1   -1    0    0    0  501 -0.00000000000E+00 -0.00000000000E+00 -0.57403520509E+02  0.57403520509E+02  0.00000000000E+00 0.  1.
         23    2    1    2    0    0  0.31956753139E+02 -0.22301585465E+01  0.15900224235E+03  0.18832060922E+03  0.95690809926E+02 0.  0.
          5    1    1    2  502    0 -0.99826538519E+01  0.37579830801E+02 -0.27609842314E+02  0.47871420008E+02  0.41800000000E+01 0. -1.
         -5    1    1    2    0  502 -0.21974099287E+02 -0.35349672254E+02  0.82428129471E+02  0.92435541303E+02  0.41800000000E+01 0. -1.
        -11    1    3    3    0    0  0.13240278497E+02 -0.47011912288E+02  0.55032160795E+02  0.73579641161E+02  0.00000000000E+00 0.  1.
         11    1    3    3    0    0  0.18716474642E+02  0.44781753742E+02  0.10397008156E+03  0.11474096806E+03  0.00000000000E+00 0. -1.
</event>
<event>
 7    1  0.5137842E-006  0.7493632E+02  0.7561462E-02  0.1344068E+00
         -1   -1    0    0    0  501 -0.00000000000E+00  0.00000000000E+00  0.33188542454E+02  0.33188542454E+02  0.00000000000E+00 0.  1.
          1   -1    0    0  501    0  0.00000000000E+00 -0.00000000000E+00 -0.43787856155E+03  0.43787856155E+03  0.00000000000E+00 0. -1.
         23    2    1    2    0    0  0.68577115302E+01  0.26879453949E+02 -0.26381420317E+03  0.28063795099E+03  0.91597993921E+02 0.  0.
          5    1    1    2  502    0  0.19962916660E+02 -0.26582838366E+02 -0.15586097634E+03  0.15942171020E+03  0.41800000000E+01 0. -1.
         -5    1    1    2    0  502 -0.26820628190E+02 -0.29661558215E+00  0.14985160412E+02  0.31007442815E+02  0.41800000000E+01 0. -1.
        -11    1    3    3    0    0  0.25473427811E+02  0.52029530892E+02 -0.21490468316E+03  0.22257580833E+03  0.00000000000E+00 0. -1.
         11    1    3    3    0    0 -0.18615716281E+02 -0.25150076944E+02 -0.48909520013E+02  0.58062142665E+02  0.00000000000E+00 0.  1.
</event>
<event>
 7    1  0.5137842E-006  0.2140205E+03  0.7561462E-02  0.1138421E+00
          2   -1    0    0  501    0  0.00000000000E+00  0.00000000000E+00  0.75145532329E+03  0.75145532329E+03  0.00000000000E+00 0. -1.
         -2   -1    0    0    0  501 -0.00000000000E+00 -0.00000000000E+00 -0.65306679101E+02  0.65306679101E+02  0.00000000000E+00 0.  1.
         23    2    1    2    0    0  0.26055079094E+02  0.19029046025E+03  0.36793524091E+03  0.42459261040E+03  0.89516573329E+02 0.  0.
          5    1    1    2  502    0 -0.23123432173E+02 -0.20862136077E+03  0.28652066877E+03  0.35520294384E+03  0.41800000000E+01 0.  1.
         -5    1    1    2    0  502 -0.29316469206E+01  0.18330900521E+02  0.31692734509E+02  0.36966448142E+02  0.41800000000E+01 0.  1.
        -11    1    3    3    0    0 -0.15449191521E+02  0.33667645045E+02  0.23280636823E+02  0.43751295894E+02  0.00000000000E+00 0.  1.
         11    1    3    3    0    0  0.41504270615E+02  0.15662281520E+03  0.34465460409E+03  0.38084131451E+03  0.00000000000E+00 0. -1.
</event>
<event>
 7    1  0.5137842E-006  0.1060522E+03  0.7561462E-02  0.1268060E+00
         -2   -1    0    0    0  501 -0.00000000000E+00  0.00000000000E+00  0.22588746324E+02  0.22588746324E+02  0.00000000000E+00 0.  1.
          2   -1    0    0  501    0  0.00000000000E+00 -0.00000000000E+00 -0.11729138104E+04  0.11729138104E+04  0.00000000000E+00 0. -1.
         23    2    1    2    0    0 -0.47779417023E+02 -0.12661871655E+01 -0.40454383637E+03  0.41744388785E+03  0.91209692679E+02 0.  0.
          5    1    1    2  502    0  0.71601501973E+02 -0.22576067168E+02 -0.73975439269E+03  0.74356606149E+03  0.41800000000E+01 0. -1.
         -5    1    1    2    0  502 -0.23822084950E+02  0.23842254334E+02 -0.60268350035E+01  0.34492607371E+02  0.41800000000E+01 0.  1.
        -11    1    3    3    0    0 -0.25649923342E+02 -0.46210957489E+02 -0.21223006760E+03  0.21871207730E+03  0.00000000000E+00 0. -1.
         11    1    3    3    0    0 -0.22129493681E+02  0.44944770324E+02 -0.19231376876E+03  0.19873181055E+03  0.00000000000E+00 0.  1.
</event>
<event>
 7    1  0.5137842E-006  0.1419877E+03  0.7561462E-02  0.1210679E+00
          2   -1    0    0  501    0  0.00000000000E+00  0.00000000000E+00  0.11142370614E+04  0.11142370614E+04  0.00000000000E+00 0. -1.
         -2   -1    0    0    0  501 -0.00000000000E+00 -0.00000000000E+00 -0.31461951576E+02  0.31461951576E+02  0.00000000000E+00 0.  1.
         23    2    1    2    0    0  0.92903102492E+02 -0.15411181759E+02  0.56769120954E+03  0.58152877541E+03  0.83868446149E+02 0.  0.
          5    1    1    2  502    0  0.27651171547E+02 -0.20273492311E+02  0.37221162170E+03  0.37381086863E+03  0.41800000000E+01 0. -1.
         -5    1    1    2    0  502 -0.12055427404E+03  0.35684674069E+02  0.14287227856E+03  0.19035936891E+03  0.41800000000E+01 0.  1.
        -11    1    3    3    0    0  0.17803555607E+02 -0.40678626442E+02  0.15199735491E+03  0.15835060196E+03  0.00000000000E+00 0. -1.
         11    1    3    3    0    0  0.75099546885E+02  0.25267444684E+02  0.41569385463E+03  0.42317817345E+03  0.00000000000E+00 0.  1.
</event>
<event>
 7    1  0.5137842E-006  0.1596000E+03  0.7561462E-02  0.1189149E+00
          1   -1    0    0  501    0  0.00000000000E+00  0.00000000000E+00  0.34592871359E+02  0.34592871359E+02  0.00000000000E+00 0. -1.
         -1   -1    0    0    0  501 -0.00000000000E+00 -0.00000000000E+00 -0.82933574501E+03  0.82933574501E+03  0.00000000000E+00 0.  1.
         23    2    1    2    0    0  0.21577069838E+02  0.12138615353E+03 -0.27261429594E+03  0.31305136145E+03  0.92100121299E+02 0.  0.
          5    1    1    2  502    0  0.52492934285E+02 -0.50304841297E+02 -0.22397741344E+03  0.23551950947E+03  0.41800000000E+01 0.  1.
         -5    1    1    2    0  502 -0.74070004123E+02 -0.71081312238E+02 -0.29815116426E+03  0.31535774544E+03  0.41800000000E+01 0.  1.
        -11    1    3    3    0    0  0.44161394711E+02  0.41456585260E+02 -0.17331331567E+03  0.18359298090E+03  0.00000000000E+00 0.  1.
         11    1    3    3    0    0 -0.22584324873E+02  0.79929568275E+02 -0.99300980268E+02  0.12945838056E+03  0.00000000000E+00 0. -1.
</event>
<event>
 7    1  0.5137842E-006  0.2769381E+03  0.7561462E-02  0.1097373E+00
         -2   -1    0    0    0  501 -0.00000000000E+00  0.00000000000E+00  0.19483095426E+04  0.19483095426E+04  0.00000000000E+00 0. -1.
          2   -1    0    0  501    0  0.00000000000E+00 -0.00000000000E+00 -0.47906596707E+02  0.47906596707E+02  0.00000000000E+00 0.  1.
         23    2    1    2    0    0 -0.21033359539E+03  0.16485558645E+03  0.60134414382E+03  0.66406790000E+03  0.89184139674E+02 0.  0.
          5    1    1    2  502    0  0.18199263192E+03 -0.90526540439E+02  0.73912566077E+03  0.76657718946E+03  0.41800000000E+01 0. -1.
         -5    1    1    2    0  502  0.28340963472E+02 -0.74329046010E+02  0.55993314133E+03  0.56557104987E+03  0.41800000000E+01 0. -1.
        -11    1    3    3    0    0 -0.75147114623E+02  0.86790734492E+02  0.34842926123E+03  0.36685510833E+03  0.00000000000E+00 0. -1.
         11    1    3    3    0    0 -0.13518648077E+03  0.78064851956E+02  0.25291488259E+03  0.29721279166E+03  0.00000000000E+00 0.  1.
</event>
<event>
 7    1  0.5137842E-006  0.9401687E+02  0.7561462E-02  0.1293406E+00
         -2   -1    0    0    0  501 -0.00000000000E+00  0.00000000000E+00  0.41937462757E+03  0.41937462757E+03  0.00000000000E+00 0.  1.
          2   -1    0    0  501    0  0.00000000000E+00 -0.00000000000E+00 -0.80002440441E+02  0.80002440441E+02  0.00000000000E+00 0. -1.
         23    2    1    2    0    0  0.34990242419E+02  0.25477670247E+02 -0.31026900987E+02  0.10708207143E+03  0.92900337406E+02 0.  0.
          5    1    1    2  502    0 -0.76818100436E+02 -0.56315841132E+01  0.28273176828E+03  0.29306562489E+03  0.41800000000E+01 0. -1.
         -5    1    1    2    0  502  0.41827858016E+02 -0.19846086133E+02  0.87667319838E+02  0.99229371703E+02  0.41800000000E+01 0.  1.
        -11    1    3    3    0    0 -0.92960656993E+01  0.16919260889E+02 -0.53363976830E+02  0.56748499977E+02  0.00000000000E+00 0. -1.
         11    1    3    3    0    0  0.44286308119E+02  0.85584093577E+01  0.22337075843E+02  0.50333571448E+02  0.00000000000E+00 0.  1.
</event>
<event>
 7    1  0.5137842E-006  0.1057860E+03  0.7561462E-02  0.1268579E+00
         -2   -1    0    0    0  501 -0.00000000000E+00  0.00000000000E+00  0.23608191578E+03  0.23608191578E+03  0.00000000000E+00 0.  1.
          2   -1    0    0  501    0  0.00000000000E+00 -0.00000000000E+00 -0.64428230389E+02  0.64428230389E+02  0.00000000000E+00 0. -1.
         23    2    1    2    0    0  0.40753552107E+02  0.43070829069E+02  0.61941614999E+02  0.12388072430E+03  0.89407616335E+02 0.  0.
          5    1    1    2  502    0 -0.78848443551E+02  0.17840213242E+00  0.76697053734E+02  0.11007733340E+03  0.41800000000E+01 0. -1.
         -5    1    1    2    0  502  0.38094891444E+02 -0.43249231202E+02  0.33015016655E+02  0.66552088460E+02  0.41800000000E+01 0. -1.
        -11    1    3    3    0    0  0.26280367312E+02 -0.30796250977E+01 -0.16892068664E+02  0.31392415971E+02  0.00000000000E+00 0. -1.
         11    1    3    3    0    0  0.14473184795E+02  0.46150454167E+02  0.78833683662E+02  0.92488308330E+02  0.00000000000E+00 0.  1.
</event>
<event>
 7    1  0.5137842E-006  0.9359445E+02  0.7561462E-02  0.1294373E+00
          1   -1    0    0  501    0  0.00000000000E+00  0.00000000000E+00  0.54050813760E+02  0.54050813760E+02  0.00000000000E+00 0. -1.
         -1   -1    0    0    0  501 -0.00000000000E+00 -0.00000000000E+00 -0.25782933182E+03  0.25782933182E+03  0.00000000000E+00 0.  1.
         23    2    1    2    0    0 -0.41840949444E+02  0.17871349358E+02 -0.88820687370E+02  0.13600294771E+03  0.92399334974E+02 0.  0.
          5    1    1    2  502    0 -0.29193043147E+02  0.32528779715E+02 -0.24697181616E+02  0.50376368048E+02  0.41800000000E+01 0.  1.
         -5    1    1    2    0  502  0.71033992590E+02 -0.50400129073E+02 -0.90260649075E+02  0.12550082982E+03  0.41800000000E+01 0.  1.
        -11    1    3    3    0    0 -0.33679954694E+02  0.27486476532E+02 -0.10607121168E+03  0.11463397266E+03  0.00000000000E+00 0.  1.
         11    1    3    3    0    0 -0.81609947500E+01 -0.96151271746E+01  0.17250524310E+02  0.21368975054E+02  0.00000000000E+00 0. -1.
</event>
<event>
 7    1  0.5137842E-006  0.1361634E+03  0.7561462E-02  0.1218587E+00
          1   -1    0    0  501    0  0.00000000000E+00  0.00000000000E+00  0.53583836353E+03  0.53583836353E+03  0.00000000000E+00 0. -1.
         -1   -1    0    0    0  501 -0.00000000000E+00 -0.00000000000E+00 -0.44729833555E+02  0.44729833555E+02  0.00000000000E+00 0.  1.
         23    2    1    2    0    0 -0.25916840446E+02  0.94373363545E+02  0.32195180978E+03  0.34853145005E+03  0.90792012264E+02 0.  0.
          5    1    1    2  502    0 -0.32710905372E+02  0.30924934441E+01  0.82763244499E+02  0.89144791692E+02  0.41800000000E+01 0.  1.
         -5    1    1    2    0  502  0.58627745818E+02 -0.97465856989E+02  0.86393475702E+02  0.14289195534E+03  0.41800000000E+01 0.  1.
        -11    1    3    3    0    0 -0.52458514504E+02  0.44073886404E+02  0.23374123028E+03  0.24357620150E+03  0.00000000000E+00 0. -1.
         11    1    3    3    0    0  0.26541674058E+02  0.50299477141E+02  0.88210579502E+02  0.10495524855E+03  0.00000000000E+00 0.  1.
</event>
<event>
 7    1  0.5137842E-006  0.6631889E+02  0.7561462E-02  0.1373078E+00
         -2   -1    0    0    0  501 -0.00000000000E+00  0.00000000000E+00  0.22826280826E+02  0.22826280826E+02  0.00000000000E+00 0. -1.
          2   -1    0    0  501    0  0.00000000000E+00 -0.00000000000E+00 -0.58166638751E+03  0.58166638751E+03  0.00000000000E+00 0.  1.
         23    2    1    2    0    0 -0.30393133159E+02 -0.16059681878E+02 -0.28337711723E+03  0.30001092360E+03  0.92316346233E+02 0.  0.
          5    1    1    2  502    0  0.10775120565E+02 -0.16032176902E+02  0.58681792928E+01  0.20616543057E+02  0.41800000000E+01 0. -1.
         -5    1    1    2    0  502  0.19618012594E+02  0.32091858781E+02 -0.28133116874E+03  0.28386520168E+03  0.41800000000E+01 0. -1.
        -11    1    3    3    0    0 -0.22502706364E+01  0.25082091843E+02 -0.20563551200E+02  0.32512069868E+02  0.00000000000E+00 0. -1.
         11    1    3    3    0    0 -0.28142862522E+02 -0.41141773721E+02 -0.26281356603E+03  0.26749885373E+03  0.00000000000E+00 0.  1.
</event>
<event>
 7    1  0.5137842E-006  0.1642597E+03  0.7561462E-02  0.1183970E+00
         -1   -1    0    0    0  501 -0.00000000000E+00  0.00000000000E+00  0.73772771439E+02  0.73772771439E+02  0.00000000000E+00 0.  1.
          1   -1    0    0  501    0  0.00000000000E+00 -0.00000000000E+00 -0.49472508962E+03  0.49472508962E+03  0.00000000000E+00 0. -1.
         23    2    1    2    0    0 -0.11364029238E+03 -0.81516141094E+02 -0.30858510710E+03  0.34979040611E+03  0.87003233116E+02 0.  0.
          5    1    1    2  502    0  0.94416252679E+02  0.14829426382E+02 -0.11442714309E+03  0.14914886568E+03  0.41800000000E+01 0.  1.
         -5    1    1    2    0  502  0.19224039704E+02  0.66686714712E+02  0.20599320074E+01  0.69558589272E+02  0.41800000000E+01 0.  1.
        -11    1    3    3    0    0 -0.56564393623E+02  0.80354311734E+01 -0.87141533950E+02  0.10420050729E+03  0.00000000000E+00 0. -1.
         11    1    3    3    0    0 -0.57075898760E+02 -0.89551572267E+02 -0.22144357315E+03  0.24558989882E+03  0.00000000000E+00 0.  1.
</event>
<event>
 7    1  0.5137842E-006  0.8636105E+02  0.7561462E-02  0.1311911E+00
          1   -1    0    0  501    0  0.00000000000E+00  0.00000000000E+00  0.17081414035E+02  0.17081414035E+02  0.00000000000E+00 0. -1.
         -1   -1    0    0    0  501 -0.00000000000E+00 -0.00000000000E+00 -0.90707331022E+03  0.90707331022E+03  0.00000000000E+00 0.  1.
         23    2    1    2    0    0  0.52577343244E+02  0.19053199127E+02 -0.28825614784E+03  0.30701563112E+03  0.89663758362E+02 0.  0.
          5    1    1    2  502    0 -0.20490322427E+02 -0.32828679618E+02 -0.45857481275E+02  0.60149451431E+02  0.41800000000E+01 0. -1.
         -5    1    1    2    0  502 -0.32087020817E+02  0.13775480491E+02 -0.55587826707E+03  0.55698964171E+03  0.41800000000E+01 0. -1.
        -11    1    3    3    0    0  0.71746072302E+02  0.20389319977E+00 -0.25113172251E+03  0.26117940675E+03  0.00000000000E+00 0.  1.
         11    1    3    3    0    0 -0.19168729058E+02  0.18849305927E+02 -0.37124425333E+02  0.45836224364E+02  0.00000000000E+00 0. -1.
</event>
<event>
 7    1  0.5137842E-006  0.7325665E+02  0.7561462E-02  0.1349356E+00
          1   -1    0    0  501    0  0.00000000000E+00  0.00000000000E+00  0.18185485956E+03  0.18185485956E+03  0.00000000000E+00 0. -1.
         -1   -1    0    0    0  501 -0.00000000000E+00 -0.00000000000E+00 -0.73801774517E+02  0.73801774517E+02  0.00000000000E+00 0.  1.
         23    2    1    2    0    0  0.13922452133E+02  0.38167897047E+02  0.69028416676E+02  0.11846480360E+03  0.87283242066E+02 0.  0.
          5    1    1    2  502    0  0.18304633448E+02 -0.32714838988E+02 -0.37921623657E+02  0.53486841713E+02  0.41800000000E+01 0.  1.
         -5    1    1    2    0  502 -0.32227085581E+02 -0.54530580585E+01  0.76946292025E+02  0.83704988762E+02  0.41800000000E+01 0.  1.
        -11    1    3    3    0    0  0.95576579606E+01  0.56344140414E+02  0.11925399347E+02  0.58380014853E+02  0.00000000000E+00 0.  1.
         11    1    3    3    0    0  0.43647941727E+01 -0.18176243367E+02  0.57103017328E+02  0.60084788750E+02  0.00000000000E+00 0. -1.
</event>
<event>
 7    1  0.5137842E-006  0.1085473E+03  0.7561462E-02  0.1263284E+00
         -2   -1    0    0    0  501 -0.00000000000E+00  0.00000000000E+00  0.25672294278E+02  0.25672294278E+02  0.00000000000E+00 0.  1.
          2   -1    0    0  501    0  0.00000000000E+00 -0.00000000000E+00 -0.65002224049E+03  0.65002224049E+03  0.00000000000E+00 0. -1.
         23    2    1    2    0    0  0.37231614127E+02 -0.43629430465E+02 -0.38513202262E+03  0.39972060083E+03  0.90333623804E+02 0.  0.
          5    1    1    2  502    0 -0.31621826549E+02  0.76953794529E+02 -0.88827796620E+02  0.12177715820E+03  0.41800000000E+01 0. -1.
         -5    1    1    2    0  502 -0.56097875780E+01 -0.33324364064E+02 -0.15039012697E+03  0.15419677573E+03  0.41800000000E+01 0. -1.
        -11    1    3    3    0    0  0.84436046009E+00 -0.59883087247E+02 -0.29727238309E+03  0.30324506068E+03  0.00000000000E+00 0. -1.
         11    1    3    3    0    0  0.36387253667E+02  0.16253656782E+02 -0.87859639535E+02  0.96475540151E+02  0.00000000000E+00 0.  1.
</event>
<event>
 7    1  0.5137842E-006  0.1189525E+03  0.7561462E-02  0.1244835E+00
          2   -1    0    0  501    0  0.00000000000E+00  0.00000000000E+00  0.21727565489E+02  0.21727565489E+02  0.00000000000E+00 0. -1.
         -2   -1    0    0    0  501 -0.00000000000E+00 -0.00000000000E+00 -0.96253026554E+03  0.96253026554E+03  0.00000000000E+00 0.  1.
         23    2    1    2    0    0 -0.78669299065E+02 -0.52436960088E+02 -0.40954439500E+03  0.43034407687E+03  0.92362977538E+02 0.  0.
          5    1    1    2  502    0  0.42458553633E+02  0.99770730316E-01 -0.44285047310E+03  0.44490083463E+03  0.41800000000E+01 0. -1.
         -5    1    1    2    0  502  0.36210745432E+02  0.52337189358E+02 -0.88407831955E+02  0.10901291954E+03  0.41800000000E+01 0. -1.
        -11    1    3    3    0    0  0.54264634180E+01  0.19842969928E+02 -0.49325616756E+02  0.53443488183E+02  0.00000000000E+00 0.  1.
         11    1    3    3    0    0 -0.84095762483E+02 -0.72279930016E+02 -0.36021877824E+03  0.37690058868E+03  0.00000000000E+00 0. -1.
</event>
<event>
 7    1  0.5137842E-006  0.1055851E+03  0.7561462E-02  0.1268971E+00
          2   -1    0    0  501    0  0.00000000000E+00  0.00000000000E+00  0.19519055719E+03  0.19519055719E+03  0.00000000000E+00 0.  1.
         -2   -1    0    0    0  501 -0.00000000000E+00 -0.00000000000E+00 -0.66768390315E+02  0.66768390315E+02  0.00000000000E+00 0. -1.
         23    2    1    2    0    0 -0.22708883637E+02 -0.25044302032E+02  0.68240476476E+02  0.11908625068E+03  0.91552509580E+02 0.  0.
          5    1    1    2  502    0  0.88641738323E+01 -0.47198873124E+02  0.74650962796E+00  0.48211377066E+02  0.41800000000E+01 0. -1.
         -5    1    1    2    0  502  0.13844709805E+02  0.72243175156E+02  0.59435180775E+02  0.94661319767E+02  0.41800000000E+01 0. -1.
        -11    1    3    3    0    0 -0.47837945635E+02  0.72334660398E+01  0.60479268965E+02  0.77450203667E+02  0.00000000000E+00 0.  1.
         11    1    3    3    0    0  0.25129061998E+02 -0.32277768071E+02  0.77612075113E+01  0.41636047010E+02  0.00000000000E+00 0. -1.
</event>
<event>
 7    1  0.5137842E-006  0.1375654E+03  0.7561462E-02  0.1216643E+00
         -1   -1    0    0    0  501 -0.00000000000E+00  0.00000000000E+00  0.62599849578E+02  0.62599849578E+02  0.00000000000E+00 0.  1.
          1   -1    0    0  501    0  0.00000000000E+00 -0.00000000000E+00 -0.51487601682E+03  0.51487601682E+03  0.00000000000E+00 0. -1.
         23    2    1    2    0    0 -0.85096780661E+02  0.70477448009E+02 -0.35807954641E+03  0.38582475166E+03  0.91821809400E+02 0.  0.
          5    1    1    2  502    0 -0.95420382335E+01 -0.67988714805E+02 -0.58808097537E+02  0.90495196395E+02  0.41800000000E+01 0. -1.
         -5    1    1    2    0  502  0.94638818895E+02 -0.24887332041E+01 -0.35388523297E+02  0.10115591834E+03  0.41800000000E+01 0. -1.
        -11    1    3    3    0    0 -0.39637559949E+02  0.22882487136E+02 -0.39313244955E+02  0.60334696528E+02  0.00000000000E+00 0.  1.
         11    1    3    3    0    0 -0.45459220712E+02  0.47594960874E+02 -0.31876630145E+03  0.32549005513E+03  0.00000000000E+00 0. -1.
</event>
<event>
 7    1  0.5137842E-006  0.6658872E+02  0.7561462E-02  0.1372093E+00
          1   -1    0    0  501    0  0.00000000000E+00  0.00000000000E+00  0.75525138130E+02  0.75525138130E+02  0.00000000000E+00 0. -1.
         -1   -1    0    0    0  501 -0.00000000000E+00 -0.00000000000E+00 -0.17237564051E+03  0.17237564051E+03  0.00000000000E+00 0.  1.
         23    2    1    2    0    0  0.21325511857E+02  0.29992934815E+02 -0.39133371126E+02  0.10531184924E+03  0.90580413218E+02 0.  0.
          5    1    1    2  502    0  0.28578452009E+02 -0.18315380948E+02 -0.79651952925E+02  0.86683834152E+02  0.41800000000E+01 0. -1.
         -5    1    1    2    0  502 -0.49903963866E+02 -0.11677553867E+02  0.21934821668E+02  0.55905095255E+02  0.41800000000E+01 0. -1.
        -11    1    3    3    0    0  0.22195029175E+02  0.52638642789E+01 -0.65377081883E+02  0.69242258937E+02  0.00000000000E+00 0.  1.
         11    1    3    3    0    0 -0.86951731752E+00  0.24729070536E+02  0.26243710757E+02  0.36069590298E+02  0.00000000000E+00 0. -1.
</event>
<event>
 7    1  0.5137842E-006  0.1084550E+03  0.7561462E-02  0.1263458E+00
         -2   -1    0    0    0  501 -0.00000000000E+00  0.00000000000E+00  0.44298560117E+02  0.44298560117E+02  0.00000000000E+00 0.  1.
          2   -1    0    0  501    0  0.00000000000E+00 -0.00000000000E+00 -0.28926926957E+03  0.28926926957E+03  0.00000000000E+00 0. -1.
         23    2    1    2    0    0  0.10509398765E+02  0.30294128205E+02 -0.11374948461E+03  0.14946259545E+03  0.91498308857E+02 0.  0.
          5    1    1    2  502    0  0.49156007117E+02 -0.45831098678E+02 -0.68753190766E+02  0.96235525053E+02  0.41800000000E+01 0.  1.
         -5    1    1    2    0  502 -0.59665405882E+02  0.15536970473E+02 -0.62468034074E+02  0.87869709181E+02  0.41800000000E+01 0.  1.
        -11    1    3    3    0    0 -0.10811103158E+01  0.57861402272E+02 -0.41338564338E+02  0.71119530186E+02  0.00000000000E+00 0.  1.
         11    1    3    3    0    0  0.11590509081E+02 -0.27567274067E+02 -0.72410920277E+02  0.78343065268E+02  0.00000000000E+00 0. -1.
</event>
<event>
 7    1  0.5137842E-006  0.1141983E+03  0.7561462E-02  0.1252987E+00
          3   -1    0    0  501    0  0.00000000000E+00  0.00000000000E+00  0.50701891963E+02  0.50701891963E+02  0.00000000000E+00 0. -1.
         -3   -1    0    0    0  501 -0.00000000000E+00 -0.00000000000E+00 -0.28839077458E+03  0.28839077458E+03  0.00000000000E+00 0.  1.
         23    2    1    2    0    0  0.46735973760E+02 -0.12304995825E+02 -0.80113667766E+02  0.13217778945E+03  0.93365433087E+02 0.  0.
          5    1    1    2  502    0  0.36526992615E+02 -0.79205141904E+01 -0.14936271905E+02  0.40466286622E+02  0.41800000000E+01 0.  1.
         -5    1    1    2    0  502 -0.83262966375E+02  0.20225510015E+02 -0.14263894295E+03  0.16644859047E+03  0.41800000000E+01 0.  1.
        -11    1    3    3    0    0  0.24598918247E+02  0.40701890061E+02 -0.39573133007E+02  0.61869083470E+02  0.00000000000E+00 0. -1.
         11    1    3    3    0    0  0.22137055513E+02 -0.53006885886E+02 -0.40540534759E+02  0.70308705981E+02  0.00000000000E+00 0.  1.
</event>
<event>
 7    1  0.5137842E-006  0.1951738E+03  0.7561462E-02  0.1153876E+00
          2   -1    0    0  501    0  0.00000000000E+00  0.00000000000E+00  0.43045718052E+03  0.43045718052E+03  0.00000000000E+00 0. -1.
         -2   -1    0    0    0  501 -0.00000000000E+00 -0.00000000000E+00 -0.11434001927E+03  0.11434001927E+03  0.00000000000E+00 0.  1.
         23    2    1    2    0    0 -0.12142972201E+02  0.19203908775E+03  0.18203290780E+03  0.27900135044E+03  0.87631678217E+02 0.  0.
          5    1    1    2  502    0 -0.44275725975E+01 -0.60430193565E+02 -0.18576189549E+02  0.63513454571E+02  0.41800000000E+01 0. -1.
         -5    1    1    2    0  502  0.16570544798E+02 -0.13160889419E+03  0.15266044299E+03  0.20228239478E+03  0.41800000000E+01 0. -1.
        -11    1    3    3    0    0 -0.19971566114E+02  0.40500311804E+02  0.43853174305E+01  0.45369259617E+02  0.00000000000E+00 0. -1.
         11    1    3    3    0    0  0.78285939137E+01  0.15153877595E+03  0.17764759037E+03  0.23363209082E+03  0.00000000000E+00 0.  1.
</event>
<event>
 7    1  0.5137842E-006  0.1034828E+03  0.7561462E-02  0.1273138E+00
         -2   -1    0    0    0  501 -0.00000000000E+00  0.00000000000E+00  0.20742048972E+03  0.20742048972E+03  0.00000000000E+00 0.  1.
          2   -1    0    0  501    0  0.00000000000E+00 -0.00000000000E+00 -0.77338037496E+02  0.77338037496E+02  0.00000000000E+00 0. -1.
         23    2    1    2    0    0 -0.57137987823E+01  0.41527547575E+01 -0.18271948640E+02  0.93305013539E+02  0.91225372435E+02 0.  0.
          5    1    1    2  502    0  0.12875850383E+02 -0.59213440318E+02  0.10326681820E+03  0.11980620676E+03  0.41800000000E+01 0. -1.
         -5    1    1    2    0  502 -0.71620516012E+01  0.55060685561E+02  0.45087582664E+02  0.71647306914E+02  0.41800000000E+01 0.  1.
        -11    1    3    3    0    0  0.40428525369E+02 -0.11134785762E+02 -0.15183682453E+02  0.44598131467E+02  0.00000000000E+00 0. -1.
         11    1    3    3    0    0 -0.46142324151E+02  0.15287540519E+02 -0.30882661871E+01  0.48706882073E+02  0.00000000000E+00 0.  1.
</event>
<event>
 7    1  0.5137842E-006  0.1405149E+03  0.7561462E-02  0.1212638E+00
         -2   -1    0    0    0  501 -0.00000000000E+00  0.00000000000E+00  0.56165768164E+02  0.56165768164E+02  0.00000000000E+00 0.  1.
          2   -1    0    0  501    0  0.00000000000E+00 -0.00000000000E+00 -0.38388571893E+03  0.38388571893E+03  0.00000000000E+00 0. -1.
         23    2    1    2    0    0 -0.94584622815E+02 -0.27406492678E+02 -0.13734758316E+03  0.19188403801E+03  0.90872210983E+02 0.  0.
          5    1    1    2  502    0  0.55988548616E+02 -0.48232098872E+02 -0.94264473415E+02  0.11985122563E+03  0.41800000000E+01 0. -1.
         -5    1    1    2    0  502  0.38596074199E+02  0.75638591551E+02 -0.96107894191E+02  0.12831622345E+03  0.41800000000E+01 0. -1.
        -11    1    3    3    0    0 -0.75290821775E+02  0.13752475723E+02 -0.44567864807E+02  0.88567110179E+02  0.00000000000E+00 0.  1.
         11    1    3    3    0    0 -0.19293801040E+02 -0.41158968401E+02 -0.92779718358E+02  0.10331692783E+03  0.00000000000E+00 0. -1.
</event>
<event>
 7    1  0.5137842E-006  0.1555248E+03  0.7561462E-02  0.1193844E+00
         -4   -1    0    0    0  501 -0.00000000000E+00  0.00000000000E+00  0.30381771069E+03  0.30381771069E+03  0.00000000000E+00 0. -1.
          4   -1    0    0  501    0  0.00000000000E+00 -0.00000000000E+00 -0.85936625351E+02  0.85936625351E+02  0.00000000000E+00 0.  1.
         23    2    1    2    0    0 -0.11181294177E+03 -0.42331189481E+02  0.10408843246E+03  0.18265504262E+03  0.90743590797E+02 0.  0.
          5    1    1    2  502    0 -0.24244067103E+02 -0.99057906563E+01  0.11028276311E+02  0.28722721957E+02  0.41800000000E+01 0.  1.
         -5    1    1    2    0  502  0.13605700887E+03  0.52236980137E+02  0.10276437656E+03  0.17837657146E+03  0.41800000000E+01 0.  1.
        -11    1    3    3    0    0  0.56010476216E+01  0.89867790514E+01 -0.73067604322E+01  0.12865561791E+02  0.00000000000E+00 0.  1.
         11    1    3    3    0    0 -0.11741398939E+03 -0.51317968532E+02  0.11139519290E+03  0.16978948083E+03  0.00000000000E+00 0. -1.
</event>
<event>
 7    1  0.5137842E-006  0.1199930E+03  0.7561462E-02  0.1243109E+00
          1   -1    0    0  501    0  0.00000000000E+00  0.00000000000E+00  0.38287988507E+03  0.38287988507E+03  0.00000000000E+00 0. -1.
         -1   -1    0    0    0  501 -0.00000000000E+00 -0.00000000000E+00 -0.56391669925E+02  0.56391669925E+02  0.00000000000E+00 0.  1.
         23    2    1    2    0    0  0.84218190008E+02  0.16441054789E+02  0.22092800889E+03  0.25446494902E+03  0.92629441090E+02 0.  0.
          5    1    1    2  502    0 -0.15766863015E+02 -0.65187238436E+02  0.53194660992E+02  0.85703642759E+02  0.41800000000E+01 0.  1.
         -5    1    1    2    0  502 -0.68451326993E+02  0.48746183646E+02  0.52365545258E+02  0.99102963212E+02  0.41800000000E+01 0.  1.
        -11    1    3    3    0    0  0.40545204738E+02  0.19259060187E+02  0.20175076542E+03  0.20668380772E+03  0.00000000000E+00 0. -1.
         11    1    3    3    0    0  0.43672985269E+02 -0.28180053974E+01  0.19177243472E+02  0.47781141300E+02  0.00000000000E+00 0.  1.
</event>
<event>
 7    1  0.5137842E-006  0.1022169E+03  0.7561462E-02  0.1275702E+00
          1   -1    0    0  501    0  0.00000000000E+00  0.00000000000E+00  0.31108455720E+03  0.31108455720E+03  0.00000000000E+00 0. -1.
         -1   -1    0    0    0  501 -0.00000000000E+00 -0.00000000000E+00 -0.61414365559E+02  0.61414365559E+02  0.00000000000E+00 0.  1.
         23    2    1    2    0    0  0.48306722657E+02 -0.55570276694E+02  0.17108519546E+03  0.20746248218E+03  0.91372546749E+02 0.  0.
          5    1    1    2  502    0 -0.29518893832E+01 -0.29980280626E+02  0.58680537543E+02  0.66093938933E+02  0.41800000000E+01 0.  1.
         -5    1    1    2    0  502 -0.45354833273E+02  0.85550557321E+02  0.19904458638E+02  0.98942501650E+02  0.41800000000E+01 0.  1.
        -11    1    3    3    0    0  0.23530512695E+02 -0.43688318488E+02  0.17294352413E+03  0.17992169613E+03  0.00000000000E+00 0. -1.
         11    1    3    3    0    0  0.24776209962E+02 -0.11881958206E+02 -0.18583286642E+01  0.27540786051E+02  0.00000000000E+00 0.  1.
</event>
<event>
 7    1  0.5137842E-006  0.1175068E+03  0.7561462E-02  0.1247268E+00
          2   -1    0    0  501    0  0.00000000000E+00  0.00000000000E+00  0.25047235762E+03  0.25047235762E+03  0.00000000000E+00 0. -1.
         -2   -1    0    0    0  501 -0.00000000000E+00 -0.00000000000E+00 -0.71193241235E+02  0.71193241235E+02  0.00000000000E+00 0.  1.
         23    2    1    2    0    0  0.44676917304E+02  0.14999260837E+02  0.15369150428E+03  0.18556722994E+03  0.92699048408E+02 0.  0.
          5    1    1    2  502    0 -0.38261093257E+02 -0.68123515598E+02  0.25913966910E+02  0.82424090627E+02  0.41800000000E+01 0. -1.
         -5    1    1    2    0  502 -0.64158240474E+01  0.53124254761E+02 -0.32635480134E+00  0.53674278287E+02  0.41800000000E+01 0. -1.
        -11    1    3    3    0    0  0.60672209380E+02 -0.20595227152E+02  0.83406361852E+02  0.10517557497E+03  0.00000000000E+00 0.  1.
         11    1    3    3    0    0 -0.15995292075E+02  0.35594487988E+02  0.70285142424E+02  0.80391654973E+02  0.00000000000E+00 0. -1.
</event>
<event>
 7    1  0.5137842E-006  0.1074748E+03  0.7561462E-02  0.1265319E+00
          2   -1    0    0  501    0  0.00000000000E+00  0.00000000000E+00  0.38870525293E+02  0.38870525293E+02  0.00000000000E+00 0. -1.
         -2   -1    0    0    0  501 -0.00000000000E+00 -0.00000000000E+00 -0.34141106462E+03  0.34141106462E+03  0.00000000000E+00 0.  1.
         23    2    1    2    0    0  0.29062304259E+02 -0.20298417643E+02 -0.99491474925E+02  0.13917433012E+03  0.90632760599E+02 0.  0.
          5    1    1    2  502    0 -0.65528850120E+02  0.40958512612E+02 -0.17253222562E+03  0.18909381595E+03  0.41800000000E+01 0.  1.
         -5    1    1    2    0  502  0.36466545861E+02 -0.20660094969E+02 -0.30516838783E+02  0.52013443843E+02  0.41800000000E+01 0.  1.
        -11    1    3    3    0    0 -0.27294861893E+02 -0.27354362982E+02 -0.27276591484E+02  0.47299927092E+02  0.00000000000E+00 0.  1.
         11    1    3    3    0    0  0.56357166152E+02  0.70559453383E+01 -0.72214883441E+02  0.91874403027E+02  0.00000000000E+00 0. -1.
</event>
<event>
 7    1  0.5137842E-006  0.1374996E+03  0.7561462E-02  0.1216734E+00
         -2   -1    0    0    0  501 -0.00000000000E+00  0.00000000000E+00  0.18580579558E+02  0.18580579558E+02  0.00000000000E+00 0.  1.
          2   -1    0    0  501    0  0.00000000000E+00 -0.00000000000E+00 -0.13603383857E+04  0.13603383857E+04  0.00000000000E+00 0. -1.
         23    2    1    2    0    0 -0.76690666335E+02 -0.76456658313E+02 -0.45324166770E+03  0.47513208985E+03  0.92711458595E+02 0.  0.
          5    1    1    2  502    0  0.86180612404E+02  0.28630937739E+02 -0.77307206629E+03  0.77839881849E+03  0.41800000000E+01 0.  1.
         -5    1    1    2    0  502 -0.94899460689E+01  0.47825720574E+02 -0.11544407216E+03  0.12538805694E+03  0.41800000000E+01 0.  1.
        -11    1    3    3    0    0 -0.72709437462E+01 -0.64261233280E+02 -0.14236457817E+03  0.15636510430E+03  0.00000000000E+00 0.  1.
         11    1    3    3    0    0 -0.69419722589E+02 -0.12195425033E+02 -0.31087708953E+03  0.31876698554E+03  0.00000000000E+00 0. -1.
</event>
<event>
 7    1  0.5137842E-006  0.1067529E+03  0.7561462E-02  0.1266704E+00
          1   -1    0    0  501    0  0.00000000000E+00  0.00000000000E+00  0.44743579947E+03  0.44743579947E+03  0.00000000000E+00 0. -1.
         -1   -1    0    0    0  501 -0.00000000000E+00 -0.00000000000E+00 -0.28258323473E+02  0.28258323473E+02  0.00000000000E+00 0.  1.
         23    2    1    2    0    0  0.14970531455E+02  0.12494554815E+02  0.23213239949E+03  0.24982771159E+03  0.90267402042E+02 0.  0.
          5    1    1    2  502    0 -0.11890985712E+02 -0.67605227266E+02  0.12537274728E+03  0.14299531620E+03  0.41800000000E+01 0. -1.
         -5    1    1    2    0  502 -0.30795457435E+01  0.55110672452E+02  0.61672329234E+02  0.82871095161E+02  0.41800000000E+01 0. -1.
        -11    1    3    3    0    0  0.91559664248E+00  0.49648765961E+02  0.15938399264E+03  0.16694039472E+03  0.00000000000E+00 0. -1.
         11    1    3    3    0    0  0.14054934813E+02 -0.37154211146E+02  0.72748406852E+02  0.82887316870E+02  0.00000000000E+00 0.  1.
</event>
<event>
 7    1  0.5137842E-006  0.2154521E+03  0.7561462E-02  0.1137320E+00
         -2   -1    0    0    0  501 -0.00000000000E+00  0.00000000000E+00  0.75994746381E+02  0.75994746381E+02  0.00000000000E+00 0.  1.
          2   -1    0    0  501    0  0.00000000000E+00 -0.00000000000E+00 -0.71573178932E+03  0.71573178932E+03  0.00000000000E+00 0. -1.
         23    2    1    2    0    0 -0.41762766244E+02 -0.20127936517E+03 -0.33359934869E+03  0.40233606713E+03  0.91259377491E+02 0.  0.
          5    1    1    2  502    0  0.56525163726E+01  0.44587347434E+02 -0.17829887576E+03  0.18392374504E+03  0.41800000000E+01 0. -1.
         -5    1    1    2    0  502  0.36110249872E+02  0.15669201773E+03 -0.12783881849E+03  0.20546672353E+03  0.41800000000E+01 0. -1.
        -11    1    3    3    0    0 -0.40857365092E+02 -0.23505075859E+02 -0.70093489959E+02  0.84468397688E+02  0.00000000000E+00 0.  1.
         11    1    3    3    0    0 -0.90540115263E+00 -0.17777428931E+03 -0.26350585873E+03  0.31786766944E+03  0.00000000000E+00 0. -1.
</event>
<event>
 7    1  0.5137842E-006  0.1085742E+03  0.7561462E-02  0.1263233E+00
          2   -1    0    0  501    0  0.00000000000E+00  0.00000000000E+00  0.47810783323E+03  0.47810783323E+03  0.00000000000E+00 0. -1.
         -2   -1    0    0    0  501 -0.00000000000E+00 -0.00000000000E+00 -0.42097214892E+02  0.42097214892E+02  0.00000000000E+00 0.  1.
         23    2    1    2    0    0  0.75197005671E+02  0.51309645005E+02  0.19725165158E+03  0.23570491794E+03  0.91440280823E+02 0.  0.
          5    1    1    2  502    0 -0.61764516346E+02 -0.49254796050E+02  0.25257581820E+03  0.26467509658E+03  0.41800000000E+01 0.  1.
         -5    1    1    2    0  502 -0.13432489325E+02 -0.20548489554E+01 -0.13816851437E+02  0.19825033602E+02  0.41800000000E+01 0.  1.
        -11    1    3    3    0    0  0.46787156474E+02  0.73940244812E+02  0.10573923016E+03  0.13724788745E+03  0.00000000000E+00 0.  1.
         11    1    3    3    0    0  0.28409849197E+02 -0.22630599807E+02  0.91512421423E+02  0.98457030494E+02  0.00000000000E+00 0. -1.
</event>
<event>
 7    1  0.5137842E-006  0.1155103E+03  0.7561462E-02  0.1250693E+00
         -2   -1    0    0    0  501 -0.00000000000E+00  0.00000000000E+00  0.11901478886E+03  0.11901478886E+03  0.00000000000E+00 0.  1.
          2   -1    0    0  501    0  0.00000000000E+00 -0.00000000000E+00 -0.14943238797E+03  0.14943238797E+03  0.00000000000E+00 0. -1.
         23    2    1    2    0    0 -0.63405188227E+01  0.51961732087E+02 -0.74581238717E+02  0.12583093423E+03  0.86780407126E+02 0.  0.
          5    1    1    2  502    0 -0.23997833545E+02  0.35116405033E+02  0.20077409313E+02  0.47218986457E+02  0.41800000000E+01 0.  1.
         -5    1    1    2    0  502  0.30338352368E+02 -0.87078137120E+02  0.24086230303E+02  0.95397256140E+02  0.41800000000E+01 0.  1.
        -11    1    3    3    0    0 -0.36123770613E+02  0.55250652370E+02 -0.68738383156E+02  0.95302291208E+02  0.00000000000E+00 0. -1.
         11    1    3    3    0    0  0.29783251791E+02 -0.32889202825E+01 -0.58428555614E+01  0.30528643025E+02  0.00000000000E+00 0.  1.
</event>
<event>
 7    1  0.5137842E-006  0.1024846E+03  0.7561462E-02  0.1275156E+00
          1   -1    0    0  501    0  0.00000000000E+00  0.00000000000E+00  0.44645001135E+02  0.44645001135E+02  0.00000000000E+00 0. -1.
         -1   -1    0    0    0  501 -0.00000000000E+00 -0.00000000000E+00 -0.32332358337E+03  0.32332358337E+03  0.00000000000E+00 0.  1.
         23    2    1    2    0    0  0.23141701325E+02 -0.23572879907E+02 -0.53827478482E+02  0.10855269371E+03  0.88289698518E+02 0.  0.
          5    1    1    2  502    0  0.23440563216E+02 -0.40588353810E+02 -0.11150145296E+03  0.12102446398E+03  0.41800000000E+01 0.  1.
         -5    1    1    2    0  502 -0.46582264542E+02  0.64161233717E+02 -0.11334965080E+03  0.13839142682E+03  0.41800000000E+01 0.  1.
        -11    1    3    3    0    0 -0.21275689401E+02  0.93362706881E+01  0.89561139801E+01  0.24900459583E+02  0.00000000000E+00 0. -1.
         11    1    3    3    0    0  0.44417390726E+02 -0.32909150595E+02 -0.62783592462E+02  0.83652234126E+02  0.00000000000E+00 0.  1.
</event>
<event>
 7    1  0.5137842E-006  0.1687050E+03  0.7561462E-02  0.1179205E+00
          3   -1    0    0  501    0  0.00000000000E+00  0.00000000000E+00  0.16708901407E+03  0.16708901407E+03  0.00000000000E+00 0. -1.
         -3   -1    0    0    0  501 -0.00000000000E+00 -0.00000000000E+00 -0.20795221199E+03  0.20795221199E+03  0.00000000000E+00 0.  1.
         23    2    1    2    0    0  0.13701568588E+03  0.39600006892E+02 -0.68433753016E+02  0.18334163014E+03  0.92679642129E+02 0.  0.
          5    1    1    2  502    0 -0.50994455808E+02 -0.77334042674E+02 -0.31511738437E+01  0.92781415036E+02  0.41800000000E+01 0.  1.
         -5    1    1    2    0  502 -0.86021230077E+02  0.37734035782E+02  0.30721728935E+02  0.98918180882E+02  0.41800000000E+01 0.  1.
        -11    1    3    3    0    0  0.64216952526E+02  0.43806202791E+02 -0.77610633082E+02  0.10984630518E+03  0.00000000000E+00 0.  1.
         11    1    3    3    0    0  0.72798733359E+02 -0.42061958993E+01  0.91768800656E+01  0.73495324956E+02  0.00000000000E+00 0. -1.
</event>
<event>
 7    1  0.5137842E-006  0.6218081E+02  0.7561462E-02  0.1388901E+00
         -1   -1    0    0    0  501 -0.00000000000E+00  0.00000000000E+00  0.99546614649E+02  0.99546614649E+02  0.00000000000E+00 0.  1.
          1   -1    0    0  501    0  0.00000000000E+00 -0.00000000000E+00 -0.13165569346E+03  0.13165569346E+03  0.00000000000E+00 0. -1.
         23    2    1    2    0    0  0.19426954770E+02  0.36119933364E+02 -0.25312860886E+02  0.99325837885E+02  0.86849438613E+02 0.  0.
          5    1    1    2  502    0 -0.11113702056E+02  0.23402093909E+01  0.56197468656E+02  0.57485814222E+02  0.41800000000E+01 0.  1.
         -5    1    1    2    0  502 -0.83132527136E+01 -0.38460142755E+02 -0.62993686586E+02  0.74390656007E+02  0.41800000000E+01 0.  1.
        -11    1    3    3    0    0  0.67341522634E+00 -0.16661759314E+02 -0.38346351831E+02  0.41815193534E+02  0.00000000000E+00 0. -1.
         11    1    3    3    0    0  0.18753539543E+02  0.52781692679E+02  0.13033490945E+02  0.57510644351E+02  0.00000000000E+00 0.  1.
</event>
<event>
 7    1  0.5137842E-006  0.9963096E+02  0.7561462E-02  0.1281074E+00
          2   -1    0    0  501    0  0.00000000000E+00  0.00000000000E+00  0.11492045588E+03  0.11492045588E+03  0.00000000000E+00 0.  1.
         -2   -1    0    0    0  501 -0.00000000000E+00 -0.00000000000E+00 -0.11739924392E+03  0.11739924392E+03  0.00000000000E+00 0. -1.
         23    2    1    2    0    0 -0.14345251166E+02 -0.10107616392E+02  0.35739295994E+02  0.10035196750E+03  0.92115525089E+02 0.  0.
          5    1    1    2  502    0  0.59100042303E+02 -0.27112827059E+01  0.14960021240E+02  0.61167317168E+02  0.41800000000E+01 0. -1.
         -5    1    1    2    0  502 -0.44754791136E+02  0.12818899098E+02 -0.53178105267E+02  0.70800415136E+02  0.41800000000E+01 0. -1.
        -11    1    3    3    0    0 -0.53298463051E+02 -0.15104169222E+01  0.25840413146E+02  0.59251451243E+02  0.00000000000E+00 0. -1.
         11    1    3    3    0    0  0.38953211884E+02 -0.85971994702E+01  0.98988828472E+01  0.41100516255E+02  0.00000000000E+00 0.  1.
</event>
<event>
 7    1  0.5137842E-006  0.1531342E+03  0.7561462E-02  0.1196674E+00
          1   -1    0    0  501    0  0.00000000000E+00  0.00000000000E+00  0.39625246061E+02  0.39625246061E+02  0.00000000000E+00 0. -1.
         -1   -1    0    0    0  501 -0.00000000000E+00 -0.00000000000E+00 -0.66779178718E+03  0.66779178718E+03  0.00000000000E+00 0.  1.
         23    2    1    2    0    0 -0.11746300514E+03 -0.26002426976E+02 -0.32382469232E+03  0.35706366376E+03  0.90323556383E+02 0.  0.
          5    1    1    2  502    0  0.28800715256E+02  0.60399293123E+02 -0.19051703476E+03  0.20196972234E+03  0.41800000000E+01 0.  1.
         -5    1    1    2    0  502  0.88662289880E+02 -0.34396866147E+02 -0.11382481405E+03  0.14838364714E+03  0.41800000000E+01 0.  1.
        -11    1    3    3    0    0 -0.76279824499E+02  0.23330091699E+02 -0.22916691252E+03  0.24265279433E+03  0.00000000000E+00 0.  1.
         11    1    3    3    0    0 -0.41183180638E+02 -0.49332518675E+02 -0.94657779799E+02  0.11441086943E+03  0.00000000000E+00 0. -1.
</event>
<event>
 7    1  0.5137842E-006  0.1180026E+03  0.7561462E-02  0.1246429E+00
         -1   -1    0    0    0  501 -0.00000000000E+00  0.00000000000E+00  0.38282394218E+02  0.38282394218E+02  0.00000000000E+00 0.  1.
          1   -1    0    0  501    0  0.00000000000E+00 -0.00000000000E+00 -0.51662774539E+03  0.51662774539E+03  0.00000000000E+00 0. -1.
         23    2    1    2    0    0  0.28638084546E+02 -0.71032099794E+02 -0.30585154699E+03  0.32848877680E+03  0.92162945895E+02 0.  0.
          5    1    1    2  502    0  0.33795657715E+02  0.21381199401E+02 -0.12972418619E+03  0.13581288249E+03  0.41800000000E+01 0. -1.
         -5    1    1    2    0  502 -0.62433742261E+02  0.49650900393E+02 -0.42769617988E+02  0.90608480317E+02  0.41800000000E+01 0. -1.
        -11    1    3    3    0    0 -0.12289853091E+02 -0.73875272703E+02 -0.23467188808E+03  0.24633207558E+03  0.00000000000E+00 0. -1.
         11    1    3    3    0    0  0.40927937637E+02  0.28431729094E+01 -0.71179658915E+02  0.82156701216E+02  0.00000000000E+00 0.  1.
</event>
<event>
 7    1  0.5137842E-006  0.1256440E+03  0.7561462E-02  0.1234066E+00
          1   -1    0    0  501    0  0.00000000000E+00  0.00000000000E+00  0.63386042890E+02  0.63386042890E+02  0.00000000000E+00 0. -1.
         -1   -1    0    0    0  501 -0.00000000000E+00 -0.00000000000E+00 -0.32494727639E+03  0.32494727639E+03  0.00000000000E+00 0.  1.
         23    2    1    2    0    0 -0.38923968564E+01 -0.81123071363E+02 -0.56269215006E+02  0.13458436297E+03  0.91381741821E+02 0.  0.
          5    1    1    2  502    0 -0.48083426945E+02  0.32873093910E+02 -0.32291761369E+02  0.66729952063E+02  0.41800000000E+01 0. -1.
         -5    1    1    2    0  502  0.51975823802E+02  0.48249977452E+02 -0.17300025712E+03  0.18701900424E+03  0.41800000000E+01 0. -1.
        -11    1    3    3    0    0  0.43355755421E+02 -0.33766053046E+02 -0.19932185757E+02  0.58456478644E+02  0.00000000000E+00 0. -1.
         11    1    3    3    0    0 -0.47248152277E+02 -0.47357018316E+02 -0.36337029249E+02  0.76127884327E+02  0.00000000000E+00 0.  1.
</event>
<event>
 7    1  0.5137842E-006  0.1108980E+03  0.7561462E-02  0.1258916E+00
         -2   -1    0    0    0  501 -0.00000000000E+00  0.00000000000E+00  0.37696404610E+03  0.37696404610E+03  0.00000000000E+00 0. -1.
          2   -1    0    0  501    0  0.00000000000E+00 -0.00000000000E+00 -0.45842902289E+02  0.45842902289E+02  0.00000000000E+00 0.  1.
         23    2    1    2    0    0  0.28849598942E+02 -0.40572757630E+02  0.59237474729E+02  0.11941570986E+03  0.90953753795E+02 0.  0.
          5    1    1    2  502    0 -0.74573015196E+02  0.61624652437E+01  0.12563568475E+03  0.14629049271E+03  0.41800000000E+01 0. -1.
         -5    1    1    2    0  502  0.45723416254E+02  0.34410292387E+02  0.14624798433E+03  0.15710074582E+03  0.41800000000E+01 0. -1.
        -11    1    3    3    0    0  0.19680885658E+02 -0.62597121304E+02  0.67529341131E+02  0.94159167209E+02  0.00000000000E+00 0. -1.
         11    1    3    3    0    0  0.91687132838E+01  0.22024363674E+02 -0.82918664020E+01  0.25256542656E+02  0.00000000000E+00 0.  1.
</event>
<event>
 7    1  0.5137842E-006  0.1251775E+03  0.7561462E-02  0.1234792E+00
          3   -1    0    0  501    0  0.00000000000E+00  0.00000000000E+00  0.73701580073E+02  0.73701580073E+02  0.00000000000E+00 0. -1.
         -3   -1    0    0    0  501 -0.00000000000E+00 -0.00000000000E+00 -0.28435031408E+03  0.28435031408E+03  0.00000000000E+00 0.  1.
         23    2    1    2    0    0 -0.66319258420E+02 -0.43643843321E+02 -0.51418419672E+02  0.14055531338E+03  0.10396592297E+03 0.  0.
          5    1    1    2  502    0  0.28820938121E+02 -0.35587521005E+02 -0.10424529170E+03  0.11393713779E+03  0.41800000000E+01 0.  1.
         -5    1    1    2    0  502  0.37498320299E+02  0.79231364326E+02 -0.54985022634E+02  0.10355944299E+03  0.41800000000E+01 0.  1.
        -11    1    3    3    0    0  0.18119806087E+02 -0.23732149470E+02 -0.44414388511E+02  0.53518036193E+02  0.00000000000E+00 0.  1.
         11    1    3    3    0    0 -0.84439064507E+02 -0.19911693852E+02 -0.70040311609E+01  0.87037277183E+02  0.00000000000E+00 0. -1.
</event>
<event>
 7    1  0.5137842E-006  0.1174958E+03  0.7561462E-02  0.1247286E+00
         -3   -1    0    0    0  501 -0.00000000000E+00  0.00000000000E+00  0.23968639531E+02  0.23968639531E+02  0.00000000000E+00 0.  1.
          3   -1    0    0  501    0  0.00000000000E+00 -0.00000000000E+00 -0.70984562259E+03  0.70984562259E+03  0.00000000000E+00 0. -1.
         23    2    1    2    0    0  0.18090099393E+02  0.58840566418E+02 -0.41325898788E+03  0.42761506475E+03  0.91006530484E+02 0.  0.
          5    1    1    2  502    0 -0.53598914771E+02  0.33006395053E+01 -0.54602629862E+02  0.76698484168E+02  0.41800000000E+01 0.  1.
         -5    1    1    2    0  502  0.35508815379E+02 -0.62141205923E+02 -0.21801536532E+03  0.22950071320E+03  0.41800000000E+01 0.  1.
        -11    1    3    3    0    0 -0.37086117811E+02  0.24398550338E+02 -0.14927141950E+03  0.15573254660E+03  0.00000000000E+00 0.  1.
         11    1    3    3    0    0  0.55176217204E+02  0.34442016080E+02 -0.26398756838E+03  0.27188251815E+03  0.00000000000E+00 0. -1.
</event>
<event>
 7    1  0.5137842E-006  0.1300926E+03  0.7561462E-02  0.1227318E+00
         -2   -1    0    0    0  501 -0.00000000000E+00  0.00000000000E+00  0.38713122261E+02  0.38713122261E+02  0.00000000000E+00 0.  1.
          2   -1    0    0  501    0  0.00000000000E+00 -0.00000000000E+00 -0.72633666835E+03  0.72633666835E+03  0.00000000000E+00 0. -1.
         23    2    1    2    0    0  0.21578484297E+02  0.12259209196E+03 -0.25898686367E+03  0.30150823822E+03  0.91315771726E+02 0.  0.
          5    1    1    2  502    0  0.10465225035E+02 -0.34958383247E+01 -0.22585477765E+03  0.22616276176E+03  0.41800000000E+01 0. -1.
         -5    1    1    2    0  502 -0.32043709331E+02 -0.11909625364E+03 -0.20278190477E+03  0.23737879063E+03  0.41800000000E+01 0. -1.
        -11    1    3    3    0    0  0.36118917749E+01  0.52554590836E+02 -0.28390961226E+02  0.59842104404E+02  0.00000000000E+00 0.  1.
         11    1    3    3    0    0  0.17966592522E+02  0.70037501127E+02 -0.23059590244E+03  0.24166613382E+03  0.00000000000E+00 0. -1.
</event>
<event>
 7    1  0.5137842E-006  0.5995214E+03  0.7561462E-02  0.9906399E-01
          2   -1    0    0  501    0  0.00000000000E+00  0.00000000000E+00  0.10625559641E+04  0.10625559641E+04  0.00000000000E+00 0. -1.
         -2   -1    0    0    0  501 -0.00000000000E+00 -0.00000000000E+00 -0.45388615219E+03  0.45388615219E+03  0.00000000000E+00 0.  1.
         23    2    1    2    0    0  0.12355562696E+03  0.45545282751E+02  0.40712749624E+03  0.43748020119E+03  0.91081076499E+02 0.  0.
          5    1    1    2  502    0  0.21421090857E+03  0.42760771134E+03  0.77521517375E+02  0.48452216276E+03  0.41800000000E+01 0. -1.
         -5    1    1    2    0  502 -0.33776653553E+03 -0.47315299409E+03  0.12402079828E+03  0.59443975233E+03  0.41800000000E+01 0.  1.
        -11    1    3    3    0    0  0.38691461537E+02  0.37957452279E+02  0.63688997349E+02  0.83630650857E+02  0.00000000000E+00 0.  1.
         11    1    3    3    0    0  0.84864165428E+02  0.75878304721E+01  0.34343849890E+03  0.35384955033E+03  0.00000000000E+00 0. -1.
</event>
<event>
 7    1  0.5137842E-006  0.1206275E+03  0.7561462E-02  0.1242065E+00
          4   -1    0    0  501    0  0.00000000000E+00  0.00000000000E+00  0.27254409527E+03  0.27254409527E+03  0.00000000000E+00 0. -1.
         -4   -1    0    0    0  501 -0.00000000000E+00 -0.00000000000E+00 -0.56802683494E+02  0.56802683494E+02  0.00000000000E+00 0.  1.
         23    2    1    2    0    0  0.46742436894E+02  0.17397333684E+02  0.12990549322E+03  0.16966124178E+03  0.97066869568E+02 0.  0.
          5    1    1    2  502    0  0.19324600398E+02  0.41545362932E+02  0.28588578497E+02  0.54168594058E+02  0.41800000000E+01 0. -1.
         -5    1    1    2    0  502 -0.66067037291E+02 -0.58942696616E+02  0.57247340059E+02  0.10551694293E+03  0.41800000000E+01 0. -1.
        -11    1    3    3    0    0  0.50303630295E+02 -0.30335133331E+02  0.89322470230E+02  0.10690733943E+03  0.00000000000E+00 0. -1.
         11    1    3    3    0    0 -0.35611934015E+01  0.47732467015E+02  0.40583022992E+02  0.62753902356E+02  0.00000000000E+00 0.  1.
</event>
<event>
 7    1  0.5137842E-006  0.6189805E+02  0.7561462E-02  0.1390035E+00
          2   -1    0    0  501    0  0.00000000000E+00  0.00000000000E+00  0.16666185579E+03  0.16666185579E+03  0.00000000000E+00 0. -1.
         -2   -1    0    0    0  501 -0.00000000000E+00 -0.00000000000E+00 -0.18990988303E+03  0.18990988303E+03  0.00000000000E+00 0.  1.
         23    2    1    2    0    0 -0.20791827112E+02 -0.23983313449E+02  0.11737665818E+03  0.13464538481E+03  0.57832519973E+02 0.  0.
          5    1    1    2  502    0  0.60115232545E+01  0.40919466727E+02  0.29052590163E+02  0.50715545587E+02  0.41800000000E+01 0. -1.
         -5    1    1    2    0  502  0.14780303858E+02 -0.16936153277E+02 -0.16967727559E+03  0.17121080842E+03  0.41800000000E+01 0.  1.
        -11    1    3    3    0    0 -0.12452173631E+02  0.15001304501E+02  0.70314136765E+02  0.72966934936E+02  0.00000000000E+00 0.  1.
         11    1    3    3    0    0 -0.83396534812E+01 -0.38984617951E+02  0.47062521415E+02  0.61678449874E+02  0.00000000000E+00 0. -1.
</event>
<event>
 7    1  0.5137842E-006  0.1795009E+03  0.7561462E-02  0.1168287E+00
          3   -1    0    0  501    0  0.00000000000E+00  0.00000000000E+00  0.86461574141E+02  0.86461574141E+02  0.00000000000E+00 0. -1.
         -3   -1    0    0    0  501 -0.00000000000E+00 -0.00000000000E+00 -0.47167366664E+03  0.47167366664E+03  0.00000000000E+00 0.  1.
         23    2    1    2    0    0  0.72030246910E+02 -0.15140212467E+03 -0.14357700664E+03  0.23853452579E+03  0.90406876598E+02 0.  0.
          5    1    1    2  502    0 -0.37333917470E+02  0.15179950077E+03 -0.13236569754E+03  0.20487815919E+03  0.41800000000E+01 0.  1.
         -5    1    1    2    0  502 -0.34696329440E+02 -0.39737610321E+00 -0.10926938832E+03  0.11472255579E+03  0.41800000000E+01 0.  1.
        -11    1    3    3    0    0  0.30384826521E+02 -0.61748575495E+02 -0.11771113260E+03  0.13635261272E+03  0.00000000000E+00 0.  1.
         11    1    3    3    0    0  0.41645420389E+02 -0.89653549174E+02 -0.25865874038E+02  0.10218191307E+03  0.00000000000E+00 0. -1.
</event>
<event>
 7    1  0.5137842E-006  0.1363047E+03  0.7561462E-02  0.1218389E+00
          2   -1    0    0  501    0  0.00000000000E+00  0.00000000000E+00  0.47482956519E+03  0.47482956519E+03  0.00000000000E+00 0.  1.
         -2   -1    0    0    0  501 -0.00000000000E+00 -0.00000000000E+00 -0.10884672310E+03  0.10884672310E+03  0.00000000000E+00 0. -1.
         23    2    1    2    0    0  0.92414398752E+02 -0.84772612588E+02  0.37409947856E+03  0.40634640250E+03  0.97160496189E+02 0.  0.
          5    1    1    2  502    0 -0.46280542628E+02  0.89284228343E+02  0.41884344190E+02  0.10901987317E+03  0.41800000000E+01 0. -1.
         -5    1    1    2    0  502 -0.46133856124E+02 -0.45116157548E+01 -0.50000980666E+02  0.68310012627E+02  0.41800000000E+01 0. -1.
        -11    1    3    3    0    0  0.49702701393E+02 -0.44645443796E+02  0.70443344662E+02  0.97086760089E+02  0.00000000000E+00 0. -1.
         11    1    3    3    0    0  0.42711697359E+02 -0.40127168793E+02  0.30365613390E+03  0.30925964241E+03  0.00000000000E+00 0.  1.
</event>
<event>
 7    1  0.5137842E-006  0.9672595E+02  0.7561462E-02  0.1287335E+00
          3   -1    0    0  501    0  0.00000000000E+00  0.00000000000E+00  0.64109720204E+02  0.64109720204E+02  0.00000000000E+00 0. -1.
         -3   -1    0    0    0  501 -0.00000000000E+00 -0.00000000000E+00 -0.21910642474E+03  0.21910642474E+03  0.00000000000E+00 0.  1.
         23    2    1    2    0    0  0.36457255591E+02 -0.19700832977E+02 -0.36188113536E+02  0.10575905185E+03  0.90322440081E+02 0.  0.
          5    1    1    2  502    0 -0.74045506579E+02 -0.63634181104E+01 -0.35821168044E+02  0.82606649941E+02  0.41800000000E+01 0.  1.
         -5    1    1    2    0  502  0.37588250988E+02  0.26064251087E+02 -0.82987422957E+02  0.94850443152E+02  0.41800000000E+01 0.  1.
        -11    1    3    3    0    0  0.52770798840E+02 -0.88908082980E+01 -0.56314897095E+02  0.77686365066E+02  0.00000000000E+00 0.  1.
         11    1    3    3    0    0 -0.16313543249E+02 -0.10810024679E+02  0.20126783559E+02  0.28072686785E+02  0.00000000000E+00 0. -1.
</event>
<event>
 7    1  0.5137842E-006  0.1287201E+03  0.7561462E-02  0.1229367E+00
          1   -1    0    0  501    0  0.00000000000E+00  0.00000000000E+00  0.70998482656E+02  0.70998482656E+02  0.00000000000E+00 0.  1.
         -1   -1    0    0    0  501 -0.00000000000E+00 -0.00000000000E+00 -0.30359269587E+03  0.30359269587E+03  0.00000000000E+00 0. -1.
         23    2    1    2    0    0  0.15713282846E+02 -0.89630870783E+02 -0.51921054194E+02  0.13673928364E+03  0.87870561440E+02 0.  0.
          5    1    1    2  502    0  0.39205645696E+02  0.14147034812E+02 -0.96801300141E+01  0.42993006007E+02  0.41800000000E+01 0.  1.
         -5    1    1    2    0  502 -0.54918928541E+02  0.75483835971E+02 -0.17099302901E+03  0.19485888888E+03  0.41800000000E+01 0.  1.
        -11    1    3    3    0    0  0.73724237156E+01 -0.10466081776E+03 -0.56202277515E+02  0.11902493606E+03  0.00000000000E+00 0. -1.
         11    1    3    3    0    0  0.83408591301E+01  0.15029946979E+02  0.42812233215E+01  0.17714347585E+02  0.00000000000E+00 0.  1.
</event>
<event>
 7    1  0.5137842E-006  0.8860437E+02  0.7561462E-02  0.1306267E+00
         -1   -1    0    0    0  501 -0.00000000000E+00  0.00000000000E+00  0.55022737911E+02  0.55022737911E+02  0.00000000000E+00 0.  1.
          1   -1    0    0  501    0  0.00000000000E+00 -0.00000000000E+00 -0.28925292201E+03  0.28925292201E+03  0.00000000000E+00 0. -1.
         23    2    1    2    0    0  0.37444833569E+02 -0.54317874451E+02 -0.10899509169E+03  0.15536501326E+03  0.88914623588E+02 0.  0.
          5    1    1    2  502    0 -0.51586576461E+00  0.10796510785E+02  0.25319361257E+02  0.27845524184E+02  0.41800000000E+01 0. -1.
         -5    1    1    2    0  502 -0.36928967804E+02  0.43521363666E+02 -0.15055445367E+03  0.16106512248E+03  0.41800000000E+01 0. -1.
        -11    1    3    3    0    0  0.64703269424E+02 -0.47569450603E+02 -0.65691099393E+02  0.10375300595E+03  0.00000000000E+00 0.  1.
         11    1    3    3    0    0 -0.27258435855E+02 -0.67484238471E+01 -0.43303992295E+02  0.51612007309E+02  0.00000000000E+00 0. -1.
</event>
<event>
 7    1  0.5137842E-006  0.1137665E+03  0.7561462E-02  0.1253750E+00
         -3   -1    0    0    0  501 -0.00000000000E+00  0.00000000000E+00  0.15110573695E+03  0.15110573695E+03  0.00000000000E+00 0.  1.
          3   -1    0    0  501    0  0.00000000000E+00 -0.00000000000E+00 -0.13170373842E+03  0.13170373842E+03  0.00000000000E+00 0. -1.
         23    2    1    2    0    0  0.38586017811E+02 -0.24247385248E+02 -0.24897301365E+02  0.10378338157E+03  0.89857098840E+02 0.  0.
          5    1    1    2  502    0 -0.59350461193E+02 -0.35503363967E+02 -0.34901066057E+02  0.77579139649E+02  0.41800000000E+01 0. -1.
         -5    1    1    2    0  502  0.20764443383E+02  0.59750749215E+02  0.79200365956E+02  0.10144695416E+03  0.41800000000E+01 0.  1.
        -11    1    3    3    0    0  0.37618848118E+01  0.30084971538E+02  0.79866875040E+01  0.31353539945E+02  0.00000000000E+00 0.  1.
         11    1    3    3    0    0  0.34824132999E+02 -0.54332356787E+02 -0.32883988869E+02  0.72429841620E+02  0.00000000000E+00 0. -1.
</event>
<event>
 6    1  0.5137842E-006  0.1248814E+03  0.7561462E-02  0.1235255E+00
          2   -1    0    0  501    0  0.00000000000E+00  0.00000000000E+00  0.40431903614E+03  0.40431903614E+03  0.00000000000E+00 0. -1.
         -2   -1    0    0    0  501 -0.00000000000E+00 -0.00000000000E+00 -0.64560509708E+02  0.64560509708E+02  0.00000000000E+00 0.  1.
          5    1    1    2  502    0  0.63765311576E+02  0.50697094170E+02  0.13445204054E+03  0.15726103752E+03  0.41800000000E+01 0.  1.
         -5    1    1    2    0  502 -0.14599987035E+02  0.14519311023E+02 -0.21477656601E+02  0.30045501278E+02  0.41800000000E+01 0.  1.
        -11    1    1    2    0    0 -0.76982982475E+02 -0.83749819972E+02  0.21970127223E+03  0.24740465023E+03  0.00000000000E+00 0. -1.
         11    1    1    2    0    0  0.27817657935E+02  0.18533414779E+02  0.70828702634E+01  0.34168356816E+02  0.00000000000E+00 0.  1.
</event>
<event>
 7    1  0.5137842E-006  0.9062603E+02  0.7561462E-02  0.1301343E+00
          2   -1    0    0  501    0  0.00000000000E+00  0.00000000000E+00  0.12106204607E+03  0.12106204607E+03  0.00000000000E+00 0. -1.
         -2   -1    0    0    0  501 -0.00000000000E+00 -0.00000000000E+00 -0.13503443735E+03  0.13503443735E+03  0.00000000000E+00 0.  1.
         23    2    1    2    0    0 -0.55345107910E+02  0.29002691962E+02  0.17935597534E+02  0.11267262065E+03  0.92028238466E+02 0.  0.
          5    1    1    2  502    0 -0.46824127445E+01 -0.25616024593E+01 -0.68069858277E+02  0.68406613731E+02  0.41800000000E+01 0. -1.
         -5    1    1    2    0  502  0.60027520655E+02 -0.26441089503E+02  0.36161869466E+02  0.75017249039E+02  0.41800000000E+01 0. -1.
        -11    1    3    3    0    0 -0.44263771067E+01  0.52486989848E+02 -0.31459972643E+01  0.52767169873E+02  0.00000000000E+00 0.  1.
         11    1    3    3    0    0 -0.50918730803E+02 -0.23484297886E+02  0.21081594798E+02  0.59905450779E+02  0.00000000000E+00 0. -1.
</event>
<event>
 7    1  0.5137842E-006  0.1262822E+03  0.7561462E-02  0.1233079E+00
         -2   -1    0    0    0  501 -0.00000000000E+00  0.00000000000E+00  0.31048362542E+02  0.31048362542E+02  0.00000000000E+00 0.  1.
          2   -1    0    0  501    0  0.00000000000E+00 -0.00000000000E+00 -0.76879300346E+03  0.76879300346E+03  0.00000000000E+00 0. -1.
         23    2    1    2    0    0  0.64413738906E+02  0.88426042819E+02 -0.40930790076E+03  0.43175483407E+03  0.83132330115E+02 0.  0.
          5    1    1    2  502    0 -0.81500294836E+02 -0.39472823807E+02 -0.28878562444E+03  0.30267971713E+03  0.41800000000E+01 0. -1.
         -5    1    1    2    0  502  0.17086555930E+02 -0.48953219012E+02 -0.39651115723E+02  0.65406814808E+02  0.41800000000E+01 0. -1.
        -11    1    3    3    0    0  0.38510947140E+02  0.44043101857E+02 -0.34254166538E+03  0.34750205812E+03  0.00000000000E+00 0. -1.
         11    1    3    3    0    0  0.25902791766E+02  0.44382940962E+02 -0.66766235373E+02  0.84252775952E+02  0.00000000000E+00 0.  1.
</event>
<event>
 7    1  0.5137842E-006  0.1169910E+03  0.7561462E-02  0.1248145E+00
         -2   -1    0    0    0  501 -0.00000000000E+00  0.00000000000E+00  0.17815717798E+03  0.17815717798E+03  0.00000000000E+00 0.  1.
          2   -1    0    0  501    0  0.00000000000E+00 -0.00000000000E+00 -0.10485002325E+03  0.10485002325E+03  0.00000000000E+00 0. -1.
         23    2    1    2    0    0 -0.57674704432E+02  0.59914612138E+02  0.31231523189E+02  0.12701521195E+03  0.90781736865E+02 0.  0.
          5    1    1    2  502    0  0.72887233891E+02 -0.73330373457E+02 -0.59953031097E+01  0.10364993292E+03  0.41800000000E+01 0. -1.
         -5    1    1    2    0  502 -0.15212529460E+02  0.13415761319E+02  0.48070934652E+02  0.52342056347E+02  0.41800000000E+01 0. -1.
        -11    1    3    3    0    0 -0.60547350626E+02  0.73890116006E+02  0.46391227199E+02  0.10619734871E+03  0.00000000000E+00 0.  1.
         11    1    3    3    0    0  0.28726461945E+01 -0.13975503868E+02 -0.15159704011E+02  0.20817863248E+02  0.00000000000E+00 0. -1.
</event>
<event>
 7    1  0.5137842E-006  0.1433153E+03  0.7561462E-02  0.1208936E+00
          2   -1    0    0  501    0  0.00000000000E+00  0.00000000000E+00  0.51790600383E+02  0.51790600383E+02  0.00000000000E+00 0.  1.
         -2   -1    0    0    0  501 -0.00000000000E+00 -0.00000000000E+00 -0.54120473701E+03  0.54120473701E+03  0.00000000000E+00 0. -1.
         23    2    1    2    0    0  0.81644054687E+02  0.33405432587E+01 -0.11471603764E+03  0.18960900170E+03  0.12694444981E+03 0.  0.
          5    1    1    2  502    0 -0.10223321422E+03 -0.30285505448E+02 -0.33184625991E+03  0.34858034159E+03  0.41800000000E+01 0. -1.
         -5    1    1    2    0  502  0.20589159530E+02  0.26944962189E+02 -0.42851839075E+02  0.54805994104E+02  0.41800000000E+01 0. -1.
        -11    1    3    3    0    0  0.94341928322E+02  0.43317477136E+02 -0.10258040455E+03  0.14594362837E+03  0.00000000000E+00 0.  1.
         11    1    3    3    0    0 -0.12697873635E+02 -0.39976933877E+02 -0.12135633094E+02  0.43665373325E+02  0.00000000000E+00 0. -1.
</event>
<event>
 7    1  0.5137842E-006  0.1249150E+03  0.7561462E-02  0.1235202E+00
          1   -1    0    0  501    0  0.00000000000E+00  0.00000000000E+00  0.10343721380E+03  0.10343721380E+03  0.00000000000E+00 0. -1.
         -1   -1    0    0    0  501 -0.00000000000E+00 -0.00000000000E+00 -0.18816342087E+03  0.18816342087E+03  0.00000000000E+00 0.  1.
         23    2    1    2    0    0 -0.43290989400E+02  0.74985779368E+02  0.22610687866E+02  0.10541444723E+03  0.55713423949E+02 0.  0.
          5    1    1    2  502    0 -0.34587701169E+02  0.77352153777E+01 -0.41789735159E+02  0.54954499304E+02  0.41800000000E+01 0. -1.
         -5    1    1    2    0  502  0.77878690570E+02 -0.82720994746E+02 -0.65547159774E+02  0.13123168814E+03  0.41800000000E+01 0. -1.
        -11    1    3    3    0    0  0.11276523338E+02  0.20160863879E+02  0.15321403321E+02  0.27719412163E+02  0.00000000000E+00 0. -1.
         11    1    3    3    0    0 -0.54567512738E+02  0.54824915489E+02  0.72892845456E+01  0.77695035066E+02  0.00000000000E+00 0.  1.
</event>
<event>
 7    1  0.5137842E-006  0.9482489E+02  0.7561462E-02  0.1291571E+00
          1   -1    0    0  501    0  0.00000000000E+00  0.00000000000E+00  0.46535118817E+02  0.46535118817E+02  0.00000000000E+00 0. -1.
         -1   -1    0    0    0  501 -0.00000000000E+00 -0.00000000000E+00 -0.26716523571E+03  0.26716523571E+03  0.00000000000E+00 0.  1.
         23    2    1    2    0    0 -0.85943954837E+00 -0.17237777757E+02 -0.69935079731E+02  0.11564593685E+03  0.90472027247E+02 0.  0.
          5    1    1    2  502    0  0.42968391562E+02 -0.16299120210E+02 -0.98095637566E+01  0.47176730855E+02  0.41800000000E+01 0. -1.
         -5    1    1    2    0  502 -0.42108952013E+02  0.33536897967E+02 -0.14088547341E+03  0.15087768683E+03  0.41800000000E+01 0.  1.
        -11    1    3    3    0    0  0.37431917189E+02  0.14130899022E+02 -0.45018879332E+02  0.60228981628E+02  0.00000000000E+00 0.  1.
         11    1    3    3    0    0 -0.38291356737E+02 -0.31368676779E+02 -0.24916200399E+02  0.55416955221E+02  0.00000000000E+00 0. -1.
</event>
<event>
 7    1  0.5137842E-006  0.1220836E+03  0.7561462E-02  0.1239699E+00
         -3   -1    0    0    0  501 -0.00000000000E+00  0.00000000000E+00  0.11762536437E+03  0.11762536437E+03  0.00000000000E+00 0.  1.
          3   -1    0    0  501    0  0.00000000000E+00 -0.00000000000E+00 -0.15352461343E+03  0.15352461343E+03  0.00000000000E+00 0. -1.
         23    2    1    2    0    0 -0.39614067021E+02 -0.58160175329E+02 -0.49466255090E+02  0.12698477614E+03  0.93414895380E+02 0.  0.
          5    1    1    2  502    0  0.15644212796E+02 -0.34531382972E+02 -0.19440150214E+02  0.42808289435E+02  0.41800000000E+01 0.  1.
         -5    1    1    2    0  502  0.23969854225E+02  0.92691558301E+02  0.33007156244E+02  0.10135691222E+03  0.41800000000E+01 0.  1.
        -11    1    3    3    0    0 -0.61058291908E+02 -0.63503813232E+02 -0.20322667782E+02  0.90409402894E+02  0.00000000000E+00 0.  1.
         11    1    3    3    0    0  0.21444224887E+02  0.53436379034E+01 -0.29143587309E+02  0.36575373249E+02  0.00000000000E+00 0. -1.
</event>
<event>
 7    1  0.5137842E-006  0.1409758E+03  0.7561462E-02  0.1212022E+00
         -1   -1    0    0    0  501 -0.00000000000E+00  0.00000000000E+00  0.57902217653E+03  0.57902217653E+03  0.00000000000E+00 0.  1.
          1   -1    0    0  501    0  0.00000000000E+00 -0.00000000000E+00 -0.13831709947E+03  0.13831709947E+03  0.00000000000E+00 0. -1.
         23    2    1    2    0    0 -0.37461499368E+02 -0.11753597133E+03 -0.73489634333E+02  0.17055647635E+03  0.92036496998E+02 0.  0.
          5    1    1    2  502    0  0.19933243645E+02  0.90946899020E+01  0.14123811702E+01  0.22349827901E+02  0.41800000000E+01 0. -1.
         -5    1    1    2    0  502  0.17528255722E+02  0.10844128143E+03  0.51278233023E+03  0.52443297175E+03  0.41800000000E+01 0.  1.
        -11    1    3    3    0    0  0.16217081642E+02 -0.85885803973E+02 -0.62077673978E+02  0.10720542275E+03  0.00000000000E+00 0.  1.
         11    1    3    3    0    0 -0.53678581009E+02 -0.31650167355E+02 -0.11411960355E+02  0.63351053597E+02  0.00000000000E+00 0. -1.
</event>
<event>
 7    1  0.5137842E-006  0.1654416E+03  0.7561462E-02  0.1182687E+00
         -4   -1    0    0    0  501 -0.00000000000E+00  0.00000000000E+00  0.12321137710E+03  0.12321137710E+03  0.00000000000E+00 0.  1.
          4   -1    0    0  501    0  0.00000000000E+00 -0.00000000000E+00 -0.24830201017E+03  0.24830201017E+03  0.00000000000E+00 0. -1.
         23    2    1    2    0    0 -0.84324233915E+02  0.93756340350E+02 -0.41292890610E+01  0.15662854513E+03  0.92814989853E+02 0.  0.
          5    1    1    2  502    0 -0.30952482449E+02 -0.36487424976E+02 -0.24088460813E+02  0.53731877833E+02  0.41800000000E+01 0. -1.
         -5    1    1    2    0  502  0.11527671636E+03 -0.57268915374E+02 -0.96872883202E+02  0.16115296430E+03  0.41800000000E+01 0. -1.
        -11    1    3    3    0    0 -0.10219999917E+03  0.68149972162E+02 -0.14573162428E+02  0.12369978011E+03  0.00000000000E+00 0. -1.
         11    1    3    3    0    0  0.17875765254E+02  0.25606368188E+02  0.10443873367E+02  0.32928765025E+02  0.00000000000E+00 0.  1.
</event>
<event>
 7    1  0.5137842E-006  0.1416569E+03  0.7561462E-02  0.1211117E+00
          2   -1    0    0  501    0  0.00000000000E+00  0.00000000000E+00  0.13271493820E+04  0.13271493820E+04  0.00000000000E+00 0. -1.
         -2   -1    0    0    0  501 -0.00000000000E+00 -0.00000000000E+00 -0.15914199878E+02  0.15914199878E+02  0.00000000000E+00 0.  1.
         23    2    1    2    0    0 -0.58403440861E+02 -0.74213094327E+02  0.54245204027E+03  0.55846572712E+03  0.93333847520E+02 0.  0.
          5    1    1    2  502    0  0.23744803824E+02  0.10297339537E+03  0.43029829139E+03  0.44310430808E+03  0.41800000000E+01 0. -1.
         -5    1    1    2    0  502  0.34658637037E+02 -0.28760301042E+02  0.33848485042E+03  0.34149354664E+03  0.41800000000E+01 0. -1.
        -11    1    3    3    0    0 -0.81862584765E+02 -0.40714627074E+02  0.39540175006E+03  0.40583458156E+03  0.00000000000E+00 0.  1.
         11    1    3    3    0    0  0.23459143904E+02 -0.33498467253E+02  0.14705029021E+03  0.15263114555E+03  0.00000000000E+00 0. -1.
</event>
<event>
 7    1  0.5137842E-006  0.8958059E+02  0.7561462E-02  0.1303871E+00
         -1   -1    0    0    0  501 -0.00000000000E+00  0.00000000000E+00  0.50821172804E+02  0.50821172804E+02  0.00000000000E+00 0.  1.
          1   -1    0    0  501    0  0.00000000000E+00 -0.00000000000E+00 -0.38124498603E+03  0.38124498603E+03  0.00000000000E+00 0. -1.
         23    2    1    2    0    0 -0.20241986871E+02  0.75130085684E+01 -0.28045518211E+03  0.29564933263E+03  0.91034253912E+02 0.  0.
          5    1    1    2  502    0  0.32402882810E+02 -0.39425935044E+02 -0.77131770308E+02  0.92580416717E+02  0.41800000000E+01 0. -1.
         -5    1    1    2    0  502 -0.12160895940E+02  0.31912926476E+02  0.27163139186E+02  0.43836409488E+02  0.41800000000E+01 0. -1.
        -11    1    3    3    0    0  0.29085889708E+02  0.27781111166E+02 -0.12256585541E+03  0.12899677527E+03  0.00000000000E+00 0.  1.
         11    1    3    3    0    0 -0.49327876579E+02 -0.20268102597E+02 -0.15788932670E+03  0.16665255737E+03  0.00000000000E+00 0. -1.
</event>
<event>
 7    1  0.5137842E-006  0.1156893E+03  0.7561462E-02  0.1250383E+00
          2   -1    0    0  501    0  0.00000000000E+00  0.00000000000E+00  0.10123488614E+03  0.10123488614E+03  0.00000000000E+00 0. -1.
         -2   -1    0    0    0  501 -0.00000000000E+00 -0.00000000000E+00 -0.19913931237E+03  0.19913931237E+03  0.00000000000E+00 0.  1.
         23    2    1    2    0    0  0.37591466767E+02  0.78636057844E+02 -0.15426072349E+02  0.12703446892E+03  0.91121043781E+02 0.  0.
          5    1    1    2  502    0 -0.65580539321E+02 -0.12810379152E+02 -0.39963814410E+01  0.67069787656E+02  0.41800000000E+01 0. -1.
         -5    1    1    2    0  502  0.27989072554E+02 -0.65825678693E+02 -0.78481972441E+02  0.10626994192E+03  0.41800000000E+01 0. -1.
        -11    1    3    3    0    0  0.27830806843E+02  0.22471236683E+02  0.35643934870E+02  0.50497528460E+02  0.00000000000E+00 0. -1.
         11    1    3    3    0    0  0.97606599239E+01  0.56164821162E+02 -0.51070007219E+02  0.76536940464E+02  0.00000000000E+00 0.  1.
</event>
<event>
 7    1  0.5137842E-006  0.8337761E+02  0.7561462E-02  0.1319731E+00
         -2   -1    0    0    0  501 -0.00000000000E+00  0.00000000000E+00  0.12261886521E+03  0.12261886521E+03  0.00000000000E+00 0.  1.
          2   -1    0    0  501    0  0.00000000000E+00 -0.00000000000E+00 -0.17372837912E+03  0.17372837912E+03  0.00000000000E+00 0. -1.
         23    2    1    2    0    0  0.35764881041E+02  0.71389616351E+02 -0.92534874877E+02  0.14227058788E+03  0.72819043317E+02 0.  0.
          5    1    1    2  502    0 -0.26966887696E+02 -0.69642331915E+02 -0.31007878434E+02  0.80970540022E+02  0.41800000000E+01 0. -1.
         -5    1    1    2    0  502 -0.87979933449E+01 -0.17472844368E+01  0.72433239398E+02  0.73106116430E+02  0.41800000000E+01 0. -1.
        -11    1    3    3    0    0  0.19740736945E+02  0.19476901523E+02  0.72414235229E+01  0.28661552691E+02  0.00000000000E+00 0.  1.
         11    1    3    3    0    0  0.16024144096E+02  0.51912714829E+02 -0.99776298400E+02  0.11360903519E+03  0.00000000000E+00 0. -1.
</event>
<event>
 7    1  0.5137842E-006  0.1248052E+03  0.7561462E-02  0.1235374E+00
         -2   -1    0    0    0  501 -0.00000000000E+00  0.00000000000E+00  0.31283278176E+03  0.31283278176E+03  0.00000000000E+00 0.  1.
          2   -1    0    0  501    0  0.00000000000E+00 -0.00000000000E+00 -0.87155774145E+02  0.87155774145E+02  0.00000000000E+00 0. -1.
         23    2    1    2    0    0 -0.58034890815E+02  0.71381288986E+02  0.37591356965E+01  0.12913265625E+03  0.90541564157E+02 0.  0.
          5    1    1    2  502    0 -0.21322572208E+02 -0.17964471163E+02  0.14589547814E+03  0.14859453978E+03  0.41800000000E+01 0. -1.
         -5    1    1    2    0  502  0.79357463023E+02 -0.53416817823E+02  0.76022393783E+02  0.12226135988E+03  0.41800000000E+01 0. -1.
        -11    1    3    3    0    0  0.13897024232E+02 -0.99473419182E+01  0.10987013505E+02  0.20317267520E+02  0.00000000000E+00 0.  1.
         11    1    3    3    0    0 -0.71931915047E+02  0.81328630904E+02 -0.72278778082E+01  0.10881538873E+03  0.00000000000E+00 0. -1.
</event>
<event>
 7    1  0.5137842E-006  0.1124326E+03  0.7561462E-02  0.1256130E+00
          1   -1    0    0  501    0  0.00000000000E+00  0.00000000000E+00  0.61246080519E+02  0.61246080519E+02  0.00000000000E+00 0. -1.
         -1   -1    0    0    0  501 -0.00000000000E+00 -0.00000000000E+00 -0.25408464035E+03  0.25408464035E+03  0.00000000000E+00 0.  1.
         23    2    1    2    0    0  0.38477063561E+02  0.39850267403E+02 -0.55665275782E+02  0.12159781468E+03  0.92837909152E+02 0.  0.
          5    1    1    2  502    0 -0.15531074911E+01 -0.73751526299E+02 -0.11934706129E+03  0.14036699474E+03  0.41800000000E+01 0.  1.
         -5    1    1    2    0  502 -0.36923956070E+02  0.33901258895E+02 -0.17826222764E+02  0.53365911447E+02  0.41800000000E+01 0.  1.
        -11    1    3    3    0    0 -0.22099070124E+02 -0.79798554005E+01 -0.34186533041E+02  0.41482117038E+02  0.00000000000E+00 0.  1.
         11    1    3    3    0    0  0.60576133685E+02  0.47830122804E+02 -0.21478742741E+02  0.80115697646E+02  0.00000000000E+00 0. -1.
</event>
<event>
 7    1  0.5137842E-006  0.1315272E+03  0.7561462E-02  0.1225207E+00
          2   -1    0    0  501    0  0.00000000000E+00  0.00000000000E+00  0.47007188249E+03  0.47007188249E+03  0.00000000000E+00 0. -1.
         -2   -1    0    0    0  501 -0.00000000000E+00 -0.00000000000E+00 -0.38386504504E+02  0.38386504504E+02  0.00000000000E+00 0.  1.
         23    2    1    2    0    0  0.68784739661E+02 -0.27849539959E+02  0.24529749741E+03  0.27203692202E+03  0.91248492720E+02 0.  0.
          5    1    1    2  502    0  0.36343384818E+02  0.14651292908E+02  0.49844943309E+02  0.63541268301E+02  0.41800000000E+01 0.  1.
         -5    1    1    2    0  502 -0.10512812448E+03  0.13198247051E+02  0.13654293727E+03  0.17288019667E+03  0.41800000000E+01 0.  1.
        -11    1    3    3    0    0  0.15987715014E+00 -0.46497230532E+02  0.95900146259E+02  0.10657793421E+03  0.00000000000E+00 0. -1.
         11    1    3    3    0    0  0.68624862511E+02  0.18647690573E+02  0.14939735115E+03  0.16545898781E+03  0.00000000000E+00 0.  1.
</event>
<event>
 7    1  0.5137842E-006  0.1464518E+03  0.7561462E-02  0.1204902E+00
          1   -1    0    0  501    0  0.00000000000E+00  0.00000000000E+00  0.24908090411E+03  0.24908090411E+03  0.00000000000E+00 0. -1.
         -1   -1    0    0    0  501 -0.00000000000E+00 -0.00000000000E+00 -0.11735975092E+03  0.11735975092E+03  0.00000000000E+00 0.  1.
         23    2    1    2    0    0 -0.45600843987E+02 -0.14778869057E+02  0.12483929043E+03  0.15930765368E+03  0.86580760808E+02 0.  0.
          5    1    1    2  502    0 -0.37043615348E+02 -0.73866871492E+02 -0.14482575337E+02  0.83998580527E+02  0.41800000000E+01 0. -1.
         -5    1    1    2    0  502  0.82644459335E+02  0.88645740550E+02  0.21364438101E+02  0.12313442082E+03  0.41800000000E+01 0.  1.
        -11    1    3    3    0    0 -0.53615653827E+02 -0.37086472437E+02  0.11770596645E+03  0.13455385283E+03  0.00000000000E+00 0. -1.
         11    1    3    3    0    0  0.80148098399E+01  0.22307603380E+02  0.71333239762E+01  0.24753800845E+02  0.00000000000E+00 0.  1.
</event>
<event>
 6    1  0.5137842E-006  0.8006025E+02  0.7561462E-02  0.1328881E+00
          2   -1    0    0  501    0  0.00000000000E+00  0.00000000000E+00  0.38200710004E+03  0.38200710004E+03  0.00000000000E+00 0. -1.
         -2   -1    0    0    0  501 -0.00000000000E+00 -0.00000000000E+00 -0.36944096724E+02  0.36944096724E+02  0.00000000000E+00 0.  1.
          5    1    1    2  502    0 -0.22174387181E+02 -0.22570346358E+02  0.18330199150E+03  0.18605971211E+03  0.41800000000E+01 0. -1.
         -5    1    1    2    0  502  0.19606433495E+02 -0.48753522163E+02  0.38138555389E+01  0.52852020319E+02  0.41800000000E+01 0.  1.
        -11    1    1    2    0    0 -0.74394053736E+01  0.59660784014E+02  0.15217805693E+03  0.16362431028E+03  0.00000000000E+00 0. -1.
         11    1    1    2    0    0  0.10007359060E+02  0.11663084507E+02  0.57690993410E+01  0.16415154059E+02  0.00000000000E+00 0.  1.
</event>
<event>
 7    1  0.5137842E-006  0.1955558E+03  0.7561462E-02  0.1153544E+00
          2   -1    0    0  501    0  0.00000000000E+00  0.00000000000E+00  0.83314642605E+03  0.83314642605E+03  0.00000000000E+00 0. -1.
         -2   -1    0    0    0  501 -0.00000000000E+00 -0.00000000000E+00 -0.54895408773E+02  0.54895408773E+02  0.00000000000E+00 0.  1.
         23    2    1    2    0    0  0.11823076018E+03 -0.13590397263E+03  0.44052804285E+03  0.48535845089E+03  0.95181231820E+02 0.  0.
          5    1    1    2  502    0 -0.96760101017E+02  0.54005294083E+02  0.96500392363E+02  0.14699961586E+03  0.41800000000E+01 0.  1.
         -5    1    1    2    0  502 -0.21470659163E+02  0.81898678546E+02  0.24122258206E+03  0.25568376806E+03  0.41800000000E+01 0.  1.
        -11    1    3    3    0    0  0.40553833523E+02 -0.10373018676E+03  0.18070439261E+03  0.21227021121E+03  0.00000000000E+00 0.  1.
         11    1    3    3    0    0  0.77676926657E+02 -0.32173785871E+02  0.25982365023E+03  0.27308823968E+03  0.00000000000E+00 0. -1.
</event>
<event>
 7    1  0.5137842E-006  0.1440279E+03  0.7561462E-02  0.1208010E+00
          4   -1    0    0  501    0  0.00000000000E+00  0.00000000000E+00  0.21557530250E+03  0.21557530250E+03  0.00000000000E+00 0. -1.
         -4   -1    0    0    0  501 -0.00000000000E+00 -0.00000000000E+00 -0.13214331415E+03  0.13214331415E+03  0.00000000000E+00 0.  1.
         23    2    1    2    0    0 -0.12949539773E+03 -0.17175706078E+01  0.40332926681E+02  0.16257787563E+03  0.89625959350E+02 0.  0.
          5    1    1    2  502    0  0.92645833884E+01 -0.49303480656E+01 -0.38170562358E+02  0.39807098213E+02  0.41800000000E+01 0.  1.
         -5    1    1    2    0  502  0.12023081434E+03  0.66479186734E+01  0.81269624026E+02  0.14533364280E+03  0.41800000000E+01 0.  1.
        -11    1    3    3    0    0  0.51303060704E+01 -0.19785250274E+02 -0.13759172539E+01  0.20485832106E+02  0.00000000000E+00 0.  1.
         11    1    3    3    0    0 -0.13462570380E+03  0.18067679666E+02  0.41708843935E+02  0.14209204353E+03  0.00000000000E+00 0. -1.
</event>
<event>
 7    1  0.5137842E-006  0.1902053E+03  0.7561462E-02  0.1158276E+00
         -3   -1    0    0    0  501 -0.00000000000E+00  0.00000000000E+00  0.52658823687E+03  0.52658823687E+03  0.00000000000E+00 0.  1.
          3   -1    0    0  501    0  0.00000000000E+00 -0.00000000000E+00 -0.21191491225E+03  0.21191491225E+03  0.00000000000E+00 0. -1.
         23    2    1    2    0    0  0.13825984502E+03  0.10657270605E+03 -0.13559888170E+03  0.23963832191E+03  0.92552375404E+02 0.  0.
          5    1    1    2  502    0 -0.88981653740E+02 -0.34733902171E+02  0.36339295123E+03  0.37576067924E+03  0.41800000000E+01 0. -1.
         -5    1    1    2    0  502 -0.49278191279E+02 -0.71838803879E+02  0.86879255090E+02  0.12310414795E+03  0.41800000000E+01 0. -1.
        -11    1    3    3    0    0  0.30255068048E+02  0.81177713931E+02 -0.59905955725E+02  0.10532765028E+03  0.00000000000E+00 0. -1.
         11    1    3    3    0    0  0.10800477697E+03  0.25394992119E+02 -0.75692925974E+02  0.13431067164E+03  0.00000000000E+00 0.  1.
</event>
<event>
 7    1  0.5137842E-006  0.9227026E+02  0.7561462E-02  0.1297445E+00
         -1   -1    0    0    0  501 -0.00000000000E+00  0.00000000000E+00  0.24389835548E+03  0.24389835548E+03  0.00000000000E+00 0.  1.
          1   -1    0    0  501    0  0.00000000000E+00 -0.00000000000E+00 -0.68509122957E+02  0.68509122957E+02  0.00000000000E+00 0. -1.
         23    2    1    2    0    0 -0.23555421845E+02 -0.44544465495E+02  0.18074010418E+02  0.10520010794E+03  0.90561170227E+02 0.  0.
          5    1    1    2  502    0  0.59874523164E+02  0.64744119277E+01  0.13865097599E+03  0.15122315324E+03  0.41800000000E+01 0.  1.
         -5    1    1    2    0  502 -0.36319101318E+02  0.38070053567E+02  0.18664246120E+02  0.55984217261E+02  0.41800000000E+01 0.  1.
        -11    1    3    3    0    0 -0.35532526382E+02 -0.47242357338E+02  0.45863877184E+02  0.74819088395E+02  0.00000000000E+00 0.  1.
         11    1    3    3    0    0  0.11977104536E+02  0.26978918439E+01 -0.27789866766E+02  0.30381019541E+02  0.00000000000E+00 0. -1.
</event>
<event>
 7    1  0.5137842E-006  0.8945996E+02  0.7561462E-02  0.1304165E+00
          2   -1    0    0  501    0  0.00000000000E+00  0.00000000000E+00  0.77170519346E+03  0.77170519346E+03  0.00000000000E+00 0.  1.
         -2   -1    0    0    0  501 -0.00000000000E+00 -0.00000000000E+00 -0.22968799695E+02  0.22968799695E+02  0.00000000000E+00 0. -1.
         23    2    1    2    0    0  0.28871721512E+01  0.32985590833E+02  0.54342994589E+03  0.55199415868E+03  0.91022305820E+02 0.  0.
          5    1    1    2  502    0  0.34673440708E+02 -0.26832279056E+02  0.19907178300E+03  0.20388542341E+03  0.41800000000E+01 0. -1.
         -5    1    1    2    0  502 -0.37560612860E+02 -0.61533117767E+01  0.62346648697E+01  0.38794411070E+02  0.41800000000E+01 0. -1.
        -11    1    3    3    0    0 -0.34821870811E+02  0.45101762467E+02  0.34057388264E+03  0.34530754582E+03  0.00000000000E+00 0. -1.
         11    1    3    3    0    0  0.37709042962E+02 -0.12116171634E+02  0.20285606326E+03  0.20668661286E+03  0.00000000000E+00 0.  1.
</event>
<event>
 7    1  0.5137842E-006  0.9816725E+02  0.7561462E-02  0.1284198E+00
         -3   -1    0    0    0  501 -0.00000000000E+00  0.00000000000E+00  0.10062503765E+03  0.10062503765E+03  0.00000000000E+00 0.  1.
          3   -1    0    0  501    0  0.00000000000E+00 -0.00000000000E+00 -0.21036065438E+03  0.21036065438E+03  0.00000000000E+00 0. -1.
         23    2    1    2    0    0  0.57823642319E+02  0.55514291095E+02 -0.10692897931E+03  0.16237921057E+03  0.92237689048E+02 0.  0.
          5    1    1    2  502    0 -0.22981603315E+01 -0.60028979048E+02  0.44922701079E+02  0.75128432293E+02  0.41800000000E+01 0. -1.
         -5    1    1    2    0  502 -0.55525481987E+02  0.45146879533E+01 -0.47729338496E+02  0.73478049175E+02  0.41800000000E+01 0. -1.
        -11    1    3    3    0    0  0.10839630132E+02  0.12566083800E+02 -0.96449368313E+02  0.97866667928E+02  0.00000000000E+00 0. -1.
         11    1    3    3    0    0  0.46984012187E+02  0.42948207295E+02 -0.10479610999E+02  0.64512542639E+02  0.00000000000E+00 0.  1.
</event>
<event>
 7    1  0.5137842E-006  0.1264070E+03  0.7561462E-02  0.1232887E+00
          2   -1    0    0  501    0  0.00000000000E+00  0.00000000000E+00  0.11929443550E+03  0.11929443550E+03  0.00000000000E+00 0. -1.
         -2   -1    0    0    0  501 -0.00000000000E+00 -0.00000000000E+00 -0.24965283492E+03  0.24965283492E+03  0.00000000000E+00 0.  1.
         23    2    1    2    0    0 -0.37604974708E+02  0.61874926155E+02  0.62667904242E+02  0.12780631900E+03  0.84643655071E+02 0.  0.
          5    1    1    2  502    0  0.59810063917E+02 -0.88595609132E+02 -0.16333230123E+03  0.19524686612E+03  0.41800000000E+01 0. -1.
         -5    1    1    2    0  502 -0.22205089209E+02  0.26720682977E+02 -0.29694002429E+02  0.45894085303E+02  0.41800000000E+01 0. -1.
        -11    1    3    3    0    0  0.25289981452E+02  0.33163150477E+02  0.17545743390E+02  0.45246334907E+02  0.00000000000E+00 0. -1.
         11    1    3    3    0    0 -0.62894956159E+02  0.28711775678E+02  0.45122160853E+02  0.82559984090E+02  0.00000000000E+00 0.  1.
</event>
<event>
 7    1  0.5137842E-006  0.9945237E+02  0.7561462E-02  0.1281452E+00
          2   -1    0    0  501    0  0.00000000000E+00  0.00000000000E+00  0.32227202792E+03  0.32227202792E+03  0.00000000000E+00 0. -1.
         -2   -1    0    0    0  501 -0.00000000000E+00 -0.00000000000E+00 -0.84130762934E+02  0.84130762934E+02  0.00000000000E+00 0.  1.
         23    2    1    2    0    0 -0.49551571305E+02  0.15530423011E+02  0.25019251887E+03  0.27042920954E+03  0.88538740761E+02 0.  0.
          5    1    1    2  502    0  0.39316794383E+02 -0.47976146300E+02  0.39799235333E+02  0.73817155645E+02  0.41800000000E+01 0.  1.
         -5    1    1    2    0  502  0.10234776922E+02  0.32445723289E+02 -0.51850489224E+02  0.62156425663E+02  0.41800000000E+01 0.  1.
        -11    1    3    3    0    0 -0.69820020642E+02  0.31555700761E+02  0.17981853513E+03  0.19546176892E+03  0.00000000000E+00 0. -1.
         11    1    3    3    0    0  0.20268449337E+02 -0.16025277751E+02  0.70373983745E+02  0.74967440624E+02  0.00000000000E+00 0.  1.
</event>
<event>
 7    1  0.5137842E-006  0.1111236E+03  0.7561462E-02  0.1258503E+00
         -1   -1    0    0    0  501 -0.00000000000E+00  0.00000000000E+00  0.24374429696E+02  0.24374429696E+02  0.00000000000E+00 0.  1.
          1   -1    0    0  501    0  0.00000000000E+00 -0.00000000000E+00 -0.61133073809E+03  0.61133073809E+03  0.00000000000E+00 0. -1.
         23    2    1    2    0    0  0.48853456458E+02 -0.23850540108E+02 -0.24398210398E+03  0.26660582384E+03  0.92714021435E+02 0.  0.
          5    1    1    2  502    0  0.17560932281E+02 -0.38219584546E+02 -0.14830277919E+03  0.15420865637E+03  0.41800000000E+01 0.  1.
         -5    1    1    2    0  502 -0.66414388739E+02  0.62070124655E+02 -0.19467142522E+03  0.21489068757E+03  0.41800000000E+01 0.  1.
        -11    1    3    3    0    0  0.51819497977E+02 -0.44385911937E+02 -0.23368623744E+03  0.24344327289E+03  0.00000000000E+00 0.  1.
         11    1    3    3    0    0 -0.29660415187E+01  0.20535371829E+02 -0.10295866542E+02  0.23162550945E+02  0.00000000000E+00 0. -1.
</event>
<event>
 7    1  0.5137842E-006  0.9287205E+02  0.7561462E-02  0.1296042E+00
         -3   -1    0    0    0  501 -0.00000000000E+00  0.00000000000E+00  0.19653123290E+02  0.19653123290E+02  0.00000000000E+00 0.  1.
          3   -1    0    0  501    0  0.00000000000E+00 -0.00000000000E+00 -0.91307114147E+03  0.91307114147E+03  0.00000000000E+00 0. -1.
         23    2    1    2    0    0  0.20839671251E+02  0.72059864772E+02 -0.35637656391E+03  0.37622498431E+03  0.94414339520E+02 0.  0.
          5    1    1    2  502    0 -0.30176905810E+01  0.14094841897E+02 -0.30782580777E+01  0.15320544943E+02  0.41800000000E+01 0.  1.
         -5    1    1    2    0  502 -0.17821980670E+02 -0.86154706669E+02 -0.53396319620E+03  0.54117873551E+03  0.41800000000E+01 0.  1.
        -11    1    3    3    0    0  0.14487897834E+02  0.50425226162E+01 -0.19519700175E+01  0.15464035855E+02  0.00000000000E+00 0.  1.
         11    1    3    3    0    0  0.63517734174E+01  0.67017342156E+02 -0.35442459389E+03  0.36076094845E+03  0.00000000000E+00 0. -1.
</event>
<event>
 7    1  0.5137842E-006  0.1410265E+03  0.7561462E-02  0.1211954E+00
         -1   -1    0    0    0  501 -0.00000000000E+00  0.00000000000E+00  0.53154853061E+02  0.53154853061E+02  0.00000000000E+00 0.  1.
          1   -1    0    0  501    0  0.00000000000E+00 -0.00000000000E+00 -0.56149006116E+03  0.56149006116E+03  0.00000000000E+00 0. -1.
         23    2    1    2    0    0  0.13050355344E+03 -0.21264980798E+02 -0.27205806017E+03  0.31638704962E+03  0.92745890464E+02 0.  0.
          5    1    1    2  502    0  0.42134967673E+01 -0.22397144400E+01 -0.11575265387E+03  0.11592635228E+03  0.41800000000E+01 0. -1.
         -5    1    1    2    0  502 -0.13471705021E+03  0.23504695238E+02 -0.12052449406E+03  0.18233151231E+03  0.41800000000E+01 0. -1.
        -11    1    3    3    0    0  0.97113150539E+02 -0.34380645183E+02 -0.11123751071E+03  0.15161390622E+03  0.00000000000E+00 0.  1.
         11    1    3    3    0    0  0.33390402899E+02  0.13115664385E+02 -0.16082054946E+03  0.16477314340E+03  0.00000000000E+00 0. -1.
</event>
<event>
 7    1  0.5137842E-006  0.1121810E+03  0.7561462E-02  0.1256584E+00
          2   -1    0    0  501    0  0.00000000000E+00  0.00000000000E+00  0.41874821819E+03  0.41874821819E+03  0.00000000000E+00 0. -1.
         -2   -1    0    0    0  501 -0.00000000000E+00 -0.00000000000E+00 -0.43894605039E+02  0.43894605039E+02  0.00000000000E+00 0.  1.
         23    2    1    2    0    0 -0.65606664139E+02 -0.29152544818E+02  0.23476625460E+03  0.26157980123E+03  0.90303338061E+02 0.  0.
          5    1    1    2  502    0  0.47838072720E+02  0.76688933448E+02  0.69839614853E+02  0.11430099701E+03  0.41800000000E+01 0.  1.
         -5    1    1    2    0  502  0.17768591419E+02 -0.47536388630E+02  0.70247743702E+02  0.86762024990E+02  0.41800000000E+01 0.  1.
        -11    1    3    3    0    0 -0.57234229574E+02 -0.50656308557E+01  0.22809560808E+03  0.23522122370E+03  0.00000000000E+00 0. -1.
         11    1    3    3    0    0 -0.83724345655E+01 -0.24086913963E+02  0.66706465189E+01  0.26358577537E+02  0.00000000000E+00 0.  1.
</event>
<event>
 7    1  0.5137842E-006  0.1233962E+03  0.7561462E-02  0.1237597E+00
         -2   -1    0    0    0  501 -0.00000000000E+00  0.00000000000E+00  0.51847982490E+02  0.51847982490E+02  0.00000000000E+00 0.  1.
          2   -1    0    0  501    0  0.00000000000E+00 -0.00000000000E+00 -0.36263726800E+03  0.36263726800E+03  0.00000000000E+00 0. -1.
         23    2    1    2    0    0 -0.34167255352E+00 -0.83492169847E+02 -0.12885078027E+03  0.17842253025E+03  0.90890134562E+02 0.  0.
          5    1    1    2  502    0 -0.20226291444E+02  0.10748661239E+03 -0.10044870144E+03  0.14855937779E+03  0.41800000000E+01 0. -1.
         -5    1    1    2    0  502  0.20567963998E+02 -0.23994442539E+02 -0.81489803800E+02  0.87503342446E+02  0.41800000000E+01 0. -1.
        -11    1    3    3    0    0  0.30482561668E+02 -0.57750480901E+02 -0.30271143839E+02  0.71976709841E+02  0.00000000000E+00 0.  1.
         11    1    3    3    0    0 -0.30824234221E+02 -0.25741688946E+02 -0.98579636427E+02  0.10644582041E+03  0.00000000000E+00 0. -1.
</event>
<event>
 7    1  0.5137842E-006  0.1264999E+03  0.7561462E-02  0.1232744E+00
         -1   -1    0    0    0  501 -0.00000000000E+00  0.00000000000E+00  0.49140979540E+02  0.49140979540E+02  0.00000000000E+00 0.  1.
          1   -1    0    0  501    0  0.00000000000E+00 -0.00000000000E+00 -0.57718608289E+03  0.57718608289E+03  0.00000000000E+00 0. -1.
         23    2    1    2    0    0 -0.66103031217E+02 -0.82726673317E+02 -0.38237256315E+03  0.40705059763E+03  0.90929086444E+02 0.  0.
          5    1    1    2  502    0  0.90189553709E+02  0.78223079916E+02 -0.15228992667E+03  0.19355283515E+03  0.41800000000E+01 0. -1.
         -5    1    1    2    0  502 -0.24086522492E+02  0.45035934004E+01  0.66173864646E+01  0.25723629660E+02  0.41800000000E+01 0. -1.
        -11    1    3    3    0    0 -0.45889459095E+02 -0.37926978015E+02 -0.32960904797E+03  0.33494241687E+03  0.00000000000E+00 0. -1.
         11    1    3    3    0    0 -0.20213572122E+02 -0.44799695302E+02 -0.52763515185E+02  0.72108180754E+02  0.00000000000E+00 0.  1.
</event>
<event>
 7    1  0.5137842E-006  0.9346649E+02  0.7561462E-02  0.1294668E+00
         -2   -1    0    0    0  501 -0.00000000000E+00  0.00000000000E+00  0.17532082724E+03  0.17532082724E+03  0.00000000000E+00 0.  1.
          2   -1    0    0  501    0  0.00000000000E+00 -0.00000000000E+00 -0.18191926437E+03  0.18191926437E+03  0.00000000000E+00 0. -1.
         23    2    1    2    0    0 -0.54399225914E+02 -0.24227118056E+02 -0.13124182988E+03  0.17087052425E+03  0.91793731362E+02 0.  0.
          5    1    1    2  502    0  0.72946057331E+02  0.39116089704E+02  0.29125195975E+02  0.87846145018E+02  0.41800000000E+01 0.  1.
         -5    1    1    2    0  502 -0.18546831417E+02 -0.14888971648E+02  0.95518196779E+02  0.98523422333E+02  0.41800000000E+01 0.  1.
        -11    1    3    3    0    0 -0.24249647746E+02 -0.39315787681E+02 -0.13103190095E+02  0.48015311803E+02  0.00000000000E+00 0.  1.
         11    1    3    3    0    0 -0.30149578168E+02  0.15088669625E+02 -0.11813863979E+03  0.12285521245E+03  0.00000000000E+00 0. -1.
</event>
<event>
 7    1  0.5137842E-006  0.1370939E+03  0.7561462E-02  0.1217294E+00
          1   -1    0    0  501    0  0.00000000000E+00  0.00000000000E+00  0.32373587862E+03  0.32373587862E+03  0.00000000000E+00 0. -1.
         -1   -1    0    0    0  501 -0.00000000000E+00 -0.00000000000E+00 -0.68442630940E+02  0.68442630940E+02  0.00000000000E+00 0.  1.
         23    2    1    2    0    0 -0.10284000522E+03  0.11097956259E+02  0.11274946459E+03  0.17615688041E+03  0.87290168090E+02 0.  0.
          5    1    1    2  502    0  0.16027980469E+02 -0.45735079629E+02  0.39479091124E+01  0.48802172626E+02  0.41800000000E+01 0. -1.
         -5    1    1    2    0  502  0.86812024746E+02  0.34637123371E+02  0.13859587397E+03  0.16721945652E+03  0.41800000000E+01 0. -1.
        -11    1    3    3    0    0 -0.10635775059E+03  0.31781514072E+02  0.10750784939E+03  0.15453146420E+03  0.00000000000E+00 0.  1.
         11    1    3    3    0    0  0.35177453773E+01 -0.20683557813E+02  0.52416152004E+01  0.21625416210E+02  0.00000000000E+00 0. -1.
</event>
<event>
 7    1  0.5137842E-006  0.1962265E+03  0.7561462E-02  0.1152962E+00
         -2   -1    0    0    0  501 -0.00000000000E+00  0.00000000000E+00  0.22082671969E+03  0.22082671969E+03  0.00000000000E+00 0. -1.
          2   -1    0    0  501    0  0.00000000000E+00 -0.00000000000E+00 -0.18253416433E+03  0.18253416433E+03  0.00000000000E+00 0.  1.
         23    2    1    2    0    0  0.16001471257E+03  0.33315722378E+02  0.58982384549E+02  0.19650052612E+03  0.91754506587E+02 0.  0.
          5    1    1    2  502    0  0.20395874785E+02 -0.10718828182E+02  0.23670009606E+01  0.23536356544E+02  0.41800000000E+01 0. -1.
         -5    1    1    2    0  502 -0.18041058736E+03 -0.22596894197E+02 -0.23056830150E+02  0.18332400136E+03  0.41800000000E+01 0. -1.
        -11    1    3    3    0    0  0.90482412038E+02  0.64342447671E+02  0.40167613009E+02  0.11806970228E+03  0.00000000000E+00 0. -1.
         11    1    3    3    0    0  0.69532300537E+02 -0.31026725293E+02  0.18814771540E+02  0.78430823841E+02  0.00000000000E+00 0.  1.
</event>
<event>
 7    1  0.5137842E-006  0.1082377E+03  0.7561462E-02  0.1263869E+00
         -2   -1    0    0    0  501 -0.00000000000E+00  0.00000000000E+00  0.63256867299E+02  0.63256867299E+02  0.00000000000E+00 0.  1.
          2   -1    0    0  501    0  0.00000000000E+00 -0.00000000000E+00 -0.28308288158E+03  0.28308288158E+03  0.00000000000E+00 0. -1.
         23    2    1    2    0    0  0.18151524042E+02  0.74186097955E+02 -0.13259725639E+03  0.17578486397E+03  0.86517229756E+02 0.  0.
          5    1    1    2  502    0 -0.52489405020E+02  0.32073611476E+01 -0.63440920654E+02  0.82508469979E+02  0.41800000000E+01 0.  1.
         -5    1    1    2    0  502  0.34337880978E+02 -0.77393459103E+02 -0.23787837243E+02  0.88046414934E+02  0.41800000000E+01 0.  1.
        -11    1    3    3    0    0 -0.39627560961E+00  0.40446136021E+02 -0.13116088548E+03  0.13725605573E+03  0.00000000000E+00 0. -1.
         11    1    3    3    0    0  0.18547799651E+02  0.33739961934E+02 -0.14363709051E+01  0.38528808243E+02  0.00000000000E+00 0.  1.
</event>
<event>
 7    1  0.5137842E-006  0.1051952E+03  0.7561462E-02  0.1269735E+00
         -2   -1    0    0    0  501 -0.00000000000E+00  0.00000000000E+00  0.14908510640E+03  0.14908510640E+03  0.00000000000E+00 0.  1.
          2   -1    0    0  501    0  0.00000000000E+00 -0.00000000000E+00 -0.12930751847E+03  0.12930751847E+03  0.00000000000E+00 0. -1.
         23    2    1    2    0    0 -0.84141072125E+02 -0.54402514541E+01 -0.10582556949E+02  0.12451098113E+03  0.91003722763E+02 0.  0.
          5    1    1    2  502    0  0.77162409928E+02  0.20376350839E+02  0.72835208321E+02  0.10812804054E+03  0.41800000000E+01 0. -1.
         -5    1    1    2    0  502  0.69786621969E+01 -0.14936099385E+02 -0.42475063440E+02  0.45753603193E+02  0.41800000000E+01 0. -1.
        -11    1    3    3    0    0 -0.47328683773E+01 -0.29980865535E+02 -0.26016417364E+02  0.39976321914E+02  0.00000000000E+00 0. -1.
         11    1    3    3    0    0 -0.79408203747E+02  0.24540614081E+02  0.15433860415E+02  0.84534659218E+02  0.00000000000E+00 0.  1.
</event>
<event>
 7    1  0.5137842E-006  0.9357003E+02  0.7561462E-02  0.1294430E+00
          1   -1    0    0  501    0  0.00000000000E+00  0.00000000000E+00  0.57306696562E+03  0.57306696562E+03  0.00000000000E+00 0. -1.
         -1   -1    0    0    0  501 -0.00000000000E+00 -0.00000000000E+00 -0.30403949710E+02  0.30403949710E+02  0.00000000000E+00 0.  1.
         23    2    1    2    0    0 -0.36560317939E+02 -0.59617250079E+02  0.30707368557E+03  0.32771625834E+03  0.90624633799E+02 0.  0.
          5    1    1    2  502    0  0.24389650002E+02  0.22575516829E+02 -0.33093592087E+01  0.33659073749E+02  0.41800000000E+01 0. -1.
         -5    1    1    2    0  502  0.12170667938E+02  0.37041733251E+02  0.23889868955E+03  0.24209558325E+03  0.41800000000E+01 0. -1.
        -11    1    3    3    0    0  0.13976057537E+02  0.17397249962E+02  0.56488954360E+02  0.60737109375E+02  0.00000000000E+00 0.  1.
         11    1    3    3    0    0 -0.50536375476E+02 -0.77014500041E+02  0.25058473121E+03  0.26697914896E+03  0.00000000000E+00 0. -1.
</event>
<event>
 7    1  0.5137842E-006  0.1110727E+03  0.7561462E-02  0.1258596E+00
          3   -1    0    0  501    0  0.00000000000E+00  0.00000000000E+00  0.66763442514E+02  0.66763442514E+02  0.00000000000E+00 0. -1.
         -3   -1    0    0    0  501 -0.00000000000E+00 -0.00000000000E+00 -0.27668179577E+03  0.27668179577E+03  0.00000000000E+00 0.  1.
         23    2    1    2    0    0  0.65960631696E+02  0.38599165491E+02 -0.56194529894E+02  0.13103222970E+03  0.90393138676E+02 0.  0.
          5    1    1    2  502    0  0.32553742205E+02 -0.20713666090E+02 -0.15745623409E+02  0.41883160709E+02  0.41800000000E+01 0. -1.
         -5    1    1    2    0  502 -0.98514373901E+02 -0.17885499402E+02 -0.13797819995E+03  0.17052984787E+03  0.41800000000E+01 0. -1.
        -11    1    3    3    0    0  0.57706380562E+02  0.17244109336E+02  0.99439486098E+01  0.61043163240E+02  0.00000000000E+00 0. -1.
         11    1    3    3    0    0  0.82542511343E+01  0.21355056155E+02 -0.66138478504E+02  0.69989066460E+02  0.00000000000E+00 0.  1.
</event>
<event>
 7    1  0.5137842E-006  0.1114889E+03  0.7561462E-02  0.1257837E+00
          2   -1    0    0  501    0  0.00000000000E+00  0.00000000000E+00  0.46534444105E+03  0.46534444105E+03  0.00000000000E+00 0.  1.
         -2   -1    0    0    0  501 -0.00000000000E+00 -0.00000000000E+00 -0.34719266073E+02  0.34719266073E+02  0.00000000000E+00 0. -1.
         23    2    1    2    0    0  0.50137781951E+02 -0.40331117769E+00  0.27379770087E+03  0.29328489709E+03  0.92395292202E+02 0.  0.
          5    1    1    2  502    0  0.94920084516E+01 -0.44131252927E+02  0.10941830012E+03  0.11843775796E+03  0.41800000000E+01 0.  1.
         -5    1    1    2    0  502 -0.59629790402E+02  0.44534564105E+02  0.47409173991E+02  0.88341052076E+02  0.41800000000E+01 0.  1.
        -11    1    3    3    0    0 -0.19607622605E+02 -0.22590156525E+02  0.55546125570E+02  0.63088399107E+02  0.00000000000E+00 0.  1.
         11    1    3    3    0    0  0.69745404556E+02  0.22186845348E+02  0.21825157530E+03  0.23019649798E+03  0.00000000000E+00 0. -1.
</event>
<event>
 7    1  0.5137842E-006  0.2026218E+03  0.7561462E-02  0.1147546E+00
          1   -1    0    0  501    0  0.00000000000E+00  0.00000000000E+00  0.40933554695E+03  0.40933554695E+03  0.00000000000E+00 0. -1.
         -1   -1    0    0    0  501 -0.00000000000E+00 -0.00000000000E+00 -0.10456848748E+03  0.10456848748E+03  0.00000000000E+00 0.  1.
         23    2    1    2    0    0 -0.16506714970E+03  0.42337981481E+02  0.15781149582E+03  0.25054817865E+03  0.93969426034E+02 0.  0.
          5    1    1    2  502    0  0.34547855034E+02 -0.72089544157E+02  0.81670316385E+02  0.11435895086E+03  0.41800000000E+01 0. -1.
         -5    1    1    2    0  502  0.13051929467E+03  0.29751562675E+02  0.65285247275E+02  0.14899690491E+03  0.41800000000E+01 0.  1.
        -11    1    3    3    0    0 -0.17554954352E+03  0.43062894463E+02  0.13555588621E+03  0.22593683497E+03  0.00000000000E+00 0. -1.
         11    1    3    3    0    0  0.10482393821E+02 -0.72491298222E+00  0.22255609602E+02  0.24611343682E+02  0.00000000000E+00 0.  1.
</event>
<event>
 7    1  0.5137842E-006  0.1543942E+03  0.7561462E-02  0.1195175E+00
         -2   -1    0    0    0  501 -0.00000000000E+00  0.00000000000E+00  0.34673927713E+03  0.34673927713E+03  0.00000000000E+00 0.  1.
          2   -1    0    0  501    0  0.00000000000E+00 -0.00000000000E+00 -0.10437412184E+03  0.10437412184E+03  0.00000000000E+00 0. -1.
         23    2    1    2    0    0  0.93972600892E+02  0.10393150364E+03  0.32008510893E+02  0.16910247461E+03  0.89098232191E+02 0.  0.
          5    1    1    2  502    0 -0.77966468195E+02 -0.49711294084E+02  0.37104714108E+02  0.99720685574E+02  0.41800000000E+01 0. -1.
         -5    1    1    2    0  502 -0.16006132697E+02 -0.54220209560E+02  0.17325193029E+03  0.18229023879E+03  0.41800000000E+01 0. -1.
        -11    1    3    3    0    0  0.16554751193E+02  0.75139587781E+02  0.38901687813E+02  0.86216928463E+02  0.00000000000E+00 0.  1.
         11    1    3    3    0    0  0.77417849699E+02  0.28791915864E+02 -0.68931769198E+01  0.82885546142E+02  0.00000000000E+00 0. -1.
</event>
<event>
 7    1  0.5137842E-006  0.1561181E+03  0.7561462E-02  0.1193150E+00
         -1   -1    0    0    0  501 -0.00000000000E+00  0.00000000000E+00  0.15933769532E+03  0.15933769532E+03  0.00000000000E+00 0.  1.
          1   -1    0    0  501    0  0.00000000000E+00 -0.00000000000E+00 -0.28977265466E+03  0.28977265466E+03  0.00000000000E+00 0. -1.
         23    2    1    2    0    0  0.19572011402E+02  0.12635013312E+03 -0.20212302020E+03  0.25640912404E+03  0.92436485359E+02 0.  0.
          5    1    1    2  502    0 -0.27273343776E+02  0.11144711991E+02 -0.11337974681E+02  0.31844339465E+02  0.41800000000E+01 0.  1.
         -5    1    1    2    0  502  0.77013323738E+01 -0.13749484511E+03  0.83026035539E+02  0.16085688648E+03  0.41800000000E+01 0.  1.
        -11    1    3    3    0    0  0.41858689316E+02  0.50208351656E+02 -0.14374122888E+03  0.15790683749E+03  0.00000000000E+00 0. -1.
         11    1    3    3    0    0 -0.22286677914E+02  0.76141781463E+02 -0.58381791321E+02  0.98502286545E+02  0.00000000000E+00 0.  1.
</event>
<event>
 7    1  0.5137842E-006  0.1180244E+03  0.7561462E-02  0.1246392E+00
         -2   -1    0    0    0  501 -0.00000000000E+00  0.00000000000E+00  0.33543225680E+02  0.33543225680E+02  0.00000000000E+00 0.  1.
          2   -1    0    0  501    0  0.00000000000E+00 -0.00000000000E+00 -0.58985460440E+03  0.58985460440E+03  0.00000000000E+00 0. -1.
         23    2    1    2    0    0  0.77125697187E+00  0.59252755078E+02 -0.40134965365E+03  0.41561880732E+03  0.90254998151E+02 0.  0.
          5    1    1    2  502    0 -0.21014663198E+02 -0.92642849396E+02 -0.84961189570E+02  0.12751544905E+03  0.41800000000E+01 0.  1.
         -5    1    1    2    0  502  0.20243406227E+02  0.33390094318E+02 -0.70000535497E+02  0.80263573707E+02  0.41800000000E+01 0.  1.
        -11    1    3    3    0    0  0.41481727075E+02  0.24593349958E+02 -0.12174439717E+03  0.13094756502E+03  0.00000000000E+00 0.  1.
         11    1    3    3    0    0 -0.40710470103E+02  0.34659405120E+02 -0.27960525648E+03  0.28467124230E+03  0.00000000000E+00 0. -1.
</event>
<event>
 7    1  0.5137842E-006  0.1362491E+03  0.7561462E-02  0.1218467E+00
         -2   -1    0    0    0  501 -0.00000000000E+00  0.00000000000E+00  0.69983097408E+02  0.69983097408E+02  0.00000000000E+00 0.  1.
          2   -1    0    0  501    0  0.00000000000E+00 -0.00000000000E+00 -0.35492304244E+03  0.35492304244E+03  0.00000000000E+00 0. -1.
         23    2    1    2    0    0  0.44035585414E+02 -0.10510676629E+03 -0.14649329982E+03  0.20626594297E+03  0.89993262165E+02 0.  0.
          5    1    1    2  502    0  0.17057593775E+02 -0.11942293092E+02 -0.63066480447E+02  0.66546474179E+02  0.41800000000E+01 0.  1.
         -5    1    1    2    0  502 -0.61093179189E+02  0.11704905938E+03 -0.75380164772E+02  0.15209372270E+03  0.41800000000E+01 0.  1.
        -11    1    3    3    0    0  0.31014163654E+02 -0.30757593425E+02 -0.25756340078E+01  0.43755477269E+02  0.00000000000E+00 0.  1.
         11    1    3    3    0    0  0.13021421760E+02 -0.74349172862E+02 -0.14391766581E+03  0.16251046570E+03  0.00000000000E+00 0. -1.
</event>
<event>
 7    1  0.5137842E-006  0.9271082E+02  0.7561462E-02  0.1296417E+00
         -2   -1    0    0    0  501 -0.00000000000E+00  0.00000000000E+00  0.19200400705E+03  0.19200400705E+03  0.00000000000E+00 0.  1.
          2   -1    0    0  501    0  0.00000000000E+00 -0.00000000000E+00 -0.10983483126E+03  0.10983483126E+03  0.00000000000E+00 0. -1.
         23    2    1    2    0    0  0.46051710151E+02  0.14148085129E+01 -0.50887604721E+02  0.11349229485E+03  0.90378044816E+02 0.  0.
          5    1    1    2  502    0  0.12079566505E+02 -0.29855471190E+02  0.11715737425E+03  0.12157544089E+03  0.41800000000E+01 0. -1.
         -5    1    1    2    0  502 -0.58131276656E+02  0.28440662677E+02  0.15899406259E+02  0.66771102571E+02  0.41800000000E+01 0. -1.
        -11    1    3    3    0    0 -0.52705991415E+01  0.29242195278E+02 -0.46191071484E+02  0.54922675507E+02  0.00000000000E+00 0. -1.
         11    1    3    3    0    0  0.51322309292E+02 -0.27827386766E+02 -0.46965332364E+01  0.58569619341E+02  0.00000000000E+00 0.  1.
</event>
<event>
 7    1  0.5137842E-006  0.1641376E+03  0.7561462E-02  0.1184103E+00
         -1   -1    0    0    0  501 -0.00000000000E+00  0.00000000000E+00  0.19459197133E+03  0.19459197133E+03  0.00000000000E+00 0.  1.
          1   -1    0    0  501    0  0.00000000000E+00 -0.00000000000E+00 -0.20418157367E+03  0.20418157367E+03  0.00000000000E+00 0. -1.
         23    2    1    2    0    0  0.48527029675E+01 -0.13961624169E+03 -0.96382116595E+02  0.19215332921E+03  0.90095204405E+02 0.  0.
          5    1    1    2  502    0  0.32216295677E+02 -0.74074542386E+01  0.29421460122E+02  0.44450588310E+02  0.41800000000E+01 0. -1.
         -5    1    1    2    0  502 -0.37068998645E+02  0.14702369593E+03  0.57371054130E+02  0.16216962748E+03  0.41800000000E+01 0. -1.
        -11    1    3    3    0    0  0.17604595163E+02 -0.10314193794E+03 -0.19962621762E+02  0.10652083083E+03  0.00000000000E+00 0.  1.
         11    1    3    3    0    0 -0.12751892196E+02 -0.36474303755E+02 -0.76419494833E+02  0.85632498384E+02  0.00000000000E+00 0. -1.
</event>
<event>
 7    1  0.5137842E-006  0.8688095E+02  0.7561462E-02  0.1310586E+00
          1   -1    0    0  501    0  0.00000000000E+00  0.00000000000E+00  0.14962411185E+03  0.14962411185E+03  0.00000000000E+00 0. -1.
         -1   -1    0    0    0  501 -0.00000000000E+00 -0.00000000000E+00 -0.14802274895E+03  0.14802274895E+03  0.00000000000E+00 0.  1.
         23    2    1    2    0    0 -0.17418590871E+02 -0.33603487240E+02  0.93995038484E+02  0.13759436442E+03  0.93083511955E+02 0.  0.
          5    1    1    2  502    0  0.50218657600E+02  0.10131781043E+02  0.77770622821E+01  0.51985783210E+02  0.41800000000E+01 0.  1.
         -5    1    1    2    0  502 -0.32800066729E+02  0.23471706197E+02 -0.10017073787E+03  0.10806671317E+03  0.41800000000E+01 0.  1.
        -11    1    3    3    0    0  0.15482705310E+02  0.16015570871E+02  0.69906330045E+02  0.73369664401E+02  0.00000000000E+00 0. -1.
         11    1    3    3    0    0 -0.32901296181E+02 -0.49619058111E+02  0.24088708439E+02  0.64224700018E+02  0.00000000000E+00 0.  1.
</event>
<event>
 7    1  0.5137842E-006  0.9387364E+02  0.7561462E-02  0.1293733E+00
          2   -1    0    0  501    0  0.00000000000E+00  0.00000000000E+00  0.26093256430E+03  0.26093256430E+03  0.00000000000E+00 0. -1.
         -2   -1    0    0    0  501 -0.00000000000E+00 -0.00000000000E+00 -0.71768358498E+02  0.71768358498E+02  0.00000000000E+00 0.  1.
         23    2    1    2    0    0  0.43816392931E+02  0.17366088521E+02  0.16989067130E+03  0.19764271916E+03  0.89321592679E+02 0.  0.
          5    1    1    2  502    0 -0.49349681520E+02  0.28561798956E+02  0.52760876376E+02  0.77796850205E+02  0.41800000000E+01 0. -1.
         -5    1    1    2    0  502  0.55332885895E+01 -0.45927887476E+02 -0.33487341883E+02  0.57261353434E+02  0.41800000000E+01 0. -1.
        -11    1    3    3    0    0  0.32951845508E+02  0.44226339962E+02  0.50477874700E+02  0.74765025935E+02  0.00000000000E+00 0.  1.
         11    1    3    3    0    0  0.10864547423E+02 -0.26860251441E+02  0.11941279660E+03  0.12287769322E+03  0.00000000000E+00 0. -1.
</event>
<event>
 7    1  0.5137842E-006  0.9742874E+02  0.7561462E-02  0.1285798E+00
         -2   -1    0    0    0  501 -0.00000000000E+00  0.00000000000E+00  0.35878200449E+02  0.35878200449E+02  0.00000000000E+00 0.  1.
          2   -1    0    0  501    0  0.00000000000E+00 -0.00000000000E+00 -0.46319770895E+03  0.46319770895E+03  0.00000000000E+00 0. -1.
         23    2    1    2    0    0 -0.37582293354E+02 -0.39145580633E+02 -0.11197755555E+03  0.15551667743E+03  0.93282681973E+02 0.  0.
          5    1    1    2  502    0 -0.45699185957E+02  0.72201072476E+01 -0.92946045695E+02  0.10390854323E+03  0.41800000000E+01 0.  1.
         -5    1    1    2    0  502  0.83281479311E+02  0.31925473386E+02 -0.22239590726E+03  0.23965068874E+03  0.41800000000E+01 0.  1.
        -11    1    3    3    0    0 -0.29613507901E+02 -0.14038137091E+02 -0.12275582265E+03  0.12705518934E+03  0.00000000000E+00 0. -1.
         11    1    3    3    0    0 -0.79687854534E+01 -0.25107443542E+02  0.10778267102E+02  0.28461488095E+02  0.00000000000E+00 0.  1.
</event>
<event>
 7    1  0.5137842E-006  0.7575378E+02  0.7561462E-02  0.1341553E+00
          3   -1    0    0  501    0  0.00000000000E+00  0.00000000000E+00  0.18836335094E+03  0.18836335094E+03  0.00000000000E+00 0. -1.
         -3   -1    0    0    0  501 -0.00000000000E+00 -0.00000000000E+00 -0.60513558953E+02  0.60513558953E+02  0.00000000000E+00 0.  1.
         23    2    1    2    0    0  0.82881011461E+01  0.27643895183E+02  0.80212845847E+02  0.12258824899E+03  0.88095973743E+02 0.  0.
          5    1    1    2  502    0 -0.30538689698E+02 -0.85061108281E+01  0.77727849690E+02  0.84047941720E+02  0.41800000000E+01 0. -1.
         -5    1    1    2    0  502  0.22250588552E+02 -0.19137784355E+02 -0.30090903549E+02  0.42240719185E+02  0.41800000000E+01 0.  1.
        -11    1    3    3    0    0 -0.14378722900E+02  0.53560350903E+02  0.63527606788E+02  0.84328024318E+02  0.00000000000E+00 0.  1.
         11    1    3    3    0    0  0.22666824046E+02 -0.25916455720E+02  0.16685239059E+02  0.38260224671E+02  0.00000000000E+00 0. -1.
</event>
<event>
 7    1  0.5137842E-006  0.1052150E+03  0.7561462E-02  0.1269697E+00
          2   -1    0    0  501    0  0.00000000000E+00  0.00000000000E+00  0.38615379953E+03  0.38615379953E+03  0.00000000000E+00 0. -1.
         -2   -1    0    0    0  501 -0.00000000000E+00 -0.00000000000E+00 -0.38285143092E+02  0.38285143092E+02  0.00000000000E+00 0.  1.
         23    2    1    2    0    0  0.22845952404E+02 -0.46735444656E+02  0.18139613646E+03  0.20980785480E+03  0.91698627489E+02 0.  0.
          5    1    1    2  502    0  0.33461935200E+01 -0.39527673312E+02  0.81202357816E+02  0.90470599000E+02  0.41800000000E+01 0.  1.
         -5    1    1    2    0  502 -0.26192145924E+02  0.86263117968E+02  0.85270162154E+02  0.12416048882E+03  0.41800000000E+01 0.  1.
        -11    1    3    3    0    0 -0.12068406253E+02  0.86308812156E+01 -0.21016414806E+01  0.14985173904E+02  0.00000000000E+00 0.  1.
         11    1    3    3    0    0  0.34914358657E+02 -0.55366325872E+02  0.18349777794E+03  0.19482268089E+03  0.00000000000E+00 0. -1.
</event>
<event>
 7    1  0.5137842E-006  0.1643932E+03  0.7561462E-02  0.1183824E+00
         -2   -1    0    0    0  501 -0.00000000000E+00  0.00000000000E+00  0.47302145732E+02  0.47302145732E+02  0.00000000000E+00 0.  1.
          2   -1    0    0  501    0  0.00000000000E+00 -0.00000000000E+00 -0.68887226144E+03  0.68887226144E+03  0.00000000000E+00 0. -1.
         23    2    1    2    0    0  0.45961191433E+02 -0.13505319287E+03 -0.34458547285E+03  0.38375405619E+03  0.90422516682E+02 0.  0.
          5    1    1    2  502    0  0.21590028344E+02  0.10569204314E+03 -0.22393442153E+03  0.24859813928E+03  0.41800000000E+01 0. -1.
         -5    1    1    2    0  502 -0.67551219777E+02  0.29361149723E+02 -0.73050221327E+02  0.10382221170E+03  0.41800000000E+01 0. -1.
        -11    1    3    3    0    0  0.29856073104E+02 -0.36311660069E+02 -0.35580600689E+02  0.58956771482E+02  0.00000000000E+00 0.  1.
         11    1    3    3    0    0  0.16105118329E+02 -0.98741532796E+02 -0.30900487216E+03  0.32479728471E+03  0.00000000000E+00 0. -1.
</event>
<event>
 7    1  0.5137842E-006  0.1208465E+03  0.7561462E-02  0.1241707E+00
         -1   -1    0    0    0  501 -0.00000000000E+00  0.00000000000E+00  0.20688497092E+02  0.20688497092E+02  0.00000000000E+00 0.  1.
          1   -1    0    0  501    0  0.00000000000E+00 -0.00000000000E+00 -0.12615102767E+04  0.12615102767E+04  0.00000000000E+00 0. -1.
         23    2    1    2    0    0 -0.99743404100E+02  0.18549457963E+02 -0.34259966532E+03  0.36965090852E+03  0.94733491620E+02 0.  0.
          5    1    1    2  502    0  0.58312756448E+02 -0.20580580525E+02 -0.83193336962E+03  0.83423889968E+03  0.41800000000E+01 0.  1.
         -5    1    1    2    0  502  0.41430647652E+02  0.20311225615E+01 -0.66288744705E+02  0.78308965632E+02  0.41800000000E+01 0.  1.
        -11    1    3    3    0    0 -0.21770979255E+02 -0.36553400883E+02 -0.12446886313E+03  0.13153944102E+03  0.00000000000E+00 0. -1.
         11    1    3    3    0    0 -0.77972424845E+02  0.55102858847E+02 -0.21813080219E+03  0.23811146750E+03  0.00000000000E+00 0.  1.
</event>
<event>
 7    1  0.5137842E-006  0.1247464E+03  0.7561462E-02  0.1235466E+00
         -2   -1    0    0    0  501 -0.00000000000E+00  0.00000000000E+00  0.17340207004E+03  0.17340207004E+03  0.00000000000E+00 0. -1.
          2   -1    0    0  501    0  0.00000000000E+00 -0.00000000000E+00 -0.10657700457E+03  0.10657700457E+03  0.00000000000E+00 0.  1.
         23    2    1    2    0    0 -0.19689627961E+02  0.78043775289E+02  0.18523350372E+02  0.12358697911E+03  0.91935382669E+02 0.  0.
          5    1    1    2  502    0 -0.27398047497E+02 -0.75478759728E+02 -0.10292412343E+02  0.81062336067E+02  0.41800000000E+01 0.  1.
         -5    1    1    2    0  502  0.47087675459E+02 -0.25650155607E+01  0.58594127440E+02  0.75329759428E+02  0.41800000000E+01 0.  1.
        -11    1    3    3    0    0  0.36741404805E+02  0.26332415746E+02  0.11997801944E+02  0.46768303342E+02  0.00000000000E+00 0. -1.
         11    1    3    3    0    0 -0.56431032766E+02  0.51711359543E+02  0.65255484276E+01  0.76818675770E+02  0.00000000000E+00 0.  1.
</event>
<event>
 7    1  0.5137842E-006  0.1086379E+03  0.7561462E-02  0.1263113E+00
         -4   -1    0    0    0  501 -0.00000000000E+00  0.00000000000E+00  0.86104839927E+02  0.86104839927E+02  0.00000000000E+00 0.  1.
          4   -1    0    0  501    0  0.00000000000E+00 -0.00000000000E+00 -0.19292591842E+03  0.19292591842E+03  0.00000000000E+00 0. -1.
         23    2    1    2    0    0  0.26190214737E+02  0.63790643093E+02 -0.51736712339E+02  0.12594390915E+03  0.91815071498E+02 0.  0.
          5    1    1    2  502    0 -0.63824078143E+02 -0.24132627696E+02  0.87683557043E+01  0.68922080149E+02  0.41800000000E+01 0.  1.
         -5    1    1    2    0  502  0.37633863406E+02 -0.39658015397E+02 -0.63852721860E+02  0.84164769048E+02  0.41800000000E+01 0.  1.
        -11    1    3    3    0    0  0.42087766032E+02  0.18301374058E+02  0.10650148361E+02  0.47114180478E+02  0.00000000000E+00 0.  1.
         11    1    3    3    0    0 -0.15897551295E+02  0.45489269035E+02 -0.62386860700E+02  0.78829728672E+02  0.00000000000E+00 0. -1.
</event>
<event>
 7    1  0.5137842E-006  0.7191582E+02  0.7561462E-02  0.1353697E+00
         -1   -1    0    0    0  501 -0.00000000000E+00  0.00000000000E+00  0.84017056109E+02  0.84017056109E+02  0.00000000000E+00 0.  1.
          1   -1    0    0  501    0  0.00000000000E+00 -0.00000000000E+00 -0.22336747790E+03  0.22336747790E+03  0.00000000000E+00 0. -1.
         23    2    1    2    0    0 -0.53006677809E+02 -0.44311552021E+02 -0.11508026680E+03  0.16244983496E+03  0.91505516420E+02 0.  0.
          5    1    1    2  502    0  0.34297545292E+02  0.37604949074E+02  0.47866350416E+02  0.69993669071E+02  0.41800000000E+01 0.  1.
         -5    1    1    2    0  502  0.18709132517E+02  0.67066029475E+01 -0.72136505400E+02  0.74941029976E+02  0.41800000000E+01 0.  1.
        -11    1    3    3    0    0 -0.19576278748E+02 -0.30588950670E+02 -0.12054941808E+03  0.12590105954E+03  0.00000000000E+00 0. -1.
         11    1    3    3    0    0 -0.33430399061E+02 -0.13722601351E+02  0.54691512758E+01  0.36548775423E+02  0.00000000000E+00 0.  1.
</event>
<event>
 7    1  0.5137842E-006  0.1517540E+03  0.7561462E-02  0.1198334E+00
          2   -1    0    0  501    0  0.00000000000E+00  0.00000000000E+00  0.93908386758E+03  0.93908386758E+03  0.00000000000E+00 0. -1.
         -2   -1    0    0    0  501 -0.00000000000E+00 -0.00000000000E+00 -0.38857530251E+02  0.38857530251E+02  0.00000000000E+00 0.  1.
         23    2    1    2    0    0 -0.11172219137E+03  0.94272161809E+02  0.57293634572E+03  0.59829174665E+03  0.91257160393E+02 0.  0.
          5    1    1    2  502    0  0.83034798116E+02 -0.33427099257E+02  0.70085574748E+02  0.11376119220E+03  0.41800000000E+01 0. -1.
         -5    1    1    2    0  502  0.28687393249E+02 -0.60845062551E+02  0.25720441686E+03  0.26588845899E+03  0.41800000000E+01 0. -1.
        -11    1    3    3    0    0 -0.44599541637E+02  0.43893960267E+02  0.99989748270E+02  0.11795655396E+03  0.00000000000E+00 0.  1.
         11    1    3    3    0    0 -0.67122649728E+02  0.50378201541E+02  0.47294659745E+03  0.48033519269E+03  0.00000000000E+00 0. -1.
</event>
<event>
 7    1  0.5137842E-006  0.1479510E+03  0.7561462E-02  0.1203014E+00
          1   -1    0    0  501    0  0.00000000000E+00  0.00000000000E+00  0.66959932967E+02  0.66959932967E+02  0.00000000000E+00 0. -1.
         -1   -1    0    0    0  501 -0.00000000000E+00 -0.00000000000E+00 -0.45338472319E+03  0.45338472319E+03  0.00000000000E+00 0.  1.
         23    2    1    2    0    0 -0.10289447298E+03  0.34013764396E+02 -0.80549122372E+02  0.17258544301E+03  0.10748658188E+03 0.  0.
          5    1    1    2  502    0  0.15361281416E+01 -0.55303103591E+02 -0.64568587900E+02  0.85131474202E+02  0.41800000000E+01 0. -1.
         -5    1    1    2    0  502  0.10135834484E+03  0.21289339195E+02 -0.24130707995E+03  0.26262773895E+03  0.41800000000E+01 0. -1.
        -11    1    3    3    0    0 -0.23102294430E+02  0.50278943881E+02  0.36457614457E+01  0.55452500235E+02  0.00000000000E+00 0.  1.
         11    1    3    3    0    0 -0.79792178548E+02 -0.16265179485E+02 -0.84194883818E+02  0.11713294277E+03  0.00000000000E+00 0. -1.
</event>
<event>
 7    1  0.5137842E-006  0.6788993E+02  0.7561462E-02  0.1367419E+00
         -1   -1    0    0    0  501 -0.00000000000E+00  0.00000000000E+00  0.17398267235E+03  0.17398267235E+03  0.00000000000E+00 0.  1.
          1   -1    0    0  501    0  0.00000000000E+00 -0.00000000000E+00 -0.81831037392E+02  0.81831037392E+02  0.00000000000E+00 0. -1.
         23    2    1    2    0    0 -0.39755974685E+02  0.73024030780E+01  0.99433000943E+01  0.10076838749E+03  0.91768927680E+02 0.  0.
          5    1    1    2  502    0  0.22926395150E+02 -0.17314042177E+02 -0.29598230620E+02  0.41459899987E+02  0.41800000000E+01 0.  1.
         -5    1    1    2    0  502  0.16829579534E+02  0.10011639099E+02  0.11180656548E+03  0.11358542226E+03  0.41800000000E+01 0.  1.
        -11    1    3    3    0    0  0.17737142131E+02 -0.16756099160E+02  0.26761297750E+02  0.36215191940E+02  0.00000000000E+00 0.  1.
         11    1    3    3    0    0 -0.57493116815E+02  0.24058502238E+02 -0.16817997656E+02  0.64553195554E+02  0.00000000000E+00 0. -1.
</event>
<event>
 7    1  0.5137842E-006  0.1424375E+03  0.7561462E-02  0.1210086E+00
         -2   -1    0    0    0  501 -0.00000000000E+00  0.00000000000E+00  0.28302197326E+02  0.28302197326E+02  0.00000000000E+00 0.  1.
          2   -1    0    0  501    0  0.00000000000E+00 -0.00000000000E+00 -0.10599692550E+04  0.10599692550E+04  0.00000000000E+00 0. -1.
         23    2    1    2    0    0 -0.65276129283E+02  0.10760036574E+03 -0.63828690907E+03  0.65670313249E+03  0.89498682514E+02 0.  0.
          5    1    1    2  502    0  0.59620318002E+02 -0.62435115557E+02 -0.90061975223E+02  0.12482530895E+03  0.41800000000E+01 0. -1.
         -5    1    1    2    0  502  0.56558112809E+01 -0.45165250180E+02 -0.30331817342E+03  0.30674301093E+03  0.41800000000E+01 0. -1.
        -11    1    3    3    0    0 -0.71755962081E+02  0.11938305680E+03 -0.60447444530E+03  0.62031490983E+03  0.00000000000E+00 0. -1.
         11    1    3    3    0    0  0.64798327984E+01 -0.11782691061E+02 -0.33812463770E+02  0.36388222654E+02  0.00000000000E+00 0.  1.
</event>
<event>
 7    1  0.5137842E-006  0.1133978E+03  0.7561462E-02  0.1254404E+00
          3   -1    0    0  501    0  0.00000000000E+00  0.00000000000E+00  0.51896642115E+02  0.51896642115E+02  0.00000000000E+00 0. -1.
         -3   -1    0    0    0  501 -0.00000000000E+00 -0.00000000000E+00 -0.31402628790E+03  0.31402628790E+03  0.00000000000E+00 0.  1.
         23    2    1    2    0    0  0.22453843856E+02 -0.59290481960E+02 -0.77728746424E+02  0.13425066299E+03  0.89229737972E+02 0.  0.
          5    1    1    2  502    0 -0.47646224750E+00 -0.38157298022E+02 -0.35297916042E+02  0.52149992191E+02  0.41800000000E+01 0. -1.
         -5    1    1    2    0  502 -0.21977381608E+02  0.97447779982E+02 -0.14910298332E+03  0.17952227483E+03  0.41800000000E+01 0. -1.
        -11    1    3    3    0    0  0.42425647897E+02 -0.26473658730E+02 -0.81531974075E+02  0.95646500211E+02  0.00000000000E+00 0.  1.
         11    1    3    3    0    0 -0.19971804041E+02 -0.32816823230E+02  0.38032276508E+01  0.38604162783E+02  0.00000000000E+00 0. -1.
</event>
<event>
 7    1  0.5137842E-006  0.1013342E+03  0.7561462E-02  0.1277515E+00
          2   -1    0    0  501    0  0.00000000000E+00  0.00000000000E+00  0.26917346178E+02  0.26917346178E+02  0.00000000000E+00 0. -1.
         -2   -1    0    0    0  501 -0.00000000000E+00 -0.00000000000E+00 -0.49767643858E+03  0.49767643858E+03  0.00000000000E+00 0.  1.
         23    2    1    2    0    0 -0.51287590206E+01  0.34582753050E+02 -0.15725709711E+03  0.18525165197E+03  0.91466436406E+02 0.  0.
          5    1    1    2  502    0  0.20466874984E+02 -0.66465948440E+02 -0.94201557184E+02  0.11716663795E+03  0.41800000000E+01 0. -1.
         -5    1    1    2    0  502 -0.15338115964E+02  0.31883195391E+02 -0.21930043810E+03  0.22217549483E+03  0.41800000000E+01 0. -1.
        -11    1    3    3    0    0 -0.10451325973E+02 -0.30412137283E+02 -0.43007669398E+02  0.53700911871E+02  0.00000000000E+00 0. -1.
         11    1    3    3    0    0  0.53225669520E+01  0.64994890332E+02 -0.11424942772E+03  0.13155074010E+03  0.00000000000E+00 0.  1.
</event>
<event>
 7    1  0.5137842E-006  0.1246278E+03  0.7561462E-02  0.1235652E+00
         -2   -1    0    0    0  501 -0.00000000000E+00  0.00000000000E+00  0.11158896139E+03  0.11158896139E+03  0.00000000000E+00 0. -1.
          2   -1    0    0  501    0  0.00000000000E+00 -0.00000000000E+00 -0.17798165937E+03  0.17798165937E+03  0.00000000000E+00 0.  1.
         23    2    1    2    0    0  0.37319144900E+02 -0.91923083487E+02 -0.34834162898E+02  0.12682462355E+03  0.70911877560E+02 0.  0.
          5    1    1    2  502    0 -0.19086068358E+02  0.10385892993E+03  0.19143733702E+02  0.10740069959E+03  0.41800000000E+01 0. -1.
         -5    1    1    2    0  502 -0.18233076542E+02 -0.11935846442E+02 -0.50702268775E+02  0.55345297627E+02  0.41800000000E+01 0. -1.
        -11    1    3    3    0    0  0.47599764155E+01 -0.88520795675E+02 -0.30769350846E+02  0.93836781668E+02  0.00000000000E+00 0.  1.
         11    1    3    3    0    0  0.32559168485E+02 -0.34022878125E+01 -0.40648120516E+01  0.32987841878E+02  0.00000000000E+00 0. -1.
</event>
<event>
 7    1  0.5137842E-006  0.7641952E+02  0.7561462E-02  0.1339531E+00
          2   -1    0    0  501    0  0.00000000000E+00  0.00000000000E+00  0.23977002865E+03  0.23977002865E+03  0.00000000000E+00 0.  1.
         -2   -1    0    0    0  501 -0.00000000000E+00 -0.00000000000E+00 -0.53920846990E+02  0.53920846990E+02  0.00000000000E+00 0. -1.
         23    2    1    2    0    0  0.11055508988E+02 -0.22198054322E+02  0.10977853687E+03  0.14520000566E+03  0.91742774061E+02 0.  0.
          5    1    1    2  502    0 -0.46976246456E+01 -0.34566726834E+02 -0.17139186401E+02  0.39091564203E+02  0.41800000000E+01 0.  1.
         -5    1    1    2    0  502 -0.63578843423E+01  0.56764781157E+02  0.93209831189E+02  0.10939930577E+03  0.41800000000E+01 0.  1.
        -11    1    3    3    0    0 -0.80718384724E+01  0.15883749705E+02  0.99871200317E+02  0.10144803958E+03  0.00000000000E+00 0.  1.
         11    1    3    3    0    0  0.19127347460E+02 -0.38081804027E+02  0.99073365524E+01  0.43751966086E+02  0.00000000000E+00 0. -1.
</event>
<event>
 7    1  0.5137842E-006  0.1140561E+03  0.7561462E-02  0.1253238E+00
          1   -1    0    0  501    0  0.00000000000E+00  0.00000000000E+00  0.65616313655E+03  0.65616313655E+03  0.00000000000E+00 0. -1.
         -1   -1    0    0    0  501 -0.00000000000E+00 -0.00000000000E+00 -0.21700163572E+02  0.21700163572E+02  0.00000000000E+00 0.  1.
         23    2    1    2    0    0 -0.29614488987E+02 -0.57902499647E+01  0.35499594152E+03  0.37019734275E+03  0.10056544699E+03 0.  0.
          5    1    1    2  502    0 -0.64548332603E+01 -0.53320856898E+02  0.79728294589E+02  0.96222928717E+02  0.41800000000E+01 0.  1.
         -5    1    1    2    0  502  0.36069322247E+02  0.59111106863E+02  0.19973873686E+03  0.21144302865E+03  0.41800000000E+01 0.  1.
        -11    1    3    3    0    0  0.25657337473E+01 -0.50066142830E+02  0.17885982228E+03  0.18575262494E+03  0.00000000000E+00 0.  1.
         11    1    3    3    0    0 -0.32180222734E+02  0.44275892866E+02  0.17613611924E+03  0.18444471781E+03  0.00000000000E+00 0. -1.
</event>
<event>
 7    1  0.5137842E-006  0.8975325E+02  0.7561462E-02  0.1303450E+00
         -1   -1    0    0    0  501 -0.00000000000E+00  0.00000000000E+00  0.38880930694E+02  0.38880930694E+02  0.00000000000E+00 0.  1.
          1   -1    0    0  501    0  0.00000000000E+00 -0.00000000000E+00 -0.38956170348E+03  0.38956170348E+03  0.00000000000E+00 0. -1.
         23    2    1    2    0    0  0.67960016475E+01 -0.58167906657E+02 -0.17057277567E+03  0.20147043982E+03  0.89808548150E+02 0.  0.
          5    1    1    2  502    0 -0.35899616595E+02 -0.40345170691E+00 -0.15099333256E+03  0.15525915149E+03  0.41800000000E+01 0. -1.
         -5    1    1    2    0  502  0.29103614948E+02  0.58571358364E+02 -0.29114664564E+02  0.71713042861E+02  0.41800000000E+01 0. -1.
        -11    1    3    3    0    0  0.16144276224E+02  0.25913427818E+01  0.36214092071E+01  0.16747158471E+02  0.00000000000E+00 0.  1.
         11    1    3    3    0    0 -0.93482745762E+01 -0.60759249439E+02 -0.17419418487E+03  0.18472328135E+03  0.00000000000E+00 0. -1.
</event>
<event>
 7    1  0.5137842E-006  0.9297786E+02  0.7561462E-02  0.1295796E+00
         -2   -1    0    0    0  501 -0.00000000000E+00  0.00000000000E+00  0.12146036995E+03  0.12146036995E+03  0.00000000000E+00 0.  1.
          2   -1    0    0  501    0  0.00000000000E+00 -0.00000000000E+00 -0.12097043929E+03  0.12097043929E+03  0.00000000000E+00 0. -1.
         23    2    1    2    0    0  0.48297528865E+02  0.23830459901E+02 -0.11421294222E+02  0.10571938694E+03  0.90252981664E+02 0.  0.
          5    1    1    2  502    0 -0.75218447422E+02 -0.53057597631E+02  0.23531373871E+02  0.95100585988E+02  0.41800000000E+01 0.  1.
         -5    1    1    2    0  502  0.26920918557E+02  0.29227137731E+02 -0.11620148985E+02  0.41610836309E+02  0.41800000000E+01 0.  1.
        -11    1    3    3    0    0  0.35651698789E+02  0.17503248769E+02 -0.50450292235E+02  0.64207782477E+02  0.00000000000E+00 0. -1.
         11    1    3    3    0    0  0.12645830077E+02  0.63272111318E+01  0.39028998013E+02  0.41511604461E+02  0.00000000000E+00 0.  1.
</event>
<event>
 7    1  0.5137842E-006  0.1174575E+03  0.7561462E-02  0.1247351E+00
          2   -1    0    0  501    0  0.00000000000E+00  0.00000000000E+00  0.34373773283E+03  0.34373773283E+03  0.00000000000E+00 0.  1.
         -2   -1    0    0    0  501 -0.00000000000E+00 -0.00000000000E+00 -0.49874454091E+02  0.49874454091E+02  0.00000000000E+00 0. -1.
         23    2    1    2    0    0 -0.33676325651E+02 -0.62933128075E+02  0.16264633762E+03  0.19877915332E+03  0.89244871756E+02 0.  0.
          5    1    1    2  502    0 -0.23655790798E+02 -0.22244191435E+02  0.64445727176E+02  0.72285023637E+02  0.41800000000E+01 0. -1.
         -5    1    1    2    0  502  0.57332116449E+02  0.85177319509E+02  0.66771213945E+02  0.12254800997E+03  0.41800000000E+01 0. -1.
        -11    1    3    3    0    0 -0.69792507643E+01  0.15265526089E+02  0.80618993060E+02  0.82347849213E+02  0.00000000000E+00 0.  1.
         11    1    3    3    0    0 -0.26697074887E+02 -0.78198654163E+02  0.82027344562E+02  0.11643130411E+03  0.00000000000E+00 0. -1.
</event>
<event>
 7    1  0.5137842E-006  0.9730539E+02  0.7561462E-02  0.1286067E+00
          2   -1    0    0  501    0  0.00000000000E+00  0.00000000000E+00  0.14082591935E+03  0.14082591935E+03  0.00000000000E+00 0. -1.
         -2   -1    0    0    0  501 -0.00000000000E+00 -0.00000000000E+00 -0.91725206601E+02  0.91725206601E+02  0.00000000000E+00 0.  1.
         23    2    1    2    0    0 -0.35796515234E+02 -0.20021023250E+02  0.35785187829E+02  0.10024055629E+03  0.84174566122E+02 0.  0.
          5    1    1    2  502    0  0.34085206183E+02  0.61196210900E+02  0.42133133441E+02  0.81850173137E+02  0.41800000000E+01 0.  1.
         -5    1    1    2    0  502  0.17113090510E+01 -0.41175187650E+02 -0.28817608523E+02  0.50460396527E+02  0.41800000000E+01 0.  1.
        -11    1    3    3    0    0 -0.53921152242E+02 -0.30630734527E+02  0.45682612510E+02  0.77023591467E+02  0.00000000000E+00 0. -1.
         11    1    3    3    0    0  0.18124637009E+02  0.10609711277E+02 -0.98974246808E+01  0.23216964819E+02  0.00000000000E+00 0.  1.
</event>
<event>
 6    1  0.5137842E-006  0.7004867E+02  0.7561462E-02  0.1359928E+00
         -2   -1    0    0    0  501 -0.00000000000E+00  0.00000000000E+00  0.63127297107E+02  0.63127297107E+02  0.00000000000E+00 0.  1.
          2   -1    0    0  501    0  0.00000000000E+00 -0.00000000000E+00 -0.13286731198E+03  0.13286731198E+03  0.00000000000E+00 0. -1.
          5    1    1    2  502    0  0.40250765419E+02 -0.27872861978E+01 -0.38442010139E+02  0.55885182515E+02  0.41800000000E+01 0. -1.
         -5    1    1    2    0  502 -0.63889837727E+02  0.22357444466E+02  0.27454724560E+02  0.73164205650E+02  0.41800000000E+01 0.  1.
        -11    1    1    2    0    0  0.13777539505E+02 -0.62135278793E+01 -0.22941801104E+02  0.27472800393E+02  0.00000000000E+00 0. -1.
         11    1    1    2    0    0  0.98615328022E+01 -0.13356630388E+02 -0.35810928186E+02  0.39472420525E+02  0.00000000000E+00 0.  1.
</event>
<event>
 7    1  0.5137842E-006  0.2248285E+03  0.7561462E-02  0.1130334E+00
         -3   -1    0    0    0  501 -0.00000000000E+00  0.00000000000E+00  0.34660599142E+03  0.34660599142E+03  0.00000000000E+00 0.  1.
          3   -1    0    0  501    0  0.00000000000E+00 -0.00000000000E+00 -0.16175540666E+03  0.16175540666E+03  0.00000000000E+00 0. -1.
         23    2    1    2    0    0 -0.29178664027E+02 -0.20372532436E+03  0.55873786013E+02  0.23516209578E+03  0.99115735919E+02 0.  0.
          5    1    1    2  502    0  0.67713139029E+02  0.13157039983E+03  0.42325338275E+02  0.15396345660E+03  0.41800000000E+01 0.  1.
         -5    1    1    2    0  502 -0.38534475002E+02  0.72154924535E+02  0.86651460476E+02  0.11923584570E+03  0.41800000000E+01 0.  1.
        -11    1    3    3    0    0 -0.42570811119E+02 -0.51109800243E+02 -0.12012885363E+02  0.67592862456E+02  0.00000000000E+00 0. -1.
         11    1    3    3    0    0  0.13392147092E+02 -0.15261552412E+03  0.67886671376E+02  0.16756923332E+03  0.00000000000E+00 0.  1.
</event>
<event>
 7    1  0.5137842E-006  0.2475006E+03  0.7561462E-02  0.1114895E+00
          2   -1    0    0  501    0  0.00000000000E+00  0.00000000000E+00  0.13239956042E+03  0.13239956042E+03  0.00000000000E+00 0. -1.
         -2   -1    0    0    0  501 -0.00000000000E+00 -0.00000000000E+00 -0.91956952235E+03  0.91956952235E+03  0.00000000000E+00 0.  1.
         23    2    1    2    0    0  0.15606618836E+03  0.94814877377E+02 -0.14410196375E+03  0.25032321535E+03  0.92465237071E+02 0.  0.
          5    1    1    2  502    0  0.31250870734E+02 -0.99162299513E+02  0.25644275988E+02  0.10716753173E+03  0.41800000000E+01 0. -1.
         -5    1    1    2    0  502 -0.18731705910E+03  0.43474221359E+01 -0.66871227417E+03  0.69447833568E+03  0.41800000000E+01 0.  1.
        -11    1    3    3    0    0  0.11269050357E+03  0.16340791102E+02 -0.67351159945E+02  0.13229644664E+03  0.00000000000E+00 0.  1.
         11    1    3    3    0    0  0.43375684798E+02  0.78474086276E+02 -0.76750803802E+02  0.11802676871E+03  0.00000000000E+00 0. -1.
</event>
<event>
 7    1  0.8428306E-006  0.3732649E+03  0.7561462E-02  0.1053452E+00
         -2   -1    0    0    0  501 -0.00000000000E+00  0.00000000000E+00  0.22967966609E+03  0.22967966609E+03  0.00000000000E+00 0.  1.
          2   -1    0    0  501    0  0.00000000000E+00 -0.00000000000E+00 -0.61530537994E+03  0.61530537994E+03  0.00000000000E+00 0. -1.
         23    2    1    2    0    0  0.35346252474E+03  0.67923536231E+02 -0.20166572042E+03  0.42185638545E+03  0.88002181706E+02 0.  0.
          5    1    1    2  502    0 -0.93980705882E+02  0.34723752184E+02 -0.31430983387E+02  0.10508801626E+03  0.41800000000E+01 0. -1.
         -5    1    1    2    0  502 -0.25948181886E+03 -0.10264728841E+03 -0.15252901005E+03  0.31804064433E+03  0.41800000000E+01 0. -1.
        -11    1    3    3    0    0  0.20985448390E+03  0.37718104908E+01 -0.14306341218E+03  0.25400840709E+03  0.00000000000E+00 0.  1.
         11    1    3    3    0    0  0.14360804084E+03  0.64151725740E+02 -0.58602308233E+02  0.16784797836E+03  0.00000000000E+00 0. -1.
</event>
<event>
 7    1  0.5137842E-006  0.1501063E+03  0.7561462E-02  0.1200342E+00
          1   -1    0    0  501    0  0.00000000000E+00  0.00000000000E+00  0.25618619642E+03  0.25618619642E+03  0.00000000000E+00 0. -1.
         -1   -1    0    0    0  501 -0.00000000000E+00 -0.00000000000E+00 -0.11308223947E+03  0.11308223947E+03  0.00000000000E+00 0.  1.
         23    2    1    2    0    0 -0.10405339067E+03  0.71031984896E+02  0.10147014467E+03  0.18691232492E+03  0.93634267024E+02 0.  0.
          5    1    1    2  502    0  0.90048407390E+02 -0.19853935910E+02  0.75517805931E+02  0.11926150199E+03  0.41800000000E+01 0.  1.
         -5    1    1    2    0  502  0.14004983280E+02 -0.51178048985E+02 -0.33883993654E+02  0.63094608966E+02  0.41800000000E+01 0.  1.
        -11    1    3    3    0    0 -0.44601953913E+02 -0.17607838920E+02  0.46757953722E+02  0.66975193323E+02  0.00000000000E+00 0.  1.
         11    1    3    3    0    0 -0.59451436757E+02  0.88639823816E+02  0.54712190948E+02  0.11993713160E+03  0.00000000000E+00 0. -1.
</event>
<event>
 7    1  0.5137842E-006  0.6456062E+02  0.7561462E-02  0.1379632E+00
          1   -1    0    0  501    0  0.00000000000E+00  0.00000000000E+00  0.83478800217E+02  0.83478800217E+02  0.00000000000E+00 0. -1.
         -1   -1    0    0    0  501 -0.00000000000E+00 -0.00000000000E+00 -0.16557476861E+03  0.16557476861E+03  0.00000000000E+00 0.  1.
         23    2    1    2    0    0  0.19823203414E+02  0.12552904836E+02 -0.43246835341E+01  0.99898172609E+02  0.97007253283E+02 0.  0.
          5    1    1    2  502    0  0.12353869420E+02 -0.98199385486E+01 -0.10527415185E+03  0.10653247735E+03  0.41800000000E+01 0. -1.
         -5    1    1    2    0  502 -0.32177072834E+02 -0.27329662878E+01  0.27502866985E+02  0.42622918874E+02  0.41800000000E+01 0. -1.
        -11    1    3    3    0    0  0.49064959828E+02  0.13788358070E+02  0.26456766121E+02  0.57423423573E+02  0.00000000000E+00 0.  1.
         11    1    3    3    0    0 -0.29241756414E+02 -0.12354532339E+01 -0.30781449655E+02  0.42474749037E+02  0.00000000000E+00 0. -1.
</event>
<event>
 7    1  0.5137842E-006  0.1048650E+03  0.7561462E-02  0.1270386E+00
          1   -1    0    0  501    0  0.00000000000E+00  0.00000000000E+00  0.36711922042E+02  0.36711922042E+02  0.00000000000E+00 0. -1.
         -1   -1    0    0    0  501 -0.00000000000E+00 -0.00000000000E+00 -0.11474524836E+04  0.11474524836E+04  0.00000000000E+00 0.  1.
         23    2    1    2    0    0 -0.40864302699E+02  0.65745549036E+02 -0.79707395101E+02  0.14185428396E+03  0.88187304023E+02 0.  0.
          5    1    1    2  502    0  0.66463869987E+02 -0.66697562876E+01 -0.25628189771E+03  0.26487698117E+03  0.41800000000E+01 0. -1.
         -5    1    1    2    0  502 -0.25599567287E+02 -0.59075792748E+02 -0.77475126874E+03  0.77743314050E+03  0.41800000000E+01 0.  1.
        -11    1    3    3    0    0 -0.15306076220E+02  0.35660687759E+02 -0.92538230066E+02  0.10034582525E+03  0.00000000000E+00 0.  1.
         11    1    3    3    0    0 -0.25558226479E+02  0.30084861277E+02  0.12830834966E+02  0.41508458713E+02  0.00000000000E+00 0. -1.
</event>
<event>
 7    1  0.5137842E-006  0.1409259E+03  0.7561462E-02  0.1212088E+00
          2   -1    0    0  501    0  0.00000000000E+00  0.00000000000E+00  0.72091127035E+03  0.72091127035E+03  0.00000000000E+00 0. -1.
         -2   -1    0    0    0  501 -0.00000000000E+00 -0.00000000000E+00 -0.31569156866E+02  0.31569156866E+02  0.00000000000E+00 0.  1.
         23    2    1    2    0    0 -0.91522690261E+02  0.76293004758E+01  0.44129313907E+03  0.45988849239E+03  0.91231473636E+02 0.  0.
          5    1    1    2  502    0  0.21282972880E+01 -0.52821824455E+02  0.65015614539E+02  0.83899805256E+02  0.41800000000E+01 0. -1.
         -5    1    1    2    0  502  0.89394392973E+02  0.45192523980E+02  0.18303335988E+03  0.20869212957E+03  0.41800000000E+01 0. -1.
        -11    1    3    3    0    0 -0.74661734515E+01 -0.33969076712E+02  0.14465595801E+03  0.14877831867E+03  0.00000000000E+00 0. -1.
         11    1    3    3    0    0 -0.84056516809E+02  0.41598377188E+02  0.29663718106E+03  0.31111017372E+03  0.00000000000E+00 0.  1.
</event>
<event>
 7    1  0.5137842E-006  0.8465156E+02  0.7561462E-02  0.1316346E+00
          1   -1    0    0  501    0  0.00000000000E+00  0.00000000000E+00  0.42398963440E+03  0.42398963440E+03  0.00000000000E+00 0. -1.
         -1   -1    0    0    0  501 -0.00000000000E+00 -0.00000000000E+00 -0.36248433589E+02  0.36248433589E+02  0.00000000000E+00 0.  1.
         23    2    1    2    0    0 -0.44866632691E+02  0.33436648634E+02  0.19027139759E+03  0.22479562233E+03  0.10582458542E+03 0.  0.
          5    1    1    2  502    0  0.26912937220E+02 -0.26004606844E+02  0.20906668052E+03  0.21243091835E+03  0.41800000000E+01 0. -1.
         -5    1    1    2    0  502  0.17953695472E+02 -0.74320417897E+01 -0.11596877291E+02  0.23011527310E+02  0.41800000000E+01 0.  1.
        -11    1    3    3    0    0 -0.64119009918E+02 -0.94021930257E+01  0.14816798496E+03  0.16172012996E+03  0.00000000000E+00 0.  1.
         11    1    3    3    0    0  0.19252377226E+02  0.42838841660E+02  0.42103412623E+02  0.63075492373E+02  0.00000000000E+00 0. -1.
</event>
<event>
 7    1  0.5137842E-006  0.9265761E+02  0.7561462E-02  0.1296541E+00
         -1   -1    0    0    0  501 -0.00000000000E+00  0.00000000000E+00  0.31483798679E+03  0.31483798679E+03  0.00000000000E+00 0.  1.
          1   -1    0    0  501    0  0.00000000000E+00 -0.00000000000E+00 -0.67501980941E+02  0.67501980941E+02  0.00000000000E+00 0. -1.
         23    2    1    2    0    0  0.75197094529E+02 -0.32003533687E+02  0.32871101968E+02  0.12095589414E+03  0.82891433750E+02 0.  0.
          5    1    1    2  502    0 -0.77029958234E+02  0.66202969069E+01  0.22150730458E+03  0.23464952840E+03  0.41800000000E+01 0. -1.
         -5    1    1    2    0  502  0.18328637047E+01  0.25383236780E+02 -0.70424006984E+01  0.26734545187E+02  0.41800000000E+01 0. -1.
        -11    1    3    3    0    0  0.64183063970E+02 -0.24173450228E+02 -0.15852788178E+02  0.70392700541E+02  0.00000000000E+00 0. -1.
         11    1    3    3    0    0  0.11014030559E+02 -0.78300834583E+01  0.48723890146E+02  0.50563193601E+02  0.00000000000E+00 0.  1.
</event>
<event>
 7    1  0.5137842E-006  0.2550785E+03  0.7561462E-02  0.1110137E+00
          2   -1    0    0  501    0  0.00000000000E+00  0.00000000000E+00  0.70208739019E+03  0.70208739019E+03  0.00000000000E+00 0.  1.
         -2   -1    0    0    0  501 -0.00000000000E+00 -0.00000000000E+00 -0.97838375999E+02  0.97838375999E+02  0.00000000000E+00 0. -1.
         23    2    1    2    0    0  0.18490325983E+03 -0.15804441051E+03  0.29865836571E+03  0.39413721489E+03  0.83546834515E+02 0.  0.
          5    1    1    2  502    0 -0.14991595957E+03  0.82651193621E+02  0.14283997534E+03  0.22299494545E+03  0.41800000000E+01 0. -1.
         -5    1    1    2    0  502 -0.34987300267E+02  0.75393216892E+02  0.16275067315E+03  0.18279360586E+03  0.41800000000E+01 0.  1.
        -11    1    3    3    0    0  0.36755609021E+02 -0.80468335640E+02  0.83657969221E+02  0.12175706817E+03  0.00000000000E+00 0.  1.
         11    1    3    3    0    0  0.14814765081E+03 -0.77576074873E+02  0.21500039649E+03  0.27238014672E+03  0.00000000000E+00 0. -1.
</event>
<event>
 7    1  0.5137842E-006  0.1001682E+03  0.7561462E-02  0.1279943E+00
          2   -1    0    0  501    0  0.00000000000E+00  0.00000000000E+00  0.45985898127E+03  0.45985898127E+03  0.00000000000E+00 0. -1.
         -2   -1    0    0    0  501 -0.00000000000E+00 -0.00000000000E+00 -0.35691678008E+02  0.35691678008E+02  0.00000000000E+00 0.  1.
         23    2    1    2    0    0  0.26341754691E+02  0.50725123737E+02  0.23238769216E+03  0.25955944853E+03  0.10049946089E+03 0.  0.
          5    1    1    2  502    0 -0.42794921823E+02 -0.11075821040E+02  0.54505420321E+01  0.44735444046E+02  0.41800000000E+01 0. -1.
         -5    1    1    2    0  502  0.16453167131E+02 -0.39649302698E+02  0.18632906908E+03  0.19125576670E+03  0.41800000000E+01 0. -1.
        -11    1    3    3    0    0  0.26859167024E+02 -0.25227682815E+02  0.51074785905E+02  0.62980033254E+02  0.00000000000E+00 0.  1.
         11    1    3    3    0    0 -0.51741233244E+00  0.75952806553E+02  0.18131290625E+03  0.19657941528E+03  0.00000000000E+00 0. -1.
</event>
<event>
 7    1  0.5137842E-006  0.1243966E+03  0.7561462E-02  0.1236015E+00
          1   -1    0    0  501    0  0.00000000000E+00  0.00000000000E+00  0.25497962936E+03  0.25497962936E+03  0.00000000000E+00 0. -1.
         -1   -1    0    0    0  501 -0.00000000000E+00 -0.00000000000E+00 -0.83784376112E+02  0.83784376112E+02  0.00000000000E+00 0.  1.
         23    2    1    2    0    0 -0.89248081944E+02  0.36494404078E+00  0.12232303232E+03  0.17754022776E+03  0.92694416874E+02 0.  0.
          5    1    1    2  502    0 -0.81348833098E+01  0.21905094302E+02  0.56163497514E+02  0.60973931609E+02  0.41800000000E+01 0. -1.
         -5    1    1    2    0  502  0.97382965254E+02 -0.22270038343E+02 -0.72912765951E+01  0.10024984610E+03  0.41800000000E+01 0. -1.
        -11    1    3    3    0    0 -0.23029855091E+02 -0.40978185486E+02  0.26563358955E+02  0.53992573102E+02  0.00000000000E+00 0.  1.
         11    1    3    3    0    0 -0.66218226853E+02  0.41343129526E+02  0.95759673369E+02  0.12354765465E+03  0.00000000000E+00 0. -1.
</event>
<event>
 7    1  0.5137842E-006  0.1477877E+03  0.7561462E-02  0.1203218E+00
          4   -1    0    0  501    0  0.00000000000E+00  0.00000000000E+00  0.39275625593E+02  0.39275625593E+02  0.00000000000E+00 0. -1.
         -4   -1    0    0    0  501 -0.00000000000E+00 -0.00000000000E+00 -0.69452183484E+03  0.69452183484E+03  0.00000000000E+00 0.  1.
         23    2    1    2    0    0  0.93312707835E+02  0.78036722410E+02 -0.23736189660E+03  0.28094759844E+03  0.88283020025E+02 0.  0.
          5    1    1    2  502    0  0.21493589163E+02 -0.16963894683E+02 -0.19812614676E+02  0.34055252138E+02  0.41800000000E+01 0.  1.
         -5    1    1    2    0  502 -0.11480629700E+03 -0.61072827728E+02 -0.39807169797E+03  0.41879460985E+03  0.41800000000E+01 0.  1.
        -11    1    3    3    0    0  0.64582547891E+02  0.11910461475E+02 -0.17013611759E+03  0.18237067498E+03  0.00000000000E+00 0.  1.
         11    1    3    3    0    0  0.28730159944E+02  0.66126260935E+02 -0.67225779016E+02  0.98576923465E+02  0.00000000000E+00 0. -1.
</event>
<event>
 7    1  0.5137842E-006  0.1605004E+03  0.7561462E-02  0.1188133E+00
         -1   -1    0    0    0  501 -0.00000000000E+00  0.00000000000E+00  0.34605155229E+02  0.34605155229E+02  0.00000000000E+00 0.  1.
          1   -1    0    0  501    0  0.00000000000E+00 -0.00000000000E+00 -0.84533079173E+03  0.84533079173E+03  0.00000000000E+00 0. -1.
         23    2    1    2    0    0 -0.12620995724E+02 -0.12077847905E+03 -0.50071576720E+03  0.52426844466E+03  0.96924671823E+02 0.  0.
          5    1    1    2  502    0  0.67960616615E+02  0.68002469531E+02 -0.14903454396E+03  0.17740278737E+03  0.41800000000E+01 0. -1.
         -5    1    1    2    0  502 -0.55339620890E+02  0.52776009519E+02 -0.16097532534E+03  0.17826471493E+03  0.41800000000E+01 0. -1.
        -11    1    3    3    0    0  0.28766034918E+02 -0.10885787713E+02 -0.51750875282E+02  0.60200815871E+02  0.00000000000E+00 0.  1.
         11    1    3    3    0    0 -0.41387030642E+02 -0.10989269134E+03 -0.44896489192E+03  0.46406762879E+03  0.00000000000E+00 0. -1.
</event>
<event>
 7    1  0.5137842E-006  0.8566484E+02  0.7561462E-02  0.1313703E+00
         -1   -1    0    0    0  501 -0.00000000000E+00  0.00000000000E+00  0.87481466778E+02  0.87481466778E+02  0.00000000000E+00 0.  1.
          1   -1    0    0  501    0  0.00000000000E+00 -0.00000000000E+00 -0.14971151925E+03  0.14971151925E+03  0.00000000000E+00 0. -1.
         23    2    1    2    0    0 -0.93541728095E+01  0.37146871615E+02 -0.25511044905E+02  0.10131068636E+03  0.90253261096E+02 0.  0.
          5    1    1    2  502    0  0.58430233535E+01  0.17383855578E+02  0.38480607382E+02  0.42831867822E+02  0.41800000000E+01 0. -1.
         -5    1    1    2    0  502  0.35111494561E+01 -0.54530727193E+02 -0.75199614947E+02  0.93050431847E+02  0.41800000000E+01 0. -1.
        -11    1    3    3    0    0  0.12053942704E+02  0.63004276592E+02 -0.20663307295E+02  0.67392942301E+02  0.00000000000E+00 0. -1.
         11    1    3    3    0    0 -0.21408115513E+02 -0.25857404977E+02 -0.48477376108E+01  0.33917744057E+02  0.00000000000E+00 0.  1.
</event>
<event>
 7    1  0.5137842E-006  0.1253954E+03  0.7561462E-02  0.1234453E+00
          3   -1    0    0  501    0  0.00000000000E+00  0.00000000000E+00  0.38663668476E+02  0.38663668476E+02  0.00000000000E+00 0. -1.
         -3   -1    0    0    0  501 -0.00000000000E+00 -0.00000000000E+00 -0.44111651751E+03  0.44111651751E+03  0.00000000000E+00 0.  1.
         23    2    1    2    0    0  0.28499645966E+01  0.62591188729E+02 -0.14480747506E+03  0.18218646287E+03  0.91087448180E+02 0.  0.
          5    1    1    2  502    0  0.19881658311E+02 -0.96947846401E+02 -0.13023689899E+03  0.16362544887E+03  0.41800000000E+01 0. -1.
         -5    1    1    2    0  502 -0.22731622908E+02  0.34356657672E+02 -0.12740847498E+03  0.13396827424E+03  0.41800000000E+01 0.  1.
        -11    1    3    3    0    0  0.18562848326E+01 -0.23830270550E+02 -0.36348624329E+02  0.43503449041E+02  0.00000000000E+00 0. -1.
         11    1    3    3    0    0  0.99367976395E+00  0.86421459279E+02 -0.10845885073E+03  0.13868301383E+03  0.00000000000E+00 0.  1.
</event>
<event>
 7    1  0.5137842E-006  0.9387035E+02  0.7561462E-02  0.1293741E+00
          2   -1    0    0  501    0  0.00000000000E+00  0.00000000000E+00  0.18221346797E+03  0.18221346797E+03  0.00000000000E+00 0. -1.
         -2   -1    0    0    0  501 -0.00000000000E+00 -0.00000000000E+00 -0.76091823277E+02  0.76091823277E+02  0.00000000000E+00 0.  1.
         23    2    1    2    0    0 -0.18384588974E+02  0.32650657840E+02  0.77640699048E+02  0.12465427445E+03  0.90036389425E+02 0.  0.
          5    1    1    2  502    0  0.57736609390E+02 -0.14121647365E+02 -0.24975360997E+02  0.64607879125E+02  0.41800000000E+01 0. -1.
         -5    1    1    2    0  502 -0.39352020416E+02 -0.18529010475E+02  0.53456306645E+02  0.69043137676E+02  0.41800000000E+01 0. -1.
        -11    1    3    3    0    0  0.28018879898E+02  0.24755958260E+02  0.44754004031E+01  0.37655601295E+02  0.00000000000E+00 0.  1.
         11    1    3    3    0    0 -0.46403468872E+02  0.78946995797E+01  0.73165298645E+02  0.86998673154E+02  0.00000000000E+00 0. -1.
</event>
<event>
 7    1  0.5137842E-006  0.7386603E+02  0.7561462E-02  0.1347419E+00
         -2   -1    0    0    0  501 -0.00000000000E+00  0.00000000000E+00  0.47033820578E+02  0.47033820578E+02  0.00000000000E+00 0.  1.
          2   -1    0    0  501    0  0.00000000000E+00 -0.00000000000E+00 -0.28478648253E+03  0.28478648253E+03  0.00000000000E+00 0. -1.
         23    2    1    2    0    0  0.40840858675E+02 -0.26902485878E+02 -0.10559974995E+03  0.14250018554E+03  0.82239140345E+02 0.  0.
          5    1    1    2  502    0 -0.68184662487E+01  0.13411897024E+02 -0.14828521747E+03  0.14910515948E+03  0.41800000000E+01 0. -1.
         -5    1    1    2    0  502 -0.34022392426E+02  0.13490588854E+02  0.16132305472E+02  0.40214958086E+02  0.41800000000E+01 0.  1.
        -11    1    3    3    0    0  0.62872459191E+02 -0.32515272654E+01 -0.63448304730E+02  0.89382358032E+02  0.00000000000E+00 0. -1.
         11    1    3    3    0    0 -0.22031600516E+02 -0.23650958613E+02 -0.42151445220E+02  0.53117827504E+02  0.00000000000E+00 0.  1.
</event>
<event>
 7    1  0.5137842E-006  0.1382447E+03  0.7561462E-02  0.1215711E+00
         -2   -1    0    0    0  501 -0.00000000000E+00  0.00000000000E+00  0.64623781794E+02  0.64623781794E+02  0.00000000000E+00 0. -1.
          2   -1    0    0  501    0  0.00000000000E+00 -0.00000000000E+00 -0.62227819402E+03  0.62227819402E+03  0.00000000000E+00 0.  1.
         23    2    1    2    0    0 -0.86729321708E+02  0.51589103322E+02 -0.25285657767E+03  0.28732504766E+03  0.91846738196E+02 0.  0.
          5    1    1    2  502    0  0.84419367849E+02 -0.86880625002E+02 -0.33230734170E+02  0.12568463216E+03  0.41800000000E+01 0. -1.
         -5    1    1    2    0  502  0.23099538591E+01  0.35291521680E+02 -0.27156710038E+03  0.27389229598E+03  0.41800000000E+01 0.  1.
        -11    1    3    3    0    0 -0.87593382983E+02  0.22333397490E+02 -0.11437441834E+03  0.14578370607E+03  0.00000000000E+00 0.  1.
         11    1    3    3    0    0  0.86406127456E+00  0.29255705832E+02 -0.13848215934E+03  0.14154134160E+03  0.00000000000E+00 0. -1.
</event>
<event>
 7    1  0.5137842E-006  0.9854161E+02  0.7561462E-02  0.1283393E+00
          2   -1    0    0  501    0  0.00000000000E+00  0.00000000000E+00  0.19438598531E+03  0.19438598531E+03  0.00000000000E+00 0. -1.
         -2   -1    0    0    0  501 -0.00000000000E+00 -0.00000000000E+00 -0.87797459498E+02  0.87797459498E+02  0.00000000000E+00 0.  1.
         23    2    1    2    0    0  0.34100340619E+02 -0.58218310956E+02  0.43239089813E+02  0.12657673651E+03  0.97978805757E+02 0.  0.
          5    1    1    2  502    0  0.39221181701E+02  0.70949539752E+01  0.51631926989E+02  0.65360291849E+02  0.41800000000E+01 0. -1.
         -5    1    1    2    0  502 -0.73321522320E+02  0.51123356980E+02  0.11717509011E+02  0.90246416448E+02  0.41800000000E+01 0. -1.
        -11    1    3    3    0    0  0.12032037849E+02 -0.23151946830E+02 -0.31632972403E+02  0.41005213326E+02  0.00000000000E+00 0.  1.
         11    1    3    3    0    0  0.22068302770E+02 -0.35066364126E+02  0.74872062216E+02  0.85571523188E+02  0.00000000000E+00 0. -1.
</event>
<event>
 7    1  0.5137842E-006  0.1731228E+03  0.7561462E-02  0.1174630E+00
          2   -1    0    0  501    0  0.00000000000E+00  0.00000000000E+00  0.12072338351E+04  0.12072338351E+04  0.00000000000E+00 0. -1.
         -2   -1    0    0    0  501 -0.00000000000E+00 -0.00000000000E+00 -0.32067017974E+02  0.32067017974E+02  0.00000000000E+00 0.  1.
         23    2    1    2    0    0  0.88567812214E+02  0.10249142277E+03  0.84725802455E+03  0.86311071536E+03  0.93622634579E+02 0.  0.
          5    1    1    2  502    0 -0.20167507542E+02 -0.11140867222E+03  0.17617417829E+03  0.20945986275E+03  0.41800000000E+01 0. -1.
         -5    1    1    2    0  502 -0.68400304672E+02  0.89172494511E+01  0.15173461427E+03  0.16673027495E+03  0.41800000000E+01 0. -1.
        -11    1    3    3    0    0  0.10116754497E+03  0.55911669606E+02  0.55675715307E+03  0.56862950543E+03  0.00000000000E+00 0.  1.
         11    1    3    3    0    0 -0.12599732760E+02  0.46579753161E+02  0.29050087148E+03  0.29448120993E+03  0.00000000000E+00 0. -1.
</event>
<event>
 7    1  0.5137842E-006  0.1793184E+03  0.7561462E-02  0.1168464E+00
          3   -1    0    0  501    0  0.00000000000E+00  0.00000000000E+00  0.91671461821E+02  0.91671461821E+02  0.00000000000E+00 0. -1.
         -3   -1    0    0    0  501 -0.00000000000E+00 -0.00000000000E+00 -0.46586496952E+03  0.46586496952E+03  0.00000000000E+00 0.  1.
         23    2    1    2    0    0 -0.16346483885E+03 -0.38727787794E+02 -0.11020076487E+03  0.22054654591E+03  0.90972387268E+02 0.  0.
          5    1    1    2  502    0  0.98137779040E+02  0.16435589635E+02 -0.48695879482E+02  0.11085988165E+03  0.41800000000E+01 0. -1.
         -5    1    1    2    0  502  0.65327059814E+02  0.22292198159E+02 -0.21529686334E+03  0.22613000378E+03  0.41800000000E+01 0. -1.
        -11    1    3    3    0    0 -0.59612887933E+02 -0.59230927626E+02 -0.36850013197E+02  0.91760136594E+02  0.00000000000E+00 0.  1.
         11    1    3    3    0    0 -0.10385195092E+03  0.20503139832E+02 -0.73350751677E+02  0.12878640932E+03  0.00000000000E+00 0. -1.
</event>
<event>
 7    1  0.5137842E-006  0.1017213E+03  0.7561462E-02  0.1276717E+00
          1   -1    0    0  501    0  0.00000000000E+00  0.00000000000E+00  0.19354447901E+03  0.19354447901E+03  0.00000000000E+00 0. -1.
         -1   -1    0    0    0  501 -0.00000000000E+00 -0.00000000000E+00 -0.80619223003E+02  0.80619223003E+02  0.00000000000E+00 0.  1.
         23    2    1    2    0    0  0.53515989776E+02 -0.22654754106E+02  0.50047220517E+02  0.12257770041E+03  0.95620966897E+02 0.  0.
          5    1    1    2  502    0 -0.58195067701E+02 -0.42576926514E+02  0.29218314671E+02  0.77914330442E+02  0.41800000000E+01 0. -1.
         -5    1    1    2    0  502  0.46790779248E+01  0.65231680620E+02  0.33659720825E+02  0.73671671168E+02  0.41800000000E+01 0. -1.
        -11    1    3    3    0    0  0.74426759711E+00 -0.11776864818E+02  0.65476128775E+02  0.66530984650E+02  0.00000000000E+00 0. -1.
         11    1    3    3    0    0  0.52771722179E+02 -0.10877889287E+02 -0.15428908258E+02  0.56046715757E+02  0.00000000000E+00 0.  1.
</event>
<event>
 7    1  0.5137842E-006  0.1012334E+03  0.7561462E-02  0.1277723E+00
         -1   -1    0    0    0  501 -0.00000000000E+00  0.00000000000E+00  0.36699340564E+03  0.36699340564E+03  0.00000000000E+00 0.  1.
          1   -1    0    0  501    0  0.00000000000E+00 -0.00000000000E+00 -0.37685181097E+02  0.37685181097E+02  0.00000000000E+00 0. -1.
         23    2    1    2    0    0 -0.50013594833E+01 -0.24407416094E+02  0.72828580303E+02  0.11823398611E+03  0.89747076857E+02 0.  0.
          5    1    1    2  502    0  0.38374006908E+02  0.53130836828E+02  0.21846814956E+03  0.22812552465E+03  0.41800000000E+01 0. -1.
         -5    1    1    2    0  502 -0.33372647424E+02 -0.28723420734E+02  0.38011494684E+02  0.58319075978E+02  0.41800000000E+01 0. -1.
        -11    1    3    3    0    0  0.23783974198E+02 -0.49153018988E+02  0.49343183841E+02  0.73596511438E+02  0.00000000000E+00 0.  1.
         11    1    3    3    0    0 -0.28785333681E+02  0.24745602894E+02  0.23485396461E+02  0.44637474667E+02  0.00000000000E+00 0. -1.
</event>
<event>
 7    1  0.5137842E-006  0.1604208E+03  0.7561462E-02  0.1188222E+00
         -2   -1    0    0    0  501 -0.00000000000E+00  0.00000000000E+00  0.13150134596E+03  0.13150134596E+03  0.00000000000E+00 0.  1.
          2   -1    0    0  501    0  0.00000000000E+00 -0.00000000000E+00 -0.22739069869E+03  0.22739069869E+03  0.00000000000E+00 0. -1.
         23    2    1    2    0    0 -0.71440448691E+02 -0.10482413400E+03 -0.91972415454E+02  0.18068974380E+03  0.89989007846E+02 0.  0.
          5    1    1    2  502    0  0.30240115431E+02  0.12712390486E+03  0.23049686469E+01  0.13075831541E+03  0.41800000000E+01 0. -1.
         -5    1    1    2    0  502  0.41200333260E+02 -0.22299770865E+02 -0.62219059235E+01  0.47443985443E+02  0.41800000000E+01 0. -1.
        -11    1    3    3    0    0 -0.66194702957E+02 -0.38578060650E+02 -0.84108246826E+02  0.11377259181E+03  0.00000000000E+00 0. -1.
         11    1    3    3    0    0 -0.52457457339E+01 -0.66246073350E+02 -0.78641686277E+01  0.66917151993E+02  0.00000000000E+00 0.  1.
</event>
<event>
 7    1  0.5137842E-006  0.1131742E+03  0.7561462E-02  0.1254802E+00
         -3   -1    0    0    0  501 -0.00000000000E+00  0.00000000000E+00  0.67507670082E+02  0.67507670082E+02  0.00000000000E+00 0.  1.
          3   -1    0    0  501    0  0.00000000000E+00 -0.00000000000E+00 -0.46689954105E+03  0.46689954105E+03  0.00000000000E+00 0. -1.
         23    2    1    2    0    0 -0.31781572926E+02 -0.57467479332E+02 -0.37448788690E+03  0.39095013210E+03  0.91039819839E+02 0.  0.
          5    1    1    2  502    0  0.50571649959E+02  0.84168391066E+02  0.57878075803E+01  0.98451922027E+02  0.41800000000E+01 0. -1.
         -5    1    1    2    0  502 -0.18790077034E+02 -0.26700911734E+02 -0.30691791645E+02  0.45005157002E+02  0.41800000000E+01 0. -1.
        -11    1    3    3    0    0  0.20734222600E+02 -0.28286718797E+02 -0.50779891943E+02  0.61714211271E+02  0.00000000000E+00 0.  1.
         11    1    3    3    0    0 -0.52515795526E+02 -0.29180760535E+02 -0.32370799496E+03  0.32923592083E+03  0.00000000000E+00 0. -1.
</event>
<event>
 7    1  0.5137842E-006  0.1023617E+03  0.7561462E-02  0.1275407E+00
          1   -1    0    0  501    0  0.00000000000E+00  0.00000000000E+00  0.25850458809E+03  0.25850458809E+03  0.00000000000E+00 0. -1.
         -1   -1    0    0    0  501 -0.00000000000E+00 -0.00000000000E+00 -0.58056926248E+02  0.58056926248E+02  0.00000000000E+00 0.  1.
         23    2    1    2    0    0  0.42665317291E+02  0.36570736289E+02  0.88851649165E+02  0.13975917693E+03  0.92088348475E+02 0.  0.
          5    1    1    2  502    0 -0.46980663832E+02  0.34857974170E+02  0.78131180466E+02  0.97694497789E+02  0.41800000000E+01 0.  1.
         -5    1    1    2    0  502  0.43153465404E+01 -0.71428710459E+02  0.33464832206E+02  0.79107839613E+02  0.41800000000E+01 0.  1.
        -11    1    3    3    0    0 -0.21871388823E+01  0.28787435645E+02 -0.10303107151E+02  0.30653777001E+02  0.00000000000E+00 0.  1.
         11    1    3    3    0    0  0.44852456174E+02  0.77833006445E+01  0.99154756316E+02  0.10910539993E+03  0.00000000000E+00 0. -1.
</event>
<event>
 7    1  0.5137842E-006  0.1395002E+03  0.7561462E-02  0.1214003E+00
         -2   -1    0    0    0  501 -0.00000000000E+00  0.00000000000E+00  0.56495268888E+02  0.56495268888E+02  0.00000000000E+00 0.  1.
          2   -1    0    0  501    0  0.00000000000E+00 -0.00000000000E+00 -0.35743985846E+03  0.35743985846E+03  0.00000000000E+00 0. -1.
         23    2    1    2    0    0  0.16045578039E+02 -0.99178970335E+01 -0.83357949760E+02  0.12362106064E+03  0.89318495228E+02 0.  0.
          5    1    1    2  502    0 -0.10099531787E+03 -0.14843369897E+02 -0.13414001609E+03  0.16861612076E+03  0.41800000000E+01 0. -1.
         -5    1    1    2    0  502  0.84949739834E+02  0.24761266930E+02 -0.83446623718E+02  0.12169794595E+03  0.41800000000E+01 0.  1.
        -11    1    3    3    0    0  0.14550165274E+01  0.38068093433E+02 -0.20682756983E+02  0.43348278480E+02  0.00000000000E+00 0. -1.
         11    1    3    3    0    0  0.14590561512E+02 -0.47985990467E+02 -0.62675192777E+02  0.80272782161E+02  0.00000000000E+00 0.  1.
</event>
<event>
 7    1  0.5137842E-006  0.1651921E+03  0.7561462E-02  0.1182957E+00
          2   -1    0    0  501    0  0.00000000000E+00  0.00000000000E+00  0.16134807119E+03  0.16134807119E+03  0.00000000000E+00 0. -1.
         -2   -1    0    0    0  501 -0.00000000000E+00 -0.00000000000E+00 -0.18178043369E+03  0.18178043369E+03  0.00000000000E+00 0.  1.
         23    2    1    2    0    0  0.37392805842E+02  0.12076869323E+03  0.30553708951E+02  0.15811050197E+03  0.89900514502E+02 0.  0.
          5    1    1    2  502    0 -0.71595636630E+02 -0.25585351230E+02 -0.28638811616E+02  0.81352315965E+02  0.41800000000E+01 0. -1.
         -5    1    1    2    0  502  0.34202830788E+02 -0.95183342003E+02 -0.22347259828E+02  0.10366568695E+03  0.41800000000E+01 0. -1.
        -11    1    3    3    0    0 -0.20226920028E+02  0.79768404190E+02  0.34149373117E+01  0.82363756578E+02  0.00000000000E+00 0. -1.
         11    1    3    3    0    0  0.57619725870E+02  0.41000289043E+02  0.27138771639E+02  0.75746745389E+02  0.00000000000E+00 0.  1.
</event>
<event>
 7    1  0.5137842E-006  0.1132247E+03  0.7561462E-02  0.1254712E+00
         -1   -1    0    0    0  501 -0.00000000000E+00  0.00000000000E+00  0.16879281866E+03  0.16879281866E+03  0.00000000000E+00 0.  1.
          1   -1    0    0  501    0  0.00000000000E+00 -0.00000000000E+00 -0.93768639927E+02  0.93768639927E+02  0.00000000000E+00 0. -1.
         23    2    1    2    0    0  0.47998121237E+02 -0.34171078143E+02  0.12717443370E+02  0.11089951242E+03  0.93088593642E+02 0.  0.
          5    1    1    2  502    0 -0.60840324950E+02  0.62947381290E+02  0.70658271676E+01  0.87927903790E+02  0.41800000000E+01 0.  1.
         -5    1    1    2    0  502  0.12842203713E+02 -0.28776303147E+02  0.55240908200E+02  0.63734042378E+02  0.41800000000E+01 0.  1.
        -11    1    3    3    0    0  0.69372741693E+02 -0.45365827319E+02 -0.14823131321E+01  0.82902550205E+02  0.00000000000E+00 0. -1.
         11    1    3    3    0    0 -0.21374620456E+02  0.11194749176E+02  0.14199756502E+02  0.27996962219E+02  0.00000000000E+00 0.  1.
</event>
<event>
 7    1  0.5137842E-006  0.1079307E+03  0.7561462E-02  0.1264451E+00
         -1   -1    0    0    0  501 -0.00000000000E+00  0.00000000000E+00  0.17513041925E+02  0.17513041925E+02  0.00000000000E+00 0.  1.
          1   -1    0    0  501    0  0.00000000000E+00 -0.00000000000E+00 -0.77877205692E+03  0.77877205692E+03  0.00000000000E+00 0. -1.
         23    2    1    2    0    0 -0.40587921610E+02 -0.27628748065E+01 -0.36648947375E+03  0.38017531061E+03  0.92540367257E+02 0.  0.
          5    1    1    2  502    0  0.83002463887E+02  0.13050885337E+00 -0.19753538173E+03  0.21430614895E+03  0.41800000000E+01 0. -1.
         -5    1    1    2    0  502 -0.42414542276E+02  0.26323659531E+01 -0.19723415952E+03  0.20180363928E+03  0.41800000000E+01 0. -1.
        -11    1    3    3    0    0  0.24031955503E+02  0.61874848704E+01 -0.38813794256E+02  0.46068758165E+02  0.00000000000E+00 0.  1.
         11    1    3    3    0    0 -0.64619877114E+02 -0.89503596769E+01 -0.32767567949E+03  0.33410655244E+03  0.00000000000E+00 0. -1.
</event>
<event>
 7    1  0.5137842E-006  0.1011657E+03  0.7561462E-02  0.1277863E+00
          2   -1    0    0  501    0  0.00000000000E+00  0.00000000000E+00  0.12268288654E+03  0.12268288654E+03  0.00000000000E+00 0. -1.
         -2   -1    0    0    0  501 -0.00000000000E+00 -0.00000000000E+00 -0.34460642223E+03  0.34460642223E+03  0.00000000000E+00 0.  1.
         23    2    1    2    0    0  0.35025456573E+02  0.10206632796E+02  0.77809981890E+02  0.12519358006E+03  0.91038899630E+02 0.  0.
          5    1    1    2  502    0  0.35699594130E+02 -0.13916085170E+02 -0.49083196600E+01  0.38854632277E+02  0.41800000000E+01 0. -1.
         -5    1    1    2    0  502 -0.70725050703E+02  0.37094523746E+01 -0.29482519792E+03  0.30324109643E+03  0.41800000000E+01 0.  1.
        -11    1    3    3    0    0  0.60229640707E+02 -0.93368492158E+01  0.69085770440E+02  0.92128334677E+02  0.00000000000E+00 0. -1.
         11    1    3    3    0    0 -0.25204184134E+02  0.19543482012E+02  0.87242114492E+01  0.33065245385E+02  0.00000000000E+00 0.  1.
</event>
<event>
 7    1  0.5137842E-006  0.1337473E+03  0.7561462E-02  0.1221999E+00
          2   -1    0    0  501    0  0.00000000000E+00  0.00000000000E+00  0.48050949152E+03  0.48050949152E+03  0.00000000000E+00 0. -1.
         -2   -1    0    0    0  501 -0.00000000000E+00 -0.00000000000E+00 -0.92990577458E+02  0.92990577458E+02  0.00000000000E+00 0.  1.
         23    2    1    2    0    0  0.42350144124E+02 -0.65063274132E+02  0.40353751494E+03  0.42119089405E+03  0.92371418284E+02 0.  0.
          5    1    1    2  502    0  0.55519171998E+01  0.93124680412E+02  0.31264760012E+01  0.93435952067E+02  0.41800000000E+01 0. -1.
         -5    1    1    2    0  502 -0.47902061324E+02 -0.28061406280E+02 -0.19145076881E+02  0.58873222863E+02  0.41800000000E+01 0.  1.
        -11    1    3    3    0    0 -0.11326580053E+02 -0.63746208947E+02  0.17982929767E+03  0.19112939824E+03  0.00000000000E+00 0.  1.
         11    1    3    3    0    0  0.53676724177E+02 -0.13170651850E+01  0.22370821727E+03  0.23006149581E+03  0.00000000000E+00 0. -1.
</event>
<event>
 7    1  0.5137842E-006  0.1372571E+03  0.7561462E-02  0.1217068E+00
          2   -1    0    0  501    0  0.00000000000E+00  0.00000000000E+00  0.34473145362E+02  0.34473145362E+02  0.00000000000E+00 0. -1.
         -2   -1    0    0    0  501 -0.00000000000E+00 -0.00000000000E+00 -0.11802596055E+04  0.11802596055E+04  0.00000000000E+00 0.  1.
         23    2    1    2    0    0  0.89668256318E+00 -0.10276045836E+03 -0.13987693257E+03  0.19587951125E+03  0.90789376160E+02 0.  0.
          5    1    1    2  502    0 -0.50995782487E+02  0.95470517074E+02 -0.76634080348E+03  0.77395793745E+03  0.41800000000E+01 0. -1.
         -5    1    1    2    0  502  0.50099099924E+02  0.72899412809E+01 -0.23956872411E+03  0.24489530218E+03  0.41800000000E+01 0. -1.
        -11    1    3    3    0    0  0.19459641639E+02 -0.91801716508E+02 -0.14592163395E+03  0.17349165992E+03  0.00000000000E+00 0.  1.
         11    1    3    3    0    0 -0.18562959076E+02 -0.10958741847E+02  0.60447013839E+01  0.22387851334E+02  0.00000000000E+00 0. -1.
</event>
<event>
 7    1  0.5137842E-006  0.1149718E+03  0.7561462E-02  0.1251630E+00
          1   -1    0    0  501    0  0.00000000000E+00  0.00000000000E+00  0.15849106112E+02  0.15849106112E+02  0.00000000000E+00 0. -1.
         -1   -1    0    0    0  501 -0.00000000000E+00 -0.00000000000E+00 -0.10359585530E+04  0.10359585530E+04  0.00000000000E+00 0.  1.
         23    2    1    2    0    0 -0.54595656822E+02 -0.35116680185E+02 -0.37005856751E+03  0.38665379952E+03  0.91345226055E+02 0.  0.
          5    1    1    2  502    0 -0.25814162232E+02 -0.76619498496E+01 -0.36184185744E+03  0.36286647495E+03  0.41800000000E+01 0.  1.
         -5    1    1    2    0  502  0.80409819054E+02  0.42778630035E+02 -0.28820902192E+03  0.30228738463E+03  0.41800000000E+01 0.  1.
        -11    1    3    3    0    0  0.32129455783E+01 -0.51367312775E+02 -0.18991079562E+03  0.19676136342E+03  0.00000000000E+00 0.  1.
         11    1    3    3    0    0 -0.57808602401E+02  0.16250632590E+02 -0.18014777189E+03  0.18989243610E+03  0.00000000000E+00 0. -1.
</event>
<event>
 7    1  0.5137842E-006  0.8214874E+02  0.7561462E-02  0.1323062E+00
          2   -1    0    0  501    0  0.00000000000E+00  0.00000000000E+00  0.15508066040E+03  0.15508066040E+03  0.00000000000E+00 0. -1.
         -2   -1    0    0    0  501 -0.00000000000E+00 -0.00000000000E+00 -0.77682513605E+02  0.77682513605E+02  0.00000000000E+00 0.  1.
         23    2    1    2    0    0 -0.18565115403E+02 -0.66930021223E+01  0.38042200909E+02  0.10014999722E+03  0.90517142605E+02 0.  0.
          5    1    1    2  502    0  0.27287559408E+02 -0.41343518408E+02 -0.21770597363E+02  0.54270882823E+02  0.41800000000E+01 0.  1.
         -5    1    1    2    0  502 -0.87224440055E+01  0.48036520530E+02  0.61126543251E+02  0.78342293967E+02  0.41800000000E+01 0.  1.
        -11    1    3    3    0    0 -0.39316544762E+02 -0.16491897029E+02 -0.12677446508E+02  0.44480231672E+02  0.00000000000E+00 0.  1.
         11    1    3    3    0    0  0.20751429359E+02  0.97988949065E+01  0.50719647417E+02  0.55669765546E+02  0.00000000000E+00 0. -1.
</event>
<event>
 7    1  0.5137842E-006  0.1768960E+03  0.7561462E-02  0.1170841E+00
          3   -1    0    0  501    0  0.00000000000E+00  0.00000000000E+00  0.38584654411E+03  0.38584654411E+03  0.00000000000E+00 0. -1.
         -3   -1    0    0    0  501 -0.00000000000E+00 -0.00000000000E+00 -0.87847753987E+02  0.87847753987E+02  0.00000000000E+00 0.  1.
         23    2    1    2    0    0  0.33363605033E+02 -0.14350259365E+03  0.12066405766E+03  0.21139371509E+03  0.91767987032E+02 0.  0.
          5    1    1    2  502    0  0.38888907902E+02  0.10201158975E+03  0.90281997086E+02  0.14172869504E+03  0.41800000000E+01 0. -1.
         -5    1    1    2    0  502 -0.72252512935E+02  0.41491003899E+02  0.87052735381E+02  0.12057188796E+03  0.41800000000E+01 0. -1.
        -11    1    3    3    0    0 -0.16049608711E+02 -0.74720503491E+02  0.18390716359E+02  0.78606373978E+02  0.00000000000E+00 0.  1.
         11    1    3    3    0    0  0.49413213745E+02 -0.68782090159E+02  0.10227334130E+03  0.13278734111E+03  0.00000000000E+00 0. -1.
</event>
<event>
 7    1  0.5137842E-006  0.1217552E+03  0.7561462E-02  0.1240229E+00
         -2   -1    0    0    0  501 -0.00000000000E+00  0.00000000000E+00  0.19319847382E+03  0.19319847382E+03  0.00000000000E+00 0.  1.
          2   -1    0    0  501    0  0.00000000000E+00 -0.00000000000E+00 -0.10387369906E+03  0.10387369906E+03  0.00000000000E+00 0. -1.
         23    2    1    2    0    0 -0.88695699984E+02  0.55393468217E+01  0.21422477876E+02  0.12927726636E+03  0.91411582859E+02 0.  0.
          5    1    1    2  502    0 -0.16236999109E+02 -0.39630290830E+02  0.19102441100E+02  0.47080524076E+02  0.41800000000E+01 0.  1.
         -5    1    1    2    0  502  0.10493269909E+03  0.34090944008E+02  0.48799855784E+02  0.12071438244E+03  0.41800000000E+01 0.  1.
        -11    1    3    3    0    0 -0.65047808726E+02 -0.24877746369E+01 -0.30329991890E+02  0.71814447368E+02  0.00000000000E+00 0. -1.
         11    1    3    3    0    0 -0.23647891258E+02  0.80271214585E+01  0.51752469766E+02  0.57462818994E+02  0.00000000000E+00 0.  1.
</event>
<event>
 7    1  0.5137842E-006  0.1123989E+03  0.7561462E-02  0.1256191E+00
         -1   -1    0    0    0  501 -0.00000000000E+00  0.00000000000E+00  0.58348302507E+02  0.58348302507E+02  0.00000000000E+00 0.  1.
          1   -1    0    0  501    0  0.00000000000E+00 -0.00000000000E+00 -0.31839212418E+03  0.31839212418E+03  0.00000000000E+00 0. -1.
         23    2    1    2    0    0 -0.47107767739E+02 -0.10253922617E+02 -0.20932076769E+03  0.23340536399E+03  0.91315910128E+02 0.  0.
          5    1    1    2  502    0  0.35607698420E+02 -0.49205478559E+02  0.47960700259E+01  0.61070139960E+02  0.41800000000E+01 0. -1.
         -5    1    1    2    0  502  0.11500069319E+02  0.59459401176E+02 -0.55519124016E+02  0.82264922744E+02  0.41800000000E+01 0. -1.
        -11    1    3    3    0    0 -0.60659862092E+02  0.24872289720E+02 -0.13644432208E+03  0.15137801258E+03  0.00000000000E+00 0.  1.
         11    1    3    3    0    0  0.13552094353E+02 -0.35126212337E+02 -0.72876445604E+02  0.82027351403E+02  0.00000000000E+00 0. -1.
</event>
<event>
 7    1  0.5137842E-006  0.6775044E+02  0.7561462E-02  0.1367914E+00
         -2   -1    0    0    0  501 -0.00000000000E+00  0.00000000000E+00  0.12614278828E+03  0.12614278828E+03  0.00000000000E+00 0.  1.
          2   -1    0    0  501    0  0.00000000000E+00 -0.00000000000E+00 -0.10494892393E+03  0.10494892393E+03  0.00000000000E+00 0. -1.
         23    2    1    2    0    0 -0.16405638162E+02  0.53489202434E+02 -0.44717968103E+01  0.91676902190E+02  0.72487362264E+02 0.  0.
          5    1    1    2  502    0 -0.18564358052E+02 -0.25302059845E+02  0.69589736235E+02  0.76452818205E+02  0.41800000000E+01 0.  1.
         -5    1    1    2    0  502  0.34969996214E+02 -0.28187142589E+02 -0.43924075071E+02  0.62961991815E+02  0.41800000000E+01 0.  1.
        -11    1    3    3    0    0 -0.56611849965E+00  0.32158208852E+02  0.32778172326E+02  0.45922537689E+02  0.00000000000E+00 0.  1.
         11    1    3    3    0    0 -0.15839519662E+02  0.21330993582E+02 -0.37249969136E+02  0.45754364502E+02  0.00000000000E+00 0. -1.
</event>
<event>
 7    1  0.5137842E-006  0.2101007E+03  0.7561462E-02  0.1141486E+00
         -1   -1    0    0    0  501 -0.00000000000E+00  0.00000000000E+00  0.33263203135E+02  0.33263203135E+02  0.00000000000E+00 0.  1.
          1   -1    0    0  501    0  0.00000000000E+00 -0.00000000000E+00 -0.16105817795E+04  0.16105817795E+04  0.00000000000E+00 0. -1.
         23    2    1    2    0    0  0.18625504499E+03 -0.83450777101E+02 -0.79078965910E+03  0.82169510262E+03  0.90441045620E+02 0.  0.
          5    1    1    2  502    0 -0.15789720785E+03  0.95656085590E+02 -0.75709740546E+03  0.77929170964E+03  0.41800000000E+01 0. -1.
         -5    1    1    2    0  502 -0.28357837140E+02 -0.12205308489E+02 -0.29431511837E+02  0.42858170418E+02  0.41800000000E+01 0. -1.
        -11    1    3    3    0    0  0.74811867208E+02 -0.27682903055E+02 -0.16080405389E+03  0.17950237420E+03  0.00000000000E+00 0.  1.
         11    1    3    3    0    0  0.11144317778E+03 -0.55767874046E+02 -0.62998560521E+03  0.64219272841E+03  0.00000000000E+00 0. -1.
</event>
<event>
 7    1  0.5137842E-006  0.1020555E+03  0.7561462E-02  0.1276032E+00
         -2   -1    0    0    0  501 -0.00000000000E+00  0.00000000000E+00  0.14845425550E+03  0.14845425550E+03  0.00000000000E+00 0.  1.
          2   -1    0    0  501    0  0.00000000000E+00 -0.00000000000E+00 -0.82538948073E+02  0.82538948073E+02  0.00000000000E+00 0. -1.
         23    2    1    2    0    0 -0.19809611574E+02  0.17316640796E+01  0.22446853807E+02  0.97083940993E+02  0.92336401173E+02 0.  0.
          5    1    1    2  502    0  0.71746849197E+02 -0.66877962402E+01  0.37181099030E+02  0.81192632137E+02  0.41800000000E+01 0.  1.
         -5    1    1    2    0  502 -0.51937237623E+02  0.49561321606E+01  0.62873545943E+01  0.52716630447E+02  0.41800000000E+01 0.  1.
        -11    1    3    3    0    0 -0.43082208908E+02 -0.20227626462E+02 -0.12993499841E+02  0.49336240582E+02  0.00000000000E+00 0. -1.
         11    1    3    3    0    0  0.23272597334E+02  0.21959290542E+02  0.35440353648E+02  0.47747700410E+02  0.00000000000E+00 0.  1.
</event>
<event>
 7    1  0.5137842E-006  0.1208820E+03  0.7561462E-02  0.1241649E+00
         -1   -1    0    0    0  501 -0.00000000000E+00  0.00000000000E+00  0.30891878423E+02  0.30891878423E+02  0.00000000000E+00 0.  1.
          1   -1    0    0  501    0  0.00000000000E+00 -0.00000000000E+00 -0.67249551130E+03  0.67249551130E+03  0.00000000000E+00 0. -1.
         23    2    1    2    0    0 -0.19231375842E+02 -0.89913608425E+02 -0.37905103344E+03  0.39837332272E+03  0.81038975208E+02 0.  0.
          5    1    1    2  502    0  0.48178005073E+02  0.47944525251E+02 -0.45224373074E+02  0.81746645156E+02  0.41800000000E+01 0. -1.
         -5    1    1    2    0  502 -0.28946629231E+02  0.41969083174E+02 -0.21732822636E+03  0.22326742185E+03  0.41800000000E+01 0. -1.
        -11    1    3    3    0    0 -0.30173757098E+02  0.17244484665E+01 -0.88650837799E+02  0.93661093216E+02  0.00000000000E+00 0.  1.
         11    1    3    3    0    0  0.10942381255E+02 -0.91638056891E+02 -0.29040019565E+03  0.30471222950E+03  0.00000000000E+00 0. -1.
</event>
<event>
 7    1  0.5137842E-006  0.4887091E+02  0.7561462E-02  0.1451528E+00
         -1   -1    0    0    0  501 -0.00000000000E+00  0.00000000000E+00  0.79739389460E+02  0.79739389460E+02  0.00000000000E+00 0.  1.
          1   -1    0    0  501    0  0.00000000000E+00 -0.00000000000E+00 -0.17332440794E+03  0.17332440794E+03  0.00000000000E+00 0. -1.
         23    2    1    2    0    0  0.81282572504E+01 -0.75272092436E+01 -0.88613006305E+02  0.12738627109E+03  0.90842004226E+02 0.  0.
          5    1    1    2  502    0 -0.27011224198E+02  0.17971479667E+01  0.55520904318E+02  0.61910251087E+02  0.41800000000E+01 0. -1.
         -5    1    1    2    0  502  0.18882966947E+02  0.57300612769E+01 -0.60492916491E+02  0.63767275216E+02  0.41800000000E+01 0. -1.
        -11    1    3    3    0    0  0.13904575333E+02 -0.26727839330E+02  0.59591262605E+01  0.30711981314E+02  0.00000000000E+00 0.  1.
         11    1    3    3    0    0 -0.57763180824E+01  0.19200630087E+02 -0.94572132565E+02  0.96674289779E+02  0.00000000000E+00 0. -1.
</event>
<event>
 7    1  0.5137842E-006  0.1171704E+03  0.7561462E-02  0.1247839E+00
          2   -1    0    0  501    0  0.00000000000E+00  0.00000000000E+00  0.83474384176E+03  0.83474384176E+03  0.00000000000E+00 0. -1.
         -2   -1    0    0    0  501 -0.00000000000E+00 -0.00000000000E+00 -0.22364427012E+02  0.22364427012E+02  0.00000000000E+00 0.  1.
         23    2    1    2    0    0  0.10660274587E+02 -0.77615733100E+02  0.41243718237E+03  0.43079934850E+03  0.96673707834E+02 0.  0.
          5    1    1    2  502    0 -0.16528231482E+02 -0.11567153495E+02  0.47874861035E+01  0.21151215074E+02  0.41800000000E+01 0. -1.
         -5    1    1    2    0  502  0.58679568947E+01  0.89182886596E+02  0.39515474627E+03  0.40515770520E+03  0.41800000000E+01 0. -1.
        -11    1    3    3    0    0 -0.35241424522E+02 -0.69117346067E+02  0.26820802963E+03  0.27920371181E+03  0.00000000000E+00 0. -1.
         11    1    3    3    0    0  0.45901699109E+02 -0.84983870330E+01  0.14422915274E+03  0.15159563669E+03  0.00000000000E+00 0.  1.
</event>
<event>
 7    1  0.5137842E-006  0.1070785E+03  0.7561462E-02  0.1266078E+00
          2   -1    0    0  501    0  0.00000000000E+00  0.00000000000E+00  0.13862316440E+03  0.13862316440E+03  0.00000000000E+00 0. -1.
         -2   -1    0    0    0  501 -0.00000000000E+00 -0.00000000000E+00 -0.10215699763E+03  0.10215699763E+03  0.00000000000E+00 0.  1.
         23    2    1    2    0    0 -0.19881090604E+02  0.32024709175E+02  0.47109265471E+02  0.10970242361E+03  0.91621499062E+02 0.  0.
          5    1    1    2  502    0  0.65937896051E+02  0.88322262758E+01  0.66571920923E+01  0.66989588469E+02  0.41800000000E+01 0.  1.
         -5    1    1    2    0  502 -0.46056805447E+02 -0.40856935451E+02 -0.17300290799E+02  0.64088149951E+02  0.41800000000E+01 0.  1.
        -11    1    3    3    0    0 -0.23666076584E+02 -0.21594494903E+02  0.45851138941E+02  0.55935072478E+02  0.00000000000E+00 0. -1.
         11    1    3    3    0    0  0.37849859797E+01  0.53619204079E+02  0.12581265302E+01  0.53767351128E+02  0.00000000000E+00 0.  1.
</event>
<event>
 7    1  0.5137842E-006  0.2215289E+03  0.7561462E-02  0.1132748E+00
         -2   -1    0    0    0  501 -0.00000000000E+00  0.00000000000E+00  0.36751163921E+02  0.36751163921E+02  0.00000000000E+00 0.  1.
          2   -1    0    0  501    0  0.00000000000E+00 -0.00000000000E+00 -0.14827844089E+04  0.14827844089E+04  0.00000000000E+00 0. -1.
         23    2    1    2    0    0  0.16142845790E+03  0.11600906114E+03 -0.87874528267E+03  0.90554806671E+03  0.91141538401E+02 0.  0.
          5    1    1    2  502    0  0.14054982259E+02  0.10458516961E+02 -0.33769403993E+02  0.38272289576E+02  0.41800000000E+01 0. -1.
         -5    1    1    2    0  502 -0.17548344016E+03 -0.12646757810E+03 -0.53351855836E+03  0.57571521657E+03  0.41800000000E+01 0. -1.
        -11    1    3    3    0    0  0.11999516818E+03  0.48365770152E+02 -0.40366529626E+03  0.42389121189E+03  0.00000000000E+00 0.  1.
         11    1    3    3    0    0  0.41433289721E+02  0.67643290991E+02 -0.47507998641E+03  0.48165685483E+03  0.00000000000E+00 0. -1.
</event>
<event>
 7    1  0.5137842E-006  0.1819852E+03  0.7561462E-02  0.1165895E+00
         -2   -1    0    0    0  501 -0.00000000000E+00  0.00000000000E+00  0.31333560280E+02  0.31333560280E+02  0.00000000000E+00 0.  1.
          2   -1    0    0  501    0  0.00000000000E+00 -0.00000000000E+00 -0.12974446553E+04  0.12974446553E+04  0.00000000000E+00 0. -1.
         23    2    1    2    0    0 -0.23875998714E+01  0.14664808487E+03 -0.88563463867E+03  0.90228069494E+03  0.90831590392E+02 0.  0.
          5    1    1    2  502    0 -0.15628200592E+02 -0.16547865000E+03 -0.32492661552E+03  0.36499616728E+03  0.41800000000E+01 0.  1.
         -5    1    1    2    0  502  0.18015800464E+02  0.18830565126E+02 -0.55549840869E+02  0.61501353399E+02  0.41800000000E+01 0.  1.
        -11    1    3    3    0    0  0.39190604827E+02  0.36422353155E+02 -0.22948445017E+03  0.23563871538E+03  0.00000000000E+00 0.  1.
         11    1    3    3    0    0 -0.41578204698E+02  0.11022573172E+03 -0.65615018851E+03  0.66664197956E+03  0.00000000000E+00 0. -1.
</event>
<event>
 7    1  0.5137842E-006  0.1161642E+03  0.7561462E-02  0.1249562E+00
         -1   -1    0    0    0  501 -0.00000000000E+00  0.00000000000E+00  0.68529040605E+02  0.68529040605E+02  0.00000000000E+00 0.  1.
          1   -1    0    0  501    0  0.00000000000E+00 -0.00000000000E+00 -0.32228974306E+03  0.32228974306E+03  0.00000000000E+00 0. -1.
         23    2    1    2    0    0 -0.33396598030E+02  0.66111532439E+02 -0.20744959715E+03  0.23824808596E+03  0.90778563687E+02 0.  0.
          5    1    1    2  502    0  0.20196243642E+02 -0.88357886878E+02  0.91876414953E+01  0.91196982335E+02  0.41800000000E+01 0. -1.
         -5    1    1    2    0  502  0.13200354387E+02  0.22246354439E+02 -0.55498746793E+02  0.61373715362E+02  0.41800000000E+01 0. -1.
        -11    1    3    3    0    0 -0.34101163577E+01  0.81579730208E+02 -0.16432182168E+03  0.18348989715E+03  0.00000000000E+00 0. -1.
         11    1    3    3    0    0 -0.29986481672E+02 -0.15468197770E+02 -0.43127775473E+02  0.54758188817E+02  0.00000000000E+00 0.  1.
</event>
<event>
 7    1  0.5137842E-006  0.1261793E+03  0.7561462E-02  0.1233238E+00
          2   -1    0    0  501    0  0.00000000000E+00  0.00000000000E+00  0.37606995769E+03  0.37606995769E+03  0.00000000000E+00 0.  1.
         -2   -1    0    0    0  501 -0.00000000000E+00 -0.00000000000E+00 -0.43169614482E+02  0.43169614482E+02  0.00000000000E+00 0. -1.
         23    2    1    2    0    0 -0.40885349461E+02 -0.50983481885E+02  0.16943557990E+03  0.20327530816E+03  0.91331856132E+02 0.  0.
          5    1    1    2  502    0  0.77440298813E+02 -0.56873661691E+00  0.96307881185E+02  0.12365275460E+03  0.41800000000E+01 0.  1.
         -5    1    1    2    0  502 -0.36554949352E+02  0.51552218502E+02  0.67156882126E+02  0.92311509420E+02  0.41800000000E+01 0.  1.
        -11    1    3    3    0    0 -0.67802651096E+02 -0.20570704473E+02  0.11928737203E+03  0.13874375844E+03  0.00000000000E+00 0.  1.
         11    1    3    3    0    0  0.26917301635E+02 -0.30412777412E+02  0.50148207867E+02  0.64531549722E+02  0.00000000000E+00 0. -1.
</event>
<event>
 7    1  0.5137842E-006  0.8792568E+02  0.7561462E-02  0.1307954E+00
         -1   -1    0    0    0  501 -0.00000000000E+00  0.00000000000E+00  0.37491589567E+02  0.37491589567E+02  0.00000000000E+00 0.  1.
          1   -1    0    0  501    0  0.00000000000E+00 -0.00000000000E+00 -0.37482107118E+03  0.37482107118E+03  0.00000000000E+00 0. -1.
         23    2    1    2    0    0 -0.13112655075E+02 -0.23409885578E+02 -0.22285874573E+03  0.24064193113E+03  0.86732658212E+02 0.  0.
          5    1    1    2  502    0 -0.16991739269E+02 -0.34550625490E+02  0.12236509196E+01  0.38748350245E+02  0.41800000000E+01 0.  1.
         -5    1    1    2    0  502  0.30104394344E+02  0.57960511068E+02 -0.11569438680E+03  0.13292237938E+03  0.41800000000E+01 0.  1.
        -11    1    3    3    0    0 -0.37037181192E+02  0.15925956719E+01 -0.18764069750E+03  0.19126766718E+03  0.00000000000E+00 0. -1.
         11    1    3    3    0    0  0.23924526117E+02 -0.25002481250E+02 -0.35218048236E+02  0.49374263945E+02  0.00000000000E+00 0.  1.
</event>
<event>
 7    1  0.5137842E-006  0.1309373E+03  0.7561462E-02  0.1226072E+00
         -2   -1    0    0    0  501 -0.00000000000E+00  0.00000000000E+00  0.38624931676E+02  0.38624931676E+02  0.00000000000E+00 0. -1.
          2   -1    0    0  501    0  0.00000000000E+00 -0.00000000000E+00 -0.55973924983E+03  0.55973924983E+03  0.00000000000E+00 0.  1.
         23    2    1    2    0    0 -0.66057287748E+02 -0.63734119999E+02 -0.33813294511E+03  0.35845868867E+03  0.75717498622E+02 0.  0.
          5    1    1    2  502    0 -0.36453714930E+02  0.54540577344E+01 -0.40878496894E+02  0.55200941897E+02  0.41800000000E+01 0.  1.
         -5    1    1    2    0  502  0.10251100268E+03  0.58280062265E+02 -0.14210287615E+03  0.18470455094E+03  0.41800000000E+01 0.  1.
        -11    1    3    3    0    0 -0.55503361684E+02 -0.73704869844E+02 -0.32805936921E+03  0.34078729543E+03  0.00000000000E+00 0.  1.
         11    1    3    3    0    0 -0.10553926064E+02  0.99707498442E+01 -0.10073575902E+02  0.17671393247E+02  0.00000000000E+00 0. -1.
</event>
<event>
 7    1  0.5137842E-006  0.1683751E+03  0.7561462E-02  0.1179553E+00
         -1   -1    0    0    0  501 -0.00000000000E+00  0.00000000000E+00  0.19003639674E+03  0.19003639674E+03  0.00000000000E+00 0.  1.
          1   -1    0    0  501    0  0.00000000000E+00 -0.00000000000E+00 -0.19889929198E+03  0.19889929198E+03  0.00000000000E+00 0. -1.
         23    2    1    2    0    0  0.15186600224E+03 -0.25889886735E+02 -0.54933541516E+02  0.18521173954E+03  0.86902966630E+02 0.  0.
          5    1    1    2  502    0 -0.23645695496E+02 -0.18020284539E+02 -0.34708211850E+02  0.45890978854E+02  0.41800000000E+01 0. -1.
         -5    1    1    2    0  502 -0.12822030674E+03  0.43910171274E+02  0.80778858126E+02  0.15783297033E+03  0.41800000000E+01 0. -1.
        -11    1    3    3    0    0  0.14926441560E+03 -0.41803948947E+02 -0.33836725969E+02  0.15865799676E+03  0.00000000000E+00 0.  1.
         11    1    3    3    0    0  0.26015866331E+01  0.15914062212E+02 -0.21096815548E+02  0.26553742775E+02  0.00000000000E+00 0. -1.
</event>
<event>
 7    1  0.5137842E-006  0.1188073E+03  0.7561462E-02  0.1245078E+00
          1   -1    0    0  501    0  0.00000000000E+00  0.00000000000E+00  0.31904120638E+02  0.31904120638E+02  0.00000000000E+00 0. -1.
         -1   -1    0    0    0  501 -0.00000000000E+00 -0.00000000000E+00 -0.52232438579E+03  0.52232438579E+03  0.00000000000E+00 0.  1.
         23    2    1    2    0    0  0.16666779385E+02  0.51121516690E+02 -0.11604502803E+03  0.15586298761E+03  0.89082160797E+02 0.  0.
          5    1    1    2  502    0  0.45895499246E+02 -0.56067242411E+02 -0.22028909189E+03  0.23193682098E+03  0.41800000000E+01 0. -1.
         -5    1    1    2    0  502 -0.62562278631E+02  0.49457257214E+01 -0.15408614524E+03  0.16642869785E+03  0.41800000000E+01 0. -1.
        -11    1    3    3    0    0 -0.24652651006E+02  0.55363949059E+02 -0.83074610469E+02  0.10283146873E+03  0.00000000000E+00 0.  1.
         11    1    3    3    0    0  0.41319430391E+02 -0.42424323695E+01 -0.32970417556E+02  0.53031518874E+02  0.00000000000E+00 0. -1.
</event>
<event>
 7    1  0.5137842E-006  0.1401253E+03  0.7561462E-02  0.1213160E+00
         -1   -1    0    0    0  501 -0.00000000000E+00  0.00000000000E+00  0.10209062771E+03  0.10209062771E+03  0.00000000000E+00 0.  1.
          1   -1    0    0  501    0  0.00000000000E+00 -0.00000000000E+00 -0.32068944408E+03  0.32068944408E+03  0.00000000000E+00 0. -1.
         23    2    1    2    0    0 -0.11008812920E+03  0.37090295158E+02 -0.20326285492E+03  0.25138048002E+03  0.91549283766E+02 0.  0.
          5    1    1    2  502    0  0.12258789216E+03 -0.47676639600E+01 -0.39493964933E+02  0.12894870139E+03  0.41800000000E+01 0. -1.
         -5    1    1    2    0  502 -0.12499762968E+02 -0.32322631199E+02  0.24158003484E+02  0.42450890382E+02  0.41800000000E+01 0. -1.
        -11    1    3    3    0    0 -0.89402180447E+01 -0.78619017521E+01  0.69656603068E+01  0.13793383245E+02  0.00000000000E+00 0.  1.
         11    1    3    3    0    0 -0.10114791115E+03  0.44952196911E+02 -0.21022851523E+03  0.23758709677E+03  0.00000000000E+00 0. -1.
</event>
<event>
 7    1  0.5137842E-006  0.8786347E+02  0.7561462E-02  0.1308110E+00
          1   -1    0    0  501    0  0.00000000000E+00  0.00000000000E+00  0.29552457852E+02  0.29552457852E+02  0.00000000000E+00 0. -1.
         -1   -1    0    0    0  501 -0.00000000000E+00 -0.00000000000E+00 -0.73075893893E+03  0.73075893893E+03  0.00000000000E+00 0.  1.
         23    2    1    2    0    0 -0.13108505686E+02  0.12198531411E+02 -0.66529148864E+02  0.11317833397E+03  0.89791817786E+02 0.  0.
          5    1    1    2  502    0  0.30685430045E+02  0.48057808209E+02 -0.40426810240E+03  0.40829072921E+03  0.41800000000E+01 0. -1.
         -5    1    1    2    0  502 -0.17576924359E+02 -0.60256339620E+02 -0.23040922982E+03  0.23884233360E+03  0.41800000000E+01 0. -1.
        -11    1    3    3    0    0 -0.32486869670E+02 -0.48105392050E+00 -0.80028937351E+02  0.86372790435E+02  0.00000000000E+00 0.  1.
         11    1    3    3    0    0  0.19378363984E+02  0.12679585332E+02  0.13499788488E+02  0.26805543533E+02  0.00000000000E+00 0. -1.
</event>
<event>
 7    1  0.5137842E-006  0.1234097E+03  0.7561462E-02  0.1237576E+00
          1   -1    0    0  501    0  0.00000000000E+00  0.00000000000E+00  0.32510953940E+02  0.32510953940E+02  0.00000000000E+00 0. -1.
         -1   -1    0    0    0  501 -0.00000000000E+00 -0.00000000000E+00 -0.57209614134E+03  0.57209614134E+03  0.00000000000E+00 0.  1.
         23    2    1    2    0    0 -0.81168875019E+02  0.33949338060E+01 -0.20894308835E+03  0.24187890439E+03  0.90820032876E+02 0.  0.
          5    1    1    2  502    0  0.37965305130E+02  0.45823306427E+02 -0.25811593836E+03  0.26491970452E+03  0.41800000000E+01 0. -1.
         -5    1    1    2    0  502  0.43203569889E+02 -0.49218240232E+02 -0.72526160690E+02  0.97808486376E+02  0.41800000000E+01 0. -1.
        -11    1    3    3    0    0 -0.45247146556E+02 -0.43300584115E+02 -0.99010002948E+02  0.11715470772E+03  0.00000000000E+00 0.  1.
         11    1    3    3    0    0 -0.35921728462E+02  0.46695517921E+02 -0.10993308540E+03  0.12472419667E+03  0.00000000000E+00 0. -1.
</event>
<event>
 7    1  0.5137842E-006  0.1056616E+03  0.7561462E-02  0.1268822E+00
         -2   -1    0    0    0  501 -0.00000000000E+00  0.00000000000E+00  0.21154929066E+03  0.21154929066E+03  0.00000000000E+00 0.  1.
          2   -1    0    0  501    0  0.00000000000E+00 -0.00000000000E+00 -0.74655462302E+02  0.74655462302E+02  0.00000000000E+00 0. -1.
         23    2    1    2    0    0 -0.68772825406E+01 -0.33875842250E+02  0.52970651439E+00  0.97953995371E+02  0.91650613292E+02 0.  0.
          5    1    1    2  502    0  0.55179489430E+02  0.20436313667E+01  0.21178164645E+02  0.59286925546E+02  0.41800000000E+01 0. -1.
         -5    1    1    2    0  502 -0.48302206890E+02  0.31832210884E+02  0.11518595720E+03  0.12896383205E+03  0.41800000000E+01 0. -1.
        -11    1    3    3    0    0  0.42001455231E+02 -0.22955697521E+02 -0.15709484106E+00  0.47865550963E+02  0.00000000000E+00 0.  1.
         11    1    3    3    0    0 -0.48878737772E+02 -0.10920144729E+02  0.68680135545E+00  0.50088444408E+02  0.00000000000E+00 0. -1.
</event>
<event>
 7    1  0.5137842E-006  0.2068210E+03  0.7561462E-02  0.1144108E+00
         -1   -1    0    0    0  501 -0.00000000000E+00  0.00000000000E+00  0.95814323995E+03  0.95814323995E+03  0.00000000000E+00 0.  1.
          1   -1    0    0  501    0  0.00000000000E+00 -0.00000000000E+00 -0.51281869331E+02  0.51281869331E+02  0.00000000000E+00 0. -1.
         23    2    1    2    0    0 -0.17695249315E+03  0.65381879973E+02  0.33463722603E+03  0.39405907674E+03  0.87826578278E+02 0.  0.
          5    1    1    2  502    0 -0.49177170750E+01 -0.32414034753E+02  0.39674295200E+02  0.51636960501E+02  0.41800000000E+01 0. -1.
         -5    1    1    2    0  502  0.18187021022E+03 -0.32967845221E+02  0.53254984938E+03  0.56372907204E+03  0.41800000000E+01 0. -1.
        -11    1    3    3    0    0 -0.11621677523E+03  0.15759257828E+02  0.13093678449E+03  0.17578149670E+03  0.00000000000E+00 0. -1.
         11    1    3    3    0    0 -0.60735717923E+02  0.49622622145E+02  0.20370044154E+03  0.21827758003E+03  0.00000000000E+00 0.  1.
</event>
<event>
 7    1  0.5137842E-006  0.8508323E+02  0.7561462E-02  0.1315215E+00
          1   -1    0    0  501    0  0.00000000000E+00  0.00000000000E+00  0.21110792099E+02  0.21110792099E+02  0.00000000000E+00 0. -1.
         -1   -1    0    0    0  501 -0.00000000000E+00 -0.00000000000E+00 -0.83166946108E+03  0.83166946108E+03  0.00000000000E+00 0.  1.
         23    2    1    2    0    0  0.74538678530E+02  0.15317396336E+02 -0.36099309705E+03  0.37997171110E+03  0.90949699783E+02 0.  0.
          5    1    1    2  502    0 -0.42869311372E+02 -0.79861421216E+01 -0.43455967237E+03  0.43676210639E+03  0.41800000000E+01 0.  1.
         -5    1    1    2    0  502 -0.31669367159E+02 -0.73312542143E+01 -0.15005899559E+02  0.36046435693E+02  0.41800000000E+01 0.  1.
        -11    1    3    3    0    0  0.14419107309E+02 -0.19392141576E+02 -0.18285583080E+02  0.30303933063E+02  0.00000000000E+00 0.  1.
         11    1    3    3    0    0  0.60119571222E+02  0.34709537912E+02 -0.34270751397E+03  0.34966777803E+03  0.00000000000E+00 0. -1.
</event>
<event>
 7    1  0.5137842E-006  0.2055219E+03  0.7561462E-02  0.1145162E+00
         -1   -1    0    0    0  501 -0.00000000000E+00  0.00000000000E+00  0.88106895692E+02  0.88106895692E+02  0.00000000000E+00 0.  1.
          1   -1    0    0  501    0  0.00000000000E+00 -0.00000000000E+00 -0.61671369453E+03  0.61671369453E+03  0.00000000000E+00 0. -1.
         23    2    1    2    0    0 -0.14871926916E+03  0.11544058517E+03 -0.37817383118E+03  0.43330253643E+03  0.96393421757E+02 0.  0.
          5    1    1    2  502    0  0.14178950027E+03 -0.42505387522E+02 -0.73936374910E+02  0.16551444133E+03  0.41800000000E+01 0. -1.
         -5    1    1    2    0  502  0.69297688905E+01 -0.72935197650E+02 -0.76496592746E+02  0.10600361246E+03  0.41800000000E+01 0. -1.
        -11    1    3    3    0    0 -0.56562906093E+02  0.57848509479E+02 -0.71603452007E+02  0.10804104190E+03  0.00000000000E+00 0.  1.
         11    1    3    3    0    0 -0.92156363069E+02  0.57592075693E+02 -0.30657037918E+03  0.32526149453E+03  0.00000000000E+00 0. -1.
</event>
<event>
 7    1  0.5137842E-006  0.1505584E+03  0.7561462E-02  0.1199789E+00
         -1   -1    0    0    0  501 -0.00000000000E+00  0.00000000000E+00  0.55643668775E+02  0.55643668775E+02  0.00000000000E+00 0.  1.
          1   -1    0    0  501    0  0.00000000000E+00 -0.00000000000E+00 -0.91206419151E+03  0.91206419151E+03  0.00000000000E+00 0. -1.
         23    2    1    2    0    0 -0.29681794367E+02  0.12305807265E+03 -0.75142481779E+03  0.76749724890E+03  0.91588602539E+02 0.  0.
          5    1    1    2  502    0 -0.26029474955E+02 -0.46417360233E+02 -0.89357201320E+02  0.10408787982E+03  0.41800000000E+01 0. -1.
         -5    1    1    2    0  502  0.55711269322E+02 -0.76640712420E+02 -0.15638503632E+02  0.96122731575E+02  0.41800000000E+01 0.  1.
        -11    1    3    3    0    0 -0.45883442291E+02  0.22618733981E+02 -0.18188079867E+03  0.18893787955E+03  0.00000000000E+00 0.  1.
         11    1    3    3    0    0  0.16201647924E+02  0.10043933867E+03 -0.56954401911E+03  0.57855936934E+03  0.00000000000E+00 0. -1.
</event>
<event>
 7    1  0.5137842E-006  0.1120628E+03  0.7561462E-02  0.1256797E+00
          1   -1    0    0  501    0  0.00000000000E+00  0.00000000000E+00  0.12042899980E+03  0.12042899980E+03  0.00000000000E+00 0. -1.
         -1   -1    0    0    0  501 -0.00000000000E+00 -0.00000000000E+00 -0.10492578947E+03  0.10492578947E+03  0.00000000000E+00 0.  1.
         23    2    1    2    0    0  0.26506740961E+02  0.19643738035E+02  0.57933063700E+01  0.95623500177E+02  0.89564544475E+02 0.  0.
          5    1    1    2  502    0  0.30465507075E+02 -0.53988121184E+02 -0.14515836854E+01  0.62148562699E+02  0.41800000000E+01 0. -1.
         -5    1    1    2    0  502 -0.56972248036E+02  0.34344383150E+02  0.11161487640E+02  0.67582726392E+02  0.41800000000E+01 0. -1.
        -11    1    3    3    0    0  0.37756916204E+01 -0.35496872126E+02 -0.36132774364E-01  0.35697129906E+02  0.00000000000E+00 0.  1.
         11    1    3    3    0    0  0.22731049341E+02  0.55140610161E+02  0.58294391444E+01  0.59926370270E+02  0.00000000000E+00 0. -1.
</event>
<event>
 7    1  0.5753718E-006  0.3345440E+03  0.7561462E-02  0.1069144E+00
         -2   -1    0    0    0  501 -0.00000000000E+00  0.00000000000E+00  0.24535976886E+03  0.24535976886E+03  0.00000000000E+00 0.  1.
          2   -1    0    0  501    0  0.00000000000E+00 -0.00000000000E+00 -0.49134049106E+03  0.49134049106E+03  0.00000000000E+00 0. -1.
         23    2    1    2    0    0 -0.11679952887E+03  0.30607090173E+03 -0.15891718725E+03  0.37538441557E+03  0.91308598833E+02 0.  0.
          5    1    1    2  502    0  0.52432610009E+02 -0.97122688566E+02 -0.90220170685E+02  0.14261538074E+03  0.41800000000E+01 0.  1.
         -5    1    1    2    0  502  0.64366918863E+02 -0.20894821317E+03  0.31566357273E+01  0.21870046360E+03  0.41800000000E+01 0.  1.
        -11    1    3    3    0    0 -0.27060748741E+02  0.19638597489E+03 -0.97725563239E+02  0.22102040849E+03  0.00000000000E+00 0.  1.
         11    1    3    3    0    0 -0.89738780131E+02  0.10968492684E+03 -0.61191624010E+02  0.15436400709E+03  0.00000000000E+00 0. -1.
</event>
<event>
 7    1  0.5137842E-006  0.1050474E+03  0.7561462E-02  0.1270026E+00
          1   -1    0    0  501    0  0.00000000000E+00  0.00000000000E+00  0.33864132602E+03  0.33864132602E+03  0.00000000000E+00 0. -1.
         -1   -1    0    0    0  501 -0.00000000000E+00 -0.00000000000E+00 -0.15711541116E+03  0.15711541116E+03  0.00000000000E+00 0.  1.
         23    2    1    2    0    0  0.26298865614E+02  0.29061091216E+02  0.15209707568E+03  0.18225142106E+03  0.92443943524E+02 0.  0.
          5    1    1    2  502    0 -0.61125273736E+02  0.55848075829E+01  0.16134537012E+03  0.17267683697E+03  0.41800000000E+01 0. -1.
         -5    1    1    2    0  502  0.34826408122E+02 -0.34645898799E+02 -0.13191653093E+03  0.14082847915E+03  0.41800000000E+01 0.  1.
        -11    1    3    3    0    0 -0.26171814302E+02 -0.15512024283E+02  0.59920918138E+02  0.67201958244E+02  0.00000000000E+00 0.  1.
         11    1    3    3    0    0  0.52470679917E+02  0.44573115499E+02  0.92176157539E+02  0.11504946282E+03  0.00000000000E+00 0. -1.
</event>
<event>
 7    1  0.5137842E-006  0.1296931E+03  0.7561462E-02  0.1227912E+00
          2   -1    0    0  501    0  0.00000000000E+00  0.00000000000E+00  0.82314341875E+03  0.82314341875E+03  0.00000000000E+00 0. -1.
         -2   -1    0    0    0  501 -0.00000000000E+00 -0.00000000000E+00 -0.38137973540E+02  0.38137973540E+02  0.00000000000E+00 0.  1.
         23    2    1    2    0    0  0.11736584384E+03  0.18556454614E+02  0.54831837518E+03  0.56838635993E+03  0.91054545644E+02 0.  0.
          5    1    1    2  502    0 -0.77410725734E+02 -0.28223386650E+02  0.23765088703E+03  0.25156390146E+03  0.41800000000E+01 0.  1.
         -5    1    1    2    0  502 -0.39955118110E+02  0.96669320361E+01 -0.96381700227E+00  0.41331130899E+02  0.41800000000E+01 0.  1.
        -11    1    3    3    0    0  0.21777245911E+02  0.32339027510E+02  0.67378298628E+02  0.77845335543E+02  0.00000000000E+00 0.  1.
         11    1    3    3    0    0  0.95588597933E+02 -0.13782572896E+02  0.48094007655E+03  0.49054102439E+03  0.00000000000E+00 0. -1.
</event>
<event>
 7    1  0.5137842E-006  0.1894409E+03  0.7561462E-02  0.1158967E+00
          4   -1    0    0  501    0  0.00000000000E+00  0.00000000000E+00  0.10655693486E+04  0.10655693486E+04  0.00000000000E+00 0. -1.
         -4   -1    0    0    0  501 -0.00000000000E+00 -0.00000000000E+00 -0.39197447139E+02  0.39197447139E+02  0.00000000000E+00 0.  1.
         23    2    1    2    0    0  0.16099178648E+03 -0.44058206614E+02  0.38436803623E+03  0.42972980500E+03  0.95233592538E+02 0.  0.
          5    1    1    2  502    0 -0.14356713339E+03  0.80538088268E+02  0.55674490690E+03  0.58058614280E+03  0.41800000000E+01 0. -1.
         -5    1    1    2    0  502 -0.17424653088E+02 -0.36479881654E+02  0.85258958326E+02  0.94450847935E+02  0.41800000000E+01 0. -1.
        -11    1    3    3    0    0  0.15293528476E+03 -0.27821210803E+02  0.38073298959E+03  0.41124303090E+03  0.00000000000E+00 0. -1.
         11    1    3    3    0    0  0.80565017161E+01 -0.16236995811E+02  0.36350466402E+01  0.18486774109E+02  0.00000000000E+00 0.  1.
</event>
<event>
 7    1  0.5137842E-006  0.1179046E+03  0.7561462E-02  0.1246594E+00
          2   -1    0    0  501    0  0.00000000000E+00  0.00000000000E+00  0.49269171424E+03  0.49269171424E+03  0.00000000000E+00 0.  1.
         -2   -1    0    0    0  501 -0.00000000000E+00 -0.00000000000E+00 -0.29650440080E+02  0.29650440080E+02  0.00000000000E+00 0. -1.
         23    2    1    2    0    0 -0.51303620885E+02  0.30757808915E+01  0.19197200094E+03  0.21940940476E+03  0.92982341375E+02 0.  0.
          5    1    1    2  502    0  0.76204149651E+02  0.35766639479E+02  0.13456676509E+03  0.15878290711E+03  0.41800000000E+01 0. -1.
         -5    1    1    2    0  502 -0.24900528767E+02 -0.38842420370E+02  0.13650250814E+03  0.14414984246E+03  0.41800000000E+01 0. -1.
        -11    1    3    3    0    0 -0.77011541644E+02  0.12090719572E+02  0.15483268534E+03  0.17334971444E+03  0.00000000000E+00 0.  1.
         11    1    3    3    0    0  0.25707920759E+02 -0.90149386809E+01  0.37139315602E+02  0.46059690322E+02  0.00000000000E+00 0. -1.
</event>
<event>
 7    1  0.5137842E-006  0.1226511E+03  0.7561462E-02  0.1238787E+00
         -2   -1    0    0    0  501 -0.00000000000E+00  0.00000000000E+00  0.12925254499E+03  0.12925254499E+03  0.00000000000E+00 0.  1.
          2   -1    0    0  501    0  0.00000000000E+00 -0.00000000000E+00 -0.19334680185E+03  0.19334680185E+03  0.00000000000E+00 0. -1.
         23    2    1    2    0    0  0.81230044699E+02 -0.69068792122E+02 -0.70526384818E+02  0.15810738248E+03  0.93033086763E+02 0.  0.
          5    1    1    2  502    0 -0.89597616273E+02  0.37187940006E+02 -0.41972293861E+02  0.10578195298E+03  0.41800000000E+01 0.  1.
         -5    1    1    2    0  502  0.83675715734E+01  0.31880852116E+02  0.48404421813E+02  0.58710011384E+02  0.41800000000E+01 0.  1.
        -11    1    3    3    0    0  0.85775368378E+02 -0.59519662805E+02 -0.19766887091E+02  0.10625786515E+03  0.00000000000E+00 0.  1.
         11    1    3    3    0    0 -0.45453236789E+01 -0.95491293168E+01 -0.50759497727E+02  0.51849517332E+02  0.00000000000E+00 0. -1.
</event>
<event>
 7    1  0.5137842E-006  0.8397962E+02  0.7561462E-02  0.1318123E+00
         -1   -1    0    0    0  501 -0.00000000000E+00  0.00000000000E+00  0.97364767118E+02  0.97364767118E+02  0.00000000000E+00 0.  1.
          1   -1    0    0  501    0  0.00000000000E+00 -0.00000000000E+00 -0.15963786018E+03  0.15963786018E+03  0.00000000000E+00 0. -1.
         23    2    1    2    0    0 -0.11832336405E+02 -0.55957045052E+02 -0.52320157809E+02  0.11909820193E+03  0.90420062561E+02 0.  0.
          5    1    1    2  502    0  0.17273404286E+02  0.28358665015E+02 -0.66590808997E+02  0.74527797633E+02  0.41800000000E+01 0. -1.
         -5    1    1    2    0  502 -0.54410678810E+01  0.27598380037E+02  0.56637873747E+02  0.63376627734E+02  0.41800000000E+01 0. -1.
        -11    1    3    3    0    0  0.39128235690E+02 -0.24069778522E+02 -0.30519110088E+02  0.55152417416E+02  0.00000000000E+00 0.  1.
         11    1    3    3    0    0 -0.50960572096E+02 -0.31887266530E+02 -0.21801047721E+02  0.63945784512E+02  0.00000000000E+00 0. -1.
</event>
<event>
 7    1  0.5137842E-006  0.1010486E+03  0.7561462E-02  0.1278106E+00
          2   -1    0    0  501    0  0.00000000000E+00  0.00000000000E+00  0.62709748639E+02  0.62709748639E+02  0.00000000000E+00 0. -1.
         -2   -1    0    0    0  501 -0.00000000000E+00 -0.00000000000E+00 -0.29817447868E+03  0.29817447868E+03  0.00000000000E+00 0.  1.
         23    2    1    2    0    0  0.20969625928E+02 -0.75541100370E+01 -0.12573209897E+01  0.94430546250E+02  0.91753786947E+02 0.  0.
          5    1    1    2  502    0 -0.67074993228E+02  0.20788739957E+02 -0.18352903269E+03  0.19654924234E+03  0.41800000000E+01 0. -1.
         -5    1    1    2    0  502  0.46105367301E+02 -0.13234629920E+02 -0.50678376363E+02  0.69904438728E+02  0.41800000000E+01 0. -1.
        -11    1    3    3    0    0  0.39098812112E+02 -0.33813128802E+02  0.20714954448E+02  0.55688007019E+02  0.00000000000E+00 0. -1.
         11    1    3    3    0    0 -0.18129186184E+02  0.26259018765E+02 -0.21972275438E+02  0.38742539232E+02  0.00000000000E+00 0.  1.
</event>
<event>
 7    1  0.5137842E-006  0.1000620E+03  0.7561462E-02  0.1280166E+00
          2   -1    0    0  501    0  0.00000000000E+00  0.00000000000E+00  0.55723219607E+02  0.55723219607E+02  0.00000000000E+00 0. -1.
         -2   -1    0    0    0  501 -0.00000000000E+00 -0.00000000000E+00 -0.26692594718E+03  0.26692594718E+03  0.00000000000E+00 0.  1.
         23    2    1    2    0    0  0.32581479676E+02 -0.44901168562E+02 -0.60826060810E+02  0.11933132067E+03  0.86385685525E+02 0.  0.
          5    1    1    2  502    0  0.20883216342E+02 -0.33975315396E+02 -0.58193807972E+02  0.70671228002E+02  0.41800000000E+01 0. -1.
         -5    1    1    2    0  502 -0.53464696018E+02  0.78876483958E+02 -0.92182858786E+02  0.13264661811E+03  0.41800000000E+01 0. -1.
        -11    1    3    3    0    0  0.32687517326E+02 -0.17187385328E+02  0.14032874200E+02  0.39506981176E+02  0.00000000000E+00 0. -1.
         11    1    3    3    0    0 -0.10603764976E+00 -0.27713783233E+02 -0.74858935010E+02  0.79824339495E+02  0.00000000000E+00 0.  1.
</event>
<event>
 7    1  0.5137842E-006  0.1175592E+03  0.7561462E-02  0.1247179E+00
          2   -1    0    0  501    0  0.00000000000E+00  0.00000000000E+00  0.43761015234E+03  0.43761015234E+03  0.00000000000E+00 0. -1.
         -2   -1    0    0    0  501 -0.00000000000E+00 -0.00000000000E+00 -0.38139225501E+02  0.38139225501E+02  0.00000000000E+00 0.  1.
         23    2    1    2    0    0 -0.62130049131E+02  0.70027785165E+01  0.22665700284E+03  0.25344392431E+03  0.94611013725E+02 0.  0.
          5    1    1    2  502    0  0.61373457718E+02  0.48986857987E+02  0.12901920605E+03  0.15109547146E+03  0.41800000000E+01 0.  1.
         -5    1    1    2    0  502  0.75659141336E+00 -0.55989636504E+02  0.43794717951E+02  0.71209982073E+02  0.41800000000E+01 0.  1.
        -11    1    3    3    0    0 -0.71371508458E+02 -0.18057400356E+02  0.10102536644E+03  0.12500434629E+03  0.00000000000E+00 0.  1.
         11    1    3    3    0    0  0.92414593266E+01  0.25060178873E+02  0.12563163640E+03  0.12843957802E+03  0.00000000000E+00 0. -1.
</event>
<event>
 7    1  0.5137842E-006  0.8963067E+02  0.7561462E-02  0.1303749E+00
         -1   -1    0    0    0  501 -0.00000000000E+00  0.00000000000E+00  0.16317969671E+03  0.16317969671E+03  0.00000000000E+00 0. -1.
          1   -1    0    0  501    0  0.00000000000E+00 -0.00000000000E+00 -0.73947709535E+02  0.73947709535E+02  0.00000000000E+00 0.  1.
         23    2    1    2    0    0  0.10458387153E+01 -0.25566783462E+02  0.20017771379E+02  0.91910909325E+02  0.85977612706E+02 0.  0.
          5    1    1    2  502    0  0.25404238638E+02 -0.22769779004E+02  0.81638458641E+02  0.88578487829E+02  0.41800000000E+01 0.  1.
         -5    1    1    2    0  502 -0.26450077354E+02  0.48336562466E+02 -0.12424242850E+02  0.56638009088E+02  0.41800000000E+01 0.  1.
        -11    1    3    3    0    0  0.22065562475E+02  0.25908279955E+02  0.93897341412E+01  0.35302905331E+02  0.00000000000E+00 0. -1.
         11    1    3    3    0    0 -0.21019723759E+02 -0.51475063417E+02  0.10628037238E+02  0.56608003994E+02  0.00000000000E+00 0.  1.
</event>
<event>
 7    1  0.5137842E-006  0.1202690E+03  0.7561462E-02  0.1242654E+00
         -1   -1    0    0    0  501 -0.00000000000E+00  0.00000000000E+00  0.81925512837E+02  0.81925512837E+02  0.00000000000E+00 0.  1.
          1   -1    0    0  501    0  0.00000000000E+00 -0.00000000000E+00 -0.26288529733E+03  0.26288529733E+03  0.00000000000E+00 0. -1.
         23    2    1    2    0    0  0.73825531215E+02 -0.50277135923E+02 -0.12826122563E+03  0.18232272078E+03  0.93875625471E+02 0.  0.
          5    1    1    2  502    0 -0.82798242218E+02  0.34955358650E+01  0.10063935976E+02  0.83585422729E+02  0.41800000000E+01 0.  1.
         -5    1    1    2    0  502  0.89727110027E+01  0.46781600058E+02 -0.62762494836E+02  0.78902666652E+02  0.41800000000E+01 0.  1.
        -11    1    3    3    0    0  0.40468505852E+02 -0.62296467994E+02 -0.34162567581E+02  0.81765707446E+02  0.00000000000E+00 0.  1.
         11    1    3    3    0    0  0.33357025363E+02  0.12019332071E+02 -0.94098658048E+02  0.10055701334E+03  0.00000000000E+00 0. -1.
</event>
<event>
 7    1  0.5137842E-006  0.1176132E+03  0.7561462E-02  0.1247087E+00
         -1   -1    0    0    0  501 -0.00000000000E+00  0.00000000000E+00  0.12906327986E+03  0.12906327986E+03  0.00000000000E+00 0.  1.
          1   -1    0    0  501    0  0.00000000000E+00 -0.00000000000E+00 -0.16714239255E+03  0.16714239255E+03  0.00000000000E+00 0. -1.
         23    2    1    2    0    0  0.85152089956E+02  0.15620893765E+01 -0.69554102243E+02  0.14163413301E+03  0.89270017069E+02 0.  0.
          5    1    1    2  502    0  0.16101439807E+02 -0.88145418391E+01 -0.30295470852E+02  0.35668480004E+02  0.41800000000E+01 0.  1.
         -5    1    1    2    0  502 -0.10125352976E+03  0.72524524625E+01  0.61770460405E+02  0.11890305940E+03  0.41800000000E+01 0.  1.
        -11    1    3    3    0    0 -0.13900818196E+02  0.70697192038E+01  0.62304267889E+01  0.16793805230E+02  0.00000000000E+00 0.  1.
         11    1    3    3    0    0  0.99052908152E+02 -0.55076298273E+01 -0.75784529032E+02  0.12484032778E+03  0.00000000000E+00 0. -1.
</event>
<event>
 7    1  0.5137842E-006  0.1594453E+03  0.7561462E-02  0.1189324E+00
         -4   -1    0    0    0  501 -0.00000000000E+00  0.00000000000E+00  0.13301695742E+03  0.13301695742E+03  0.00000000000E+00 0.  1.
          4   -1    0    0  501    0  0.00000000000E+00 -0.00000000000E+00 -0.24363299596E+03  0.24363299596E+03  0.00000000000E+00 0. -1.
         23    2    1    2    0    0 -0.60663410151E+02  0.12373532815E+03 -0.92133004808E+02  0.18962258384E+03  0.92074714032E+02 0.  0.
          5    1    1    2  502    0  0.17835258735E+02 -0.13060157182E+03 -0.40829332200E+02  0.13805569088E+03  0.41800000000E+01 0. -1.
         -5    1    1    2    0  502  0.42828151416E+02  0.68662436746E+01  0.22346298465E+02  0.48971678662E+02  0.41800000000E+01 0. -1.
        -11    1    3    3    0    0 -0.57630810174E+02  0.74902193792E+02 -0.10270033214E+03  0.13956721369E+03  0.00000000000E+00 0.  1.
         11    1    3    3    0    0 -0.30325999766E+01  0.48833134356E+02  0.10567327332E+02  0.50055370147E+02  0.00000000000E+00 0. -1.
</event>
<event>
 7    1  0.5137842E-006  0.1551049E+03  0.7561462E-02  0.1194337E+00
         -1   -1    0    0    0  501 -0.00000000000E+00  0.00000000000E+00  0.90949082978E+02  0.90949082978E+02  0.00000000000E+00 0.  1.
          1   -1    0    0  501    0  0.00000000000E+00 -0.00000000000E+00 -0.34413482013E+03  0.34413482013E+03  0.00000000000E+00 0. -1.
         23    2    1    2    0    0 -0.91558100382E+02 -0.92521411416E+02 -0.18182754283E+03  0.24096682006E+03  0.89781154607E+02 0.  0.
          5    1    1    2  502    0  0.45127062310E+01 -0.15152435220E+02 -0.51679733644E+02  0.54205424822E+02  0.41800000000E+01 0. -1.
         -5    1    1    2    0  502  0.87045394151E+02  0.10767384664E+03 -0.19678460676E+02  0.13991165822E+03  0.41800000000E+01 0. -1.
        -11    1    3    3    0    0 -0.67021584633E+02 -0.10743218586E+03 -0.16390857185E+03  0.20712215548E+03  0.00000000000E+00 0.  1.
         11    1    3    3    0    0 -0.24536515750E+02  0.14910774444E+02 -0.17918970987E+02  0.33844664585E+02  0.00000000000E+00 0. -1.
</event>
<event>
 7    1  0.5137842E-006  0.1275870E+03  0.7561462E-02  0.1231081E+00
          1   -1    0    0  501    0  0.00000000000E+00  0.00000000000E+00  0.55558687930E+03  0.55558687930E+03  0.00000000000E+00 0. -1.
         -1   -1    0    0    0  501 -0.00000000000E+00 -0.00000000000E+00 -0.37492176653E+02  0.37492176653E+02  0.00000000000E+00 0.  1.
         23    2    1    2    0    0 -0.44499786042E+02  0.78244937547E+02  0.29049888689E+03  0.31821590743E+03  0.93644323108E+02 0.  0.
          5    1    1    2  502    0  0.66426414356E+02  0.60736951527E+01  0.95192494432E+02  0.11631182955E+03  0.41800000000E+01 0.  1.
         -5    1    1    2    0  502 -0.21926628314E+02 -0.84318632700E+02  0.13240332133E+03  0.15855131898E+03  0.41800000000E+01 0.  1.
        -11    1    3    3    0    0  0.97033083680E+01  0.95758513611E+01 -0.11955228146E+01  0.13685042834E+02  0.00000000000E+00 0.  1.
         11    1    3    3    0    0 -0.54203094410E+02  0.68669086186E+02  0.29169440970E+03  0.30453086460E+03  0.00000000000E+00 0. -1.
</event>
<event>
 6    1  0.5137842E-006  0.1722669E+03  0.7561462E-02  0.1175504E+00
         -1   -1    0    0    0  501 -0.00000000000E+00  0.00000000000E+00  0.11186656453E+03  0.11186656453E+03  0.00000000000E+00 0.  1.
          1   -1    0    0  501    0  0.00000000000E+00 -0.00000000000E+00 -0.37377562602E+03  0.37377562602E+03  0.00000000000E+00 0. -1.
          5    1    1    2  502    0 -0.10582571812E+02 -0.38024301516E+02 -0.31349257558E+02  0.50577531389E+02  0.41800000000E+01 0.  1.
         -5    1    1    2    0  502  0.13189408787E+03 -0.96921973934E+01  0.27173388092E+01  0.13234366413E+03  0.41800000000E+01 0.  1.
        -11    1    1    2    0    0  0.20598739819E+02  0.18402130859E+02  0.55781648579E+00  0.27627118227E+02  0.00000000000E+00 0.  1.
         11    1    1    2    0    0 -0.14191025588E+03  0.29314368051E+02 -0.23383495922E+03  0.27509387680E+03  0.00000000000E+00 0. -1.
</event>
<event>
 7    1  0.5137842E-006  0.8297168E+02  0.7561462E-02  0.1320824E+00
         -1   -1    0    0    0  501 -0.00000000000E+00  0.00000000000E+00  0.77776738972E+03  0.77776738972E+03  0.00000000000E+00 0. -1.
          1   -1    0    0  501    0  0.00000000000E+00 -0.00000000000E+00 -0.20420170755E+02  0.20420170755E+02  0.00000000000E+00 0.  1.
         23    2    1    2    0    0  0.22498710926E+02 -0.97502419190E+01  0.14653643825E+03  0.17421409452E+03  0.90974522718E+02 0.  0.
          5    1    1    2  502    0 -0.13598300317E+02 -0.45925573865E+02  0.46668621784E+03  0.46915623243E+03  0.41800000000E+01 0. -1.
         -5    1    1    2    0  502 -0.89004106085E+01  0.55675815784E+02  0.14412456287E+03  0.15481723352E+03  0.41800000000E+01 0. -1.
        -11    1    3    3    0    0  0.10215797991E+02 -0.33264753736E+02  0.14332770086E+03  0.14749147841E+03  0.00000000000E+00 0. -1.
         11    1    3    3    0    0  0.12282912935E+02  0.23514511817E+02  0.32087373903E+01  0.26722616111E+02  0.00000000000E+00 0.  1.
</event>
<event>
 7    1  0.5137842E-006  0.3254116E+03  0.7561462E-02  0.1073185E+00
         -2   -1    0    0    0  501 -0.00000000000E+00  0.00000000000E+00  0.47985551586E+03  0.47985551586E+03  0.00000000000E+00 0.  1.
          2   -1    0    0  501    0  0.00000000000E+00 -0.00000000000E+00 -0.27417056443E+03  0.27417056443E+03  0.00000000000E+00 0. -1.
         23    2    1    2    0    0 -0.23254406175E+03  0.21028566030E+03 -0.48821565093E+02  0.33127637513E+03  0.95203423878E+02 0.  0.
          5    1    1    2  502    0  0.17613893548E+03 -0.78515129179E+02  0.12773523080E+03  0.23135105725E+03  0.41800000000E+01 0.  1.
         -5    1    1    2    0  502  0.56405126264E+02 -0.13177053112E+03  0.12677128572E+03  0.19139864791E+03  0.41800000000E+01 0.  1.
        -11    1    3    3    0    0 -0.49271108291E+02  0.59156520641E+02 -0.53382495130E+02  0.93684720381E+02  0.00000000000E+00 0.  1.
         11    1    3    3    0    0 -0.18327295346E+03  0.15112913966E+03  0.45609300374E+01  0.23759165475E+03  0.00000000000E+00 0. -1.
</event>
<event>
 7    1  0.5137842E-006  0.3641930E+03  0.7561462E-02  0.1056936E+00
          1   -1    0    0  501    0  0.00000000000E+00  0.00000000000E+00  0.13770211524E+04  0.13770211524E+04  0.00000000000E+00 0. -1.
         -1   -1    0    0    0  501 -0.00000000000E+00 -0.00000000000E+00 -0.10217409770E+03  0.10217409770E+03  0.00000000000E+00 0.  1.
         23    2    1    2    0    0 -0.66357706834E+02  0.34806814955E+03  0.74143996889E+03  0.82672224877E+03  0.90452568555E+02 0.  0.
          5    1    1    2  502    0  0.87497009435E+02 -0.16255478588E+03  0.31471022242E+03  0.36488324375E+03  0.41800000000E+01 0. -1.
         -5    1    1    2    0  502 -0.21139302601E+02 -0.18551336367E+03  0.21869686341E+03  0.28758975761E+03  0.41800000000E+01 0. -1.
        -11    1    3    3    0    0 -0.53937736118E+02  0.16737038319E+03  0.27573213842E+03  0.32703262330E+03  0.00000000000E+00 0. -1.
         11    1    3    3    0    0 -0.12419970716E+02  0.18069776636E+03  0.46570783046E+03  0.49968962546E+03  0.00000000000E+00 0.  1.
</event>
<event>
 7    1  0.5137842E-006  0.1028580E+03  0.7561462E-02  0.1274398E+00
          1   -1    0    0  501    0  0.00000000000E+00  0.00000000000E+00  0.36864528664E+02  0.36864528664E+02  0.00000000000E+00 0. -1.
         -1   -1    0    0    0  501 -0.00000000000E+00 -0.00000000000E+00 -0.41603411339E+03  0.41603411339E+03  0.00000000000E+00 0.  1.
         23    2    1    2    0    0 -0.27454830716E+01 -0.48558314383E+02 -0.10295691023E+03  0.14580514880E+03  0.91069031386E+02 0.  0.
          5    1    1    2  502    0  0.50380011015E+02  0.17662993117E+02 -0.22239775552E+03  0.22875393088E+03  0.41800000000E+01 0.  1.
         -5    1    1    2    0  502 -0.47634527943E+02  0.30895321267E+02 -0.53814918972E+02  0.78339562371E+02  0.41800000000E+01 0.  1.
        -11    1    3    3    0    0  0.38460323370E+02 -0.12386038729E+02 -0.16970629639E+02  0.43824795487E+02  0.00000000000E+00 0. -1.
         11    1    3    3    0    0 -0.41205806442E+02 -0.36172275654E+02 -0.85986280596E+02  0.10198035331E+03  0.00000000000E+00 0.  1.
</event>
<event>
 7    1  0.5137842E-006  0.1157393E+03  0.7561462E-02  0.1250296E+00
         -2   -1    0    0    0  501 -0.00000000000E+00  0.00000000000E+00  0.22720239690E+02  0.22720239690E+02  0.00000000000E+00 0.  1.
          2   -1    0    0  501    0  0.00000000000E+00 -0.00000000000E+00 -0.66423794041E+03  0.66423794041E+03  0.00000000000E+00 0. -1.
         23    2    1    2    0    0  0.54106313560E+02  0.12111282532E+02 -0.33140904498E+03  0.34800528925E+03  0.90562408977E+02 0.  0.
          5    1    1    2  502    0 -0.38507857506E+02 -0.64534249827E+02 -0.22887581141E+03  0.24093387877E+03  0.41800000000E+01 0.  1.
         -5    1    1    2    0  502 -0.15598456054E+02  0.52422967295E+02 -0.81232844328E+02  0.98019012079E+02  0.41800000000E+01 0.  1.
        -11    1    3    3    0    0  0.69298432582E+02  0.32001101836E+02 -0.28753969285E+03  0.29749860208E+03  0.00000000000E+00 0. -1.
         11    1    3    3    0    0 -0.15192119022E+02 -0.19889819304E+02 -0.43869352134E+02  0.50506687171E+02  0.00000000000E+00 0.  1.
</event>
<event>
 7    1  0.5137842E-006  0.1114270E+03  0.7561462E-02  0.1257950E+00
         -1   -1    0    0    0  501 -0.00000000000E+00  0.00000000000E+00  0.99177424614E+02  0.99177424614E+02  0.00000000000E+00 0.  1.
          1   -1    0    0  501    0  0.00000000000E+00 -0.00000000000E+00 -0.16207758472E+03  0.16207758472E+03  0.00000000000E+00 0. -1.
         23    2    1    2    0    0  0.51548389755E+02 -0.50254397642E+01 -0.70230939404E+02  0.12567861316E+03  0.90444664992E+02 0.  0.
          5    1    1    2  502    0 -0.91233401960E+02  0.27922947071E+01 -0.10188923788E+02  0.91938115658E+02  0.41800000000E+01 0. -1.
         -5    1    1    2    0  502  0.39685012204E+02  0.22331450570E+01  0.17519703081E+02  0.43638280518E+02  0.41800000000E+01 0. -1.
        -11    1    3    3    0    0  0.64339592282E+02  0.16549038597E+02 -0.19745425065E+02  0.69306100918E+02  0.00000000000E+00 0.  1.
         11    1    3    3    0    0 -0.12791202526E+02 -0.21574478361E+02 -0.50485514339E+02  0.56372512244E+02  0.00000000000E+00 0. -1.
</event>
<event>
 7    1  0.5137842E-006  0.1168644E+03  0.7561462E-02  0.1248361E+00
         -3   -1    0    0    0  501 -0.00000000000E+00  0.00000000000E+00  0.10250433030E+03  0.10250433030E+03  0.00000000000E+00 0.  1.
          3   -1    0    0  501    0  0.00000000000E+00 -0.00000000000E+00 -0.33579303622E+03  0.33579303622E+03  0.00000000000E+00 0. -1.
         23    2    1    2    0    0  0.51092248501E+02 -0.37037780576E+02 -0.27002465531E+03  0.29344155152E+03  0.95981324420E+02 0.  0.
          5    1    1    2  502    0  0.71353783689E+01  0.63455569550E+02  0.47744022580E+02  0.79840384666E+02  0.41800000000E+01 0. -1.
         -5    1    1    2    0  502 -0.58227626870E+02 -0.26417788975E+02 -0.11008073188E+02  0.65015430327E+02  0.41800000000E+01 0. -1.
        -11    1    3    3    0    0 -0.16755720158E+02 -0.33811111676E+02 -0.15790782479E+03  0.16235401615E+03  0.00000000000E+00 0. -1.
         11    1    3    3    0    0  0.67847968660E+02 -0.32266689001E+01 -0.11211683052E+03  0.13108753537E+03  0.00000000000E+00 0.  1.
</event>
<event>
 7    1  0.5137842E-006  0.7066034E+02  0.7561462E-02  0.1357862E+00
          1   -1    0    0  501    0  0.00000000000E+00  0.00000000000E+00  0.17972800745E+03  0.17972800745E+03  0.00000000000E+00 0. -1.
         -1   -1    0    0    0  501 -0.00000000000E+00 -0.00000000000E+00 -0.93417065237E+02  0.93417065237E+02  0.00000000000E+00 0.  1.
         23    2    1    2    0    0 -0.47105408133E+02 -0.46176427604E+02  0.69916847339E+02  0.13077844526E+03  0.88676120011E+02 0.  0.
          5    1    1    2  502    0  0.26726530970E+02  0.33019612008E+02  0.70788312963E+02  0.82662324471E+02  0.41800000000E+01 0.  1.
         -5    1    1    2    0  502  0.20378877162E+02  0.13156815596E+02 -0.54394218086E+02  0.59704302962E+02  0.41800000000E+01 0.  1.
        -11    1    3    3    0    0  0.40357559427E+01 -0.11614450616E+02 -0.18943273165E+02  0.22583852359E+02  0.00000000000E+00 0.  1.
         11    1    3    3    0    0 -0.51141164075E+02 -0.34561976988E+02  0.88860120504E+02  0.10819459290E+03  0.00000000000E+00 0. -1.
</event>
<event>
 7    1  0.5137842E-006  0.1062092E+03  0.7561462E-02  0.1267755E+00
         -2   -1    0    0    0  501 -0.00000000000E+00  0.00000000000E+00  0.54052892405E+02  0.54052892405E+02  0.00000000000E+00 0.  1.
          2   -1    0    0  501    0  0.00000000000E+00 -0.00000000000E+00 -0.33944064222E+03  0.33944064222E+03  0.00000000000E+00 0. -1.
         23    2    1    2    0    0 -0.28859914237E+02 -0.11535360903E+02 -0.21815636430E+03  0.24811922418E+03  0.11403942705E+03 0.  0.
          5    1    1    2  502    0 -0.48690541602E+00  0.66341999944E+02 -0.37688617221E+02  0.76415981977E+02  0.41800000000E+01 0.  1.
         -5    1    1    2    0  502  0.29346819653E+02 -0.54806639041E+02 -0.29542768296E+02  0.68958328470E+02  0.41800000000E+01 0.  1.
        -11    1    3    3    0    0  0.90860842720E+01  0.27639085868E+02 -0.68525484880E+01  0.29890356569E+02  0.00000000000E+00 0.  1.
         11    1    3    3    0    0 -0.37945998509E+02 -0.39174446771E+02 -0.21130381581E+03  0.21822886761E+03  0.00000000000E+00 0. -1.
</event>
<event>
 7    1  0.5137842E-006  0.7518683E+02  0.7561462E-02  0.1343293E+00
         -3   -1    0    0    0  501 -0.00000000000E+00  0.00000000000E+00  0.22822951983E+02  0.22822951983E+02  0.00000000000E+00 0.  1.
          3   -1    0    0  501    0  0.00000000000E+00 -0.00000000000E+00 -0.48898042334E+03  0.48898042334E+03  0.00000000000E+00 0. -1.
         23    2    1    2    0    0 -0.91080961017E+01 -0.16415229623E+02 -0.21791956517E+03  0.23733930516E+03  0.92133553669E+02 0.  0.
          5    1    1    2  502    0 -0.36696384878E+01  0.45788341942E+02 -0.23511502050E+03  0.23959671068E+03  0.41800000000E+01 0. -1.
         -5    1    1    2    0  502  0.12777734589E+02 -0.29373112319E+02 -0.13122885687E+02  0.34867359483E+02  0.41800000000E+01 0.  1.
        -11    1    3    3    0    0  0.30413662077E+02 -0.91581713880E+01 -0.17759183485E+03  0.18040987432E+03  0.00000000000E+00 0.  1.
         11    1    3    3    0    0 -0.39521758179E+02 -0.72570582349E+01 -0.40327730318E+02  0.56929430845E+02  0.00000000000E+00 0. -1.
</event>
<event>
 7    1  0.5137842E-006  0.1083862E+03  0.7561462E-02  0.1263588E+00
          1   -1    0    0  501    0  0.00000000000E+00  0.00000000000E+00  0.44734933813E+03  0.44734933813E+03  0.00000000000E+00 0. -1.
         -1   -1    0    0    0  501 -0.00000000000E+00 -0.00000000000E+00 -0.11752270623E+03  0.11752270623E+03  0.00000000000E+00 0.  1.
         23    2    1    2    0    0 -0.47244084122E+02  0.71302308890E+02  0.38827726397E+03  0.40776064136E+03  0.90517866704E+02 0.  0.
          5    1    1    2  502    0  0.12350365396E+01 -0.32718765526E+02  0.33617715922E+02  0.47113333109E+02  0.41800000000E+01 0. -1.
         -5    1    1    2    0  502  0.46009047583E+02 -0.38583543364E+02 -0.92068347988E+02  0.10999806989E+03  0.41800000000E+01 0.  1.
        -11    1    3    3    0    0  0.26635094545E+02  0.23966465037E+02  0.13685173037E+03  0.14146453906E+03  0.00000000000E+00 0.  1.
         11    1    3    3    0    0 -0.73879178667E+02  0.47335843852E+02  0.25142553360E+03  0.26629610230E+03  0.00000000000E+00 0. -1.
</event>
<event>
 7    1  0.5137842E-006  0.8410639E+02  0.7561462E-02  0.1317786E+00
         -2   -1    0    0    0  501 -0.00000000000E+00  0.00000000000E+00  0.17295864681E+02  0.17295864681E+02  0.00000000000E+00 0.  1.
          2   -1    0    0  501    0  0.00000000000E+00 -0.00000000000E+00 -0.77622369703E+03  0.77622369703E+03  0.00000000000E+00 0. -1.
         23    2    1    2    0    0 -0.55209632929E+01 -0.44761124115E+02 -0.30037165101E+03  0.31607291961E+03  0.87435247540E+02 0.  0.
          5    1    1    2  502    0  0.40802505987E+02  0.37213227021E+02 -0.42302982719E+03  0.42663963231E+03  0.41800000000E+01 0.  1.
         -5    1    1    2    0  502 -0.35281542694E+02  0.75478970946E+01 -0.35526354146E+02  0.50807009796E+02  0.41800000000E+01 0.  1.
        -11    1    3    3    0    0  0.23480780593E+01  0.15530405882E+02 -0.83500626180E+01  0.17788494122E+02  0.00000000000E+00 0.  1.
         11    1    3    3    0    0 -0.78690413522E+01 -0.60291529997E+02 -0.29202158839E+03  0.29828442549E+03  0.00000000000E+00 0. -1.
</event>
<event>
 7    1  0.5137842E-006  0.1257586E+03  0.7561462E-02  0.1233888E+00
         -1   -1    0    0    0  501 -0.00000000000E+00  0.00000000000E+00  0.62803311051E+03  0.62803311051E+03  0.00000000000E+00 0.  1.
          1   -1    0    0  501    0  0.00000000000E+00 -0.00000000000E+00 -0.52354972526E+02  0.52354972526E+02  0.00000000000E+00 0. -1.
         23    2    1    2    0    0  0.85058228604E+02 -0.33537786803E+01  0.53365749862E+02  0.13660180644E+03  0.92552688668E+02 0.  0.
          5    1    1    2  502    0 -0.14558095158E+01  0.45927051627E+02  0.28247091926E+03  0.28621444073E+03  0.41800000000E+01 0. -1.
         -5    1    1    2    0  502 -0.83602419089E+02 -0.42573272946E+02  0.23984146886E+03  0.25757183586E+03  0.41800000000E+01 0. -1.
        -11    1    3    3    0    0  0.95073473118E+02 -0.14842301747E+02  0.17731664823E+02  0.97845138608E+02  0.00000000000E+00 0. -1.
         11    1    3    3    0    0 -0.10015244514E+02  0.11488523066E+02  0.35634085039E+02  0.38756667832E+02  0.00000000000E+00 0.  1.
</event>
<event>
 7    1  0.5137842E-006  0.1002005E+03  0.7561462E-02  0.1279875E+00
         -1   -1    0    0    0  501 -0.00000000000E+00  0.00000000000E+00  0.51166175855E+02  0.51166175855E+02  0.00000000000E+00 0.  1.
          1   -1    0    0  501    0  0.00000000000E+00 -0.00000000000E+00 -0.27892234018E+03  0.27892234018E+03  0.00000000000E+00 0. -1.
         23    2    1    2    0    0  0.41623921928E+02 -0.18803453808E+02 -0.11176112976E+03  0.15348883808E+03  0.94774218743E+02 0.  0.
          5    1    1    2  502    0 -0.58525877385E+02  0.62018261459E+02 -0.63434351168E+02  0.10636226956E+03  0.41800000000E+01 0.  1.
         -5    1    1    2    0  502  0.16901955457E+02 -0.43214807651E+02 -0.52560683397E+02  0.70237408393E+02  0.41800000000E+01 0.  1.
        -11    1    3    3    0    0 -0.11058359923E+02 -0.10220309611E+02  0.11643904697E+02  0.19034772636E+02  0.00000000000E+00 0.  1.
         11    1    3    3    0    0  0.52682281851E+02 -0.85831441976E+01 -0.12340503445E+03  0.13445406544E+03  0.00000000000E+00 0. -1.
</event>
<event>
 7    1  0.5137842E-006  0.1095241E+03  0.7561462E-02  0.1261454E+00
          4   -1    0    0  501    0  0.00000000000E+00  0.00000000000E+00  0.90069307146E+03  0.90069307146E+03  0.00000000000E+00 0.  1.
         -4   -1    0    0    0  501 -0.00000000000E+00 -0.00000000000E+00 -0.15084799166E+02  0.15084799166E+02  0.00000000000E+00 0. -1.
         23    2    1    2    0    0 -0.36801708105E+02 -0.22267199250E+02  0.30788362027E+03  0.32310395955E+03  0.88054819111E+02 0.  0.
          5    1    1    2  502    0  0.48107211184E+02  0.65697391931E+02  0.44757100925E+03  0.45493706355E+03  0.41800000000E+01 0.  1.
         -5    1    1    2    0  502 -0.11305503079E+02 -0.43430192682E+02  0.13015364278E+03  0.13773684752E+03  0.41800000000E+01 0.  1.
        -11    1    3    3    0    0  0.42776824911E+01 -0.45194928584E+02  0.20512369554E+03  0.21008715004E+03  0.00000000000E+00 0.  1.
         11    1    3    3    0    0 -0.41079390596E+02  0.22927729334E+02  0.10275992473E+03  0.11301680952E+03  0.00000000000E+00 0. -1.
</event>
<event>
 7    1  0.5137842E-006  0.8670353E+02  0.7561462E-02  0.1311037E+00
          1   -1    0    0  501    0  0.00000000000E+00  0.00000000000E+00  0.57134208491E+03  0.57134208491E+03  0.00000000000E+00 0. -1.
         -1   -1    0    0    0  501 -0.00000000000E+00 -0.00000000000E+00 -0.30019577652E+02  0.30019577652E+02  0.00000000000E+00 0.  1.
         23    2    1    2    0    0  0.35364254008E+02 -0.54018854091E+02  0.33194429357E+03  0.35031308058E+03  0.91452574243E+02 0.  0.
          5    1    1    2  502    0 -0.87619504234E+01  0.24141186297E+02  0.20921414148E+03  0.21082598997E+03  0.41800000000E+01 0. -1.
         -5    1    1    2    0  502 -0.26602303584E+02  0.29877667794E+02  0.16407221564E+00  0.40222592016E+02  0.41800000000E+01 0.  1.
        -11    1    3    3    0    0  0.56203942942E+02 -0.63039725145E+02  0.29585659779E+03  0.30767518035E+03  0.00000000000E+00 0. -1.
         11    1    3    3    0    0 -0.20839688935E+02  0.90208710540E+01  0.36087695777E+02  0.42637900229E+02  0.00000000000E+00 0.  1.
</event>
<event>
 7    1  0.5137842E-006  0.9962035E+02  0.7561462E-02  0.1281096E+00
         -2   -1    0    0    0  501 -0.00000000000E+00  0.00000000000E+00  0.18736384684E+03  0.18736384684E+03  0.00000000000E+00 0.  1.
          2   -1    0    0  501    0  0.00000000000E+00 -0.00000000000E+00 -0.11825049503E+03  0.11825049503E+03  0.00000000000E+00 0. -1.
         23    2    1    2    0    0  0.61358978620E+02 -0.17188844535E+01 -0.58310659584E+02  0.11679570391E+03  0.80456352195E+02 0.  0.
          5    1    1    2  502    0 -0.83880811858E+02 -0.22494351367E+02  0.12886844739E+03  0.15545589592E+03  0.41800000000E+01 0. -1.
         -5    1    1    2    0  502  0.22521833239E+02  0.24213235821E+02 -0.14444359950E+01  0.33362742044E+02  0.41800000000E+01 0. -1.
        -11    1    3    3    0    0  0.19960477941E+02  0.23231041350E+02 -0.61134291594E+02  0.68377654029E+02  0.00000000000E+00 0. -1.
         11    1    3    3    0    0  0.41398500679E+02 -0.24949925803E+02  0.28236320100E+01  0.48418049876E+02  0.00000000000E+00 0.  1.
</event>
<event>
 7    1  0.5137842E-006  0.1086989E+03  0.7561462E-02  0.1262998E+00
          1   -1    0    0  501    0  0.00000000000E+00  0.00000000000E+00  0.67689198505E+03  0.67689198505E+03  0.00000000000E+00 0. -1.
         -1   -1    0    0    0  501 -0.00000000000E+00 -0.00000000000E+00 -0.26729828289E+02  0.26729828289E+02  0.00000000000E+00 0.  1.
         23    2    1    2    0    0 -0.60556762803E+02 -0.24287506806E+02  0.40644970183E+03  0.42201864363E+03  0.92958974542E+02 0.  0.
          5    1    1    2  502    0  0.51991411223E+02 -0.22079291135E+02  0.22274077688E+03  0.22982934544E+03  0.41800000000E+01 0.  1.
         -5    1    1    2    0  502  0.85653515799E+01  0.46366797942E+02  0.20971678044E+02  0.51773824265E+02  0.41800000000E+01 0.  1.
        -11    1    3    3    0    0 -0.48645113038E+02  0.30459074131E+02  0.21648243118E+03  0.22396148158E+03  0.00000000000E+00 0.  1.
         11    1    3    3    0    0 -0.11911649765E+02 -0.54746580937E+02  0.18996727065E+03  0.19805716206E+03  0.00000000000E+00 0. -1.
</event>
<event>
 7    1  0.5137842E-006  0.2304629E+03  0.7561462E-02  0.1126314E+00
         -2   -1    0    0    0  501 -0.00000000000E+00  0.00000000000E+00  0.45749246031E+02  0.45749246031E+02  0.00000000000E+00 0.  1.
          2   -1    0    0  501    0  0.00000000000E+00 -0.00000000000E+00 -0.13943416135E+04  0.13943416135E+04  0.00000000000E+00 0. -1.
         23    2    1    2    0    0 -0.20860903270E+03 -0.87754448820E+02 -0.67767223719E+03  0.72106439664E+03  0.97342854033E+02 0.  0.
          5    1    1    2  502    0  0.97144498002E+02  0.21222887799E+02 -0.46528845476E+03  0.47581328585E+03  0.41800000000E+01 0.  1.
         -5    1    1    2    0  502  0.11146453470E+03  0.66531561020E+02 -0.20563167548E+03  0.24321317701E+03  0.41800000000E+01 0.  1.
        -11    1    3    3    0    0 -0.74727013285E+02 -0.67204113584E+01 -0.11724081578E+03  0.13919302902E+03  0.00000000000E+00 0.  1.
         11    1    3    3    0    0 -0.13388201942E+03 -0.81034037461E+02 -0.56043142141E+03  0.58187136762E+03  0.00000000000E+00 0. -1.
</event>
<event>
 7    1  0.5137842E-006  0.7276827E+02  0.7561462E-02  0.1350925E+00
         -2   -1    0    0    0  501 -0.00000000000E+00  0.00000000000E+00  0.64512017325E+02  0.64512017325E+02  0.00000000000E+00 0.  1.
          2   -1    0    0  501    0  0.00000000000E+00 -0.00000000000E+00 -0.18672784032E+03  0.18672784032E+03  0.00000000000E+00 0. -1.
         23    2    1    2    0    0 -0.28247186541E+02 -0.32969060497E+02 -0.47006762725E+02  0.98960440173E+02  0.75489538877E+02 0.  0.
          5    1    1    2  502    0 -0.21902689710E+02 -0.11246367943E+02 -0.81266685794E+02  0.85017381919E+02  0.41800000000E+01 0. -1.
         -5    1    1    2    0  502  0.50149876250E+02  0.44215428440E+02  0.60576255214E+01  0.67262035555E+02  0.41800000000E+01 0. -1.
        -11    1    3    3    0    0 -0.19910471498E+02 -0.35722909337E+00  0.17298628505E+02  0.26377964972E+02  0.00000000000E+00 0.  1.
         11    1    3    3    0    0 -0.83367150424E+01 -0.32611831404E+02 -0.64305391230E+02  0.72582475202E+02  0.00000000000E+00 0. -1.
</event>
<event>
 7    1  0.5137842E-006  0.1709309E+03  0.7561462E-02  0.1176881E+00
         -2   -1    0    0    0  501 -0.00000000000E+00  0.00000000000E+00  0.94503418549E+02  0.94503418549E+02  0.00000000000E+00 0.  1.
          2   -1    0    0  501    0  0.00000000000E+00 -0.00000000000E+00 -0.31792095940E+03  0.31792095940E+03  0.00000000000E+00 0. -1.
         23    2    1    2    0    0  0.64593926160E+02 -0.11541462369E+03 -0.13465992009E+03  0.20989337369E+03  0.91809713985E+02 0.  0.
          5    1    1    2  502    0 -0.83137228910E+02  0.13182891651E+03 -0.68636107245E+02  0.17034978626E+03  0.41800000000E+01 0. -1.
         -5    1    1    2    0  502  0.18543302750E+02 -0.16414292824E+02 -0.20121513510E+02  0.32181217997E+02  0.41800000000E+01 0. -1.
        -11    1    3    3    0    0  0.83509748768E+02 -0.61534643081E+02 -0.82240145811E+02  0.13237761148E+03  0.00000000000E+00 0. -1.
         11    1    3    3    0    0 -0.18915822608E+02 -0.53879980610E+02 -0.52419774281E+02  0.77515762210E+02  0.00000000000E+00 0.  1.
</event>
<event>
 7    1  0.5137842E-006  0.1602773E+03  0.7561462E-02  0.1188384E+00
          1   -1    0    0  501    0  0.00000000000E+00  0.00000000000E+00  0.78434385035E+03  0.78434385035E+03  0.00000000000E+00 0. -1.
         -1   -1    0    0    0  501 -0.00000000000E+00 -0.00000000000E+00 -0.38183359283E+02  0.38183359283E+02  0.00000000000E+00 0.  1.
         23    2    1    2    0    0  0.13719718842E+02 -0.13302949872E+03  0.31815075911E+03  0.35699036090E+03  0.91307907883E+02 0.  0.
          5    1    1    2  502    0 -0.61329926201E+02  0.35978133107E+02  0.21735110958E+03  0.22872420761E+03  0.41800000000E+01 0.  1.
         -5    1    1    2    0  502  0.47610207359E+02  0.97051365616E+02  0.21065862238E+03  0.23681264113E+03  0.41800000000E+01 0.  1.
        -11    1    3    3    0    0 -0.32411365179E+01 -0.11924915507E+03  0.31238694425E+03  0.33438969614E+03  0.00000000000E+00 0. -1.
         11    1    3    3    0    0  0.16960855360E+02 -0.13780343657E+02  0.57638148570E+01  0.22600664759E+02  0.00000000000E+00 0.  1.
</event>
<event>
 7    1  0.5137842E-006  0.1850974E+03  0.7561462E-02  0.1162959E+00
         -2   -1    0    0    0  501 -0.00000000000E+00  0.00000000000E+00  0.11547134799E+03  0.11547134799E+03  0.00000000000E+00 0.  1.
          2   -1    0    0  501    0  0.00000000000E+00 -0.00000000000E+00 -0.40622426616E+03  0.40622426616E+03  0.00000000000E+00 0. -1.
         23    2    1    2    0    0 -0.12698214532E+03  0.12413655883E+03 -0.21121354878E+03  0.29037573694E+03  0.90402184427E+02 0.  0.
          5    1    1    2  502    0  0.67703825604E+02 -0.70011265196E+02 -0.10852027375E+03  0.14587497205E+03  0.41800000000E+01 0. -1.
         -5    1    1    2    0  502  0.59278319711E+02 -0.54125293639E+02  0.28980904361E+02  0.85444905155E+02  0.41800000000E+01 0. -1.
        -11    1    3    3    0    0 -0.10221527880E+03  0.13144405753E+03 -0.15068638150E+03  0.22457045453E+03  0.00000000000E+00 0. -1.
         11    1    3    3    0    0 -0.24766866519E+02 -0.73074986944E+01 -0.60527167281E+02  0.65805282412E+02  0.00000000000E+00 0.  1.
</event>
<event>
 7    1  0.5137842E-006  0.1294783E+03  0.7561462E-02  0.1228232E+00
         -2   -1    0    0    0  501 -0.00000000000E+00  0.00000000000E+00  0.96285827370E+02  0.96285827370E+02  0.00000000000E+00 0. -1.
          2   -1    0    0  501    0  0.00000000000E+00 -0.00000000000E+00 -0.25040635303E+03  0.25040635303E+03  0.00000000000E+00 0.  1.
         23    2    1    2    0    0  0.57818639073E+02 -0.69141111487E+02 -0.14460613142E+03  0.19222276572E+03  0.88967241707E+02 0.  0.
          5    1    1    2  502    0  0.13216432978E+02 -0.25957507014E+02 -0.19461076689E+02  0.35279911805E+02  0.41800000000E+01 0. -1.
         -5    1    1    2    0  502 -0.71035072051E+02  0.95098618502E+02  0.99466824504E+01  0.11918950287E+03  0.41800000000E+01 0. -1.
        -11    1    3    3    0    0  0.26908438569E+02  0.76522011414E+01 -0.86956905168E+02  0.91346174550E+02  0.00000000000E+00 0.  1.
         11    1    3    3    0    0  0.30910200504E+02 -0.76793312629E+02 -0.57649226251E+02  0.10087659117E+03  0.00000000000E+00 0. -1.
</event>
<event>
 7    1  0.5137842E-006  0.1625216E+03  0.7561462E-02  0.1185879E+00
          1   -1    0    0  501    0  0.00000000000E+00  0.00000000000E+00  0.41763851837E+03  0.41763851837E+03  0.00000000000E+00 0. -1.
         -1   -1    0    0    0  501 -0.00000000000E+00 -0.00000000000E+00 -0.13462252001E+03  0.13462252001E+03  0.00000000000E+00 0.  1.
         23    2    1    2    0    0  0.11005139393E+03  0.88240502117E+02  0.31908082818E+03  0.36022135532E+03  0.89717079730E+02 0.  0.
          5    1    1    2  502    0 -0.74940354881E+02  0.54688099844E+00  0.24428451164E+02  0.78934007213E+02  0.41800000000E+01 0.  1.
         -5    1    1    2    0  502 -0.35111039054E+02 -0.88787383116E+02 -0.60493280981E+02  0.11310567584E+03  0.41800000000E+01 0.  1.
        -11    1    3    3    0    0  0.18190515339E+02 -0.92983627793E+01  0.87935836349E+01  0.22241436820E+02  0.00000000000E+00 0.  1.
         11    1    3    3    0    0  0.91860878596E+02  0.97538864896E+02  0.31028724454E+03  0.33797991850E+03  0.00000000000E+00 0. -1.
</event>
<event>
 7    1  0.5137842E-006  0.1121710E+03  0.7561462E-02  0.1256601E+00
         -4   -1    0    0    0  501 -0.00000000000E+00  0.00000000000E+00  0.15518056679E+03  0.15518056679E+03  0.00000000000E+00 0.  1.
          4   -1    0    0  501    0  0.00000000000E+00 -0.00000000000E+00 -0.96392914626E+02  0.96392914626E+02  0.00000000000E+00 0. -1.
         23    2    1    2    0    0 -0.43980124867E+02 -0.53578725585E+01 -0.63654383550E+01  0.10373881679E+03  0.93585603174E+02 0.  0.
          5    1    1    2  502    0  0.71823389722E+02  0.43772918842E+02  0.49577436421E+02  0.97724420373E+02  0.41800000000E+01 0.  1.
         -5    1    1    2    0  502 -0.27843264855E+02 -0.38415046284E+02  0.15575654098E+02  0.50110244256E+02  0.41800000000E+01 0.  1.
        -11    1    3    3    0    0 -0.99742907349E+01  0.36919189084E+02  0.20285987772E+02  0.43290117789E+02  0.00000000000E+00 0.  1.
         11    1    3    3    0    0 -0.34005834132E+02 -0.42277061642E+02 -0.26651426127E+02  0.60448698999E+02  0.00000000000E+00 0. -1.
</event>
<event>
 7    1  0.5137842E-006  0.1379161E+03  0.7561462E-02  0.1216161E+00
         -2   -1    0    0    0  501 -0.00000000000E+00  0.00000000000E+00  0.13258551012E+03  0.13258551012E+03  0.00000000000E+00 0.  1.
          2   -1    0    0  501    0  0.00000000000E+00 -0.00000000000E+00 -0.21397549448E+03  0.21397549448E+03  0.00000000000E+00 0. -1.
         23    2    1    2    0    0  0.18418108800E+01 -0.12432572655E+03 -0.72746036338E+02  0.16996204456E+03  0.90193304848E+02 0.  0.
          5    1    1    2  502    0  0.26068347963E+02  0.19891436212E+02 -0.50705907625E+02  0.60529244734E+02  0.41800000000E+01 0.  1.
         -5    1    1    2    0  502 -0.27910158843E+02  0.10443429034E+03  0.42061959596E+02  0.11606971530E+03  0.41800000000E+01 0.  1.
        -11    1    3    3    0    0 -0.22677434759E+02 -0.33033532692E+02  0.13217273092E+02  0.42192139521E+02  0.00000000000E+00 0.  1.
         11    1    3    3    0    0  0.24519245639E+02 -0.91292193857E+02 -0.85963309430E+02  0.12776990504E+03  0.00000000000E+00 0. -1.
</event>
<event>
 7    1  0.5137842E-006  0.7027073E+02  0.7561462E-02  0.1359175E+00
         -3   -1    0    0    0  501 -0.00000000000E+00  0.00000000000E+00  0.20393669425E+03  0.20393669425E+03  0.00000000000E+00 0.  1.
          3   -1    0    0  501    0  0.00000000000E+00 -0.00000000000E+00 -0.10822285868E+03  0.10822285868E+03  0.00000000000E+00 0. -1.
         23    2    1    2    0    0 -0.30453496674E+02  0.65797273970E+01 -0.61914984014E+02  0.11512302504E+03  0.91919189381E+02 0.  0.
          5    1    1    2  502    0  0.24632184468E+02 -0.20963466327E+02 -0.55373404097E+01  0.33080900394E+02  0.41800000000E+01 0. -1.
         -5    1    1    2    0  502  0.58213122062E+01  0.14383738930E+02  0.16316615999E+03  0.16395562749E+03  0.41800000000E+01 0.  1.
        -11    1    3    3    0    0 -0.61031476776E+02  0.36924441291E+01 -0.57792662607E+02  0.84133626763E+02  0.00000000000E+00 0. -1.
         11    1    3    3    0    0  0.30577980102E+02  0.28872832680E+01 -0.41223214071E+01  0.30989398277E+02  0.00000000000E+00 0.  1.
</event>
<event>
 7    1  0.5137842E-006  0.1019258E+03  0.7561462E-02  0.1276298E+00
         -3   -1    0    0    0  501 -0.00000000000E+00  0.00000000000E+00  0.27234765864E+03  0.27234765864E+03  0.00000000000E+00 0. -1.
          3   -1    0    0  501    0  0.00000000000E+00 -0.00000000000E+00 -0.64378263734E+02  0.64378263734E+02  0.00000000000E+00 0.  1.
         23    2    1    2    0    0  0.78000043976E+01 -0.21365693962E+02  0.17052109863E+01  0.94421537049E+02  0.91625247433E+02 0.  0.
          5    1    1    2  502    0  0.48240484911E+02 -0.25516751740E+01  0.33161745187E+02  0.58743758600E+02  0.41800000000E+01 0. -1.
         -5    1    1    2    0  502 -0.56040489308E+02  0.23917369136E+02  0.17310243873E+03  0.18356062672E+03  0.41800000000E+01 0. -1.
        -11    1    3    3    0    0 -0.23724183261E+02 -0.47660060943E+02 -0.13677358361E+01  0.53255882133E+02  0.00000000000E+00 0. -1.
         11    1    3    3    0    0  0.31524187659E+02  0.26294366981E+02  0.30729468224E+01  0.41165654916E+02  0.00000000000E+00 0.  1.
</event>
<event>
 7    1  0.5137842E-006  0.9717288E+02  0.7561462E-02  0.1286356E+00
         -4   -1    0    0    0  501 -0.00000000000E+00  0.00000000000E+00  0.59334097805E+03  0.59334097805E+03  0.00000000000E+00 0. -1.
          4   -1    0    0  501    0  0.00000000000E+00 -0.00000000000E+00 -0.21562440260E+02  0.21562440260E+02  0.00000000000E+00 0.  1.
         23    2    1    2    0    0 -0.11387602389E+02  0.24047604957E+02  0.24225524554E+03  0.26143525911E+03  0.94619373910E+02 0.  0.
          5    1    1    2  502    0 -0.97135289258E+01 -0.71751597957E+02  0.15242210337E+03  0.16879755463E+03  0.41800000000E+01 0.  1.
         -5    1    1    2    0  502  0.21101131314E+02  0.47703993001E+02  0.17710118887E+03  0.18467060457E+03  0.41800000000E+01 0.  1.
        -11    1    3    3    0    0 -0.32265662051E+02  0.33552635423E+02  0.23143796372E+03  0.23607283483E+03  0.00000000000E+00 0. -1.
         11    1    3    3    0    0  0.20878059663E+02 -0.95050304666E+01  0.10817281824E+02  0.25362424283E+02  0.00000000000E+00 0.  1.
</event>
<event>
 7    1  0.5137842E-006  0.1408429E+03  0.7561462E-02  0.1212199E+00
         -2   -1    0    0    0  501 -0.00000000000E+00  0.00000000000E+00  0.66625153936E+02  0.66625153936E+02  0.00000000000E+00 0.  1.
          2   -1    0    0  501    0  0.00000000000E+00 -0.00000000000E+00 -0.47011968038E+03  0.47011968038E+03  0.00000000000E+00 0. -1.
         23    2    1    2    0    0  0.83083649475E+02  0.27765836633E+02 -0.35077142155E+03  0.37518661765E+03  0.10025254807E+03 0.  0.
          5    1    1    2  502    0 -0.59422895171E+02  0.45895731169E+02 -0.27634850509E+02  0.80116514981E+02  0.41800000000E+01 0.  1.
         -5    1    1    2    0  502 -0.23660754304E+02 -0.73661567802E+02 -0.25088254386E+02  0.81441701685E+02  0.41800000000E+01 0.  1.
        -11    1    3    3    0    0  0.50608480472E+02 -0.32781834507E+02 -0.21090998662E+03  0.21936018195E+03  0.00000000000E+00 0.  1.
         11    1    3    3    0    0  0.32475169002E+02  0.60547671141E+02 -0.13986143492E+03  0.15582643569E+03  0.00000000000E+00 0. -1.
</event>
<event>
 7    1  0.5137842E-006  0.1670551E+03  0.7561462E-02  0.1180954E+00
          1   -1    0    0  501    0  0.00000000000E+00  0.00000000000E+00  0.30624358634E+03  0.30624358634E+03  0.00000000000E+00 0. -1.
         -1   -1    0    0    0  501 -0.00000000000E+00 -0.00000000000E+00 -0.11856655820E+03  0.11856655820E+03  0.00000000000E+00 0.  1.
         23    2    1    2    0    0  0.58264159690E+02 -0.14049383725E+03  0.12725631825E+03  0.21879730497E+03  0.92438409316E+02 0.  0.
          5    1    1    2  502    0 -0.44831350874E+02  0.63119042608E+02 -0.32682832887E+02  0.84139785633E+02  0.41800000000E+01 0.  1.
         -5    1    1    2    0  502 -0.13432808816E+02  0.77374794646E+02  0.93103542771E+02  0.12187305394E+03  0.41800000000E+01 0.  1.
        -11    1    3    3    0    0  0.83685771917E+02 -0.11059295782E+03  0.10130475253E+03  0.17174621866E+03  0.00000000000E+00 0. -1.
         11    1    3    3    0    0 -0.25421612227E+02 -0.29900879435E+02  0.25951565723E+02  0.47051086307E+02  0.00000000000E+00 0.  1.
</event>
<event>
 7    1  0.5137842E-006  0.1187586E+03  0.7561462E-02  0.1245159E+00
         -1   -1    0    0    0  501 -0.00000000000E+00  0.00000000000E+00  0.46943491514E+02  0.46943491514E+02  0.00000000000E+00 0.  1.
          1   -1    0    0  501    0  0.00000000000E+00 -0.00000000000E+00 -0.34232771040E+03  0.34232771040E+03  0.00000000000E+00 0. -1.
         23    2    1    2    0    0 -0.51449756122E+02 -0.38740868588E+02 -0.12842807814E+03  0.17093611224E+03  0.92614528619E+02 0.  0.
          5    1    1    2  502    0 -0.14439497572E+02 -0.36571559517E+02 -0.59515508384E+02  0.71453104858E+02  0.41800000000E+01 0. -1.
         -5    1    1    2    0  502  0.65889253693E+02  0.75312428105E+02 -0.10744063237E+03  0.14688198481E+03  0.41800000000E+01 0. -1.
        -11    1    3    3    0    0 -0.63290493183E+02 -0.66762030035E+01 -0.11984353867E+03  0.13569352223E+03  0.00000000000E+00 0. -1.
         11    1    3    3    0    0  0.11840737061E+02 -0.32064665585E+02 -0.85845394686E+01  0.35242590017E+02  0.00000000000E+00 0.  1.
</event>
<event>
 7    1  0.5137842E-006  0.1563105E+03  0.7561462E-02  0.1192926E+00
         -2   -1    0    0    0  501 -0.00000000000E+00  0.00000000000E+00  0.43460808169E+02  0.43460808169E+02  0.00000000000E+00 0.  1.
          2   -1    0    0  501    0  0.00000000000E+00 -0.00000000000E+00 -0.64034032730E+03  0.64034032730E+03  0.00000000000E+00 0. -1.
         23    2    1    2    0    0 -0.15416207943E+02 -0.12050661631E+03 -0.36057449319E+03  0.39012212836E+03  0.86149903366E+02 0.  0.
          5    1    1    2  502    0  0.45187817785E+00 -0.23392625335E+02 -0.11730371219E+02  0.26504586828E+02  0.41800000000E+01 0.  1.
         -5    1    1    2    0  502  0.14964329765E+02  0.14389924165E+03 -0.22457465472E+03  0.26717442029E+03  0.41800000000E+01 0.  1.
        -11    1    3    3    0    0 -0.39271758940E+02 -0.11217267379E+03 -0.32818092210E+03  0.34903824637E+03  0.00000000000E+00 0.  1.
         11    1    3    3    0    0  0.23855550997E+02 -0.83339425276E+01 -0.32393571090E+02  0.41083881990E+02  0.00000000000E+00 0. -1.
</event>
<event>
 7    1  0.5137842E-006  0.1256962E+03  0.7561462E-02  0.1233985E+00
         -2   -1    0    0    0  501 -0.00000000000E+00  0.00000000000E+00  0.33917792152E+02  0.33917792152E+02  0.00000000000E+00 0.  1.
          2   -1    0    0  501    0  0.00000000000E+00 -0.00000000000E+00 -0.55410118114E+03  0.55410118114E+03  0.00000000000E+00 0. -1.
         23    2    1    2    0    0 -0.25109679277E+01 -0.82873789058E+02 -0.20428415738E+03  0.23828449675E+03  0.90405279500E+02 0.  0.
          5    1    1    2  502    0  0.53180370142E+02  0.50044816789E+02 -0.24900957581E+03  0.25953010751E+03  0.41800000000E+01 0.  1.
         -5    1    1    2    0  502 -0.50669402214E+02  0.32828972269E+02 -0.66889655792E+02  0.90204369035E+02  0.41800000000E+01 0.  1.
        -11    1    3    3    0    0 -0.41164799466E+02 -0.25090617496E+02 -0.52151336275E+02  0.71020008988E+02  0.00000000000E+00 0.  1.
         11    1    3    3    0    0  0.38653831538E+02 -0.57783171562E+02 -0.15213282111E+03  0.16726448776E+03  0.00000000000E+00 0. -1.
</event>
<event>
 7    1  0.5137842E-006  0.1443211E+03  0.7561462E-02  0.1207630E+00
         -2   -1    0    0    0  501 -0.00000000000E+00  0.00000000000E+00  0.54808971481E+02  0.54808971481E+02  0.00000000000E+00 0.  1.
          2   -1    0    0  501    0  0.00000000000E+00 -0.00000000000E+00 -0.68432703277E+03  0.68432703277E+03  0.00000000000E+00 0. -1.
         23    2    1    2    0    0 -0.50884266178E+02 -0.12483929240E+03 -0.46564095236E+03  0.49280705117E+03  0.88674887616E+02 0.  0.
          5    1    1    2  502    0  0.19226983725E+02  0.30982229773E+02  0.16702988535E+02  0.40324157659E+02  0.41800000000E+01 0.  1.
         -5    1    1    2    0  502  0.31657282452E+02  0.93857062630E+02 -0.18058009747E+03  0.20600479543E+03  0.41800000000E+01 0.  1.
        -11    1    3    3    0    0 -0.69452537704E+02 -0.10119565520E+03 -0.29461011298E+03  0.31915409178E+03  0.00000000000E+00 0.  1.
         11    1    3    3    0    0  0.18568271526E+02 -0.23643637199E+02 -0.17103083937E+03  0.17365295939E+03  0.00000000000E+00 0. -1.
</event>
<event>
 7    1  0.5137842E-006  0.1196245E+03  0.7561462E-02  0.1243718E+00
          1   -1    0    0  501    0  0.00000000000E+00  0.00000000000E+00  0.55192123320E+02  0.55192123320E+02  0.00000000000E+00 0. -1.
         -1   -1    0    0    0  501 -0.00000000000E+00 -0.00000000000E+00 -0.27025112932E+03  0.27025112932E+03  0.00000000000E+00 0.  1.
         23    2    1    2    0    0 -0.56113279063E+02  0.12601149189E+02 -0.73228659652E+02  0.12777931129E+03  0.87507866790E+02 0.  0.
          5    1    1    2  502    0  0.63646190251E+02  0.45201221249E+02 -0.93122605639E+02  0.12158651248E+03  0.41800000000E+01 0. -1.
         -5    1    1    2    0  502 -0.75329111881E+01 -0.57802370439E+02 -0.48707740712E+02  0.76077428877E+02  0.41800000000E+01 0. -1.
        -11    1    3    3    0    0  0.43646381923E+01 -0.28936473167E+02 -0.10001597338E+02  0.30925741628E+02  0.00000000000E+00 0. -1.
         11    1    3    3    0    0 -0.60477917255E+02  0.41537622357E+02 -0.63227062314E+02  0.96853569658E+02  0.00000000000E+00 0.  1.
</event>
<event>
 7    1  0.5137842E-006  0.1020348E+03  0.7561462E-02  0.1276074E+00
         -2   -1    0    0    0  501 -0.00000000000E+00  0.00000000000E+00  0.84343441306E+02  0.84343441306E+02  0.00000000000E+00 0.  1.
          2   -1    0    0  501    0  0.00000000000E+00 -0.00000000000E+00 -0.17553899737E+03  0.17553899737E+03  0.00000000000E+00 0. -1.
         23    2    1    2    0    0  0.10832830971E+02  0.43863941645E+02 -0.73745242107E+02  0.12574716022E+03  0.91283032190E+02 0.  0.
          5    1    1    2  502    0  0.11614578454E+02  0.35263583575E+02 -0.33556770064E+02  0.50219000152E+02  0.41800000000E+01 0.  1.
         -5    1    1    2    0  502 -0.22447409425E+02 -0.79127525220E+02  0.16106456102E+02  0.83916278311E+02  0.41800000000E+01 0.  1.
        -11    1    3    3    0    0 -0.30458356997E+02  0.14844517122E+02  0.28683733539E+01  0.34004393323E+02  0.00000000000E+00 0.  1.
         11    1    3    3    0    0  0.41291187968E+02  0.29019424523E+02 -0.76613615461E+02  0.91742766895E+02  0.00000000000E+00 0. -1.
</event>
<event>
 7    1  0.5137842E-006  0.8121663E+02  0.7561462E-02  0.1325634E+00
         -1   -1    0    0    0  501 -0.00000000000E+00  0.00000000000E+00  0.64730330290E+02  0.64730330290E+02  0.00000000000E+00 0.  1.
          1   -1    0    0  501    0  0.00000000000E+00 -0.00000000000E+00 -0.20609500270E+03  0.20609500270E+03  0.00000000000E+00 0. -1.
         23    2    1    2    0    0  0.45035836755E+01 -0.24596724189E+02 -0.99402740639E+02  0.13653275314E+03  0.90194272139E+02 0.  0.
          5    1    1    2  502    0 -0.34085373490E+02  0.11409812156E+02 -0.77802103924E+02  0.85805805599E+02  0.41800000000E+01 0.  1.
         -5    1    1    2    0  502  0.29581789814E+02  0.13186912033E+02  0.35840172151E+02  0.48486774253E+02  0.41800000000E+01 0.  1.
        -11    1    3    3    0    0 -0.18445563146E+02 -0.53554065823E+02 -0.59385844178E+02  0.82066773146E+02  0.00000000000E+00 0.  1.
         11    1    3    3    0    0  0.22949146821E+02  0.28957341634E+02 -0.40016896461E+02  0.54465979994E+02  0.00000000000E+00 0. -1.
</event>
<event>
 7    1  0.5137842E-006  0.1029354E+03  0.7561462E-02  0.1274242E+00
          2   -1    0    0  501    0  0.00000000000E+00  0.00000000000E+00  0.45195946263E+02  0.45195946263E+02  0.00000000000E+00 0.  1.
         -2   -1    0    0    0  501 -0.00000000000E+00 -0.00000000000E+00 -0.37100021606E+03  0.37100021606E+03  0.00000000000E+00 0. -1.
         23    2    1    2    0    0 -0.61371070179E+01 -0.64331284881E+02 -0.97095007697E+02  0.14760095371E+03  0.90456745021E+02 0.  0.
          5    1    1    2  502    0 -0.44052309366E+02  0.42117933796E+02 -0.19430799305E+03  0.20368503841E+03  0.41800000000E+01 0. -1.
         -5    1    1    2    0  502  0.50189416384E+02  0.22213351084E+02 -0.34401269042E+02  0.64910170197E+02  0.41800000000E+01 0. -1.
        -11    1    3    3    0    0  0.20524547737E+02 -0.59105060934E+02 -0.19730644698E+02  0.65604600662E+02  0.00000000000E+00 0.  1.
         11    1    3    3    0    0 -0.26661654755E+02 -0.52262239462E+01 -0.77364362999E+02  0.81996353049E+02  0.00000000000E+00 0. -1.
</event>
<event>
 7    1  0.5137842E-006  0.2427349E+03  0.7561462E-02  0.1117984E+00
          2   -1    0    0  501    0  0.00000000000E+00  0.00000000000E+00  0.15664657920E+03  0.15664657920E+03  0.00000000000E+00 0. -1.
         -2   -1    0    0    0  501 -0.00000000000E+00 -0.00000000000E+00 -0.51070419930E+03  0.51070419930E+03  0.00000000000E+00 0.  1.
         23    2    1    2    0    0  0.20195452987E+03 -0.11514744322E+03 -0.18207456243E+02  0.24016362545E+03  0.57467292550E+02 0.  0.
          5    1    1    2  502    0 -0.46543704590E+02 -0.15161256431E+02 -0.22808942409E+02  0.54165490743E+02  0.41800000000E+01 0. -1.
         -5    1    1    2    0  502 -0.15541082528E+03  0.13030869965E+03 -0.31304122145E+03  0.37302166230E+03  0.41800000000E+01 0. -1.
        -11    1    3    3    0    0  0.13829145854E+03 -0.67007048565E+02 -0.37223948759E+02  0.15811418160E+03  0.00000000000E+00 0.  1.
         11    1    3    3    0    0  0.63663071331E+02 -0.48140394655E+02  0.19016492516E+02  0.82049443852E+02  0.00000000000E+00 0. -1.
</event>
<event>
 7    1  0.5137842E-006  0.1112360E+03  0.7561462E-02  0.1258298E+00
         -4   -1    0    0    0  501 -0.00000000000E+00  0.00000000000E+00  0.21921928537E+03  0.21921928537E+03  0.00000000000E+00 0.  1.
          4   -1    0    0  501    0  0.00000000000E+00 -0.00000000000E+00 -0.78393801971E+02  0.78393801971E+02  0.00000000000E+00 0. -1.
         23    2    1    2    0    0  0.20657494146E+02 -0.45427216560E+02  0.15104072702E+01  0.10390342942E+03  0.91122320243E+02 0.  0.
          5    1    1    2  502    0  0.37526671154E+02  0.47328759230E+02  0.25289566476E+02  0.65614762597E+02  0.41800000000E+01 0.  1.
         -5    1    1    2    0  502 -0.58184165300E+02 -0.19015426696E+01  0.11402550965E+03  0.12809489532E+03  0.41800000000E+01 0.  1.
        -11    1    3    3    0    0 -0.34868325945E+02 -0.58046543107E+01 -0.34132336079E+01  0.35512593957E+02  0.00000000000E+00 0.  1.
         11    1    3    3    0    0  0.55525820091E+02 -0.39622562249E+02  0.49236408781E+01  0.68390835464E+02  0.00000000000E+00 0. -1.
</event>
<event>
 7    1  0.5137842E-006  0.8922838E+02  0.7561462E-02  0.1304731E+00
         -1   -1    0    0    0  501 -0.00000000000E+00  0.00000000000E+00  0.16220558981E+03  0.16220558981E+03  0.00000000000E+00 0.  1.
          1   -1    0    0  501    0  0.00000000000E+00 -0.00000000000E+00 -0.23935415087E+03  0.23935415087E+03  0.00000000000E+00 0. -1.
         23    2    1    2    0    0  0.53125819003E+01 -0.39338171770E+02 -0.19915692296E+03  0.22237170492E+03  0.90608939425E+02 0.  0.
          5    1    1    2  502    0 -0.30597974883E+02  0.45296679555E+02  0.46002080578E+00  0.54824349197E+02  0.41800000000E+01 0.  1.
         -5    1    1    2    0  502  0.25285392983E+02 -0.59585077855E+01  0.12154834109E+03  0.12436368656E+03  0.41800000000E+01 0.  1.
        -11    1    3    3    0    0  0.44749417189E+01 -0.68250862660E+02 -0.15693463466E+03  0.17119195342E+03  0.00000000000E+00 0. -1.
         11    1    3    3    0    0  0.83764018142E+00  0.28912690890E+02 -0.42222288295E+02  0.51179751508E+02  0.00000000000E+00 0.  1.
</event>
<event>
 7    1  0.5137842E-006  0.1136816E+03  0.7561462E-02  0.1253900E+00
         -2   -1    0    0    0  501 -0.00000000000E+00  0.00000000000E+00  0.16537033158E+03  0.16537033158E+03  0.00000000000E+00 0.  1.
          2   -1    0    0  501    0  0.00000000000E+00 -0.00000000000E+00 -0.10449721863E+03  0.10449721863E+03  0.00000000000E+00 0. -1.
         23    2    1    2    0    0  0.43408611389E+02  0.28062366034E+01 -0.32187812466E+02  0.10800271078E+03  0.93468431877E+02 0.  0.
          5    1    1    2  502    0 -0.33453403197E+02 -0.59930580374E+02  0.73196201631E+02  0.10042888520E+03  0.41800000000E+01 0. -1.
         -5    1    1    2    0  502 -0.99552081921E+01  0.57124343770E+02  0.19864723791E+02  0.61435954234E+02  0.41800000000E+01 0. -1.
        -11    1    3    3    0    0 -0.41515459285E+01  0.39921371252E+02 -0.11376636800E+01  0.40152776927E+02  0.00000000000E+00 0.  1.
         11    1    3    3    0    0  0.47560157318E+02 -0.37115134649E+02 -0.31050148786E+02  0.67849933852E+02  0.00000000000E+00 0. -1.
</event>
<event>
 7    1  0.5137842E-006  0.1077909E+03  0.7561462E-02  0.1264716E+00
         -1   -1    0    0    0  501 -0.00000000000E+00  0.00000000000E+00  0.27454409882E+02  0.27454409882E+02  0.00000000000E+00 0.  1.
          1   -1    0    0  501    0  0.00000000000E+00 -0.00000000000E+00 -0.55441563213E+03  0.55441563213E+03  0.00000000000E+00 0. -1.
         23    2    1    2    0    0  0.31498528360E+02  0.14806513741E+02 -0.34013617486E+03  0.35435591572E+03  0.93081187258E+02 0.  0.
          5    1    1    2  502    0 -0.34688895347E+02 -0.66561973902E+02 -0.87249809911E+02  0.11516864834E+03  0.41800000000E+01 0. -1.
         -5    1    1    2    0  502  0.31903669869E+01  0.51755460161E+02 -0.99575237478E+02  0.11234547795E+03  0.41800000000E+01 0. -1.
        -11    1    3    3    0    0  0.10721760007E+01 -0.32293820448E+02 -0.55257509989E+02  0.64011192855E+02  0.00000000000E+00 0.  1.
         11    1    3    3    0    0  0.30426352360E+02  0.47100334189E+02 -0.28487866487E+03  0.29034472287E+03  0.00000000000E+00 0. -1.
</event>
<event>
 7    1  0.5137842E-006  0.8630886E+02  0.7561462E-02  0.1312045E+00
         -2   -1    0    0    0  501 -0.00000000000E+00  0.00000000000E+00  0.23910230096E+02  0.23910230096E+02  0.00000000000E+00 0.  1.
          2   -1    0    0  501    0  0.00000000000E+00 -0.00000000000E+00 -0.57136912322E+03  0.57136912322E+03  0.00000000000E+00 0. -1.
         23    2    1    2    0    0  0.12563068016E+02 -0.33934943121E+02 -0.29636782694E+03  0.31243420499E+03  0.92042558428E+02 0.  0.
          5    1    1    2  502    0 -0.13767841279E+02  0.52668804992E+02 -0.25699207213E+03  0.26272790870E+03  0.41800000000E+01 0.  1.
         -5    1    1    2    0  502  0.12047732630E+01 -0.18733861871E+02  0.59010059375E+01  0.20117239629E+02  0.41800000000E+01 0.  1.
        -11    1    3    3    0    0  0.29024979651E+02 -0.60746602345E+02 -0.19488124751E+03  0.20618268543E+03  0.00000000000E+00 0. -1.
         11    1    3    3    0    0 -0.16461911635E+02  0.26811659224E+02 -0.10148657943E+03  0.10625151956E+03  0.00000000000E+00 0.  1.
</event>
<event>
 7    1  0.5137842E-006  0.1052996E+03  0.7561462E-02  0.1269531E+00
         -1   -1    0    0    0  501 -0.00000000000E+00  0.00000000000E+00  0.53714823417E+02  0.53714823417E+02  0.00000000000E+00 0.  1.
          1   -1    0    0  501    0  0.00000000000E+00 -0.00000000000E+00 -0.22707158099E+03  0.22707158099E+03  0.00000000000E+00 0. -1.
         23    2    1    2    0    0 -0.36576277702E+01  0.24636518970E+02 -0.85522767328E+02  0.12592374847E+03  0.89007361433E+02 0.  0.
          5    1    1    2  502    0  0.53907424479E+02 -0.37913970226E+02 -0.19400872954E+02  0.68828379493E+02  0.41800000000E+01 0.  1.
         -5    1    1    2    0  502 -0.50249796709E+02  0.13277451256E+02 -0.68433117290E+02  0.86034276444E+02  0.41800000000E+01 0.  1.
        -11    1    3    3    0    0  0.42612060915E+02  0.14855005054E+02 -0.42534012239E+02  0.62012910815E+02  0.00000000000E+00 0.  1.
         11    1    3    3    0    0 -0.46269688686E+02  0.97815139153E+01 -0.42988755089E+02  0.63910837654E+02  0.00000000000E+00 0. -1.
</event>
<event>
 7    1  0.5137842E-006  0.9516591E+02  0.7561462E-02  0.1290803E+00
          1   -1    0    0  501    0  0.00000000000E+00  0.00000000000E+00  0.24523124052E+03  0.24523124052E+03  0.00000000000E+00 0. -1.
         -1   -1    0    0    0  501 -0.00000000000E+00 -0.00000000000E+00 -0.60598440449E+02  0.60598440449E+02  0.00000000000E+00 0.  1.
         23    2    1    2    0    0 -0.72430545109E+01  0.80101691768E+01  0.14355525065E+03  0.17372525124E+03  0.97240569110E+02 0.  0.
          5    1    1    2  502    0  0.31160346414E+02  0.47958914997E+02 -0.20652892010E+01  0.57382597848E+02  0.41800000000E+01 0. -1.
         -5    1    1    2    0  502 -0.23917291903E+02 -0.55969084174E+02  0.43142838625E+02  0.74721831882E+02  0.41800000000E+01 0. -1.
        -11    1    3    3    0    0 -0.12011865928E+02  0.38904986671E+02  0.18322352676E+02  0.44649653062E+02  0.00000000000E+00 0.  1.
         11    1    3    3    0    0  0.47688114172E+01 -0.30894817495E+02  0.12523289797E+03  0.12907559818E+03  0.00000000000E+00 0. -1.
</event>
<event>
 7    1  0.5137842E-006  0.1136959E+03  0.7561462E-02  0.1253875E+00
          1   -1    0    0  501    0  0.00000000000E+00  0.00000000000E+00  0.40764707278E+03  0.40764707278E+03  0.00000000000E+00 0. -1.
         -1   -1    0    0    0  501 -0.00000000000E+00 -0.00000000000E+00 -0.61367113211E+02  0.61367113211E+02  0.00000000000E+00 0.  1.
         23    2    1    2    0    0 -0.26938228100E+02  0.54873180566E+02  0.30409099324E+03  0.32353801659E+03  0.92025985081E+02 0.  0.
          5    1    1    2  502    0  0.43051522233E+02  0.16482645690E+02 -0.18979495607E+02  0.50028040427E+02  0.41800000000E+01 0. -1.
         -5    1    1    2    0  502 -0.16113294133E+02 -0.71355826256E+02  0.61168461930E+02  0.95448128967E+02  0.41800000000E+01 0. -1.
        -11    1    3    3    0    0  0.32161547832E+02  0.29041522244E+02  0.15816039755E+03  0.16398928784E+03  0.00000000000E+00 0. -1.
         11    1    3    3    0    0 -0.59099775932E+02  0.25831658322E+02  0.14593059570E+03  0.15954872875E+03  0.00000000000E+00 0.  1.
</event>
<event>
 7    1  0.5137842E-006  0.1401873E+03  0.7561462E-02  0.1213077E+00
         -1   -1    0    0    0  501 -0.00000000000E+00  0.00000000000E+00  0.21143807189E+03  0.21143807189E+03  0.00000000000E+00 0.  1.
          1   -1    0    0  501    0  0.00000000000E+00 -0.00000000000E+00 -0.20413523281E+03  0.20413523281E+03  0.00000000000E+00 0. -1.
         23    2    1    2    0    0 -0.72112462513E+02  0.11329611235E+03 -0.11134740640E+03  0.19703137994E+03  0.91580038472E+02 0.  0.
          5    1    1    2  502    0  0.67868959775E+02 -0.81851517609E+02  0.14305688968E+03  0.17829361380E+03  0.41800000000E+01 0.  1.
         -5    1    1    2    0  502  0.42435027383E+01 -0.31444594738E+02 -0.24406644204E+02  0.40248310959E+02  0.41800000000E+01 0.  1.
        -11    1    3    3    0    0 -0.56608989482E+02  0.11307611305E+03 -0.53785587567E+02  0.13741788262E+03  0.00000000000E+00 0.  1.
         11    1    3    3    0    0 -0.15503473031E+02  0.21999929587E+00 -0.57561818835E+02  0.59613497325E+02  0.00000000000E+00 0. -1.
</event>
<event>
 7    1  0.5137842E-006  0.1187416E+03  0.7561462E-02  0.1245188E+00
         -1   -1    0    0    0  501 -0.00000000000E+00  0.00000000000E+00  0.22902343109E+02  0.22902343109E+02  0.00000000000E+00 0.  1.
          1   -1    0    0  501    0  0.00000000000E+00 -0.00000000000E+00 -0.77404461101E+03  0.77404461101E+03  0.00000000000E+00 0. -1.
         23    2    1    2    0    0  0.57600093580E+02  0.63508055997E+01 -0.48591361839E+03  0.49802915359E+03  0.92535883760E+02 0.  0.
          5    1    1    2  502    0 -0.90314514721E+02 -0.28341415300E+02 -0.15373884905E+03  0.18059084555E+03  0.41800000000E+01 0. -1.
         -5    1    1    2    0  502  0.32714421141E+02  0.21990609700E+02 -0.11148980047E+03  0.11832695497E+03  0.41800000000E+01 0. -1.
        -11    1    3    3    0    0  0.69701428616E+02 -0.21323354440E+02 -0.40811407461E+03  0.41457215595E+03  0.00000000000E+00 0. -1.
         11    1    3    3    0    0 -0.12101335036E+02  0.27674160040E+02 -0.77799543778E+02  0.83456997644E+02  0.00000000000E+00 0.  1.
</event>
<event>
 7    1  0.5137842E-006  0.1258389E+03  0.7561462E-02  0.1233764E+00
          1   -1    0    0  501    0  0.00000000000E+00  0.00000000000E+00  0.39891683438E+03  0.39891683438E+03  0.00000000000E+00 0. -1.
         -1   -1    0    0    0  501 -0.00000000000E+00 -0.00000000000E+00 -0.46716245006E+02  0.46716245006E+02  0.00000000000E+00 0.  1.
         23    2    1    2    0    0 -0.81184844574E+02  0.79124617343E+01  0.19651757438E+03  0.22990619908E+03  0.87086837651E+02 0.  0.
          5    1    1    2  502    0 -0.25239361582E+02  0.26099444260E+02  0.49541410437E+02  0.61563220447E+02  0.41800000000E+01 0. -1.
         -5    1    1    2    0  502  0.10642420616E+03 -0.34011905994E+02  0.10614160455E+03  0.15416365986E+03  0.41800000000E+01 0. -1.
        -11    1    3    3    0    0 -0.65739877788E+02 -0.22279503459E+02  0.68682948781E+02  0.97649655704E+02  0.00000000000E+00 0.  1.
         11    1    3    3    0    0 -0.15444966787E+02  0.30191965193E+02  0.12783462560E+03  0.13225654337E+03  0.00000000000E+00 0. -1.
</event>
<event>
 7    1  0.5137842E-006  0.1483078E+03  0.7561462E-02  0.1202568E+00
         -2   -1    0    0    0  501 -0.00000000000E+00  0.00000000000E+00  0.97500057696E+02  0.97500057696E+02  0.00000000000E+00 0.  1.
          2   -1    0    0  501    0  0.00000000000E+00 -0.00000000000E+00 -0.36347318642E+03  0.36347318642E+03  0.00000000000E+00 0. -1.
         23    2    1    2    0    0 -0.12119822527E+03  0.35439556869E+02 -0.23362224873E+03  0.28031059182E+03  0.89720124746E+02 0.  0.
          5    1    1    2  502    0  0.12823149186E+03 -0.53549892913E+01  0.91714738931E+01  0.12873841598E+03  0.41800000000E+01 0. -1.
         -5    1    1    2    0  502 -0.70332665926E+01 -0.30084567578E+02 -0.41522353880E+02  0.51924236316E+02  0.41800000000E+01 0. -1.
        -11    1    3    3    0    0 -0.21141172841E+02 -0.14065904703E+02 -0.49878893499E+01  0.25878135643E+02  0.00000000000E+00 0.  1.
         11    1    3    3    0    0 -0.10005705243E+03  0.49505461572E+02 -0.22863435938E+03  0.25443245618E+03  0.00000000000E+00 0. -1.
</event>
<event>
 7    1  0.5137842E-006  0.1079990E+03  0.7561462E-02  0.1264321E+00
          2   -1    0    0  501    0  0.00000000000E+00  0.00000000000E+00  0.17002229923E+02  0.17002229923E+02  0.00000000000E+00 0. -1.
         -2   -1    0    0    0  501 -0.00000000000E+00 -0.00000000000E+00 -0.72106539725E+03  0.72106539725E+03  0.00000000000E+00 0.  1.
         23    2    1    2    0    0 -0.23249458595E+00  0.92408021901E+01 -0.31041480346E+03  0.32491848287E+03  0.95546971839E+02 0.  0.
          5    1    1    2  502    0 -0.61743910532E+02  0.32788686333E+01 -0.20261751024E+03  0.21188296138E+03  0.41800000000E+01 0.  1.
         -5    1    1    2    0  502  0.61976405118E+02 -0.12519670823E+02 -0.19103085363E+03  0.20126618292E+03  0.41800000000E+01 0.  1.
        -11    1    3    3    0    0  0.35523968661E+02  0.32381904164E+02 -0.21688166987E+03  0.22214454482E+03  0.00000000000E+00 0.  1.
         11    1    3    3    0    0 -0.35756463247E+02 -0.23141101974E+02 -0.93533133590E+02  0.10277393806E+03  0.00000000000E+00 0. -1.
</event>
<event>
 7    1  0.5137842E-006  0.1049546E+03  0.7561462E-02  0.1270209E+00
         -2   -1    0    0    0  501 -0.00000000000E+00  0.00000000000E+00  0.42339580596E+02  0.42339580596E+02  0.00000000000E+00 0.  1.
          2   -1    0    0  501    0  0.00000000000E+00 -0.00000000000E+00 -0.44264810899E+03  0.44264810899E+03  0.00000000000E+00 0. -1.
         23    2    1    2    0    0 -0.59374188426E+02  0.27565100601E+02 -0.27552572334E+03  0.29656846103E+03  0.88052818401E+02 0.  0.
          5    1    1    2  502    0 -0.23949232515E+02  0.29694506368E+02 -0.22233830469E+02  0.44352509104E+02  0.41800000000E+01 0.  1.
         -5    1    1    2    0  502  0.83323420942E+02 -0.57259606968E+02 -0.10254897458E+03  0.14406671946E+03  0.41800000000E+01 0.  1.
        -11    1    3    3    0    0 -0.92459848237E+01  0.16644983389E+02 -0.30238934801E+01  0.19279202244E+02  0.00000000000E+00 0.  1.
         11    1    3    3    0    0 -0.50128203603E+02  0.10920117211E+02 -0.27250182986E+03  0.27728925878E+03  0.00000000000E+00 0. -1.
</event>
<event>
 7    1  0.5137842E-006  0.7829329E+02  0.7561462E-02  0.1333966E+00
          1   -1    0    0  501    0  0.00000000000E+00  0.00000000000E+00  0.43830675611E+03  0.43830675611E+03  0.00000000000E+00 0. -1.
         -1   -1    0    0    0  501 -0.00000000000E+00 -0.00000000000E+00 -0.27543973549E+02  0.27543973549E+02  0.00000000000E+00 0.  1.
         23    2    1    2    0    0 -0.70732836054E+01 -0.19463650534E+02  0.19027997297E+03  0.21151537363E+03  0.90018998750E+02 0.  0.
          5    1    1    2  502    0  0.49656640614E+01 -0.32072440292E+02  0.19297596081E+03  0.19573066468E+03  0.41800000000E+01 0. -1.
         -5    1    1    2    0  502  0.21076195441E+01  0.51536090826E+02  0.27506848777E+02  0.58604691344E+02  0.41800000000E+01 0. -1.
        -11    1    3    3    0    0 -0.29372623319E+02 -0.34432085329E+02  0.17469789545E+03  0.18046516056E+03  0.00000000000E+00 0. -1.
         11    1    3    3    0    0  0.22299339714E+02  0.14968434795E+02  0.15582077516E+02  0.31050213068E+02  0.00000000000E+00 0.  1.
</event>
<event>
 7    1  0.5137842E-006  0.1149941E+03  0.7561462E-02  0.1251591E+00
          3   -1    0    0  501    0  0.00000000000E+00  0.00000000000E+00  0.10302531367E+03  0.10302531367E+03  0.00000000000E+00 0. -1.
         -3   -1    0    0    0  501 -0.00000000000E+00 -0.00000000000E+00 -0.17369362627E+03  0.17369362627E+03  0.00000000000E+00 0.  1.
         23    2    1    2    0    0 -0.76574411156E+02  0.16038165672E+02 -0.35124877860E+02  0.12495670434E+03  0.90882108866E+02 0.  0.
          5    1    1    2  502    0 -0.17376957626E+02 -0.12007933603E+02  0.30096152914E+02  0.37005404281E+02  0.41800000000E+01 0.  1.
         -5    1    1    2    0  502  0.93951368782E+02 -0.40302320687E+01 -0.65639587655E+02  0.11475683132E+03  0.41800000000E+01 0.  1.
        -11    1    3    3    0    0 -0.86695734633E+02  0.34470690197E+02 -0.12604392501E+02  0.94144833084E+02  0.00000000000E+00 0. -1.
         11    1    3    3    0    0  0.10121323476E+02 -0.18432524525E+02 -0.22520485359E+02  0.30811871252E+02  0.00000000000E+00 0.  1.
</event>
<event>
 7    1  0.5137842E-006  0.3243831E+03  0.7561462E-02  0.1073650E+00
          1   -1    0    0  501    0  0.00000000000E+00  0.00000000000E+00  0.92137287424E+03  0.92137287424E+03  0.00000000000E+00 0. -1.
         -1   -1    0    0    0  501 -0.00000000000E+00 -0.00000000000E+00 -0.21553203743E+03  0.21553203743E+03  0.00000000000E+00 0.  1.
         23    2    1    2    0    0 -0.27690307559E+03  0.15107735768E+03  0.72594481191E+03  0.79697291057E+03  0.93114279130E+02 0.  0.
          5    1    1    2  502    0  0.25660406013E+03 -0.16756836383E+03 -0.36680163510E+02  0.30868706975E+03  0.41800000000E+01 0. -1.
         -5    1    1    2    0  502  0.20299015451E+02  0.16491006156E+02  0.16576188415E+02  0.31244931344E+02  0.41800000000E+01 0. -1.
        -11    1    3    3    0    0 -0.22516535837E+03  0.12927287985E+03  0.66610767149E+03  0.71491981795E+03  0.00000000000E+00 0. -1.
         11    1    3    3    0    0 -0.51737717213E+02  0.21804477824E+02  0.59837140412E+02  0.82053092619E+02  0.00000000000E+00 0.  1.
</event>
<event>
 7    1  0.5137842E-006  0.9880150E+02  0.7561462E-02  0.1282837E+00
          3   -1    0    0  501    0  0.00000000000E+00  0.00000000000E+00  0.35308365581E+03  0.35308365581E+03  0.00000000000E+00 0. -1.
         -3   -1    0    0    0  501 -0.00000000000E+00 -0.00000000000E+00 -0.39636696782E+02  0.39636696782E+02  0.00000000000E+00 0.  1.
         23    2    1    2    0    0 -0.24194392151E+02  0.43371241692E+02  0.14392223804E+03  0.17626384242E+03  0.88819470411E+02 0.  0.
          5    1    1    2  502    0  0.56903706132E+02 -0.68520078961E+02  0.13826967672E+03  0.16452662062E+03  0.41800000000E+01 0.  1.
         -5    1    1    2    0  502 -0.32709313980E+02  0.25148837268E+02  0.31255044273E+02  0.51929889558E+02  0.41800000000E+01 0.  1.
        -11    1    3    3    0    0 -0.37595474616E+02  0.32929188331E+02  0.15008826185E+03  0.15819051015E+03  0.00000000000E+00 0. -1.
         11    1    3    3    0    0  0.13401082464E+02  0.10442053361E+02 -0.61660238125E+01  0.18073332268E+02  0.00000000000E+00 0.  1.
</event>
<event>
 7    1  0.5137842E-006  0.1236226E+03  0.7561462E-02  0.1237238E+00
         -1   -1    0    0    0  501 -0.00000000000E+00  0.00000000000E+00  0.27122070943E+02  0.27122070943E+02  0.00000000000E+00 0.  1.
          1   -1    0    0  501    0  0.00000000000E+00 -0.00000000000E+00 -0.76343494238E+03  0.76343494238E+03  0.00000000000E+00 0. -1.
         23    2    1    2    0    0  0.79682339266E+02  0.44279497317E+02 -0.41107046560E+03  0.43036206070E+03  0.89009137346E+02 0.  0.
          5    1    1    2  502    0 -0.19257246499E+02 -0.60399712747E+02 -0.59098640874E+02  0.86770320938E+02  0.41800000000E+01 0.  1.
         -5    1    1    2    0  502 -0.60425092767E+02  0.16120215430E+02 -0.26614376496E+03  0.27342463168E+03  0.41800000000E+01 0.  1.
        -11    1    3    3    0    0  0.50718270234E+01 -0.21179937763E+02 -0.33450573643E+02  0.39915586806E+02  0.00000000000E+00 0.  1.
         11    1    3    3    0    0  0.74610512243E+02  0.65459435079E+02 -0.37761989196E+03  0.39044647390E+03  0.00000000000E+00 0. -1.
</event>
<event>
 7    1  0.5137842E-006  0.9187224E+02  0.7561462E-02  0.1298380E+00
         -1   -1    0    0    0  501 -0.00000000000E+00  0.00000000000E+00  0.10611353242E+03  0.10611353242E+03  0.00000000000E+00 0.  1.
          1   -1    0    0  501    0  0.00000000000E+00 -0.00000000000E+00 -0.14480596353E+03  0.14480596353E+03  0.00000000000E+00 0. -1.
         23    2    1    2    0    0  0.36833552376E+02  0.37135686063E+02 -0.47576372929E+02  0.11504538687E+03  0.90753292062E+02 0.  0.
          5    1    1    2  502    0  0.29205300943E+02 -0.28245945303E+02  0.44334173575E+02  0.60280796078E+02  0.41800000000E+01 0.  1.
         -5    1    1    2    0  502 -0.66038853319E+02 -0.88897407610E+01 -0.35450231761E+02  0.75593313000E+02  0.41800000000E+01 0.  1.
        -11    1    3    3    0    0  0.35009793601E+02  0.51160064936E+02  0.34571067323E+01  0.62088561581E+02  0.00000000000E+00 0.  1.
         11    1    3    3    0    0  0.18237587749E+01 -0.14024378873E+02 -0.51033479661E+02  0.52956825293E+02  0.00000000000E+00 0. -1.
</event>
<event>
 7    1  0.5137842E-006  0.9785203E+02  0.7561462E-02  0.1284879E+00
          1   -1    0    0  501    0  0.00000000000E+00  0.00000000000E+00  0.30749675102E+03  0.30749675102E+03  0.00000000000E+00 0. -1.
         -1   -1    0    0    0  501 -0.00000000000E+00 -0.00000000000E+00 -0.43442940511E+02  0.43442940511E+02  0.00000000000E+00 0.  1.
         23    2    1    2    0    0  0.33678481204E+02  0.87451657714E+01  0.15560827963E+03  0.18176720735E+03  0.87262036188E+02 0.  0.
          5    1    1    2  502    0  0.28273146300E+02  0.18912239304E+02 -0.72096394222E+01  0.35021349172E+02  0.41800000000E+01 0. -1.
         -5    1    1    2    0  502 -0.61951627504E+02 -0.27657405076E+02  0.11565517031E+03  0.13415113501E+03  0.41800000000E+01 0. -1.
        -11    1    3    3    0    0 -0.25895492607E+02  0.20139853957E+02  0.63660501156E+02  0.71615987476E+02  0.00000000000E+00 0.  1.
         11    1    3    3    0    0  0.59573973811E+02 -0.11394688186E+02  0.91947778472E+02  0.11015121988E+03  0.00000000000E+00 0. -1.
</event>
<event>
 7    1  0.5137842E-006  0.1485818E+03  0.7561462E-02  0.1202227E+00
          1   -1    0    0  501    0  0.00000000000E+00  0.00000000000E+00  0.34243071772E+03  0.34243071772E+03  0.00000000000E+00 0. -1.
         -1   -1    0    0    0  501 -0.00000000000E+00 -0.00000000000E+00 -0.80784914247E+02  0.80784914247E+02  0.00000000000E+00 0.  1.
         23    2    1    2    0    0 -0.49068758204E+02 -0.98413406454E+02  0.17561554023E+03  0.22680061207E+03  0.92221245186E+02 0.  0.
          5    1    1    2  502    0 -0.74157040870E+01 -0.29036422567E+02  0.38720085862E+02  0.49140858273E+02  0.41800000000E+01 0. -1.
         -5    1    1    2    0  502  0.56484462292E+02  0.12744982902E+03  0.47310177377E+02  0.14727416162E+03  0.41800000000E+01 0.  1.
        -11    1    3    3    0    0 -0.61454582117E+02 -0.97191716900E+02  0.18000835122E+03  0.21360220506E+03  0.00000000000E+00 0. -1.
         11    1    3    3    0    0  0.12385823913E+02 -0.12216895532E+01 -0.43928109855E+01  0.13198407015E+02  0.00000000000E+00 0.  1.
</event>
<event>
 7    1  0.5137842E-006  0.1176386E+03  0.7561462E-02  0.1247044E+00
         -2   -1    0    0    0  501 -0.00000000000E+00  0.00000000000E+00  0.16636148040E+02  0.16636148040E+02  0.00000000000E+00 0.  1.
          2   -1    0    0  501    0  0.00000000000E+00 -0.00000000000E+00 -0.10199812081E+04  0.10199812081E+04  0.00000000000E+00 0. -1.
         23    2    1    2    0    0  0.69137206481E+02 -0.20234532434E+02 -0.46643211394E+03  0.48063990328E+03  0.90919800291E+02 0.  0.
          5    1    1    2  502    0 -0.17319631573E+02  0.67163380445E+02 -0.33873510484E+03  0.34578871145E+03  0.41800000000E+01 0. -1.
         -5    1    1    2    0  502 -0.51817574907E+02 -0.46928848011E+02 -0.19817784126E+03  0.21018874140E+03  0.41800000000E+01 0. -1.
        -11    1    3    3    0    0 -0.12143575606E+02 -0.71660819491E+00 -0.77963004258E+01  0.14448607411E+02  0.00000000000E+00 0.  1.
         11    1    3    3    0    0  0.81280782086E+02 -0.19517924239E+02 -0.45863581351E+03  0.46619129587E+03  0.00000000000E+00 0. -1.
</event>
<event>
 7    1  0.5137842E-006  0.6520090E+02  0.7561462E-02  0.1377217E+00
         -1   -1    0    0    0  501 -0.00000000000E+00  0.00000000000E+00  0.54182823789E+02  0.54182823789E+02  0.00000000000E+00 0.  1.
          1   -1    0    0  501    0  0.00000000000E+00 -0.00000000000E+00 -0.28557108089E+03  0.28557108089E+03  0.00000000000E+00 0. -1.
         23    2    1    2    0    0 -0.53475505894E-01 -0.26250680383E+02 -0.17788519878E+03  0.20134576336E+03  0.90597303484E+02 0.  0.
          5    1    1    2  502    0  0.12212685198E+02 -0.17183704551E+02  0.33799419321E+02  0.40053745496E+02  0.41800000000E+01 0.  1.
         -5    1    1    2    0  502 -0.12159209692E+02  0.43434384934E+02 -0.87302477639E+02  0.98354395819E+02  0.41800000000E+01 0.  1.
        -11    1    3    3    0    0  0.28579102116E+02 -0.18152140683E+02 -0.16581308583E+03  0.16923428944E+03  0.00000000000E+00 0. -1.
         11    1    3    3    0    0 -0.28632577622E+02 -0.80985396997E+01 -0.12072112952E+02  0.32111473925E+02  0.00000000000E+00 0.  1.
</event>
<event>
 7    1  0.5137842E-006  0.1014102E+03  0.7561462E-02  0.1277358E+00
          2   -1    0    0  501    0  0.00000000000E+00  0.00000000000E+00  0.26534100890E+03  0.26534100890E+03  0.00000000000E+00 0. -1.
         -2   -1    0    0    0  501 -0.00000000000E+00 -0.00000000000E+00 -0.54432087246E+02  0.54432087246E+02  0.00000000000E+00 0.  1.
         23    2    1    2    0    0  0.32656196867E+02 -0.10224513892E+02  0.14386097801E+03  0.17378734170E+03  0.91296720989E+02 0.  0.
          5    1    1    2  502    0 -0.61379155496E+02  0.44987383456E+02  0.65786848462E+02  0.10068091790E+03  0.41800000000E+01 0. -1.
         -5    1    1    2    0  502  0.28722958629E+02 -0.34762869564E+02  0.12610951803E+01  0.45304836539E+02  0.41800000000E+01 0. -1.
        -11    1    3    3    0    0 -0.17035463361E+02  0.17494202496E+02  0.67430503358E+01  0.25332249420E+02  0.00000000000E+00 0.  1.
         11    1    3    3    0    0  0.49691660228E+02 -0.27718716387E+02  0.13711792767E+03  0.14845509228E+03  0.00000000000E+00 0. -1.
</event>
<event>
 7    1  0.5137842E-006  0.1148733E+03  0.7561462E-02  0.1251802E+00
         -1   -1    0    0    0  501 -0.00000000000E+00  0.00000000000E+00  0.98071251596E+02  0.98071251596E+02  0.00000000000E+00 0.  1.
          1   -1    0    0  501    0  0.00000000000E+00 -0.00000000000E+00 -0.18832879669E+03  0.18832879669E+03  0.00000000000E+00 0. -1.
         23    2    1    2    0    0  0.74264672914E+02  0.39422752114E+02 -0.40338847074E+02  0.12760153140E+03  0.87094966588E+02 0.  0.
          5    1    1    2  502    0 -0.69672859545E+02  0.88482623007E+01 -0.76012503600E+02  0.10357592484E+03  0.41800000000E+01 0.  1.
         -5    1    1    2    0  502 -0.45918133687E+01 -0.48271014415E+02  0.26093805580E+02  0.55222592046E+02  0.41800000000E+01 0.  1.
        -11    1    3    3    0    0  0.76416412513E+02  0.53748014013E+01 -0.24889914126E+01  0.76645623944E+02  0.00000000000E+00 0.  1.
         11    1    3    3    0    0 -0.21517395991E+01  0.34047950713E+02 -0.37849855661E+02  0.50955907456E+02  0.00000000000E+00 0. -1.
</event>
<event>
 7    1  0.5137842E-006  0.1016558E+03  0.7561462E-02  0.1276852E+00
         -2   -1    0    0    0  501 -0.00000000000E+00  0.00000000000E+00  0.60028401512E+03  0.60028401512E+03  0.00000000000E+00 0.  1.
          2   -1    0    0  501    0  0.00000000000E+00 -0.00000000000E+00 -0.22534871599E+02  0.22534871599E+02  0.00000000000E+00 0. -1.
         23    2    1    2    0    0 -0.83730576461E+01 -0.33321172312E+02  0.19284580246E+03  0.21664311863E+03  0.92543658371E+02 0.  0.
          5    1    1    2  502    0  0.60768747948E+02 -0.98458817222E+01  0.18477579184E+03  0.19480592333E+03  0.41800000000E+01 0. -1.
         -5    1    1    2    0  502 -0.52395690301E+02  0.43167054034E+02  0.20012754922E+03  0.21136984475E+03  0.41800000000E+01 0. -1.
        -11    1    3    3    0    0 -0.25702404881E+02 -0.45606422787E+02  0.18759359516E+03  0.19476117775E+03  0.00000000000E+00 0.  1.
         11    1    3    3    0    0  0.17329347235E+02  0.12285250475E+02  0.52522072986E+01  0.21881940872E+02  0.00000000000E+00 0. -1.
</event>
<event>
 7    1  0.5137842E-006  0.1056574E+03  0.7561462E-02  0.1268830E+00
         -1   -1    0    0    0  501 -0.00000000000E+00  0.00000000000E+00  0.21818921877E+03  0.21818921877E+03  0.00000000000E+00 0.  1.
          1   -1    0    0  501    0  0.00000000000E+00 -0.00000000000E+00 -0.68875944509E+02  0.68875944509E+02  0.00000000000E+00 0. -1.
         23    2    1    2    0    0  0.54986385793E+02  0.19531255305E+02  0.58798935519E+02  0.12200225929E+03  0.89567091597E+02 0.  0.
          5    1    1    2  502    0 -0.59508781017E+02 -0.66363826145E+02  0.47080502758E+02  0.10089350117E+03  0.41800000000E+01 0.  1.
         -5    1    1    2    0  502  0.45223952245E+01  0.46832570840E+02  0.43433835988E+02  0.64169402823E+02  0.41800000000E+01 0.  1.
        -11    1    3    3    0    0  0.36344706383E+02  0.35121967540E+02 -0.77703805256E+01  0.51135790787E+02  0.00000000000E+00 0. -1.
         11    1    3    3    0    0  0.18641679410E+02 -0.15590712235E+02  0.66569316045E+02  0.70866468502E+02  0.00000000000E+00 0.  1.
</event>
<event>
 7    1  0.5137842E-006  0.1033312E+03  0.7561462E-02  0.1273443E+00
         -2   -1    0    0    0  501 -0.00000000000E+00  0.00000000000E+00  0.10993234623E+03  0.10993234623E+03  0.00000000000E+00 0.  1.
          2   -1    0    0  501    0  0.00000000000E+00 -0.00000000000E+00 -0.15463077507E+03  0.15463077507E+03  0.00000000000E+00 0. -1.
         23    2    1    2    0    0 -0.15764483745E+02 -0.57860060287E+02 -0.60667100035E+02  0.12492796343E+03  0.91269893699E+02 0.  0.
          5    1    1    2  502    0 -0.37763202855E+02  0.67949636468E+02  0.29670234687E+02  0.83312710989E+02  0.41800000000E+01 0.  1.
         -5    1    1    2    0  502  0.53527686600E+02 -0.10089576180E+02 -0.13701563499E+02  0.56322446880E+02  0.41800000000E+01 0.  1.
        -11    1    3    3    0    0 -0.25289511602E+02 -0.13219841907E+02  0.18170256744E+02  0.33830191357E+02  0.00000000000E+00 0.  1.
         11    1    3    3    0    0  0.95250278570E+01 -0.44640218381E+02 -0.78837356779E+02  0.91097772073E+02  0.00000000000E+00 0. -1.
</event>
<event>
 7    1  0.5137842E-006  0.6612170E+02  0.7561462E-02  0.1373801E+00
         -1   -1    0    0    0  501 -0.00000000000E+00  0.00000000000E+00  0.31346706679E+03  0.31346706679E+03  0.00000000000E+00 0.  1.
          1   -1    0    0  501    0  0.00000000000E+00 -0.00000000000E+00 -0.39712322283E+02  0.39712322283E+02  0.00000000000E+00 0. -1.
         23    2    1    2    0    0  0.71415594794E+01 -0.17154739090E+02  0.90707754558E+02  0.13069531079E+03  0.92239257266E+02 0.  0.
          5    1    1    2  502    0  0.11951843795E+02 -0.28585507700E+01 -0.16495477265E+02  0.20990260903E+02  0.41800000000E+01 0.  1.
         -5    1    1    2    0  502 -0.19093403274E+02  0.20013289860E+02  0.19954246721E+03  0.20149381737E+03  0.41800000000E+01 0.  1.
        -11    1    3    3    0    0  0.34364460989E+02  0.24020923933E+02  0.26093832419E+02  0.49384299692E+02  0.00000000000E+00 0.  1.
         11    1    3    3    0    0 -0.27222901510E+02 -0.41175663023E+02  0.64613922139E+02  0.81311011101E+02  0.00000000000E+00 0. -1.
</event>
<event>
 7    1  0.5137842E-006  0.9242400E+02  0.7561462E-02  0.1297086E+00
         -2   -1    0    0    0  501 -0.00000000000E+00  0.00000000000E+00  0.22576911430E+02  0.22576911430E+02  0.00000000000E+00 0.  1.
          2   -1    0    0  501    0  0.00000000000E+00 -0.00000000000E+00 -0.57833712874E+03  0.57833712874E+03  0.00000000000E+00 0. -1.
         23    2    1    2    0    0 -0.11882848386E+01 -0.31531493680E+02 -0.29668568487E+03  0.31149709254E+03  0.89511987706E+02 0.  0.
          5    1    1    2  502    0  0.42506602982E+02  0.31380695405E+02 -0.39894146994E+02  0.66336827672E+02  0.41800000000E+01 0. -1.
         -5    1    1    2    0  502 -0.41318318143E+02  0.15079827491E+00 -0.21918038545E+03  0.22308011996E+03  0.41800000000E+01 0. -1.
        -11    1    3    3    0    0  0.25402487998E+02 -0.51259339313E+02 -0.23047896948E+03  0.23747286505E+03  0.00000000000E+00 0.  1.
         11    1    3    3    0    0 -0.26590772836E+02  0.19727845633E+02 -0.66206715388E+02  0.74024227492E+02  0.00000000000E+00 0. -1.
</event>
<event>
 7    1  0.5137842E-006  0.1312144E+03  0.7561462E-02  0.1225665E+00
          1   -1    0    0  501    0  0.00000000000E+00  0.00000000000E+00  0.26479002756E+03  0.26479002756E+03  0.00000000000E+00 0. -1.
         -1   -1    0    0    0  501 -0.00000000000E+00 -0.00000000000E+00 -0.71157835838E+02  0.71157835838E+02  0.00000000000E+00 0.  1.
         23    2    1    2    0    0  0.13077723074E+02 -0.80110595403E+02  0.66972735829E+02  0.14030005485E+03  0.92790213445E+02 0.  0.
          5    1    1    2  502    0  0.50630584347E+02  0.15757971838E+02  0.72944340215E+02  0.90278009045E+02  0.41800000000E+01 0.  1.
         -5    1    1    2    0  502 -0.63708307420E+02  0.64352623565E+02  0.53715115678E+02  0.10536979950E+03  0.41800000000E+01 0.  1.
        -11    1    3    3    0    0  0.38472414928E+02 -0.43897822991E+01  0.46600004585E+01  0.39001442323E+02  0.00000000000E+00 0.  1.
         11    1    3    3    0    0 -0.25394691854E+02 -0.75720813104E+02  0.62312735371E+02  0.10129861253E+03  0.00000000000E+00 0. -1.
</event>
<event>
 7    1  0.5137842E-006  0.9635532E+02  0.7561462E-02  0.1288152E+00
         -1   -1    0    0    0  501 -0.00000000000E+00  0.00000000000E+00  0.57075906605E+03  0.57075906605E+03  0.00000000000E+00 0.  1.
          1   -1    0    0  501    0  0.00000000000E+00 -0.00000000000E+00 -0.43446700754E+02  0.43446700754E+02  0.00000000000E+00 0. -1.
         23    2    1    2    0    0  0.38436508578E+02  0.87649025806E+02  0.94822684141E+02  0.15392907562E+03  0.74452011241E+02 0.  0.
          5    1    1    2  502    0 -0.11053990030E+02 -0.33686876946E+02  0.37503054020E+03  0.37672586167E+03  0.41800000000E+01 0.  1.
         -5    1    1    2    0  502 -0.27382518548E+02 -0.53962148860E+02  0.57459140954E+02  0.83550829503E+02  0.41800000000E+01 0.  1.
        -11    1    3    3    0    0  0.20410086554E+02  0.32923861615E+02  0.87698396506E+02  0.95872629288E+02  0.00000000000E+00 0.  1.
         11    1    3    3    0    0  0.18026422024E+02  0.54725164191E+02  0.71242876351E+01  0.58056446335E+02  0.00000000000E+00 0. -1.
</event>
<event>
 7    1  0.5137842E-006  0.1091067E+03  0.7561462E-02  0.1262233E+00
          2   -1    0    0  501    0  0.00000000000E+00  0.00000000000E+00  0.37491491462E+03  0.37491491462E+03  0.00000000000E+00 0. -1.
         -2   -1    0    0    0  501 -0.00000000000E+00 -0.00000000000E+00 -0.38100704781E+02  0.38100704781E+02  0.00000000000E+00 0.  1.
         23    2    1    2    0    0  0.35534193014E+02  0.18118921691E+02  0.19442867290E+03  0.21937256869E+03  0.93438968578E+02 0.  0.
          5    1    1    2  502    0 -0.49483268012E+02  0.41629340885E+02  0.46603829670E+02  0.79818451348E+02  0.41800000000E+01 0. -1.
         -5    1    1    2    0  502  0.13949074998E+02 -0.59748262576E+02  0.95781707269E+02  0.11382459937E+03  0.41800000000E+01 0. -1.
        -11    1    3    3    0    0  0.60617091902E+02 -0.59687538969E+00  0.16733915510E+03  0.17798084425E+03  0.00000000000E+00 0. -1.
         11    1    3    3    0    0 -0.25082898887E+02  0.18715797081E+02  0.27089517805E+02  0.41391724437E+02  0.00000000000E+00 0.  1.
</event>
<event>
 7    1  0.5137842E-006  0.9188379E+02  0.7561462E-02  0.1298353E+00
          2   -1    0    0  501    0  0.00000000000E+00  0.00000000000E+00  0.41120436362E+03  0.41120436362E+03  0.00000000000E+00 0. -1.
         -2   -1    0    0    0  501 -0.00000000000E+00 -0.00000000000E+00 -0.30463357741E+02  0.30463357741E+02  0.00000000000E+00 0.  1.
         23    2    1    2    0    0  0.17713586761E+02  0.19519566894E+02  0.18005543812E+03  0.20372677257E+03  0.91596137576E+02 0.  0.
          5    1    1    2  502    0  0.33792676830E+02 -0.43049772019E+02  0.15694502264E+03  0.16626617338E+03  0.41800000000E+01 0.  1.
         -5    1    1    2    0  502 -0.51506263592E+02  0.23530205125E+02  0.43740545113E+02  0.71674775404E+02  0.41800000000E+01 0.  1.
        -11    1    3    3    0    0 -0.11732586292E+02 -0.19776185127E+02  0.13544900784E+03  0.13738698921E+03  0.00000000000E+00 0. -1.
         11    1    3    3    0    0  0.29446173054E+02  0.39295752021E+02  0.44606430281E+02  0.66339783364E+02  0.00000000000E+00 0.  1.
</event>
<event>
 7    1  0.5137842E-006  0.7468076E+02  0.7561462E-02  0.1344862E+00
          1   -1    0    0  501    0  0.00000000000E+00  0.00000000000E+00  0.14008236712E+03  0.14008236712E+03  0.00000000000E+00 0. -1.
         -1   -1    0    0    0  501 -0.00000000000E+00 -0.00000000000E+00 -0.10177840114E+03  0.10177840114E+03  0.00000000000E+00 0.  1.
         23    2    1    2    0    0 -0.14586231685E+02 -0.21292324601E+02  0.60589227359E+02  0.11222832784E+03  0.90873658758E+02 0.  0.
          5    1    1    2  502    0  0.26852243989E+02 -0.17431298173E+02 -0.63735786868E+02  0.71446596077E+02  0.41800000000E+01 0. -1.
         -5    1    1    2    0  502 -0.12266012304E+02  0.38723622774E+02  0.41450525495E+02  0.58185844347E+02  0.41800000000E+01 0. -1.
        -11    1    3    3    0    0  0.11562896908E+02 -0.41571950045E+02 -0.47094288310E-01  0.43150084975E+02  0.00000000000E+00 0.  1.
         11    1    3    3    0    0 -0.26149128594E+02  0.20279625444E+02  0.60636321647E+02  0.69078242865E+02  0.00000000000E+00 0. -1.
</event>
<event>
 7    1  0.5137842E-006  0.1267289E+03  0.7561462E-02  0.1232392E+00
         -2   -1    0    0    0  501 -0.00000000000E+00  0.00000000000E+00  0.11621270368E+03  0.11621270368E+03  0.00000000000E+00 0.  1.
          2   -1    0    0  501    0  0.00000000000E+00 -0.00000000000E+00 -0.21076166259E+03  0.21076166259E+03  0.00000000000E+00 0. -1.
         23    2    1    2    0    0  0.87363183416E+02  0.41491408506E+02 -0.32294241820E+02  0.13636654945E+03  0.90548633109E+02 0.  0.
          5    1    1    2  502    0 -0.70982478775E+02  0.69800828389E+01 -0.10280148589E+03  0.12519126068E+03  0.41800000000E+01 0. -1.
         -5    1    1    2    0  502 -0.16380704641E+02 -0.48471491345E+02  0.40546768800E+02  0.65416556145E+02  0.41800000000E+01 0.  1.
        -11    1    3    3    0    0  0.99497218608E+02  0.54035309195E+02 -0.19894759309E+02  0.11495787315E+03  0.00000000000E+00 0. -1.
         11    1    3    3    0    0 -0.12134035192E+02 -0.12543900689E+02 -0.12399482511E+02  0.21408676304E+02  0.00000000000E+00 0.  1.
</event>
<event>
 7    1  0.5137842E-006  0.1453204E+03  0.7561462E-02  0.1206344E+00
         -2   -1    0    0    0  501 -0.00000000000E+00  0.00000000000E+00  0.48087821112E+03  0.48087821112E+03  0.00000000000E+00 0.  1.
          2   -1    0    0  501    0  0.00000000000E+00 -0.00000000000E+00 -0.64360164490E+02  0.64360164490E+02  0.00000000000E+00 0. -1.
         23    2    1    2    0    0  0.70556801604E+02 -0.76581157374E+02  0.55835947191E+02  0.14953345700E+03  0.91649690920E+02 0.  0.
          5    1    1    2  502    0  0.16075235687E+02 -0.18065647857E+02  0.20067967467E+02  0.31701365162E+02  0.41800000000E+01 0. -1.
         -5    1    1    2    0  502 -0.86632037291E+02  0.94646805231E+02  0.34061413197E+03  0.36400355345E+03  0.41800000000E+01 0. -1.
        -11    1    3    3    0    0  0.92337730731E+02 -0.57585968885E+02  0.51192526589E+02  0.12026252578E+03  0.00000000000E+00 0.  1.
         11    1    3    3    0    0 -0.21780929127E+02 -0.18995188489E+02  0.46434206024E+01  0.29270931216E+02  0.00000000000E+00 0. -1.
</event>
<event>
 7    1  0.5137842E-006  0.1164995E+03  0.7561462E-02  0.1248986E+00
         -1   -1    0    0    0  501 -0.00000000000E+00  0.00000000000E+00  0.22829807565E+03  0.22829807565E+03  0.00000000000E+00 0.  1.
          1   -1    0    0  501    0  0.00000000000E+00 -0.00000000000E+00 -0.10996350232E+03  0.10996350232E+03  0.00000000000E+00 0. -1.
         23    2    1    2    0    0 -0.84163833263E+02 -0.16868707576E+02 -0.27654152606E+02  0.12771675898E+03  0.90436244085E+02 0.  0.
          5    1    1    2  502    0  0.37857212380E+02  0.61135380673E+02  0.12265039123E+03  0.14223675393E+03  0.41800000000E+01 0. -1.
         -5    1    1    2    0  502  0.46306620883E+02 -0.44266673097E+02  0.23338334705E+02  0.68308065054E+02  0.41800000000E+01 0. -1.
        -11    1    3    3    0    0 -0.46607943701E+01 -0.16628395909E+02 -0.43363944680E+02  0.46676099375E+02  0.00000000000E+00 0. -1.
         11    1    3    3    0    0 -0.79503038893E+02 -0.24031166638E+00  0.15709792073E+02  0.81040659609E+02  0.00000000000E+00 0.  1.
</event>
<event>
 7    1  0.5137842E-006  0.6012616E+02  0.7561462E-02  0.1397303E+00
          2   -1    0    0  501    0  0.00000000000E+00  0.00000000000E+00  0.35937983210E+03  0.35937983210E+03  0.00000000000E+00 0. -1.
         -2   -1    0    0    0  501 -0.00000000000E+00 -0.00000000000E+00 -0.36102893260E+02  0.36102893260E+02  0.00000000000E+00 0.  1.
         23    2    1    2    0    0  0.30848346399E+02 -0.12186532996E+02  0.14362969562E+03  0.17409842081E+03  0.92631736479E+02 0.  0.
          5    1    1    2  502    0 -0.73775563580E+01  0.47939111569E+01  0.19288525479E+03  0.19313105353E+03  0.41800000000E+01 0.  1.
         -5    1    1    2    0  502 -0.23470790041E+02  0.73926218392E+01 -0.13238011569E+02  0.28253251018E+02  0.41800000000E+01 0.  1.
        -11    1    3    3    0    0 -0.10497603008E+02  0.26763386658E+02  0.12799550885E+02  0.31469144207E+02  0.00000000000E+00 0.  1.
         11    1    3    3    0    0  0.41345949406E+02 -0.38949919654E+02  0.13083014473E+03  0.14262927660E+03  0.00000000000E+00 0. -1.
</event>
<event>
 7    1  0.6372641E-006  0.1888640E+03  0.7561462E-02  0.1159490E+00
          2   -1    0    0  501    0  0.00000000000E+00  0.00000000000E+00  0.10207022752E+04  0.10207022752E+04  0.00000000000E+00 0.  1.
         -2   -1    0    0    0  501 -0.00000000000E+00 -0.00000000000E+00 -0.41084511488E+02  0.41084511488E+02  0.00000000000E+00 0. -1.
         23    2    1    2    0    0 -0.99788171154E+02 -0.13346214757E+03  0.59283164877E+03  0.62244496080E+03  0.90656171897E+02 0.  0.
          5    1    1    2  502    0 -0.43321396627E+01  0.68780168897E+02  0.64405725089E+02  0.94419536600E+02  0.41800000000E+01 0. -1.
         -5    1    1    2    0  502  0.10412031082E+03  0.64681978669E+02  0.32238038989E+03  0.34492228933E+03  0.41800000000E+01 0. -1.
        -11    1    3    3    0    0 -0.75503416758E+02 -0.32508557325E+02  0.20276539255E+03  0.21879528482E+03  0.00000000000E+00 0.  1.
         11    1    3    3    0    0 -0.24284754395E+02 -0.10095359024E+03  0.39006625622E+03  0.40364967598E+03  0.00000000000E+00 0. -1.
</event>
<event>
 7    1  0.5137842E-006  0.1014543E+03  0.7561462E-02  0.1277267E+00
          3   -1    0    0  501    0  0.00000000000E+00  0.00000000000E+00  0.14250982613E+03  0.14250982613E+03  0.00000000000E+00 0. -1.
         -3   -1    0    0    0  501 -0.00000000000E+00 -0.00000000000E+00 -0.93093325900E+02  0.93093325900E+02  0.00000000000E+00 0.  1.
         23    2    1    2    0    0  0.25646042119E+02  0.29633670552E+02  0.35970339603E+02  0.10382967616E+03  0.89167608545E+02 0.  0.
          5    1    1    2  502    0 -0.35336689015E+02  0.31076654513E+02  0.42591420680E+02  0.63607716213E+02  0.41800000000E+01 0. -1.
         -5    1    1    2    0  502  0.96906468957E+01 -0.60710325065E+02 -0.29145260050E+02  0.68165759661E+02  0.41800000000E+01 0. -1.
        -11    1    3    3    0    0 -0.31714084137E+02  0.13423709600E+02  0.26547784733E+02  0.43482916028E+02  0.00000000000E+00 0. -1.
         11    1    3    3    0    0  0.57360126256E+02  0.16209960952E+02  0.94225548701E+01  0.60346760132E+02  0.00000000000E+00 0.  1.
</event>
<event>
 7    1  0.5137842E-006  0.1117470E+03  0.7561462E-02  0.1257368E+00
         -2   -1    0    0    0  501 -0.00000000000E+00  0.00000000000E+00  0.14121122747E+04  0.14121122747E+04  0.00000000000E+00 0.  1.
          2   -1    0    0  501    0  0.00000000000E+00 -0.00000000000E+00 -0.93161160045E+01  0.93161160045E+01  0.00000000000E+00 0. -1.
         23    2    1    2    0    0 -0.25958887022E+02 -0.24322037722E+02  0.46458304504E+03  0.47424499657E+03  0.88348659818E+02 0.  0.
          5    1    1    2  502    0 -0.18534665094E+02  0.65693903876E+02  0.44484328821E+03  0.45006915722E+03  0.41800000000E+01 0.  1.
         -5    1    1    2    0  502  0.44493552117E+02 -0.41371866154E+02  0.49336982545E+03  0.49711423692E+03  0.41800000000E+01 0.  1.
        -11    1    3    3    0    0 -0.54655490478E+02  0.27936104829E+01  0.30345961122E+03  0.30835492949E+03  0.00000000000E+00 0.  1.
         11    1    3    3    0    0  0.28696603455E+02 -0.27115648205E+02  0.16112343383E+03  0.16589006708E+03  0.00000000000E+00 0. -1.
</event>
<event>
 7    1  0.5137842E-006  0.7517905E+02  0.7561462E-02  0.1343317E+00
          3   -1    0    0  501    0  0.00000000000E+00  0.00000000000E+00  0.29331401092E+02  0.29331401092E+02  0.00000000000E+00 0. -1.
         -3   -1    0    0    0  501 -0.00000000000E+00 -0.00000000000E+00 -0.83730384641E+03  0.83730384641E+03  0.00000000000E+00 0.  1.
         23    2    1    2    0    0 -0.13128704276E+02  0.16709255653E+02 -0.14142354758E+03  0.16943435115E+03  0.90861528926E+02 0.  0.
          5    1    1    2  502    0 -0.63098807035E+01 -0.35020442376E+02 -0.62754927178E+01  0.36374444155E+02  0.41800000000E+01 0. -1.
         -5    1    1    2    0  502  0.19438584980E+02  0.18311186724E+02 -0.66027340502E+03  0.66082645220E+03  0.41800000000E+01 0.  1.
        -11    1    3    3    0    0  0.22283530415E+02 -0.24530979053E+02 -0.84301769417E+02  0.90582078734E+02  0.00000000000E+00 0.  1.
         11    1    3    3    0    0 -0.35412234691E+02  0.41240234706E+02 -0.57121778159E+02  0.78852272411E+02  0.00000000000E+00 0. -1.
</event>
<event>
 7    1  0.5137842E-006  0.1163846E+03  0.7561462E-02  0.1249183E+00
         -2   -1    0    0    0  501 -0.00000000000E+00  0.00000000000E+00  0.11326145914E+03  0.11326145914E+03  0.00000000000E+00 0.  1.
          2   -1    0    0  501    0  0.00000000000E+00 -0.00000000000E+00 -0.23560918872E+03  0.23560918872E+03  0.00000000000E+00 0. -1.
         23    2    1    2    0    0  0.79087551806E+02  0.10695360516E+01 -0.15759826055E+03  0.19673715158E+03  0.87248554855E+02 0.  0.
          5    1    1    2  502    0 -0.76523237643E+02 -0.35927125015E+02 -0.19673899623E+02  0.86897059430E+02  0.41800000000E+01 0. -1.
         -5    1    1    2    0  502 -0.25643141627E+01  0.34857588963E+02  0.54924430600E+02  0.65236436845E+02  0.41800000000E+01 0. -1.
        -11    1    3    3    0    0  0.11170563519E+02  0.35190813232E+02 -0.27401332305E+02  0.45978340959E+02  0.00000000000E+00 0.  1.
         11    1    3    3    0    0  0.67916988287E+02 -0.34121277180E+02 -0.13019692825E+03  0.15075881062E+03  0.00000000000E+00 0. -1.
</event>
<event>
 7    1  0.5137842E-006  0.8205124E+02  0.7561462E-02  0.1323329E+00
          2   -1    0    0  501    0  0.00000000000E+00  0.00000000000E+00  0.56087633731E+03  0.56087633731E+03  0.00000000000E+00 0. -1.
         -2   -1    0    0    0  501 -0.00000000000E+00 -0.00000000000E+00 -0.22508200557E+02  0.22508200557E+02  0.00000000000E+00 0.  1.
         23    2    1    2    0    0 -0.12356477872E+02 -0.12642132674E+02  0.30860862730E+03  0.32118317971E+03  0.87217223205E+02 0.  0.
          5    1    1    2  502    0  0.45565692096E+02  0.23312720281E+02  0.21975225598E+03  0.22567286419E+03  0.41800000000E+01 0. -1.
         -5    1    1    2    0  502 -0.33209214224E+02 -0.10670587607E+02  0.10007253474E+02  0.36528493965E+02  0.41800000000E+01 0. -1.
        -11    1    3    3    0    0  0.27161053098E+02  0.13404479869E+02  0.51434089464E+02  0.59689768344E+02  0.00000000000E+00 0.  1.
         11    1    3    3    0    0 -0.39517530970E+02 -0.26046612543E+02  0.25717453783E+03  0.26149341137E+03  0.00000000000E+00 0. -1.
</event>
<event>
 7    1  0.5137842E-006  0.1550099E+03  0.7561462E-02  0.1194449E+00
         -4   -1    0    0    0  501 -0.00000000000E+00  0.00000000000E+00  0.86209990546E+03  0.86209990546E+03  0.00000000000E+00 0.  1.
          4   -1    0    0  501    0  0.00000000000E+00 -0.00000000000E+00 -0.30910984162E+02  0.30910984162E+02  0.00000000000E+00 0. -1.
         23    2    1    2    0    0  0.59047210536E+02 -0.10609839052E+03  0.39207619946E+03  0.42056638121E+03  0.91700017883E+02 0.  0.
          5    1    1    2  502    0 -0.50617714893E+02  0.12615626950E+03  0.27443904236E+03  0.30628714920E+03  0.41800000000E+01 0.  1.
         -5    1    1    2    0  502 -0.84294956432E+01 -0.20057878986E+02  0.16467367948E+03  0.16615735921E+03  0.41800000000E+01 0.  1.
        -11    1    3    3    0    0 -0.18939587604E+02 -0.56148265586E+02  0.16581855764E+03  0.17608841462E+03  0.00000000000E+00 0.  1.
         11    1    3    3    0    0  0.77986798141E+02 -0.49950124931E+02  0.22625764182E+03  0.24447796659E+03  0.00000000000E+00 0. -1.
</event>
<event>
 7    1  0.5137842E-006  0.1528867E+03  0.7561462E-02  0.1196970E+00
         -1   -1    0    0    0  501 -0.00000000000E+00  0.00000000000E+00  0.57892112255E+03  0.57892112255E+03  0.00000000000E+00 0. -1.
          1   -1    0    0  501    0  0.00000000000E+00 -0.00000000000E+00 -0.85340454838E+02  0.85340454838E+02  0.00000000000E+00 0.  1.
         23    2    1    2    0    0 -0.10498922308E+03  0.89391689317E+02  0.33214758912E+02  0.16767428525E+03  0.89430613562E+02 0.  0.
          5    1    1    2  502    0  0.41549552934E+02 -0.84164528163E+02  0.39191458670E+03  0.40301929088E+03  0.41800000000E+01 0. -1.
         -5    1    1    2    0  502  0.63439670151E+02 -0.52271611545E+01  0.68451322101E+02  0.93568001261E+02  0.41800000000E+01 0. -1.
        -11    1    3    3    0    0 -0.83690685206E+02  0.37063930391E+02 -0.15794031708E+02  0.92883352458E+02  0.00000000000E+00 0.  1.
         11    1    3    3    0    0 -0.21298537879E+02  0.52327758927E+02  0.49008790620E+02  0.74790932793E+02  0.00000000000E+00 0. -1.
</event>
<event>
 7    1  0.5137842E-006  0.1099683E+03  0.7561462E-02  0.1260629E+00
         -3   -1    0    0    0  501 -0.00000000000E+00  0.00000000000E+00  0.12871238554E+03  0.12871238554E+03  0.00000000000E+00 0.  1.
          3   -1    0    0  501    0  0.00000000000E+00 -0.00000000000E+00 -0.13449468127E+03  0.13449468127E+03  0.00000000000E+00 0. -1.
         23    2    1    2    0    0  0.33885745716E+02  0.47223306903E+02 -0.50170354381E+02  0.11833892723E+03  0.90048613329E+02 0.  0.
          5    1    1    2  502    0  0.34073608147E+02 -0.27538162312E+02 -0.20704663570E+02  0.48636577277E+02  0.41800000000E+01 0.  1.
         -5    1    1    2    0  502 -0.67959353863E+02 -0.19685144592E+02  0.65092722227E+02  0.96231562297E+02  0.41800000000E+01 0.  1.
        -11    1    3    3    0    0  0.55905141987E+02  0.34021775013E+01 -0.14979303246E+02  0.57977057860E+02  0.00000000000E+00 0.  1.
         11    1    3    3    0    0 -0.22019396272E+02  0.43821129402E+02 -0.35191051135E+02  0.60361869374E+02  0.00000000000E+00 0. -1.
</event>
<event>
 7    1  0.5137842E-006  0.1162812E+03  0.7561462E-02  0.1249361E+00
          4   -1    0    0  501    0  0.00000000000E+00  0.00000000000E+00  0.43753066010E+02  0.43753066010E+02  0.00000000000E+00 0. -1.
         -4   -1    0    0    0  501 -0.00000000000E+00 -0.00000000000E+00 -0.68431522425E+03  0.68431522425E+03  0.00000000000E+00 0.  1.
         23    2    1    2    0    0 -0.24138748922E+01 -0.10253395963E+03 -0.11865221427E+03  0.18166469052E+03  0.91676999088E+02 0.  0.
          5    1    1    2  502    0  0.94869022984E+01  0.95307245366E+02 -0.17679657397E+03  0.20111681507E+03  0.41800000000E+01 0. -1.
         -5    1    1    2    0  502 -0.70730274062E+01  0.72267142662E+01 -0.34511337000E+03  0.34528678467E+03  0.41800000000E+01 0. -1.
        -11    1    3    3    0    0  0.33225945261E+02 -0.70042355916E+02 -0.10685578010E+03  0.13201535063E+03  0.00000000000E+00 0.  1.
         11    1    3    3    0    0 -0.35639820154E+02 -0.32491603716E+02 -0.11796434166E+02  0.49649339891E+02  0.00000000000E+00 0. -1.
</event>
<event>
 7    1  0.5137842E-006  0.1139715E+03  0.7561462E-02  0.1253387E+00
         -3   -1    0    0    0  501 -0.00000000000E+00  0.00000000000E+00  0.51007253633E+03  0.51007253633E+03  0.00000000000E+00 0.  1.
          3   -1    0    0  501    0  0.00000000000E+00 -0.00000000000E+00 -0.34575127101E+02  0.34575127101E+02  0.00000000000E+00 0. -1.
         23    2    1    2    0    0  0.55311114499E+02  0.43230909040E+02  0.15293382541E+03  0.19162842390E+03  0.91675880182E+02 0.  0.
          5    1    1    2  502    0  0.73279873550E+01  0.21046026201E+02  0.19875788243E+03  0.20004700159E+03  0.41800000000E+01 0.  1.
         -5    1    1    2    0  502 -0.62639101854E+02 -0.64276935241E+02  0.12380570139E+03  0.15297223794E+03  0.41800000000E+01 0.  1.
        -11    1    3    3    0    0  0.29204743320E+02 -0.27445593422E+02  0.55702072495E+02  0.68621414375E+02  0.00000000000E+00 0.  1.
         11    1    3    3    0    0  0.26106371178E+02  0.70676502462E+02  0.97231752914E+02  0.12300700952E+03  0.00000000000E+00 0. -1.
</event>
<event>
 7    1  0.5137842E-006  0.1575819E+03  0.7561462E-02  0.1191454E+00
         -1   -1    0    0    0  501 -0.00000000000E+00  0.00000000000E+00  0.87335619083E+03  0.87335619083E+03  0.00000000000E+00 0.  1.
          1   -1    0    0  501    0  0.00000000000E+00 -0.00000000000E+00 -0.42378974801E+02  0.42378974801E+02  0.00000000000E+00 0. -1.
         23    2    1    2    0    0 -0.96281972361E+02 -0.61774718700E+02  0.14809447575E+03  0.20742172552E+03  0.89473260787E+02 0.  0.
          5    1    1    2  502    0 -0.12877745584E+02 -0.33949603893E+02  0.76569920487E+02  0.84845960771E+02  0.41800000000E+01 0. -1.
         -5    1    1    2    0  502  0.10915971795E+03  0.95724322593E+02  0.60631281979E+03  0.62346747935E+03  0.41800000000E+01 0.  1.
        -11    1    3    3    0    0 -0.10420472365E+03 -0.42518110935E+02  0.14882210990E+03  0.18658626579E+03  0.00000000000E+00 0. -1.
         11    1    3    3    0    0  0.79227512858E+01 -0.19256607765E+02 -0.72763414350E+00  0.20835459726E+02  0.00000000000E+00 0.  1.
</event>
<event>
 7    1  0.5137842E-006  0.7446891E+02  0.7561462E-02  0.1345524E+00
         -2   -1    0    0    0  501 -0.00000000000E+00  0.00000000000E+00  0.12423164834E+03  0.12423164834E+03  0.00000000000E+00 0.  1.
          2   -1    0    0  501    0  0.00000000000E+00 -0.00000000000E+00 -0.12185192044E+03  0.12185192044E+03  0.00000000000E+00 0. -1.
         23    2    1    2    0    0 -0.39341641256E+02 -0.30960221147E+02 -0.27874077284E+02  0.10799353568E+03  0.91538732427E+02 0.  0.
          5    1    1    2  502    0 -0.20091846696E+02 -0.11094090884E+02 -0.33771464898E+02  0.41045650166E+02  0.41800000000E+01 0. -1.
         -5    1    1    2    0  502  0.59433487951E+02  0.42054312031E+02  0.64025270085E+02  0.97044382939E+02  0.41800000000E+01 0. -1.
        -11    1    3    3    0    0 -0.29174880468E+02 -0.12778550191E+02 -0.61027387608E+02  0.68838993555E+02  0.00000000000E+00 0. -1.
         11    1    3    3    0    0 -0.10166760788E+02 -0.18181670956E+02  0.33153310324E+02  0.39154542126E+02  0.00000000000E+00 0.  1.
</event>
<event>
 7    1  0.5137842E-006  0.1303120E+03  0.7561462E-02  0.1226994E+00
         -1   -1    0    0    0  501 -0.00000000000E+00  0.00000000000E+00  0.52822604941E+02  0.52822604941E+02  0.00000000000E+00 0.  1.
          1   -1    0    0  501    0  0.00000000000E+00 -0.00000000000E+00 -0.64160963892E+03  0.64160963892E+03  0.00000000000E+00 0. -1.
         23    2    1    2    0    0 -0.40255616686E+02 -0.76258537892E+02 -0.51927295391E+03  0.53483505823E+03  0.94700895351E+02 0.  0.
          5    1    1    2  502    0  0.32586996896E+02 -0.23270787642E+02 -0.36581360893E+02  0.54397704813E+02  0.41800000000E+01 0. -1.
         -5    1    1    2    0  502  0.76686197900E+01  0.99529325534E+02 -0.32932719176E+02  0.10519948081E+03  0.41800000000E+01 0.  1.
        -11    1    3    3    0    0  0.94254709166E+01 -0.69705891852E+02 -0.38796437570E+03  0.39428937048E+03  0.00000000000E+00 0. -1.
         11    1    3    3    0    0 -0.49681087602E+02 -0.65526460402E+01 -0.13130857820E+03  0.14054568775E+03  0.00000000000E+00 0.  1.
</event>
<event>
 7    1  0.5137842E-006  0.1793898E+03  0.7561462E-02  0.1168395E+00
          2   -1    0    0  501    0  0.00000000000E+00  0.00000000000E+00  0.48701893277E+03  0.48701893277E+03  0.00000000000E+00 0. -1.
         -2   -1    0    0    0  501 -0.00000000000E+00 -0.00000000000E+00 -0.91907101667E+02  0.91907101667E+02  0.00000000000E+00 0.  1.
         23    2    1    2    0    0 -0.14639735156E+03 -0.56939582897E+02  0.31156883693E+03  0.36143781611E+03  0.94275416338E+02 0.  0.
          5    1    1    2  502    0  0.67212810673E+02  0.88667701527E+02  0.68616118009E+02  0.13078672434E+03  0.41800000000E+01 0.  1.
         -5    1    1    2    0  502  0.79184540883E+02 -0.31728118629E+02  0.14926876156E+02  0.86701493980E+02  0.41800000000E+01 0.  1.
        -11    1    3    3    0    0 -0.61656696615E+02 -0.45268459930E+02  0.23320468340E+03  0.24542861704E+03  0.00000000000E+00 0. -1.
         11    1    3    3    0    0 -0.84740654941E+02 -0.11671122968E+02  0.78364153538E+02  0.11600919908E+03  0.00000000000E+00 0.  1.
</event>
<event>
 7    1  0.5137842E-006  0.5836253E+02  0.7561462E-02  0.1404835E+00
          2   -1    0    0  501    0  0.00000000000E+00  0.00000000000E+00  0.20665523676E+03  0.20665523676E+03  0.00000000000E+00 0. -1.
         -2   -1    0    0    0  501 -0.00000000000E+00 -0.00000000000E+00 -0.65707569363E+02  0.65707569363E+02  0.00000000000E+00 0.  1.
         23    2    1    2    0    0 -0.17243964031E+02 -0.14196739426E+02  0.10782446922E+03  0.14105206611E+03  0.88151389584E+02 0.  0.
          5    1    1    2  502    0  0.25029348711E+02  0.12763510625E+02  0.79320993748E+02  0.84253593095E+02  0.41800000000E+01 0.  1.
         -5    1    1    2    0  502 -0.77853846794E+01  0.14332288008E+01 -0.46197795577E+02  0.47057146912E+02  0.41800000000E+01 0.  1.
        -11    1    3    3    0    0 -0.47199927599E+02 -0.26850119940E+01  0.27827453162E+02  0.54858086042E+02  0.00000000000E+00 0.  1.
         11    1    3    3    0    0  0.29955963567E+02 -0.11511727432E+02  0.79997016061E+02  0.86193980071E+02  0.00000000000E+00 0. -1.
</event>
<event>
 7    1  0.5137842E-006  0.1042737E+03  0.7561462E-02  0.1271557E+00
          1   -1    0    0  501    0  0.00000000000E+00  0.00000000000E+00  0.80581673263E+02  0.80581673263E+02  0.00000000000E+00 0. -1.
         -1   -1    0    0    0  501 -0.00000000000E+00 -0.00000000000E+00 -0.16363949011E+03  0.16363949011E+03  0.00000000000E+00 0.  1.
         23    2    1    2    0    0  0.81347649033E+01 -0.32350253607E+02 -0.16052412389E+02  0.98450227530E+02  0.91225292813E+02 0.  0.
          5    1    1    2  502    0  0.18582636325E+01 -0.40432695017E+02 -0.59113398773E+02  0.71764352464E+02  0.41800000000E+01 0. -1.
         -5    1    1    2    0  502 -0.99930285358E+01  0.72782948624E+02 -0.78920056864E+01  0.74006583379E+02  0.41800000000E+01 0. -1.
        -11    1    3    3    0    0 -0.18698382348E+01 -0.62488609072E+02  0.75493834868E+00  0.62521136352E+02  0.00000000000E+00 0. -1.
         11    1    3    3    0    0  0.10004603138E+02  0.30138355465E+02 -0.16807350738E+02  0.35929091179E+02  0.00000000000E+00 0.  1.
</event>
<event>
 7    1  0.5137842E-006  0.3108895E+03  0.7561462E-02  0.1079920E+00
         -3   -1    0    0    0  501 -0.00000000000E+00  0.00000000000E+00  0.29074698672E+04  0.29074698672E+04  0.00000000000E+00 0.  1.
          3   -1    0    0  501    0  0.00000000000E+00 -0.00000000000E+00 -0.57883490546E+02  0.57883490546E+02  0.00000000000E+00 0. -1.
         23    2    1    2    0    0 -0.27340692392E+03 -0.14492225285E+03  0.51977669586E+03  0.61175738254E+03  0.91244047008E+02 0.  0.
          5    1    1    2  502    0  0.56540179263E+02  0.44818703835E+02  0.25387902646E+03  0.26396503663E+03  0.41800000000E+01 0.  1.
         -5    1    1    2    0  502  0.21686674466E+03  0.10010354901E+03  0.20759306543E+04  0.20896309386E+04  0.41800000000E+01 0.  1.
        -11    1    3    3    0    0 -0.14216213722E+03 -0.90577130775E+02  0.36281052826E+03  0.40005720753E+03  0.00000000000E+00 0.  1.
         11    1    3    3    0    0 -0.13124478670E+03 -0.54345122071E+02  0.15696616760E+03  0.21170017501E+03  0.00000000000E+00 0. -1.
</event>
<event>
 7    1  0.5137842E-006  0.1568189E+03  0.7561462E-02  0.1192336E+00
          1   -1    0    0  501    0  0.00000000000E+00  0.00000000000E+00  0.33163506674E+03  0.33163506674E+03  0.00000000000E+00 0. -1.
         -1   -1    0    0    0  501 -0.00000000000E+00 -0.00000000000E+00 -0.14546634992E+03  0.14546634992E+03  0.00000000000E+00 0.  1.
         23    2    1    2    0    0  0.86769354289E+02 -0.95278919290E+02  0.24129657496E+03  0.28923650247E+03  0.93950646450E+02 0.  0.
          5    1    1    2  502    0  0.31746625765E+02  0.31547897190E+02 -0.14807280111E+02  0.47327011409E+02  0.41800000000E+01 0.  1.
         -5    1    1    2    0  502 -0.11851598005E+03  0.63731022099E+02 -0.40320578027E+02  0.14053790278E+03  0.41800000000E+01 0.  1.
        -11    1    3    3    0    0  0.43385945191E+02 -0.73894238469E+02  0.68222013402E+02  0.10953055205E+03  0.00000000000E+00 0.  1.
         11    1    3    3    0    0  0.43383409098E+02 -0.21384680820E+02  0.17307456156E+03  0.17970595042E+03  0.00000000000E+00 0. -1.
</event>
<event>
 7    1  0.5137842E-006  0.1038391E+03  0.7561462E-02  0.1272424E+00
         -1   -1    0    0    0  501 -0.00000000000E+00  0.00000000000E+00  0.16880226711E+02  0.16880226711E+02  0.00000000000E+00 0.  1.
          1   -1    0    0  501    0  0.00000000000E+00 -0.00000000000E+00 -0.78054387256E+03  0.78054387256E+03  0.00000000000E+00 0. -1.
         23    2    1    2    0    0  0.28695378995E+02 -0.35254234446E+02 -0.41324861483E+03  0.42646968898E+03  0.95056257721E+02 0.  0.
          5    1    1    2  502    0 -0.60350898928E+02 -0.33906391876E+01 -0.11212839198E+03  0.12745185806E+03  0.41800000000E+01 0. -1.
         -5    1    1    2    0  502  0.31655519933E+02  0.38644873634E+02 -0.23828663904E+03  0.24350255223E+03  0.41800000000E+01 0.  1.
        -11    1    3    3    0    0  0.54639816892E+01  0.28543797277E+02 -0.58954590097E+02  0.65728587025E+02  0.00000000000E+00 0. -1.
         11    1    3    3    0    0  0.23231397306E+02 -0.63798031724E+02 -0.35429402474E+03  0.36074110195E+03  0.00000000000E+00 0.  1.
</event>
<event>
 7    1  0.5137842E-006  0.9111913E+02  0.7561462E-02  0.1300164E+00
          1   -1    0    0  501    0  0.00000000000E+00  0.00000000000E+00  0.16038457248E+03  0.16038457248E+03  0.00000000000E+00 0. -1.
         -1   -1    0    0    0  501 -0.00000000000E+00 -0.00000000000E+00 -0.80119842393E+02  0.80119842393E+02  0.00000000000E+00 0.  1.
         23    2    1    2    0    0 -0.13580399632E+02  0.92676551173E+01  0.36643427680E+02  0.99325381785E+02  0.90843128463E+02 0.  0.
          5    1    1    2  502    0  0.54304212697E+02  0.15507329200E+02  0.67162891859E+02  0.87850732600E+02  0.41800000000E+01 0. -1.
         -5    1    1    2    0  502 -0.40723813065E+02 -0.24774984317E+02 -0.23541589456E+02  0.53328300484E+02  0.41800000000E+01 0.  1.
        -11    1    3    3    0    0 -0.45319645287E+02  0.77904728345E+01  0.47148671801E+02  0.65860147043E+02  0.00000000000E+00 0.  1.
         11    1    3    3    0    0  0.31739245655E+02  0.14771822828E+01 -0.10505244121E+02  0.33465234741E+02  0.00000000000E+00 0. -1.
</event>
<event>
 7    1  0.5137842E-006  0.1226105E+03  0.7561462E-02  0.1238852E+00
          1   -1    0    0  501    0  0.00000000000E+00  0.00000000000E+00  0.39852805725E+03  0.39852805725E+03  0.00000000000E+00 0. -1.
         -1   -1    0    0    0  501 -0.00000000000E+00 -0.00000000000E+00 -0.47665150000E+02  0.47665150000E+02  0.00000000000E+00 0.  1.
         23    2    1    2    0    0 -0.19999769178E+02  0.63089994785E+02  0.24249904843E+03  0.26795179734E+03  0.92801072178E+02 0.  0.
          5    1    1    2  502    0 -0.11937254178E+02 -0.89015298680E+02  0.10272108526E+03  0.13651122735E+03  0.41800000000E+01 0. -1.
         -5    1    1    2    0  502  0.31937023356E+02  0.25925303895E+02  0.56427735591E+01  0.41730182558E+02  0.41800000000E+01 0. -1.
        -11    1    3    3    0    0  0.56106036641E+01  0.81960946885E+02  0.17257572961E+03  0.19113204372E+03  0.00000000000E+00 0. -1.
         11    1    3    3    0    0 -0.25610372842E+02 -0.18870952100E+02  0.69923318825E+02  0.76819753617E+02  0.00000000000E+00 0.  1.
</event>
<event>
 7    1  0.1097517E-005  0.2913533E+03  0.7561462E-02  0.1089645E+00
          2   -1    0    0  501    0  0.00000000000E+00  0.00000000000E+00  0.19793131844E+04  0.19793131844E+04  0.00000000000E+00 0. -1.
         -2   -1    0    0    0  501 -0.00000000000E+00 -0.00000000000E+00 -0.55256401583E+02  0.55256401583E+02  0.00000000000E+00 0.  1.
         23    2    1    2    0    0 -0.20973982176E+03 -0.17635883389E+03  0.14065211946E+04  0.14357508395E+04  0.89360903843E+02 0.  0.
          5    1    1    2  502    0  0.32806199449E+02  0.10523090845E+03  0.17958242295E+03  0.21075367102E+03  0.41800000000E+01 0. -1.
         -5    1    1    2    0  502  0.17693362231E+03  0.71127925437E+02  0.33795316528E+03  0.38806507547E+03  0.41800000000E+01 0. -1.
        -11    1    3    3    0    0 -0.11991809426E+03 -0.58361791693E+02  0.51543365797E+03  0.53240802382E+03  0.00000000000E+00 0.  1.
         11    1    3    3    0    0 -0.89821727505E+02 -0.11799704220E+03  0.89108753659E+03  0.90334281564E+03  0.00000000000E+00 0. -1.
</event>
<event>
 7    1  0.5137842E-006  0.1096713E+03  0.7561462E-02  0.1261180E+00
         -2   -1    0    0    0  501 -0.00000000000E+00  0.00000000000E+00  0.41079339755E+02  0.41079339755E+02  0.00000000000E+00 0.  1.
          2   -1    0    0  501    0  0.00000000000E+00 -0.00000000000E+00 -0.32015682357E+03  0.32015682357E+03  0.00000000000E+00 0. -1.
         23    2    1    2    0    0 -0.11209106013E+02  0.24626513582E+02 -0.15418255200E+03  0.18241194988E+03  0.93646948102E+02 0.  0.
          5    1    1    2  502    0  0.67750504074E+02 -0.19944933682E+02 -0.75707986957E+02  0.10361999262E+03  0.41800000000E+01 0. -1.
         -5    1    1    2    0  502 -0.56541398061E+02 -0.46815799002E+01 -0.49186944854E+02  0.75204220820E+02  0.41800000000E+01 0. -1.
        -11    1    3    3    0    0  0.34165071571E+02 -0.88799988700E+01 -0.31202263774E+02  0.47113562379E+02  0.00000000000E+00 0.  1.
         11    1    3    3    0    0 -0.45374177584E+02  0.33506512452E+02 -0.12298028823E+03  0.13529838750E+03  0.00000000000E+00 0. -1.
</event>
<event>
 7    1  0.5137842E-006  0.1125879E+03  0.7561462E-02  0.1255851E+00
          2   -1    0    0  501    0  0.00000000000E+00  0.00000000000E+00  0.94592496419E+02  0.94592496419E+02  0.00000000000E+00 0. -1.
         -2   -1    0    0    0  501 -0.00000000000E+00 -0.00000000000E+00 -0.23842153989E+03  0.23842153989E+03  0.00000000000E+00 0.  1.
         23    2    1    2    0    0  0.46988314735E+02 -0.50940304573E+02  0.21305222432E+02  0.11457042672E+03  0.88711069344E+02 0.  0.
          5    1    1    2  502    0 -0.72449515022E+02  0.18955935991E+01 -0.43123756871E+02  0.84437292168E+02  0.41800000000E+01 0. -1.
         -5    1    1    2    0  502  0.25461200287E+02  0.49044710974E+02 -0.12201050903E+03  0.13400631742E+03  0.41800000000E+01 0. -1.
        -11    1    3    3    0    0  0.64729074491E+02 -0.36663666387E+02  0.40577008970E+02  0.84738250952E+02  0.00000000000E+00 0.  1.
         11    1    3    3    0    0 -0.17740759756E+02 -0.14276638186E+02 -0.19271786539E+02  0.29832175767E+02  0.00000000000E+00 0. -1.
</event>
<event>
 7    1  0.5137842E-006  0.1515050E+03  0.7561462E-02  0.1198636E+00
         -2   -1    0    0    0  501 -0.00000000000E+00  0.00000000000E+00  0.23336705860E+03  0.23336705860E+03  0.00000000000E+00 0.  1.
          2   -1    0    0  501    0  0.00000000000E+00 -0.00000000000E+00 -0.10570078075E+03  0.10570078075E+03  0.00000000000E+00 0. -1.
         23    2    1    2    0    0  0.96062783991E+02 -0.59429217777E+02  0.43410691972E+02  0.15063673790E+03  0.89705341168E+02 0.  0.
          5    1    1    2  502    0 -0.73533865322E+02  0.97634280358E+02  0.73193711195E+02  0.14252885255E+03  0.41800000000E+01 0.  1.
         -5    1    1    2    0  502 -0.22528918669E+02 -0.38205062581E+02  0.11061874682E+02  0.45902248907E+02  0.41800000000E+01 0.  1.
        -11    1    3    3    0    0 -0.13162250604E+02 -0.45681288417E+01  0.22745564966E+02  0.26673458113E+02  0.00000000000E+00 0.  1.
         11    1    3    3    0    0  0.10922503459E+03 -0.54861088935E+02  0.20665127006E+02  0.12396327979E+03  0.00000000000E+00 0. -1.
</event>
<event>
 7    1  0.5137842E-006  0.8064253E+02  0.7561462E-02  0.1327238E+00
          2   -1    0    0  501    0  0.00000000000E+00  0.00000000000E+00  0.14832221352E+03  0.14832221352E+03  0.00000000000E+00 0. -1.
         -2   -1    0    0    0  501 -0.00000000000E+00 -0.00000000000E+00 -0.91849065907E+02  0.91849065907E+02  0.00000000000E+00 0.  1.
         23    2    1    2    0    0 -0.30774886620E+02 -0.54505831205E+01  0.57910459349E+02  0.11122654368E+03  0.89671178282E+02 0.  0.
          5    1    1    2  502    0  0.69772241804E+02 -0.29989685729E+02 -0.18616498161E+01  0.76082094586E+02  0.41800000000E+01 0.  1.
         -5    1    1    2    0  502 -0.38997355184E+02  0.35440268850E+02  0.42433807985E+00  0.52862641159E+02  0.41800000000E+01 0.  1.
        -11    1    3    3    0    0 -0.17728048899E+02  0.11071973220E+01 -0.22971013253E+02  0.29037511146E+02  0.00000000000E+00 0.  1.
         11    1    3    3    0    0 -0.13046837721E+02 -0.65577804424E+01  0.80881472602E+02  0.82189032535E+02  0.00000000000E+00 0. -1.
</event>
<event>
 7    1  0.5137842E-006  0.2296824E+03  0.7561462E-02  0.1126863E+00
          1   -1    0    0  501    0  0.00000000000E+00  0.00000000000E+00  0.11475278571E+04  0.11475278571E+04  0.00000000000E+00 0. -1.
         -1   -1    0    0    0  501 -0.00000000000E+00 -0.00000000000E+00 -0.60835445679E+02  0.60835445679E+02  0.00000000000E+00 0.  1.
         23    2    1    2    0    0 -0.20350595456E+03 -0.59177941561E+02  0.78993333098E+03  0.82283775067E+03  0.90280641511E+02 0.  0.
          5    1    1    2  502    0  0.16067000002E+03  0.46324971376E+01  0.26304748819E+03  0.30829817122E+03  0.41800000000E+01 0. -1.
         -5    1    1    2    0  502  0.42835954544E+02  0.54545444423E+02  0.33711592281E+02  0.77227380916E+02  0.41800000000E+01 0. -1.
        -11    1    3    3    0    0 -0.15081872116E+03 -0.82006865703E+02  0.62724570720E+03  0.65031422395E+03  0.00000000000E+00 0.  1.
         11    1    3    3    0    0 -0.52687233404E+02  0.22828924142E+02  0.16268762378E+03  0.17252352672E+03  0.00000000000E+00 0. -1.
</event>
<event>
 7    1  0.5137842E-006  0.6355243E+02  0.7561462E-02  0.1383501E+00
         -2   -1    0    0    0  501 -0.00000000000E+00  0.00000000000E+00  0.12882454182E+03  0.12882454182E+03  0.00000000000E+00 0.  1.
          2   -1    0    0  501    0  0.00000000000E+00 -0.00000000000E+00 -0.15058316763E+03  0.15058316763E+03  0.00000000000E+00 0. -1.
         23    2    1    2    0    0 -0.16403102317E+02 -0.21696054299E+02 -0.92458541546E+02  0.13316487574E+03  0.91894078642E+02 0.  0.
          5    1    1    2  502    0  0.17724327988E+02 -0.19831161581E+02  0.94443677225E+02  0.98206452639E+02  0.41800000000E+01 0.  1.
         -5    1    1    2    0  502 -0.13212256707E+01  0.41527215879E+02 -0.23743761491E+02  0.48036381064E+02  0.41800000000E+01 0.  1.
        -11    1    3    3    0    0 -0.33320334623E+02 -0.24389327082E+02 -0.22604190974E+01  0.41354485481E+02  0.00000000000E+00 0.  1.
         11    1    3    3    0    0  0.16917232305E+02  0.26932727834E+01 -0.90198122449E+02  0.91810390264E+02  0.00000000000E+00 0. -1.
</event>
<event>
 7    1  0.5137842E-006  0.1001272E+03  0.7561462E-02  0.1280029E+00
         -2   -1    0    0    0  501 -0.00000000000E+00  0.00000000000E+00  0.77954146257E+03  0.77954146257E+03  0.00000000000E+00 0.  1.
          2   -1    0    0  501    0  0.00000000000E+00 -0.00000000000E+00 -0.22724040358E+02  0.22724040358E+02  0.00000000000E+00 0. -1.
         23    2    1    2    0    0 -0.65654040303E+01 -0.61017156141E+02  0.16553143209E+03  0.19478505338E+03  0.82306525469E+02 0.  0.
          5    1    1    2  502    0  0.55295884337E+02  0.21683348068E+02  0.43510224036E+03  0.43915741412E+03  0.41800000000E+01 0. -1.
         -5    1    1    2    0  502 -0.48730480307E+02  0.39333808073E+02  0.15618374976E+03  0.16832303543E+03  0.41800000000E+01 0. -1.
        -11    1    3    3    0    0  0.19606489527E+02 -0.13843569894E+02  0.38084424348E+01  0.24301503919E+02  0.00000000000E+00 0. -1.
         11    1    3    3    0    0 -0.26171893557E+02 -0.47173586247E+02  0.16172298966E+03  0.17048354946E+03  0.00000000000E+00 0.  1.
</event>
<event>
 7    1  0.5137842E-006  0.1107541E+03  0.7561462E-02  0.1259180E+00
         -3   -1    0    0    0  501 -0.00000000000E+00  0.00000000000E+00  0.24452595120E+03  0.24452595120E+03  0.00000000000E+00 0.  1.
          3   -1    0    0  501    0  0.00000000000E+00 -0.00000000000E+00 -0.58836278504E+02  0.58836278504E+02  0.00000000000E+00 0. -1.
         23    2    1    2    0    0  0.84847146461E+01 -0.50048907729E+02  0.86992269637E+02  0.13613103629E+03  0.91581223607E+02 0.  0.
          5    1    1    2  502    0 -0.49143357810E+02 -0.81956791118E+01  0.78841269044E+02  0.93357682477E+02  0.41800000000E+01 0.  1.
         -5    1    1    2    0  502  0.40658643164E+02  0.58244586841E+02  0.19856134016E+02  0.73873510938E+02  0.41800000000E+01 0.  1.
        -11    1    3    3    0    0  0.44891619685E+02 -0.45065951154E+02  0.35419608872E+02  0.72806223388E+02  0.00000000000E+00 0.  1.
         11    1    3    3    0    0 -0.36406905039E+02 -0.49829565750E+01  0.51572660765E+02  0.63324812902E+02  0.00000000000E+00 0. -1.
</event>
<event>
 7    1  0.5137842E-006  0.1203390E+03  0.7561462E-02  0.1242539E+00
         -1   -1    0    0    0  501 -0.00000000000E+00  0.00000000000E+00  0.31579637143E+02  0.31579637143E+02  0.00000000000E+00 0.  1.
          1   -1    0    0  501    0  0.00000000000E+00 -0.00000000000E+00 -0.49306948275E+03  0.49306948275E+03  0.00000000000E+00 0. -1.
         23    2    1    2    0    0 -0.65868638905E+01  0.34539963548E+02 -0.27770036773E+03  0.29956634500E+03  0.10670569321E+03 0.  0.
          5    1    1    2  502    0  0.20245743189E+02  0.44324758572E+02 -0.82649233746E+02  0.96036152456E+02  0.41800000000E+01 0. -1.
         -5    1    1    2    0  502 -0.13658879298E+02 -0.78864722120E+02 -0.10114024413E+03  0.12904662244E+03  0.41800000000E+01 0. -1.
        -11    1    3    3    0    0 -0.19961239864E+02 -0.35278175494E+02 -0.11772064954E+03  0.12450362280E+03  0.00000000000E+00 0. -1.
         11    1    3    3    0    0  0.13374375973E+02  0.69818139042E+02 -0.15997971819E+03  0.17506272220E+03  0.00000000000E+00 0.  1.
</event>
<event>
 7    1  0.5137842E-006  0.8201076E+02  0.7561462E-02  0.1323440E+00
          2   -1    0    0  501    0  0.00000000000E+00  0.00000000000E+00  0.57355731291E+03  0.57355731291E+03  0.00000000000E+00 0. -1.
         -2   -1    0    0    0  501 -0.00000000000E+00 -0.00000000000E+00 -0.24286678882E+02  0.24286678882E+02  0.00000000000E+00 0.  1.
         23    2    1    2    0    0 -0.45575861915E+01 -0.46217207122E+02  0.21860743356E+03  0.24127330935E+03  0.90921933392E+02 0.  0.
          5    1    1    2  502    0  0.18005456972E+02  0.45476205744E+02  0.34330752353E+02  0.59902877450E+02  0.41800000000E+01 0. -1.
         -5    1    1    2    0  502 -0.13447870780E+02  0.74100137751E+00  0.29633244812E+03  0.29666780499E+03  0.41800000000E+01 0. -1.
        -11    1    3    3    0    0  0.16565695283E+02  0.23066140401E+02  0.79831449752E+02  0.84732104086E+02  0.00000000000E+00 0. -1.
         11    1    3    3    0    0 -0.21123281475E+02 -0.69283347523E+02  0.13877598380E+03  0.15654120526E+03  0.00000000000E+00 0.  1.
</event>
<event>
 7    1  0.5137842E-006  0.1256183E+03  0.7561462E-02  0.1234106E+00
          1   -1    0    0  501    0  0.00000000000E+00  0.00000000000E+00  0.15045892599E+04  0.15045892599E+04  0.00000000000E+00 0. -1.
         -1   -1    0    0    0  501 -0.00000000000E+00 -0.00000000000E+00 -0.10496357391E+02  0.10496357391E+02  0.00000000000E+00 0.  1.
         23    2    1    2    0    0 -0.65745144158E+02 -0.11899672266E+02  0.62978852623E+03  0.63922376000E+03  0.86656802407E+02 0.  0.
          5    1    1    2  502    0  0.85068887194E+02 -0.34101647442E+02  0.55703882204E+03  0.56454349663E+03  0.41800000000E+01 0. -1.
         -5    1    1    2    0  502 -0.19323743036E+02  0.46001319708E+02  0.30726555420E+03  0.31131836062E+03  0.41800000000E+01 0. -1.
        -11    1    3    3    0    0 -0.81429240603E+02  0.10472127765E+02  0.47114990879E+03  0.47824954076E+03  0.00000000000E+00 0. -1.
         11    1    3    3    0    0  0.15684096445E+02 -0.22371800031E+02  0.15863861744E+03  0.16097421924E+03  0.00000000000E+00 0.  1.
</event>
<event>
 7    1  0.5137842E-006  0.1418223E+03  0.7561462E-02  0.1210898E+00
          2   -1    0    0  501    0  0.00000000000E+00  0.00000000000E+00  0.13733198158E+04  0.13733198158E+04  0.00000000000E+00 0. -1.
         -2   -1    0    0    0  501 -0.00000000000E+00 -0.00000000000E+00 -0.18131781449E+02  0.18131781449E+02  0.00000000000E+00 0.  1.
         23    2    1    2    0    0  0.10302415716E+03  0.39692528091E+02  0.53751875439E+03  0.55693308272E+03  0.95176538881E+02 0.  0.
          5    1    1    2  502    0 -0.12091866542E+01  0.35231989007E+02  0.10853968148E+03  0.11419759209E+03  0.41800000000E+01 0. -1.
         -5    1    1    2    0  502 -0.10181497051E+03 -0.74924517098E+02  0.70912959844E+03  0.72032092241E+03  0.41800000000E+01 0. -1.
        -11    1    3    3    0    0  0.15560528186E+02 -0.12369621622E+02  0.15840351192E+02  0.25417598281E+02  0.00000000000E+00 0.  1.
         11    1    3    3    0    0  0.87463628978E+02  0.52062149713E+02  0.52167840320E+03  0.53151548443E+03  0.00000000000E+00 0. -1.
</event>
<event>
 7    1  0.5137842E-006  0.1378403E+03  0.7561462E-02  0.1216265E+00
         -1   -1    0    0    0  501 -0.00000000000E+00  0.00000000000E+00  0.95929170957E+02  0.95929170957E+02  0.00000000000E+00 0.  1.
          1   -1    0    0  501    0  0.00000000000E+00 -0.00000000000E+00 -0.27296029761E+03  0.27296029761E+03  0.00000000000E+00 0. -1.
         23    2    1    2    0    0  0.10376954950E+03 -0.64715923910E+02 -0.97661206520E+02  0.17678581353E+03  0.82214611824E+02 0.  0.
          5    1    1    2  502    0 -0.32464188671E+02  0.43757098317E+02 -0.10078438462E+03  0.11464541763E+03  0.41800000000E+01 0.  1.
         -5    1    1    2    0  502 -0.71305360826E+02  0.20958825593E+02  0.21414464489E+02  0.77458237407E+02  0.41800000000E+01 0.  1.
        -11    1    3    3    0    0  0.22723925359E+01 -0.42672580098E+02 -0.36866775520E+02  0.56438213980E+02  0.00000000000E+00 0. -1.
         11    1    3    3    0    0  0.10149715696E+03 -0.22043343812E+02 -0.60794431000E+02  0.12034759955E+03  0.00000000000E+00 0.  1.
</event>
<event>
 6    1  0.5137842E-006  0.5238234E+02  0.7561462E-02  0.1432900E+00
         -1   -1    0    0    0  501 -0.00000000000E+00  0.00000000000E+00  0.10032369621E+03  0.10032369621E+03  0.00000000000E+00 0.  1.
          1   -1    0    0  501    0  0.00000000000E+00 -0.00000000000E+00 -0.12262494425E+03  0.12262494425E+03  0.00000000000E+00 0. -1.
          5    1    1    2  502    0  0.11662764112E+02 -0.29232119727E+02 -0.41624176835E+02  0.52350562439E+02  0.41800000000E+01 0. -1.
         -5    1    1    2    0  502 -0.18319920296E+02 -0.12027256357E+02  0.82888808731E+02  0.85838810500E+02  0.41800000000E+01 0. -1.
        -11    1    1    2    0    0  0.14515641477E+02  0.80902744925E+01 -0.56417508811E+01  0.17549522553E+02  0.00000000000E+00 0.  1.
         11    1    1    2    0    0 -0.78584852923E+01  0.33169101591E+02 -0.57924129061E+02  0.67209744970E+02  0.00000000000E+00 0. -1.
</event>
<event>
 7    1  0.5137842E-006  0.1466797E+03  0.7561462E-02  0.1204613E+00
          2   -1    0    0  501    0  0.00000000000E+00  0.00000000000E+00  0.42776735644E+03  0.42776735644E+03  0.00000000000E+00 0. -1.
         -2   -1    0    0    0  501 -0.00000000000E+00 -0.00000000000E+00 -0.60065622590E+02  0.60065622590E+02  0.00000000000E+00 0.  1.
         23    2    1    2    0    0 -0.11780487879E+03 -0.13296463470E+02  0.14922427649E+03  0.20956248732E+03  0.87142217059E+02 0.  0.
          5    1    1    2  502    0  0.99093115569E+02 -0.46505110635E+02  0.13874825223E+03  0.17677873391E+03  0.41800000000E+01 0.  1.
         -5    1    1    2    0  502  0.18711763216E+02  0.59801574105E+02  0.79729205143E+02  0.10149175780E+03  0.41800000000E+01 0.  1.
        -11    1    3    3    0    0 -0.16685829810E+02 -0.10782091559E+02  0.90387050077E+02  0.92544525697E+02  0.00000000000E+00 0. -1.
         11    1    3    3    0    0 -0.10111904898E+03 -0.25143719112E+01  0.58837226409E+02  0.11701796163E+03  0.00000000000E+00 0.  1.
</event>
<event>
 7    1  0.5137842E-006  0.7183398E+02  0.7561462E-02  0.1353965E+00
          1   -1    0    0  501    0  0.00000000000E+00  0.00000000000E+00  0.74472607305E+02  0.74472607305E+02  0.00000000000E+00 0. -1.
         -1   -1    0    0    0  501 -0.00000000000E+00 -0.00000000000E+00 -0.16853385582E+03  0.16853385582E+03  0.00000000000E+00 0.  1.
         23    2    1    2    0    0  0.23793233685E+02 -0.11432998091E+02 -0.25837962025E+02  0.98097003441E+02  0.90876786849E+02 0.  0.
          5    1    1    2  502    0  0.38458935439E+02 -0.12166306325E+02  0.10335901397E+02  0.41849874342E+02  0.41800000000E+01 0.  1.
         -5    1    1    2    0  502 -0.62252169124E+02  0.23599304416E+02 -0.78559187887E+02  0.10305958534E+03  0.41800000000E+01 0.  1.
        -11    1    3    3    0    0  0.21687781967E+02  0.29361503188E+01  0.31830242847E+02  0.38628295652E+02  0.00000000000E+00 0. -1.
         11    1    3    3    0    0  0.21054517186E+01 -0.14369148409E+02 -0.57668204872E+02  0.59468707789E+02  0.00000000000E+00 0.  1.
</event>
<event>
 7    1  0.5137842E-006  0.1019055E+03  0.7561462E-02  0.1276339E+00
          2   -1    0    0  501    0  0.00000000000E+00  0.00000000000E+00  0.10021251961E+03  0.10021251961E+03  0.00000000000E+00 0. -1.
         -2   -1    0    0    0  501 -0.00000000000E+00 -0.00000000000E+00 -0.14606180848E+03  0.14606180848E+03  0.00000000000E+00 0.  1.
         23    2    1    2    0    0  0.42468234537E+02 -0.65133911463E+01  0.12834001712E+02  0.10157501034E+03  0.91141625598E+02 0.  0.
          5    1    1    2  502    0  0.19513825178E+02  0.49148586001E+02 -0.74063641194E+01  0.53560241863E+02  0.41800000000E+01 0. -1.
         -5    1    1    2    0  502 -0.61982059714E+02 -0.42635194855E+02 -0.51276926463E+02  0.91139075891E+02  0.41800000000E+01 0. -1.
        -11    1    3    3    0    0  0.17906416639E+02 -0.34079924329E+02  0.40167140747E+02  0.55637039774E+02  0.00000000000E+00 0. -1.
         11    1    3    3    0    0  0.24561817898E+02  0.27566533183E+02 -0.27333139035E+02  0.45937970565E+02  0.00000000000E+00 0.  1.
</event>
<event>
 7    1  0.5137842E-006  0.1351211E+03  0.7561462E-02  0.1220049E+00
         -2   -1    0    0    0  501 -0.00000000000E+00  0.00000000000E+00  0.81487783140E+02  0.81487783140E+02  0.00000000000E+00 0.  1.
          2   -1    0    0  501    0  0.00000000000E+00 -0.00000000000E+00 -0.32130862402E+03  0.32130862402E+03  0.00000000000E+00 0. -1.
         23    2    1    2    0    0  0.41054025697E+02  0.88754631281E+02 -0.26886053480E+02  0.13717983419E+03  0.92372233036E+02 0.  0.
          5    1    1    2  502    0  0.97065531084E+01 -0.85464245742E+02 -0.19204432128E+03  0.21046816436E+03  0.41800000000E+01 0.  1.
         -5    1    1    2    0  502 -0.50760578805E+02 -0.32903855385E+01 -0.20890466118E+02  0.55148408610E+02  0.41800000000E+01 0.  1.
        -11    1    3    3    0    0  0.57052972027E+02  0.16942217972E+02 -0.21976258649E+02  0.63443173874E+02  0.00000000000E+00 0. -1.
         11    1    3    3    0    0 -0.15998946330E+02  0.71812413308E+02 -0.49097948306E+01  0.73736660313E+02  0.00000000000E+00 0.  1.
</event>
<event>
 7    1  0.5137842E-006  0.9831263E+02  0.7561462E-02  0.1283885E+00
          1   -1    0    0  501    0  0.00000000000E+00  0.00000000000E+00  0.10634037196E+03  0.10634037196E+03  0.00000000000E+00 0. -1.
         -1   -1    0    0    0  501 -0.00000000000E+00 -0.00000000000E+00 -0.12336674030E+03  0.12336674030E+03  0.00000000000E+00 0.  1.
         23    2    1    2    0    0 -0.49077325939E+01 -0.32220545448E+02  0.13512004148E+02  0.96871278597E+02  0.90217631164E+02 0.  0.
          5    1    1    2  502    0 -0.37966074315E+02 -0.11094706578E+02 -0.54282558638E+02  0.67294753772E+02  0.41800000000E+01 0.  1.
         -5    1    1    2    0  502  0.42873806908E+02  0.43315252026E+02  0.23744186158E+02  0.65541079890E+02  0.41800000000E+01 0.  1.
        -11    1    3    3    0    0 -0.34899844257E+02 -0.49940441125E+02  0.11298951508E+02  0.61965418534E+02  0.00000000000E+00 0.  1.
         11    1    3    3    0    0  0.29992111663E+02  0.17719895677E+02  0.22130526395E+01  0.34905860063E+02  0.00000000000E+00 0. -1.
</event>
<event>
 7    1  0.5137842E-006  0.1057687E+03  0.7561462E-02  0.1268613E+00
          1   -1    0    0  501    0  0.00000000000E+00  0.00000000000E+00  0.11353415617E+03  0.11353415617E+03  0.00000000000E+00 0. -1.
         -1   -1    0    0    0  501 -0.00000000000E+00 -0.00000000000E+00 -0.12009549460E+03  0.12009549460E+03  0.00000000000E+00 0.  1.
         23    2    1    2    0    0  0.17391938998E+02 -0.13306759280E+02  0.51361332183E+01  0.10610027612E+03  0.10368866545E+03 0.  0.
          5    1    1    2  502    0 -0.64752391771E+02 -0.40858583825E+01 -0.32632511714E+02  0.72745581993E+02  0.41800000000E+01 0.  1.
         -5    1    1    2    0  502  0.47360452773E+02  0.17392617663E+02  0.20935040058E+02  0.54783792660E+02  0.41800000000E+01 0.  1.
        -11    1    3    3    0    0  0.49433360142E+02 -0.31916998570E+02 -0.19053232482E+02  0.61849636706E+02  0.00000000000E+00 0.  1.
         11    1    3    3    0    0 -0.32041421143E+02  0.18610239290E+02  0.24189365700E+02  0.44250639411E+02  0.00000000000E+00 0. -1.
</event>
<event>
 7    1  0.5137842E-006  0.1107858E+03  0.7561462E-02  0.1259122E+00
          2   -1    0    0  501    0  0.00000000000E+00  0.00000000000E+00  0.16817189846E+03  0.16817189846E+03  0.00000000000E+00 0. -1.
         -2   -1    0    0    0  501 -0.00000000000E+00 -0.00000000000E+00 -0.85109021098E+02  0.85109021098E+02  0.00000000000E+00 0.  1.
         23    2    1    2    0    0 -0.43305943195E+02 -0.74114388133E+01  0.40546694431E+02  0.11405459572E+03  0.97129203817E+02 0.  0.
          5    1    1    2  502    0  0.52644575196E+02 -0.48663149595E+02  0.72009737161E+01  0.72172569918E+02  0.41800000000E+01 0.  1.
         -5    1    1    2    0  502 -0.93386320010E+01  0.56074588408E+02  0.35315209214E+02  0.67053753919E+02  0.41800000000E+01 0.  1.
        -11    1    3    3    0    0 -0.53949590390E+01  0.35265014784E+02 -0.10801507868E+02  0.37274648529E+02  0.00000000000E+00 0.  1.
         11    1    3    3    0    0 -0.37910984156E+02 -0.42676453597E+02  0.51348202298E+02  0.76779947190E+02  0.00000000000E+00 0. -1.
</event>
<event>
 7    1  0.5137842E-006  0.1060993E+03  0.7561462E-02  0.1267969E+00
          3   -1    0    0  501    0  0.00000000000E+00  0.00000000000E+00  0.51175166483E+02  0.51175166483E+02  0.00000000000E+00 0. -1.
         -3   -1    0    0    0  501 -0.00000000000E+00 -0.00000000000E+00 -0.31061301827E+03  0.31061301827E+03  0.00000000000E+00 0.  1.
         23    2    1    2    0    0  0.30543803613E+02 -0.55200134105E+02 -0.93462872549E+02  0.14458957313E+03  0.90503355567E+02 0.  0.
          5    1    1    2  502    0 -0.63093726067E+02  0.39000983977E+02 -0.36738104717E+02  0.82879766881E+02  0.41800000000E+01 0.  1.
         -5    1    1    2    0  502  0.32549922454E+02  0.16199150128E+02 -0.12923687452E+03  0.13431884474E+03  0.41800000000E+01 0.  1.
        -11    1    3    3    0    0  0.52674545582E+02 -0.13939844278E+02 -0.21163145061E+02  0.58453449168E+02  0.00000000000E+00 0. -1.
         11    1    3    3    0    0 -0.22130741968E+02 -0.41260289827E+02 -0.72299727488E+02  0.86136123964E+02  0.00000000000E+00 0.  1.
</event>
<event>
 7    1  0.5137842E-006  0.1637713E+03  0.7561462E-02  0.1184504E+00
         -2   -1    0    0    0  501 -0.00000000000E+00  0.00000000000E+00  0.21164417016E+03  0.21164417016E+03  0.00000000000E+00 0.  1.
          2   -1    0    0  501    0  0.00000000000E+00 -0.00000000000E+00 -0.25390213275E+03  0.25390213275E+03  0.00000000000E+00 0. -1.
         23    2    1    2    0    0 -0.54321334153E+02 -0.11877282481E+03 -0.17855238567E+03  0.23909257840E+03  0.90700139783E+02 0.  0.
          5    1    1    2  502    0  0.88665033558E+02  0.71630594345E+02  0.12041574668E+03  0.16586094981E+03  0.41800000000E+01 0. -1.
         -5    1    1    2    0  502 -0.34343699405E+02  0.47142230469E+02  0.15878676402E+02  0.60592774707E+02  0.41800000000E+01 0. -1.
        -11    1    3    3    0    0 -0.25982290016E+02  0.63232146357E+01 -0.54227430107E+02  0.60462191606E+02  0.00000000000E+00 0. -1.
         11    1    3    3    0    0 -0.28339044137E+02 -0.12509603945E+03 -0.12432495556E+03  0.17863038679E+03  0.00000000000E+00 0.  1.
</event>
<event>
 7    1  0.5137842E-006  0.8792904E+02  0.7561462E-02  0.1307946E+00
         -1   -1    0    0    0  501 -0.00000000000E+00  0.00000000000E+00  0.11985924320E+03  0.11985924320E+03  0.00000000000E+00 0.  1.
          1   -1    0    0  501    0  0.00000000000E+00 -0.00000000000E+00 -0.12834510723E+03  0.12834510723E+03  0.00000000000E+00 0. -1.
         23    2    1    2    0    0  0.51770974828E+02  0.17012441428E+02 -0.29804196021E+02  0.11010484447E+03  0.90912758608E+02 0.  0.
          5    1    1    2  502    0 -0.40252785815E+02  0.32303548500E+02 -0.34803503785E+02  0.62390402205E+02  0.41800000000E+01 0.  1.
         -5    1    1    2    0  502 -0.11518189013E+02 -0.49315989928E+02  0.56121835776E+02  0.75709103757E+02  0.41800000000E+01 0.  1.
        -11    1    3    3    0    0  0.59335720119E+02  0.56402556290E+01  0.16486418911E+02  0.61841265948E+02  0.00000000000E+00 0.  1.
         11    1    3    3    0    0 -0.75647452905E+01  0.11372185799E+02 -0.46290614931E+02  0.48263578523E+02  0.00000000000E+00 0. -1.
</event>
<event>
 7    1  0.5137842E-006  0.1129749E+03  0.7561462E-02  0.1255158E+00
          2   -1    0    0  501    0  0.00000000000E+00  0.00000000000E+00  0.15412184063E+03  0.15412184063E+03  0.00000000000E+00 0.  1.
         -2   -1    0    0    0  501 -0.00000000000E+00 -0.00000000000E+00 -0.17790249634E+03  0.17790249634E+03  0.00000000000E+00 0. -1.
         23    2    1    2    0    0  0.53975527875E+02 -0.22629750798E+02  0.99637275190E+02  0.14693744977E+03  0.90761028576E+02 0.  0.
          5    1    1    2  502    0 -0.70204660055E+02  0.58362171621E+02 -0.56644324753E+02  0.10752157596E+03  0.41800000000E+01 0. -1.
         -5    1    1    2    0  502  0.16229132181E+02 -0.35732420823E+02 -0.66773606152E+02  0.77565311241E+02  0.41800000000E+01 0. -1.
        -11    1    3    3    0    0 -0.19177703172E+02 -0.56667131528E+01 -0.25132215046E+01  0.20154707124E+02  0.00000000000E+00 0.  1.
         11    1    3    3    0    0  0.73153231047E+02 -0.16963037645E+02  0.10215049669E+03  0.12678274265E+03  0.00000000000E+00 0. -1.
</event>
<event>
 7    1  0.5137842E-006  0.1316368E+03  0.7561462E-02  0.1225047E+00
         -2   -1    0    0    0  501 -0.00000000000E+00  0.00000000000E+00  0.23062248326E+03  0.23062248326E+03  0.00000000000E+00 0.  1.
          2   -1    0    0  501    0  0.00000000000E+00 -0.00000000000E+00 -0.13518917094E+03  0.13518917094E+03  0.00000000000E+00 0. -1.
         23    2    1    2    0    0 -0.33061124658E+02  0.11425763503E+03 -0.40168302513E+02  0.15380703978E+03  0.88855319674E+02 0.  0.
          5    1    1    2  502    0 -0.26209999931E+02 -0.22567633134E+02  0.84470779035E+02  0.91373120076E+02  0.41800000000E+01 0. -1.
         -5    1    1    2    0  502  0.59271124590E+02 -0.91690001895E+02  0.51130835792E+02  0.12063149434E+03  0.41800000000E+01 0.  1.
        -11    1    3    3    0    0 -0.72546642816E+01  0.15696509653E+02  0.26793145673E+02  0.31888606495E+02  0.00000000000E+00 0.  1.
         11    1    3    3    0    0 -0.25806460377E+02  0.98561125376E+02 -0.66961448186E+02  0.12191843329E+03  0.00000000000E+00 0. -1.
</event>
<event>
 7    1  0.5137842E-006  0.9163870E+02  0.7561462E-02  0.1298931E+00
         -2   -1    0    0    0  501 -0.00000000000E+00  0.00000000000E+00  0.36791771838E+03  0.36791771838E+03  0.00000000000E+00 0.  1.
          2   -1    0    0  501    0  0.00000000000E+00 -0.00000000000E+00 -0.38572584812E+02  0.38572584812E+02  0.00000000000E+00 0. -1.
         23    2    1    2    0    0  0.45890378216E+02 -0.20684141537E+02  0.12773334966E+03  0.16395186435E+03  0.89613864365E+02 0.  0.
          5    1    1    2  502    0 -0.59876373013E+02  0.35012866367E+02  0.41108429956E+02  0.80736957274E+02  0.41800000000E+01 0. -1.
         -5    1    1    2    0  502  0.13985994797E+02 -0.14328724830E+02  0.16050335396E+03  0.16180148157E+03  0.41800000000E+01 0. -1.
        -11    1    3    3    0    0 -0.17192633350E+02 -0.24733675233E+02  0.77699315605E+02  0.83333816531E+02  0.00000000000E+00 0.  1.
         11    1    3    3    0    0  0.63083011565E+02  0.40495336960E+01  0.50034034052E+02  0.80618047823E+02  0.00000000000E+00 0. -1.
</event>
<event>
 7    1  0.5137842E-006  0.2096930E+03  0.7561462E-02  0.1141809E+00
         -1   -1    0    0    0  501 -0.00000000000E+00  0.00000000000E+00  0.20567448991E+02  0.20567448991E+02  0.00000000000E+00 0.  1.
          1   -1    0    0  501    0  0.00000000000E+00 -0.00000000000E+00 -0.28500504018E+04  0.28500504018E+04  0.00000000000E+00 0. -1.
         23    2    1    2    0    0  0.18932352179E+03 -0.14267868270E+02 -0.74957908051E+03  0.77832391110E+03  0.88726234476E+02 0.  0.
          5    1    1    2  502    0 -0.17140598666E+03 -0.25436368028E+02 -0.18612834898E+04  0.18693369741E+04  0.41800000000E+01 0.  1.
         -5    1    1    2    0  502 -0.17917535130E+02  0.39704236298E+02 -0.21862038254E+03  0.22295696559E+03  0.41800000000E+01 0. -1.
        -11    1    3    3    0    0  0.47917311313E+02 -0.35048841284E+02 -0.32377590761E+03  0.32917370543E+03  0.00000000000E+00 0. -1.
         11    1    3    3    0    0  0.14140621047E+03  0.20780973014E+02 -0.42580317290E+03  0.44915020567E+03  0.00000000000E+00 0.  1.
</event>
<event>
 7    1  0.5137842E-006  0.1013685E+03  0.7561462E-02  0.1277444E+00
          1   -1    0    0  501    0  0.00000000000E+00  0.00000000000E+00  0.60272165126E+02  0.60272165126E+02  0.00000000000E+00 0. -1.
         -1   -1    0    0    0  501 -0.00000000000E+00 -0.00000000000E+00 -0.25437531604E+03  0.25437531604E+03  0.00000000000E+00 0.  1.
         23    2    1    2    0    0  0.57363519385E+02 -0.18176362817E+02 -0.57641850869E+02  0.12307035565E+03  0.90569177691E+02 0.  0.
          5    1    1    2  502    0 -0.51320518276E+02 -0.28689265669E+02 -0.14479796559E+02  0.60696016913E+02  0.41800000000E+01 0. -1.
         -5    1    1    2    0  502 -0.60430011088E+01  0.46865628486E+02 -0.12198150349E+03  0.13088110860E+03  0.41800000000E+01 0.  1.
        -11    1    3    3    0    0  0.75831926833E+02 -0.17752002086E+02 -0.66659207941E+02  0.10251372937E+03  0.00000000000E+00 0. -1.
         11    1    3    3    0    0 -0.18468407449E+02 -0.42436073040E+00  0.90173570720E+01  0.20556626287E+02  0.00000000000E+00 0.  1.
</event>
<event>
 7    1  0.5137842E-006  0.1460895E+03  0.7561462E-02  0.1205362E+00
          4   -1    0    0  501    0  0.00000000000E+00  0.00000000000E+00  0.67745675089E+02  0.67745675089E+02  0.00000000000E+00 0. -1.
         -4   -1    0    0    0  501 -0.00000000000E+00 -0.00000000000E+00 -0.65432205131E+03  0.65432205131E+03  0.00000000000E+00 0.  1.
         23    2    1    2    0    0 -0.40119872426E+02  0.15084778830E+02 -0.15336899017E+03  0.18372647182E+03  0.91630860459E+02 0.  0.
          5    1    1    2  502    0  0.83245914814E+02  0.61789337818E+02 -0.79890033316E+01  0.10406296736E+03  0.41800000000E+01 0. -1.
         -5    1    1    2    0  502 -0.43126042387E+02 -0.76874116648E+02 -0.42521838272E+03  0.43427828721E+03  0.41800000000E+01 0.  1.
        -11    1    3    3    0    0  0.29456190359E+02  0.40312824641E+01 -0.34436263636E+02  0.45494775985E+02  0.00000000000E+00 0.  1.
         11    1    3    3    0    0 -0.69576062785E+02  0.11053496366E+02 -0.11893272653E+03  0.13823169584E+03  0.00000000000E+00 0. -1.
</event>
<event>
 7    1  0.5137842E-006  0.1012490E+03  0.7561462E-02  0.1277691E+00
          3   -1    0    0  501    0  0.00000000000E+00  0.00000000000E+00  0.20437178302E+03  0.20437178302E+03  0.00000000000E+00 0. -1.
         -3   -1    0    0    0  501 -0.00000000000E+00 -0.00000000000E+00 -0.70325069346E+02  0.70325069346E+02  0.00000000000E+00 0.  1.
         23    2    1    2    0    0 -0.29624494537E+02  0.38736360064E+02  0.74576991207E+02  0.12785249519E+03  0.91686512868E+02 0.  0.
          5    1    1    2  502    0  0.70238603273E+02 -0.55523141572E+02  0.33892933301E+02  0.95825278333E+02  0.41800000000E+01 0.  1.
         -5    1    1    2    0  502 -0.40614108736E+02  0.16786781508E+02  0.25576789169E+02  0.51019078843E+02  0.41800000000E+01 0.  1.
        -11    1    3    3    0    0 -0.42747122941E+02  0.24134043349E+02  0.90246403366E+02  0.10273354802E+03  0.00000000000E+00 0. -1.
         11    1    3    3    0    0  0.13122628403E+02  0.14602316715E+02 -0.15669412159E+02  0.25118947173E+02  0.00000000000E+00 0.  1.
</event>
<event>
 7    1  0.5137842E-006  0.2234817E+03  0.7561462E-02  0.1131314E+00
          2   -1    0    0  501    0  0.00000000000E+00  0.00000000000E+00  0.68476988461E+03  0.68476988461E+03  0.00000000000E+00 0. -1.
         -2   -1    0    0    0  501 -0.00000000000E+00 -0.00000000000E+00 -0.17144409676E+03  0.17144409676E+03  0.00000000000E+00 0.  1.
         23    2    1    2    0    0  0.36744794640E+02  0.73239181932E+02  0.16050113252E+03  0.20212898897E+03  0.91549751172E+02 0.  0.
          5    1    1    2  502    0 -0.99658727490E+02 -0.17793576651E+03  0.45251450514E+03  0.49636664748E+03  0.41800000000E+01 0. -1.
         -5    1    1    2    0  502  0.62913932850E+02  0.10469658458E+03 -0.99689849806E+02  0.15771834492E+03  0.41800000000E+01 0.  1.
        -11    1    3    3    0    0 -0.17309319049E+02  0.63523503106E+02  0.68711231555E+02  0.95163445264E+02  0.00000000000E+00 0. -1.
         11    1    3    3    0    0  0.54054113688E+02  0.97156788265E+01  0.91789900967E+02  0.10696554371E+03  0.00000000000E+00 0.  1.
</event>
<event>
 7    1  0.5137842E-006  0.8890795E+02  0.7561462E-02  0.1305518E+00
          1   -1    0    0  501    0  0.00000000000E+00  0.00000000000E+00  0.76120963210E+02  0.76120963210E+02  0.00000000000E+00 0. -1.
         -1   -1    0    0    0  501 -0.00000000000E+00 -0.00000000000E+00 -0.14088493819E+03  0.14088493819E+03  0.00000000000E+00 0.  1.
         23    2    1    2    0    0 -0.46726603082E+01 -0.32847206109E+02 -0.28166082671E+02  0.82515868337E+02  0.70105403578E+02 0.  0.
          5    1    1    2  502    0  0.16119797069E+02 -0.44817894556E+02 -0.91296318758E-01  0.47811842309E+02  0.41800000000E+01 0.  1.
         -5    1    1    2    0  502 -0.11447136760E+02  0.77665100665E+02 -0.36506595987E+02  0.86678190751E+02  0.41800000000E+01 0.  1.
        -11    1    3    3    0    0 -0.21098599170E+02 -0.10261614827E+02 -0.44396817522E+02  0.50214828805E+02  0.00000000000E+00 0.  1.
         11    1    3    3    0    0  0.16425938862E+02 -0.22585591282E+02  0.16230734851E+02  0.32301039532E+02  0.00000000000E+00 0. -1.
</event>
<event>
 7    1  0.5137842E-006  0.1150430E+03  0.7561462E-02  0.1251506E+00
         -1   -1    0    0    0  501 -0.00000000000E+00  0.00000000000E+00  0.25476694569E+02  0.25476694569E+02  0.00000000000E+00 0.  1.
          1   -1    0    0  501    0  0.00000000000E+00 -0.00000000000E+00 -0.52940549820E+03  0.52940549820E+03  0.00000000000E+00 0. -1.
         23    2    1    2    0    0 -0.40929522690E+01  0.45765972024E+02 -0.17969583084E+03  0.20433501290E+03  0.85737561327E+02 0.  0.
          5    1    1    2  502    0 -0.48212339876E+02 -0.61676704646E+02 -0.19416237147E+03  0.20939184442E+03  0.41800000000E+01 0. -1.
         -5    1    1    2    0  502  0.52305292145E+02  0.15910732623E+02 -0.13007060132E+03  0.14115533545E+03  0.41800000000E+01 0. -1.
        -11    1    3    3    0    0  0.36900340869E+02  0.41672208200E+02 -0.11247498402E+03  0.12549434299E+03  0.00000000000E+00 0.  1.
         11    1    3    3    0    0 -0.40993293138E+02  0.40937638231E+01 -0.67220846817E+02  0.78840669907E+02  0.00000000000E+00 0. -1.
</event>
<event>
 7    1  0.5137842E-006  0.1250978E+03  0.7561462E-02  0.1234916E+00
          3   -1    0    0  501    0  0.00000000000E+00  0.00000000000E+00  0.27340222573E+02  0.27340222573E+02  0.00000000000E+00 0. -1.
         -3   -1    0    0    0  501 -0.00000000000E+00 -0.00000000000E+00 -0.67991742832E+03  0.67991742832E+03  0.00000000000E+00 0.  1.
         23    2    1    2    0    0  0.70908610753E+02  0.35367146244E+02 -0.33407074963E+03  0.35601279088E+03  0.94143376841E+02 0.  0.
          5    1    1    2  502    0 -0.47850196258E+02 -0.74376982891E+02 -0.27254579685E+03  0.28656632853E+03  0.41800000000E+01 0. -1.
         -5    1    1    2    0  502 -0.23058414495E+02  0.39009836647E+02 -0.45960659269E+02  0.64678531482E+02  0.41800000000E+01 0. -1.
        -11    1    3    3    0    0  0.18882104884E+02 -0.28242715105E+02 -0.51190719426E+02  0.61438380486E+02  0.00000000000E+00 0.  1.
         11    1    3    3    0    0  0.52026505868E+02  0.63609861350E+02 -0.28288003020E+03  0.29457441040E+03  0.00000000000E+00 0. -1.
</event>
<event>
 7    1  0.5137842E-006  0.1175674E+03  0.7561462E-02  0.1247165E+00
         -2   -1    0    0    0  501 -0.00000000000E+00  0.00000000000E+00  0.22169207379E+02  0.22169207379E+02  0.00000000000E+00 0.  1.
          2   -1    0    0  501    0  0.00000000000E+00 -0.00000000000E+00 -0.10364902872E+04  0.10364902872E+04  0.00000000000E+00 0. -1.
         23    2    1    2    0    0  0.68367499704E+02  0.74112135046E+02 -0.56894783329E+03  0.58520030405E+03  0.92687837815E+02 0.  0.
          5    1    1    2  502    0 -0.29973615846E+02 -0.42078578782E+02 -0.41275977559E+02  0.66258608215E+02  0.41800000000E+01 0.  1.
         -5    1    1    2    0  502 -0.38393883858E+02 -0.32033556264E+02 -0.40409726893E+03  0.40720058227E+03  0.41800000000E+01 0.  1.
        -11    1    3    3    0    0 -0.22307146039E+01  0.61342159861E+02 -0.33209214445E+03  0.33771738047E+03  0.00000000000E+00 0.  1.
         11    1    3    3    0    0  0.70598214308E+02  0.12769975185E+02 -0.23685568884E+03  0.24748292358E+03  0.00000000000E+00 0. -1.
</event>
<event>
 7    1  0.5137842E-006  0.9722302E+02  0.7561462E-02  0.1286246E+00
          2   -1    0    0  501    0  0.00000000000E+00  0.00000000000E+00  0.59663939257E+03  0.59663939257E+03  0.00000000000E+00 0. -1.
         -2   -1    0    0    0  501 -0.00000000000E+00 -0.00000000000E+00 -0.19743806369E+03  0.19743806369E+03  0.00000000000E+00 0.  1.
         23    2    1    2    0    0 -0.35539598306E+02  0.11584101498E+02  0.24234591855E+03  0.26055403745E+03  0.88088635701E+02 0.  0.
          5    1    1    2  502    0 -0.34544668440E+02 -0.17439301960E+02  0.33744261476E+03  0.33967992879E+03  0.41800000000E+01 0. -1.
         -5    1    1    2    0  502  0.70084266747E+02  0.58552004620E+01 -0.18058720442E+03  0.19384349001E+03  0.41800000000E+01 0.  1.
        -11    1    3    3    0    0  0.16729323777E+02  0.25940069343E+02  0.37051050887E+02  0.48223830659E+02  0.00000000000E+00 0. -1.
         11    1    3    3    0    0 -0.52268922083E+02 -0.14355967845E+02  0.20529486766E+03  0.21233020679E+03  0.00000000000E+00 0.  1.
</event>
<event>
 7    1  0.5137842E-006  0.1072519E+03  0.7561462E-02  0.1265745E+00
          1   -1    0    0  501    0  0.00000000000E+00  0.00000000000E+00  0.18187970740E+03  0.18187970740E+03  0.00000000000E+00 0. -1.
         -1   -1    0    0    0  501 -0.00000000000E+00 -0.00000000000E+00 -0.12995767622E+03  0.12995767622E+03  0.00000000000E+00 0.  1.
         23    2    1    2    0    0  0.58111199385E+02  0.65864986116E+02  0.89883437116E+02  0.15434545571E+03  0.89601225103E+02 0.  0.
          5    1    1    2  502    0 -0.54864612894E+02 -0.19409437638E+02  0.37039605602E+02  0.69110468097E+02  0.41800000000E+01 0.  1.
         -5    1    1    2    0  502 -0.32465864909E+01 -0.46455548478E+02 -0.75001011537E+02  0.88381459819E+02  0.41800000000E+01 0.  1.
        -11    1    3    3    0    0  0.61424399473E+02  0.76588679364E+02  0.44853913888E+02  0.10793820569E+03  0.00000000000E+00 0.  1.
         11    1    3    3    0    0 -0.33132000882E+01 -0.10723693248E+02  0.45029523228E+02  0.46407250014E+02  0.00000000000E+00 0. -1.
</event>
<event>
 7    1  0.5137842E-006  0.1049200E+03  0.7561462E-02  0.1270277E+00
          2   -1    0    0  501    0  0.00000000000E+00  0.00000000000E+00  0.49708796404E+03  0.49708796404E+03  0.00000000000E+00 0. -1.
         -2   -1    0    0    0  501 -0.00000000000E+00 -0.00000000000E+00 -0.38339259189E+02  0.38339259189E+02  0.00000000000E+00 0.  1.
         23    2    1    2    0    0  0.66063732966E+02 -0.17338055408E+02  0.30485190417E+03  0.32567557894E+03  0.92004751304E+02 0.  0.
          5    1    1    2  502    0  0.22120428136E+02 -0.26148583452E+02  0.10942290225E+02  0.36197622475E+02  0.41800000000E+01 0. -1.
         -5    1    1    2    0  502 -0.88184161102E+02  0.43486638860E+02  0.14295451045E+03  0.17355402181E+03  0.41800000000E+01 0. -1.
        -11    1    3    3    0    0  0.92346307473E+01 -0.17844091227E+02  0.52986821382E+01  0.20778980465E+02  0.00000000000E+00 0.  1.
         11    1    3    3    0    0  0.56829102219E+02  0.50603581983E+00  0.29955322203E+03  0.30489659847E+03  0.00000000000E+00 0. -1.
</event>
<event>
 7    1  0.5137842E-006  0.1060878E+03  0.7561462E-02  0.1267991E+00
          2   -1    0    0  501    0  0.00000000000E+00  0.00000000000E+00  0.57616015711E+03  0.57616015711E+03  0.00000000000E+00 0.  1.
         -2   -1    0    0    0  501 -0.00000000000E+00 -0.00000000000E+00 -0.34244533696E+02  0.34244533696E+02  0.00000000000E+00 0. -1.
         23    2    1    2    0    0 -0.16954079177E+02 -0.47105415408E+02  0.40628679048E+03  0.41922799578E+03  0.90425634436E+02 0.  0.
          5    1    1    2  502    0  0.67977765215E+02  0.28401122180E+02  0.10595426664E+03  0.12911769562E+03  0.41800000000E+01 0.  1.
         -5    1    1    2    0  502 -0.51023686038E+02  0.18704293229E+02  0.29674566295E+02  0.62058999403E+02  0.41800000000E+01 0.  1.
        -11    1    3    3    0    0  0.13657999218E+01  0.17078523092E+02  0.16564496202E+02  0.23831153872E+02  0.00000000000E+00 0. -1.
         11    1    3    3    0    0 -0.18319879099E+02 -0.64183938500E+02  0.38972229428E+03  0.39539684191E+03  0.00000000000E+00 0.  1.
</event>
<event>
 7    1  0.5137842E-006  0.9618442E+02  0.7561462E-02  0.1288531E+00
          1   -1    0    0  501    0  0.00000000000E+00  0.00000000000E+00  0.18246439720E+03  0.18246439720E+03  0.00000000000E+00 0. -1.
         -1   -1    0    0    0  501 -0.00000000000E+00 -0.00000000000E+00 -0.80685460283E+02  0.80685460283E+02  0.00000000000E+00 0.  1.
         23    2    1    2    0    0 -0.23739080929E+02  0.47119443623E+02  0.53519707702E+02  0.11906378850E+03  0.92347391351E+02 0.  0.
          5    1    1    2  502    0  0.73039560937E+02 -0.31604141858E+02  0.46362370643E+02  0.92198378814E+02  0.41800000000E+01 0. -1.
         -5    1    1    2    0  502 -0.49300480008E+02 -0.15515301766E+02  0.18968585691E+01  0.51887690162E+02  0.41800000000E+01 0. -1.
        -11    1    3    3    0    0 -0.59690598337E+01  0.41869577504E+02 -0.17423039874E+02  0.45741157770E+02  0.00000000000E+00 0.  1.
         11    1    3    3    0    0 -0.17770021095E+02  0.52498661192E+01  0.70942747576E+02  0.73322630733E+02  0.00000000000E+00 0. -1.
</event>
<event>
 7    1  0.5650379E-006  0.1515910E+03  0.7561462E-02  0.1198531E+00
         -2   -1    0    0    0  501 -0.00000000000E+00  0.00000000000E+00  0.89886166479E+02  0.89886166479E+02  0.00000000000E+00 0.  1.
          2   -1    0    0  501    0  0.00000000000E+00 -0.00000000000E+00 -0.31597549179E+03  0.31597549179E+03  0.00000000000E+00 0. -1.
         23    2    1    2    0    0  0.79662059298E+02 -0.95915596347E+02 -0.14516914443E+03  0.21158935514E+03  0.90278067094E+02 0.  0.
          5    1    1    2  502    0 -0.86687588442E+02  0.12161683765E+03 -0.72109974523E+02  0.16589971072E+03  0.41800000000E+01 0.  1.
         -5    1    1    2    0  502  0.70255291437E+01 -0.25701241304E+02 -0.88102063569E+01  0.28372592415E+02  0.41800000000E+01 0.  1.
        -11    1    3    3    0    0  0.48140430917E+02 -0.39891976080E+02 -0.13187731887E+03  0.14594690157E+03  0.00000000000E+00 0. -1.
         11    1    3    3    0    0  0.31521628381E+02 -0.56023620267E+02 -0.13291825556E+02  0.65642453566E+02  0.00000000000E+00 0.  1.
</event>
<event>
 7    1  0.5137842E-006  0.1007641E+03  0.7561462E-02  0.1278697E+00
         -1   -1    0    0    0  501 -0.00000000000E+00  0.00000000000E+00  0.14732966411E+02  0.14732966411E+02  0.00000000000E+00 0.  1.
          1   -1    0    0  501    0  0.00000000000E+00 -0.00000000000E+00 -0.80730099373E+03  0.80730099373E+03  0.00000000000E+00 0. -1.
         23    2    1    2    0    0 -0.11287936599E+01 -0.16182943702E+02 -0.33174072587E+03  0.34425492165E+03  0.90533861276E+02 0.  0.
          5    1    1    2  502    0  0.48207609880E+02  0.42023858082E+02 -0.16351444758E+03  0.17562581036E+03  0.41800000000E+01 0. -1.
         -5    1    1    2    0  502 -0.47078816220E+02 -0.25840914380E+02 -0.29731285387E+03  0.30215322813E+03  0.41800000000E+01 0. -1.
        -11    1    3    3    0    0  0.25633802947E+02  0.24116784026E+02 -0.73132419184E+02  0.81160716242E+02  0.00000000000E+00 0.  1.
         11    1    3    3    0    0 -0.26762596607E+02 -0.40299727728E+02 -0.25860830668E+03  0.26309420540E+03  0.00000000000E+00 0. -1.
</event>
<event>
 7    1  0.5137842E-006  0.9100813E+02  0.7561462E-02  0.1300429E+00
          1   -1    0    0  501    0  0.00000000000E+00  0.00000000000E+00  0.41352784636E+03  0.41352784636E+03  0.00000000000E+00 0. -1.
         -1   -1    0    0    0  501 -0.00000000000E+00 -0.00000000000E+00 -0.37300590721E+02  0.37300590721E+02  0.00000000000E+00 0.  1.
         23    2    1    2    0    0  0.41598653302E+02 -0.30410892990E+02  0.22177752170E+03  0.24550375977E+03  0.91823507683E+02 0.  0.
          5    1    1    2  502    0 -0.26949691062E+02  0.46956613577E+02  0.53797150913E+01  0.54567601573E+02  0.41800000000E+01 0. -1.
         -5    1    1    2    0  502 -0.14648962241E+02 -0.16545720587E+02  0.14907001884E+03  0.15075707573E+03  0.41800000000E+01 0. -1.
        -11    1    3    3    0    0  0.15953523038E+02  0.33092764625E+02  0.73205995207E+02  0.81907043056E+02  0.00000000000E+00 0.  1.
         11    1    3    3    0    0  0.25645130265E+02 -0.63503657616E+02  0.14857152649E+03  0.16359671672E+03  0.00000000000E+00 0. -1.
</event>
<event>
 7    1  0.5137842E-006  0.1245622E+03  0.7561462E-02  0.1235755E+00
         -2   -1    0    0    0  501 -0.00000000000E+00  0.00000000000E+00  0.26036102012E+02  0.26036102012E+02  0.00000000000E+00 0.  1.
          2   -1    0    0  501    0  0.00000000000E+00 -0.00000000000E+00 -0.79865345429E+03  0.79865345429E+03  0.00000000000E+00 0. -1.
         23    2    1    2    0    0 -0.73246767818E+02 -0.55625996686E+02 -0.28149084690E+03  0.30960451075E+03  0.90324502130E+02 0.  0.
          5    1    1    2  502    0  0.44899372819E+02  0.76613429138E+02 -0.16853548505E+03  0.19054462293E+03  0.41800000000E+01 0.  1.
         -5    1    1    2    0  502  0.28347394999E+02 -0.20987432452E+02 -0.32259102032E+03  0.32454042262E+03  0.41800000000E+01 0.  1.
        -11    1    3    3    0    0  0.16476241726E+02  0.40303448041E+01 -0.17024242911E+02  0.24031959290E+02  0.00000000000E+00 0.  1.
         11    1    3    3    0    0 -0.89723009544E+02 -0.59656341490E+02 -0.26446660399E+03  0.28557255146E+03  0.00000000000E+00 0. -1.
</event>
<event>
 7    1  0.5137842E-006  0.1257097E+03  0.7561462E-02  0.1233964E+00
         -2   -1    0    0    0  501 -0.00000000000E+00  0.00000000000E+00  0.54070185867E+02  0.54070185867E+02  0.00000000000E+00 0.  1.
          2   -1    0    0  501    0  0.00000000000E+00 -0.00000000000E+00 -0.63128258181E+03  0.63128258181E+03  0.00000000000E+00 0. -1.
         23    2    1    2    0    0 -0.40887904708E+00 -0.86377397371E+02 -0.49839297455E+03  0.51411588287E+03  0.91969353496E+02 0.  0.
          5    1    1    2  502    0  0.15705329010E+02  0.11540310583E+03 -0.48036692478E+02  0.12605368071E+03  0.41800000000E+01 0.  1.
         -5    1    1    2    0  502 -0.15296449963E+02 -0.29025708462E+02 -0.30782728920E+02  0.45183204102E+02  0.41800000000E+01 0.  1.
        -11    1    3    3    0    0  0.10180297102E+02 -0.90028175227E+02 -0.49374511653E+03  0.50198899479E+03  0.00000000000E+00 0. -1.
         11    1    3    3    0    0 -0.10589176149E+02  0.36507778558E+01 -0.46478580101E+01  0.12126888082E+02  0.00000000000E+00 0.  1.
</event>
<event>
 7    1  0.5137842E-006  0.1763304E+03  0.7561462E-02  0.1171402E+00
          1   -1    0    0  501    0  0.00000000000E+00  0.00000000000E+00  0.22231143666E+03  0.22231143666E+03  0.00000000000E+00 0. -1.
         -1   -1    0    0    0  501 -0.00000000000E+00 -0.00000000000E+00 -0.25481158688E+03  0.25481158688E+03  0.00000000000E+00 0.  1.
         23    2    1    2    0    0  0.12991576988E+02  0.15051801291E+03  0.13248404850E+03  0.22081884511E+03  0.91566838790E+02 0.  0.
          5    1    1    2  502    0  0.43390080900E+02 -0.10389889974E+02 -0.43025567827E+02  0.62123432142E+02  0.41800000000E+01 0. -1.
         -5    1    1    2    0  502 -0.56381657888E+02 -0.14012812293E+03 -0.12195863088E+03  0.19418074629E+03  0.41800000000E+01 0. -1.
        -11    1    3    3    0    0  0.28362188677E+02  0.96016646055E+02  0.31351868988E+02  0.10491210490E+03  0.00000000000E+00 0.  1.
         11    1    3    3    0    0 -0.15370611689E+02  0.54501366854E+02  0.10113217951E+03  0.11590674020E+03  0.00000000000E+00 0. -1.
</event>
<event>
 7    1  0.5137842E-006  0.1165855E+03  0.7561462E-02  0.1248839E+00
          1   -1    0    0  501    0  0.00000000000E+00  0.00000000000E+00  0.66763180036E+03  0.66763180036E+03  0.00000000000E+00 0. -1.
         -1   -1    0    0    0  501 -0.00000000000E+00 -0.00000000000E+00 -0.25693889084E+02  0.25693889084E+02  0.00000000000E+00 0.  1.
         23    2    1    2    0    0 -0.44658912118E+01 -0.65891858633E+02  0.38358634623E+03  0.39878362303E+03  0.86765268212E+02 0.  0.
          5    1    1    2  502    0 -0.22506585647E+02  0.89602219869E+02  0.23214688406E+03  0.24988948034E+03  0.41800000000E+01 0. -1.
         -5    1    1    2    0  502  0.26972476858E+02 -0.23710361235E+02  0.26204680991E+02  0.44652586080E+02  0.41800000000E+01 0. -1.
        -11    1    3    3    0    0 -0.26116711756E+02  0.81777389621E+01  0.57357473373E+02  0.63551851265E+02  0.00000000000E+00 0.  1.
         11    1    3    3    0    0  0.21650820544E+02 -0.74069597595E+02  0.32622887285E+03  0.33523177177E+03  0.00000000000E+00 0. -1.
</event>
<event>
 7    1  0.5137842E-006  0.1423624E+03  0.7561462E-02  0.1210185E+00
          3   -1    0    0  501    0  0.00000000000E+00  0.00000000000E+00  0.90120404034E+02  0.90120404034E+02  0.00000000000E+00 0. -1.
         -3   -1    0    0    0  501 -0.00000000000E+00 -0.00000000000E+00 -0.22702172051E+03  0.22702172051E+03  0.00000000000E+00 0.  1.
         23    2    1    2    0    0 -0.48090522425E+02 -0.76445142981E+02 -0.49788443972E+02  0.13995841701E+03  0.94619824072E+02 0.  0.
          5    1    1    2  502    0  0.49613276711E+02  0.10974836894E+03 -0.64560889590E+02  0.13671782099E+03  0.41800000000E+01 0.  1.
         -5    1    1    2    0  502 -0.15227542860E+01 -0.33303225961E+02 -0.22551982911E+02  0.40465886537E+02  0.41800000000E+01 0.  1.
        -11    1    3    3    0    0  0.25922695728E+02 -0.25881305699E+01 -0.13002109240E+02  0.29115965008E+02  0.00000000000E+00 0.  1.
         11    1    3    3    0    0 -0.74013218153E+02 -0.73857012411E+02 -0.36786334733E+02  0.11084245201E+03  0.00000000000E+00 0. -1.
</event>
<event>
 7    1  0.5137842E-006  0.1031037E+03  0.7561462E-02  0.1273902E+00
         -1   -1    0    0    0  501 -0.00000000000E+00  0.00000000000E+00  0.51494242228E+03  0.51494242228E+03  0.00000000000E+00 0.  1.
          1   -1    0    0  501    0  0.00000000000E+00 -0.00000000000E+00 -0.37621993015E+02  0.37621993015E+02  0.00000000000E+00 0. -1.
         23    2    1    2    0    0  0.57228467206E+02 -0.37228058059E+02  0.11583545056E+03  0.16400275822E+03  0.93904352037E+02 0.  0.
          5    1    1    2  502    0  0.22075910965E+02 -0.26005295304E+01  0.78562712212E+01  0.23943725614E+02  0.41800000000E+01 0. -1.
         -5    1    1    2    0  502 -0.79304378171E+02  0.39828587590E+02  0.35362870749E+03  0.36461793146E+03  0.41800000000E+01 0. -1.
        -11    1    3    3    0    0  0.14771314878E+02 -0.48598205981E+02  0.13393415399E+02  0.52529619681E+02  0.00000000000E+00 0. -1.
         11    1    3    3    0    0  0.42457152328E+02  0.11370147922E+02  0.10244203516E+03  0.11147313854E+03  0.00000000000E+00 0.  1.
</event>
<event>
 7    1  0.5137842E-006  0.1006286E+03  0.7561462E-02  0.1278980E+00
          1   -1    0    0  501    0  0.00000000000E+00  0.00000000000E+00  0.16797988667E+03  0.16797988667E+03  0.00000000000E+00 0.  1.
         -1   -1    0    0    0  501 -0.00000000000E+00 -0.00000000000E+00 -0.87683394843E+02  0.87683394843E+02  0.00000000000E+00 0. -1.
         23    2    1    2    0    0  0.15000567256E+02  0.47619818648E+02  0.26612125822E+02  0.11068073998E+03  0.95128107388E+02 0.  0.
          5    1    1    2  502    0 -0.67037657268E+02 -0.27269466684E+02  0.84731777936E+01  0.72985878409E+02  0.41800000000E+01 0.  1.
         -5    1    1    2    0  502  0.52037090012E+02 -0.20350351964E+02  0.45211188214E+02  0.71996663129E+02  0.41800000000E+01 0.  1.
        -11    1    3    3    0    0 -0.18468380022E+02  0.29147007214E+02  0.53698397619E+02  0.63829045089E+02  0.00000000000E+00 0.  1.
         11    1    3    3    0    0  0.33468947278E+02  0.18472811433E+02 -0.27086271796E+02  0.46851694889E+02  0.00000000000E+00 0. -1.
</event>
<event>
 7    1  0.5137842E-006  0.7646035E+02  0.7561462E-02  0.1339408E+00
         -2   -1    0    0    0  501 -0.00000000000E+00  0.00000000000E+00  0.14893677864E+03  0.14893677864E+03  0.00000000000E+00 0.  1.
          2   -1    0    0  501    0  0.00000000000E+00 -0.00000000000E+00 -0.10548314100E+03  0.10548314100E+03  0.00000000000E+00 0. -1.
         23    2    1    2    0    0 -0.24193466998E+02 -0.15288095825E+01 -0.31516878331E+02  0.10658288260E+03  0.98888503572E+02 0.  0.
          5    1    1    2  502    0  0.33536317028E+02  0.34933718639E+02 -0.15368373356E+02  0.50977529926E+02  0.41800000000E+01 0. -1.
         -5    1    1    2    0  502 -0.93428500306E+01 -0.33404909057E+02  0.90338889326E+02  0.96859507125E+02  0.41800000000E+01 0. -1.
        -11    1    3    3    0    0 -0.44917608556E+02  0.94850037618E+01  0.19920962675E+02  0.50043996729E+02  0.00000000000E+00 0.  1.
         11    1    3    3    0    0  0.20724141558E+02 -0.11013813344E+02 -0.51437841006E+02  0.56538885867E+02  0.00000000000E+00 0. -1.
</event>
<event>
 7    1  0.5137842E-006  0.8695729E+02  0.7561462E-02  0.1310392E+00
          1   -1    0    0  501    0  0.00000000000E+00  0.00000000000E+00  0.52005655255E+03  0.52005655255E+03  0.00000000000E+00 0. -1.
         -1   -1    0    0    0  501 -0.00000000000E+00 -0.00000000000E+00 -0.33589913985E+02  0.33589913985E+02  0.00000000000E+00 0.  1.
         23    2    1    2    0    0  0.16172882082E+02 -0.72296947861E+02  0.26237549056E+03  0.28654321261E+03  0.88191291306E+02 0.  0.
          5    1    1    2  502    0 -0.10069779119E+02  0.77111816772E+02  0.23811827759E+03  0.25053027614E+03  0.41800000000E+01 0. -1.
         -5    1    1    2    0  502 -0.61031029625E+01 -0.48148689114E+01 -0.14027129585E+02  0.16572977789E+02  0.41800000000E+01 0. -1.
        -11    1    3    3    0    0  0.28074420629E+02 -0.22408100981E+02  0.21068527511E+03  0.21372548101E+03  0.00000000000E+00 0. -1.
         11    1    3    3    0    0 -0.11901538547E+02 -0.49888846880E+02  0.51690215449E+02  0.72817731604E+02  0.00000000000E+00 0.  1.
</event>
<event>
 7    1  0.5137842E-006  0.1742490E+03  0.7561462E-02  0.1173488E+00
         -3   -1    0    0    0  501 -0.00000000000E+00  0.00000000000E+00  0.24097295257E+02  0.24097295257E+02  0.00000000000E+00 0.  1.
          3   -1    0    0  501    0  0.00000000000E+00 -0.00000000000E+00 -0.14010839917E+04  0.14010839917E+04  0.00000000000E+00 0. -1.
         23    2    1    2    0    0  0.83172950840E+02  0.12098085557E+03 -0.61229460364E+03  0.63653840064E+03  0.93393504485E+02 0.  0.
          5    1    1    2  502    0 -0.56076310911E+02 -0.62687598509E+01 -0.43146460802E+03  0.43515862668E+03  0.41800000000E+01 0.  1.
         -5    1    1    2    0  502 -0.27096639929E+02 -0.11471209572E+03 -0.33322748478E+03  0.35348425964E+03  0.41800000000E+01 0.  1.
        -11    1    3    3    0    0  0.69206450851E+02  0.20008202795E+02 -0.24807551161E+03  0.25832406098E+03  0.00000000000E+00 0.  1.
         11    1    3    3    0    0  0.13966499989E+02  0.10097265277E+03 -0.36421909202E+03  0.37821433966E+03  0.00000000000E+00 0. -1.
</event>
<event>
 7    1  0.5137842E-006  0.7866599E+02  0.7561462E-02  0.1332880E+00
         -1   -1    0    0    0  501 -0.00000000000E+00  0.00000000000E+00  0.27518096359E+03  0.27518096359E+03  0.00000000000E+00 0.  1.
          1   -1    0    0  501    0  0.00000000000E+00 -0.00000000000E+00 -0.53537924679E+02  0.53537924679E+02  0.00000000000E+00 0. -1.
         23    2    1    2    0    0 -0.16937176302E+00 -0.97629190238E+01  0.23474476263E+02  0.94166641658E+02  0.90669521289E+02 0.  0.
          5    1    1    2  502    0  0.23497888451E+02 -0.32035615589E+02  0.17802243243E+03  0.18244969246E+03  0.41800000000E+01 0. -1.
         -5    1    1    2    0  502 -0.23328516688E+02  0.41798534612E+02  0.20146130212E+02  0.52102554152E+02  0.41800000000E+01 0. -1.
        -11    1    3    3    0    0  0.19517726934E+02 -0.33330478947E+02 -0.17957606849E+02  0.42595048248E+02  0.00000000000E+00 0. -1.
         11    1    3    3    0    0 -0.19687098697E+02  0.23567559923E+02  0.41432083112E+02  0.51571593410E+02  0.00000000000E+00 0.  1.
</event>
<event>
 7    1  0.5137842E-006  0.1013819E+03  0.7561462E-02  0.1277417E+00
          2   -1    0    0  501    0  0.00000000000E+00  0.00000000000E+00  0.60927833516E+02  0.60927833516E+02  0.00000000000E+00 0. -1.
         -2   -1    0    0    0  501 -0.00000000000E+00 -0.00000000000E+00 -0.27309460806E+03  0.27309460806E+03  0.00000000000E+00 0.  1.
         23    2    1    2    0    0 -0.57151169867E+02  0.33754836890E+02 -0.68546125098E+02  0.13232993756E+03  0.91689671598E+02 0.  0.
          5    1    1    2  502    0 -0.10439903600E+02  0.42257618891E+01  0.18430873789E+02  0.22000412708E+02  0.41800000000E+01 0.  1.
         -5    1    1    2    0  502  0.67591073467E+02 -0.37980598780E+02 -0.16205152323E+03  0.17969209131E+03  0.41800000000E+01 0.  1.
        -11    1    3    3    0    0 -0.58634552757E+02  0.61703008943E+02 -0.49328924467E+02  0.98379951610E+02  0.00000000000E+00 0. -1.
         11    1    3    3    0    0  0.14833828905E+01 -0.27948172052E+02 -0.19217200631E+02  0.33949985950E+02  0.00000000000E+00 0.  1.
</event>
<event>
 7    1  0.5137842E-006  0.1584637E+03  0.7561462E-02  0.1190442E+00
         -3   -1    0    0    0  501 -0.00000000000E+00  0.00000000000E+00  0.13385507556E+03  0.13385507556E+03  0.00000000000E+00 0.  1.
          3   -1    0    0  501    0  0.00000000000E+00 -0.00000000000E+00 -0.20241179125E+03  0.20241179125E+03  0.00000000000E+00 0. -1.
         23    2    1    2    0    0 -0.12355071438E+03 -0.38267304573E+01 -0.42343875013E+02  0.15846373064E+03  0.89656719150E+02 0.  0.
          5    1    1    2  502    0  0.31426393831E+02  0.51504172388E+02  0.20641305905E+02  0.63904881754E+02  0.41800000000E+01 0. -1.
         -5    1    1    2    0  502  0.92124320545E+02 -0.47677441931E+02 -0.46854146585E+02  0.11389825441E+03  0.41800000000E+01 0. -1.
        -11    1    3    3    0    0 -0.81721347436E+02  0.40908122463E+02 -0.23024632231E+02  0.94244293194E+02  0.00000000000E+00 0.  1.
         11    1    3    3    0    0 -0.41829366940E+02 -0.44734852920E+02 -0.19319242782E+02  0.64219437447E+02  0.00000000000E+00 0. -1.
</event>
<event>
 7    1  0.5137842E-006  0.1018853E+03  0.7561462E-02  0.1276381E+00
         -1   -1    0    0    0  501 -0.00000000000E+00  0.00000000000E+00  0.83751843812E+02  0.83751843812E+02  0.00000000000E+00 0.  1.
          1   -1    0    0  501    0  0.00000000000E+00 -0.00000000000E+00 -0.20026477481E+03  0.20026477481E+03  0.00000000000E+00 0. -1.
         23    2    1    2    0    0  0.28349433695E+02  0.20564364726E+02 -0.11962187798E+03  0.15407796410E+03  0.90576165963E+02 0.  0.
          5    1    1    2  502    0 -0.60795946969E+02  0.14280208950E+02  0.35731478687E+02  0.72071370909E+02  0.41800000000E+01 0.  1.
         -5    1    1    2    0  502  0.32446513274E+02 -0.34844573676E+02 -0.32622531698E+02  0.57867283613E+02  0.41800000000E+01 0.  1.
        -11    1    3    3    0    0 -0.17885441182E+02  0.39548273173E+02 -0.34828624647E+02  0.55650588605E+02  0.00000000000E+00 0.  1.
         11    1    3    3    0    0  0.46234874877E+02 -0.18983908447E+02 -0.84793253337E+02  0.98427375492E+02  0.00000000000E+00 0. -1.
</event>
<event>
 7    1  0.5137842E-006  0.1294626E+03  0.7561462E-02  0.1228255E+00
         -3   -1    0    0    0  501 -0.00000000000E+00  0.00000000000E+00  0.25705640730E+02  0.25705640730E+02  0.00000000000E+00 0.  1.
          3   -1    0    0  501    0  0.00000000000E+00 -0.00000000000E+00 -0.76624382373E+03  0.76624382373E+03  0.00000000000E+00 0. -1.
         23    2    1    2    0    0 -0.75471779408E+02 -0.27342526684E+02 -0.43317622094E+03  0.45053625398E+03  0.94327485426E+02 0.  0.
          5    1    1    2  502    0  0.56939086869E+02 -0.39994943820E+02 -0.21179936569E+03  0.22297555662E+03  0.41800000000E+01 0.  1.
         -5    1    1    2    0  502  0.18532692539E+02  0.67337470505E+02 -0.95562596366E+02  0.11843765386E+03  0.41800000000E+01 0.  1.
        -11    1    3    3    0    0 -0.91709804708E+02 -0.52853843480E+01 -0.37711168877E+03  0.38813895627E+03  0.00000000000E+00 0. -1.
         11    1    3    3    0    0  0.16238025300E+02 -0.22057142336E+02 -0.56064532173E+02  0.62397297710E+02  0.00000000000E+00 0.  1.
</event>
<event>
 7    1  0.5137842E-006  0.1595955E+03  0.7561462E-02  0.1189154E+00
          2   -1    0    0  501    0  0.00000000000E+00  0.00000000000E+00  0.23802615930E+03  0.23802615930E+03  0.00000000000E+00 0.  1.
         -2   -1    0    0    0  501 -0.00000000000E+00 -0.00000000000E+00 -0.13981085159E+03  0.13981085159E+03  0.00000000000E+00 0. -1.
         23    2    1    2    0    0 -0.93361599738E+02 -0.84972901325E+02  0.12283137686E+03  0.19841887580E+03  0.91354917029E+02 0.  0.
          5    1    1    2  502    0  0.10936995891E+03  0.94481280950E+02  0.44387186979E+01  0.14465709448E+03  0.41800000000E+01 0. -1.
         -5    1    1    2    0  502 -0.16008359168E+02 -0.95083796247E+01 -0.29054787852E+02  0.34761040598E+02  0.41800000000E+01 0. -1.
        -11    1    3    3    0    0 -0.56260959071E+02  0.66665789654E+01  0.38800760393E+02  0.68667589136E+02  0.00000000000E+00 0.  1.
         11    1    3    3    0    0 -0.37100640667E+02 -0.91639480291E+02  0.84030616471E+02  0.12975128666E+03  0.00000000000E+00 0. -1.
</event>
<event>
 7    1  0.5137842E-006  0.1380811E+03  0.7561462E-02  0.1215935E+00
         -1   -1    0    0    0  501 -0.00000000000E+00  0.00000000000E+00  0.23787713132E+03  0.23787713132E+03  0.00000000000E+00 0.  1.
          1   -1    0    0  501    0  0.00000000000E+00 -0.00000000000E+00 -0.13878124069E+03  0.13878124069E+03  0.00000000000E+00 0. -1.
         23    2    1    2    0    0  0.10361048711E+03  0.32160230967E+02 -0.53429946534E+02  0.15153292249E+03  0.91312944964E+02 0.  0.
          5    1    1    2  502    0 -0.44782403505E+01 -0.42538056859E+02  0.12618098166E+00  0.42977078072E+02  0.41800000000E+01 0. -1.
         -5    1    1    2    0  502 -0.99132246758E+02  0.10377825892E+02  0.15239965618E+03  0.18214837145E+03  0.41800000000E+01 0. -1.
        -11    1    3    3    0    0 -0.50273022890E+01 -0.14382383650E+02 -0.26107491762E+02  0.30227931683E+02  0.00000000000E+00 0. -1.
         11    1    3    3    0    0  0.10863778940E+03  0.46542614617E+02 -0.27322454772E+02  0.12130499081E+03  0.00000000000E+00 0.  1.
</event>
<event>
 7    1  0.5137842E-006  0.1124180E+03  0.7561462E-02  0.1256157E+00
         -1   -1    0    0    0  501 -0.00000000000E+00  0.00000000000E+00  0.24189758096E+03  0.24189758096E+03  0.00000000000E+00 0.  1.
          1   -1    0    0  501    0  0.00000000000E+00 -0.00000000000E+00 -0.75965093117E+02  0.75965093117E+02  0.00000000000E+00 0. -1.
         23    2    1    2    0    0 -0.50083404763E+02 -0.18525664538E+02  0.40216276390E+01  0.10640915503E+03  0.91952091364E+02 0.  0.
          5    1    1    2  502    0  0.56629116572E+02  0.57826409792E+02  0.56799242209E+02  0.98966543986E+02  0.41800000000E+01 0. -1.
         -5    1    1    2    0  502 -0.65457118088E+01 -0.39300745254E+02  0.10511161799E+03  0.11248697506E+03  0.41800000000E+01 0. -1.
        -11    1    3    3    0    0 -0.63662498127E+02 -0.42241756829E+02  0.13294924482E+02  0.77550207639E+02  0.00000000000E+00 0.  1.
         11    1    3    3    0    0  0.13579093365E+02  0.23716092292E+02 -0.92732968427E+01  0.28858947391E+02  0.00000000000E+00 0. -1.
</event>
<event>
 7    1  0.5137842E-006  0.8948383E+02  0.7561462E-02  0.1304106E+00
         -1   -1    0    0    0  501 -0.00000000000E+00  0.00000000000E+00  0.28334232724E+02  0.28334232724E+02  0.00000000000E+00 0.  1.
          1   -1    0    0  501    0  0.00000000000E+00 -0.00000000000E+00 -0.46985931100E+03  0.46985931100E+03  0.00000000000E+00 0. -1.
         23    2    1    2    0    0 -0.12004817112E+02  0.26519730798E+02 -0.25279536161E+03  0.27002029468E+03  0.90321940480E+02 0.  0.
          5    1    1    2  502    0  0.81581646624E+01  0.32569070287E+02 -0.39161472770E+01  0.34060366990E+02  0.41800000000E+01 0. -1.
         -5    1    1    2    0  502  0.38466524500E+01 -0.59088801085E+02 -0.18481356939E+03  0.19411288206E+03  0.41800000000E+01 0. -1.
        -11    1    3    3    0    0  0.28575879787E+02 -0.10888290282E+02 -0.40978323600E+02  0.51130800658E+02  0.00000000000E+00 0.  1.
         11    1    3    3    0    0 -0.40580696900E+02  0.37408021080E+02 -0.21181703801E+03  0.21888949402E+03  0.00000000000E+00 0. -1.
</event>
<event>
 7    1  0.5137842E-006  0.1331836E+03  0.7561462E-02  0.1222807E+00
         -1   -1    0    0    0  501 -0.00000000000E+00  0.00000000000E+00  0.84517285490E+02  0.84517285490E+02  0.00000000000E+00 0.  1.
          1   -1    0    0  501    0  0.00000000000E+00 -0.00000000000E+00 -0.23056327741E+03  0.23056327741E+03  0.00000000000E+00 0. -1.
         23    2    1    2    0    0 -0.85466527339E+02 -0.47247704535E+01 -0.83980987129E+02  0.15129474342E+03  0.92252059254E+02 0.  0.
          5    1    1    2  502    0  0.35907751386E+02 -0.57089868554E+02 -0.48786215289E+02  0.83343787431E+02  0.41800000000E+01 0.  1.
         -5    1    1    2    0  502  0.49558775953E+02  0.61814639008E+02 -0.13278789506E+02  0.80442032050E+02  0.41800000000E+01 0.  1.
        -11    1    3    3    0    0 -0.68866005811E+02 -0.40587925965E+02 -0.32252866790E+02  0.86198340510E+02  0.00000000000E+00 0.  1.
         11    1    3    3    0    0 -0.16600521528E+02  0.35863155511E+02 -0.51728120339E+02  0.65096402911E+02  0.00000000000E+00 0. -1.
</event>
<event>
 7    1  0.5137842E-006  0.1105863E+03  0.7561462E-02  0.1259488E+00
         -2   -1    0    0    0  501 -0.00000000000E+00  0.00000000000E+00  0.16067308849E+02  0.16067308849E+02  0.00000000000E+00 0.  1.
          2   -1    0    0  501    0  0.00000000000E+00 -0.00000000000E+00 -0.88548642981E+03  0.88548642981E+03  0.00000000000E+00 0. -1.
         23    2    1    2    0    0 -0.54041094778E-01 -0.35954549680E+02 -0.48024961857E+03  0.49119600021E+03  0.96649272783E+02 0.  0.
          5    1    1    2  502    0  0.51351527899E+02 -0.82653299464E+01 -0.94224871743E+02  0.10770837457E+03  0.41800000000E+01 0. -1.
         -5    1    1    2    0  502 -0.51297486805E+02  0.44219879626E+02 -0.29494463065E+03  0.30264936388E+03  0.41800000000E+01 0. -1.
        -11    1    3    3    0    0  0.13392912295E+02  0.30513202027E+02 -0.11618129759E+03  0.12086570857E+03  0.00000000000E+00 0.  1.
         11    1    3    3    0    0 -0.13446953390E+02 -0.66467751707E+02 -0.36406832098E+03  0.37033029165E+03  0.00000000000E+00 0. -1.
</event>
<event>
 7    1  0.5137842E-006  0.8091083E+02  0.7561462E-02  0.1326486E+00
         -1   -1    0    0    0  501 -0.00000000000E+00  0.00000000000E+00  0.15983817367E+03  0.15983817367E+03  0.00000000000E+00 0.  1.
          1   -1    0    0  501    0  0.00000000000E+00 -0.00000000000E+00 -0.80103057343E+02  0.80103057343E+02  0.00000000000E+00 0. -1.
         23    2    1    2    0    0  0.89761581384E+01 -0.29897742422E+02  0.42425635051E+02  0.10572609579E+03  0.91671295428E+02 0.  0.
          5    1    1    2  502    0 -0.29594060803E+02 -0.16537032132E+02  0.67011792276E+02  0.75215254906E+02  0.41800000000E+01 0.  1.
         -5    1    1    2    0  502  0.20617902664E+02  0.46434774554E+02 -0.29702311000E+02  0.58999880312E+02  0.41800000000E+01 0.  1.
        -11    1    3    3    0    0  0.33388048691E+02 -0.38354135006E+02  0.56738727751E+02  0.76191106399E+02  0.00000000000E+00 0.  1.
         11    1    3    3    0    0 -0.24411890552E+02  0.84563925842E+01 -0.14313092701E+02  0.29534989395E+02  0.00000000000E+00 0. -1.
</event>
<event>
 7    1  0.5137842E-006  0.9029445E+02  0.7561462E-02  0.1302140E+00
          1   -1    0    0  501    0  0.00000000000E+00  0.00000000000E+00  0.31198606107E+03  0.31198606107E+03  0.00000000000E+00 0. -1.
         -1   -1    0    0    0  501 -0.00000000000E+00 -0.00000000000E+00 -0.52609863973E+02  0.52609863973E+02  0.00000000000E+00 0.  1.
         23    2    1    2    0    0 -0.30820981351E+02 -0.45359444241E+02  0.16856350770E+03  0.20057615174E+03  0.93860132353E+02 0.  0.
          5    1    1    2  502    0  0.77606708416E+01  0.74030183655E+02  0.10107280530E+03  0.12559411003E+03  0.41800000000E+01 0.  1.
         -5    1    1    2    0  502  0.23060310510E+02 -0.28670739414E+02 -0.10260115903E+02  0.38425663269E+02  0.41800000000E+01 0.  1.
        -11    1    3    3    0    0 -0.78218280877E+01 -0.45336264914E+02  0.17134092227E+03  0.17740989137E+03  0.00000000000E+00 0. -1.
         11    1    3    3    0    0 -0.22999153264E+02 -0.23179326615E-01 -0.27774145654E+01  0.23166260376E+02  0.00000000000E+00 0.  1.
</event>
<event>
 7    1  0.5137842E-006  0.9427888E+02  0.7561462E-02  0.1292809E+00
          2   -1    0    0  501    0  0.00000000000E+00  0.00000000000E+00  0.18840597695E+03  0.18840597695E+03  0.00000000000E+00 0. -1.
         -2   -1    0    0    0  501 -0.00000000000E+00 -0.00000000000E+00 -0.78064841676E+02  0.78064841676E+02  0.00000000000E+00 0.  1.
         23    2    1    2    0    0 -0.24795733118E+02 -0.26794741663E+01  0.10164187083E+03  0.13862371432E+03  0.90903554947E+02 0.  0.
          5    1    1    2  502    0 -0.47740033906E+02  0.20647338617E+02  0.92791825036E+01  0.52999991106E+02  0.41800000000E+01 0. -1.
         -5    1    1    2    0  502  0.72535767024E+02 -0.17967864451E+02 -0.57991805660E+00  0.74847113208E+02  0.41800000000E+01 0. -1.
        -11    1    3    3    0    0 -0.20575175951E+02  0.25653874155E+02 -0.14174251557E+00  0.32885851297E+02  0.00000000000E+00 0.  1.
         11    1    3    3    0    0 -0.42205571668E+01 -0.28333348321E+02  0.10178361335E+03  0.10573786302E+03  0.00000000000E+00 0. -1.
</event>
<event>
 7    1  0.5137842E-006  0.1392349E+03  0.7561462E-02  0.1214362E+00
          1   -1    0    0  501    0  0.00000000000E+00  0.00000000000E+00  0.48533563174E+03  0.48533563174E+03  0.00000000000E+00 0. -1.
         -1   -1    0    0    0  501 -0.00000000000E+00 -0.00000000000E+00 -0.83185630587E+02  0.83185630587E+02  0.00000000000E+00 0.  1.
         23    2    1    2    0    0  0.95310972190E+02  0.80346471393E+02  0.35333479403E+03  0.38531096943E+03  0.89885091121E+02 0.  0.
          5    1    1    2  502    0 -0.91604197929E+02 -0.69815904583E+02 -0.16845049270E+02  0.11647668306E+03  0.41800000000E+01 0. -1.
         -5    1    1    2    0  502 -0.37067742614E+01 -0.10530566810E+02  0.65660256393E+02  0.66733609841E+02  0.41800000000E+01 0. -1.
        -11    1    3    3    0    0  0.99015296826E+01  0.63467836343E+02  0.11737999521E+03  0.13380683770E+03  0.00000000000E+00 0.  1.
         11    1    3    3    0    0  0.85409442507E+02  0.16878635050E+02  0.23595479882E+03  0.25150413172E+03  0.00000000000E+00 0. -1.
</event>
<event>
 7    1  0.5137842E-006  0.2255165E+03  0.7561462E-02  0.1129836E+00
          1   -1    0    0  501    0  0.00000000000E+00  0.00000000000E+00  0.92321010545E+03  0.92321010545E+03  0.00000000000E+00 0. -1.
         -1   -1    0    0    0  501 -0.00000000000E+00 -0.00000000000E+00 -0.69555493939E+02  0.69555493939E+02  0.00000000000E+00 0.  1.
         23    2    1    2    0    0  0.15580245866E+03 -0.13460950674E+03  0.60951563184E+03  0.64977063258E+03  0.91095796153E+02 0.  0.
          5    1    1    2  502    0 -0.15589086185E+03  0.15513644796E+03  0.22279370164E+03  0.31308750244E+03  0.41800000000E+01 0. -1.
         -5    1    1    2    0  502  0.88403187000E-01 -0.20526941216E+02  0.21345278031E+02  0.29907464370E+02  0.41800000000E+01 0. -1.
        -11    1    3    3    0    0  0.21744326937E+02 -0.41634544531E+02  0.25800310850E+03  0.26224388467E+03  0.00000000000E+00 0.  1.
         11    1    3    3    0    0  0.13405813172E+03 -0.92974962211E+02  0.35151252334E+03  0.38752674790E+03  0.00000000000E+00 0. -1.
</event>
<event>
 7    1  0.5137842E-006  0.1137270E+03  0.7561462E-02  0.1253820E+00
         -2   -1    0    0    0  501 -0.00000000000E+00  0.00000000000E+00  0.39063153052E+02  0.39063153052E+02  0.00000000000E+00 0. -1.
          2   -1    0    0  501    0  0.00000000000E+00 -0.00000000000E+00 -0.64184663196E+03  0.64184663196E+03  0.00000000000E+00 0.  1.
         23    2    1    2    0    0  0.55095749922E+02 -0.74699800745E+01 -0.49513497412E+03  0.50676035522E+03  0.92499041951E+02 0.  0.
          5    1    1    2  502    0  0.17358762696E+02 -0.33578183359E+02 -0.54996911718E-01  0.38030204637E+02  0.41800000000E+01 0. -1.
         -5    1    1    2    0  502 -0.72454512618E+02  0.41048163434E+02 -0.10759350787E+03  0.13611922515E+03  0.41800000000E+01 0. -1.
        -11    1    3    3    0    0  0.76765182180E+02 -0.22118854874E+02 -0.40950065649E+03  0.41722047481E+03  0.00000000000E+00 0.  1.
         11    1    3    3    0    0 -0.21669432258E+02  0.14648874799E+02 -0.85634317639E+02  0.89539880415E+02  0.00000000000E+00 0. -1.
</event>
<event>
 7    1  0.5137842E-006  0.9595449E+02  0.7561462E-02  0.1289041E+00
         -1   -1    0    0    0  501 -0.00000000000E+00  0.00000000000E+00  0.80989564286E+02  0.80989564286E+02  0.00000000000E+00 0.  1.
          1   -1    0    0  501    0  0.00000000000E+00 -0.00000000000E+00 -0.20491263044E+03  0.20491263044E+03  0.00000000000E+00 0. -1.
         23    2    1    2    0    0 -0.48891017011E+02 -0.40024864700E+02 -0.86441639452E+02  0.14083494193E+03  0.91487717752E+02 0.  0.
          5    1    1    2  502    0 -0.98814983843E+01  0.49016920721E+02 -0.62736257790E+02  0.80334382233E+02  0.41800000000E+01 0.  1.
         -5    1    1    2    0  502  0.58772515395E+02 -0.89920560215E+01  0.25254831090E+02  0.64732870558E+02  0.41800000000E+01 0.  1.
        -11    1    3    3    0    0 -0.71022021355E+01  0.12881027242E+02 -0.69880126660E+02  0.71411443340E+02  0.00000000000E+00 0. -1.
         11    1    3    3    0    0 -0.41788814875E+02 -0.52905891942E+02 -0.16561512792E+02  0.69423498592E+02  0.00000000000E+00 0.  1.
</event>
<event>
 7    1  0.5137842E-006  0.3795088E+03  0.7561462E-02  0.1051115E+00
         -4   -1    0    0    0  501 -0.00000000000E+00  0.00000000000E+00  0.10350429075E+04  0.10350429075E+04  0.00000000000E+00 0. -1.
          4   -1    0    0  501    0  0.00000000000E+00 -0.00000000000E+00 -0.15627569515E+03  0.15627569515E+03  0.00000000000E+00 0.  1.
         23    2    1    2    0    0  0.22720573383E+03 -0.29219623228E+03  0.26626369531E+03  0.46481376434E+03  0.90301696738E+02 0.  0.
          5    1    1    2  502    0 -0.23349817695E+02  0.88316710083E+02  0.22986398459E+03  0.24738629525E+03  0.41800000000E+01 0. -1.
         -5    1    1    2    0  502 -0.20385591614E+03  0.20387952220E+03  0.38263953247E+03  0.47911854308E+03  0.41800000000E+01 0. -1.
        -11    1    3    3    0    0  0.63490471530E+01 -0.54096686742E+02  0.23373469018E+02  0.59271249102E+02  0.00000000000E+00 0. -1.
         11    1    3    3    0    0  0.22085668668E+03 -0.23809954554E+03  0.24289022629E+03  0.40554251524E+03  0.00000000000E+00 0.  1.
</event>
<event>
 7    1  0.5137842E-006  0.5755684E+02  0.7561462E-02  0.1408380E+00
         -1   -1    0    0    0  501 -0.00000000000E+00  0.00000000000E+00  0.49426599273E+02  0.49426599273E+02  0.00000000000E+00 0.  1.
          1   -1    0    0  501    0  0.00000000000E+00 -0.00000000000E+00 -0.28079758227E+03  0.28079758227E+03  0.00000000000E+00 0. -1.
         23    2    1    2    0    0 -0.83585801938E+00  0.42814370346E+02 -0.73903930144E+02  0.12461768193E+03  0.90741428195E+02 0.  0.
          5    1    1    2  502    0 -0.11692704122E+02 -0.52988383142E+02 -0.17388789484E+03  0.18220581892E+03  0.41800000000E+01 0. -1.
         -5    1    1    2    0  502  0.12528562141E+02  0.10174012796E+02  0.16420841983E+02  0.23400680698E+02  0.41800000000E+01 0. -1.
        -11    1    3    3    0    0  0.46590046594E+01  0.22220039686E+02  0.18811296494E+02  0.29483917037E+02  0.00000000000E+00 0.  1.
         11    1    3    3    0    0 -0.54948626788E+01  0.20594330660E+02 -0.92715226638E+02  0.95133764888E+02  0.00000000000E+00 0. -1.
</event>
<event>
 7    1  0.5137842E-006  0.1020703E+03  0.7561462E-02  0.1276002E+00
          1   -1    0    0  501    0  0.00000000000E+00  0.00000000000E+00  0.12133758051E+02  0.12133758051E+02  0.00000000000E+00 0. -1.
         -1   -1    0    0    0  501 -0.00000000000E+00 -0.00000000000E+00 -0.14712305866E+04  0.14712305866E+04  0.00000000000E+00 0.  1.
         23    2    1    2    0    0  0.48740382976E+01  0.32161325707E+02 -0.27545265986E+03  0.29268435285E+03  0.93444397671E+02 0.  0.
          5    1    1    2  502    0  0.14990742922E+02 -0.65526350386E+02 -0.36871358450E+03  0.37481409361E+03  0.41800000000E+01 0.  1.
         -5    1    1    2    0  502 -0.19864781220E+02  0.33365024680E+02 -0.81493058423E+03  0.81586589824E+03  0.41800000000E+01 0.  1.
        -11    1    3    3    0    0  0.35262097678E+02  0.50984658519E+02 -0.15183262171E+03  0.16399998766E+03  0.00000000000E+00 0.  1.
         11    1    3    3    0    0 -0.30388059381E+02 -0.18823332812E+02 -0.12362003815E+03  0.12868436519E+03  0.00000000000E+00 0. -1.
</event>
<event>
 7    1  0.5137842E-006  0.1677319E+03  0.7561462E-02  0.1180234E+00
          1   -1    0    0  501    0  0.00000000000E+00  0.00000000000E+00  0.11663628677E+04  0.11663628677E+04  0.00000000000E+00 0. -1.
         -1   -1    0    0    0  501 -0.00000000000E+00 -0.00000000000E+00 -0.24866594251E+02  0.24866594251E+02  0.00000000000E+00 0.  1.
         23    2    1    2    0    0 -0.12637681819E+03 -0.27210574280E+02  0.60330650882E+03  0.62377288329E+03  0.91664337757E+02 0.  0.
          5    1    1    2  502    0  0.12261773408E+03 -0.26177306439E+02  0.39976636321E+03  0.41898803997E+03  0.41800000000E+01 0. -1.
         -5    1    1    2    0  502  0.37590841178E+01  0.53387880719E+02  0.13842340145E+03  0.14846853872E+03  0.41800000000E+01 0. -1.
        -11    1    3    3    0    0 -0.80727964302E+02 -0.59610897850E+02  0.33589859706E+03  0.35056858226E+03  0.00000000000E+00 0.  1.
         11    1    3    3    0    0 -0.45648853893E+02  0.32400323570E+02  0.26740791176E+03  0.27320430103E+03  0.00000000000E+00 0. -1.
</event>
<event>
 7    1  0.5137842E-006  0.1506572E+03  0.7561462E-02  0.1199668E+00
          1   -1    0    0  501    0  0.00000000000E+00  0.00000000000E+00  0.48839276895E+03  0.48839276895E+03  0.00000000000E+00 0. -1.
         -1   -1    0    0    0  501 -0.00000000000E+00 -0.00000000000E+00 -0.10490795608E+03  0.10490795608E+03  0.00000000000E+00 0.  1.
         23    2    1    2    0    0 -0.10736807695E+03  0.53135700238E+02  0.39195846119E+03  0.41989755899E+03  0.91275506931E+02 0.  0.
          5    1    1    2  502    0  0.44771450574E+02  0.28798269758E+02  0.32344564908E+02  0.62429691707E+02  0.41800000000E+01 0.  1.
         -5    1    1    2    0  502  0.62596626378E+02 -0.81933969996E+02 -0.40818213232E+02  0.11097347433E+03  0.41800000000E+01 0.  1.
        -11    1    3    3    0    0 -0.55362200488E+02  0.70731028427E+02  0.29617145819E+03  0.30949213927E+03  0.00000000000E+00 0.  1.
         11    1    3    3    0    0 -0.52005876463E+02 -0.17595328189E+02  0.95787002997E+02  0.11040541972E+03  0.00000000000E+00 0. -1.
</event>
<event>
 7    1  0.5137842E-006  0.2807611E+03  0.7561462E-02  0.1095274E+00
         -1   -1    0    0    0  501 -0.00000000000E+00  0.00000000000E+00  0.94770980838E+02  0.94770980838E+02  0.00000000000E+00 0.  1.
          1   -1    0    0  501    0  0.00000000000E+00 -0.00000000000E+00 -0.86207171769E+03  0.86207171769E+03  0.00000000000E+00 0. -1.
         23    2    1    2    0    0 -0.26203923807E+03 -0.44211393419E+01 -0.43160825708E+03  0.51299080646E+03  0.90497354481E+02 0.  0.
          5    1    1    2  502    0  0.21588204899E+02 -0.38804389078E+02 -0.68910261657E+02  0.82084881459E+02  0.41800000000E+01 0.  1.
         -5    1    1    2    0  502  0.24045103318E+03  0.43225528420E+02 -0.26678221811E+03  0.36176701060E+03  0.41800000000E+01 0.  1.
        -11    1    3    3    0    0 -0.98930947106E+02 -0.38129287936E+02 -0.21529214593E+03  0.23998308897E+03  0.00000000000E+00 0. -1.
         11    1    3    3    0    0 -0.16310829097E+03  0.33708148594E+02 -0.21631611116E+03  0.27300771749E+03  0.00000000000E+00 0.  1.
</event>
<event>
 7    1  0.5137842E-006  0.1223856E+03  0.7561462E-02  0.1239213E+00
          4   -1    0    0  501    0  0.00000000000E+00  0.00000000000E+00  0.62132626922E+02  0.62132626922E+02  0.00000000000E+00 0. -1.
         -4   -1    0    0    0  501 -0.00000000000E+00 -0.00000000000E+00 -0.39647403703E+03  0.39647403703E+03  0.00000000000E+00 0.  1.
         23    2    1    2    0    0  0.11079323949E+03 -0.97149839887E+01 -0.12419220430E+03  0.18994293902E+03  0.91022489773E+02 0.  0.
          5    1    1    2  502    0 -0.83445500877E+02  0.37499161855E+02 -0.51138335572E+02  0.10489013548E+03  0.41800000000E+01 0.  1.
         -5    1    1    2    0  502 -0.27347738615E+02 -0.27784177866E+02 -0.15901087024E+03  0.16377358945E+03  0.41800000000E+01 0.  1.
        -11    1    3    3    0    0  0.34181585202E+02  0.85276362814E+01 -0.10231030553E+03  0.10820582223E+03  0.00000000000E+00 0.  1.
         11    1    3    3    0    0  0.76611654289E+02 -0.18242620270E+02 -0.21881898769E+02  0.81737116789E+02  0.00000000000E+00 0. -1.
</event>
<event>
 7    1  0.5137842E-006  0.1109390E+03  0.7561462E-02  0.1258841E+00
          2   -1    0    0  501    0  0.00000000000E+00  0.00000000000E+00  0.66079189024E+02  0.66079189024E+02  0.00000000000E+00 0.  1.
         -2   -1    0    0    0  501 -0.00000000000E+00 -0.00000000000E+00 -0.24680737402E+03  0.24680737402E+03  0.00000000000E+00 0. -1.
         23    2    1    2    0    0  0.36671192562E+02  0.49474482376E+01 -0.10946238741E+02  0.98774537653E+02  0.90924889541E+02 0.  0.
          5    1    1    2  502    0  0.42220529058E+02  0.98750774355E+01 -0.94168839036E+02  0.10375612210E+03  0.41800000000E+01 0. -1.
         -5    1    1    2    0  502 -0.78891721620E+02 -0.14822525673E+02 -0.75613107220E+02  0.11035590329E+03  0.41800000000E+01 0. -1.
        -11    1    3    3    0    0 -0.24986593501E+02 -0.19411816659E+02 -0.67066298025E+01  0.32343892222E+02  0.00000000000E+00 0. -1.
         11    1    3    3    0    0  0.61657786063E+02  0.24359264896E+02 -0.42396089387E+01  0.66430645431E+02  0.00000000000E+00 0.  1.
</event>
<event>
 7    1  0.5137842E-006  0.1137487E+03  0.7561462E-02  0.1253781E+00
         -2   -1    0    0    0  501 -0.00000000000E+00  0.00000000000E+00  0.43148682364E+03  0.43148682364E+03  0.00000000000E+00 0.  1.
          2   -1    0    0  501    0  0.00000000000E+00 -0.00000000000E+00 -0.37958312580E+02  0.37958312580E+02  0.00000000000E+00 0. -1.
         23    2    1    2    0    0 -0.56668347906E+01  0.51256074842E+02  0.94144970103E+02  0.14090668177E+03  0.91280443397E+02 0.  0.
          5    1    1    2  502    0 -0.52524460497E+02 -0.12438412758E+02  0.19818366771E+03  0.20544530078E+03  0.41800000000E+01 0. -1.
         -5    1    1    2    0  502  0.58191295288E+02 -0.38817662083E+02  0.10119987324E+03  0.12309315367E+03  0.41800000000E+01 0. -1.
        -11    1    3    3    0    0  0.10661181998E+02 -0.24008074366E+02  0.14042943688E+02  0.29786787402E+02  0.00000000000E+00 0. -1.
         11    1    3    3    0    0 -0.16328016789E+02  0.75264149207E+02  0.80102026415E+02  0.11111989437E+03  0.00000000000E+00 0.  1.
</event>
<event>
 7    1  0.5137842E-006  0.1241713E+03  0.7561462E-02  0.1236370E+00
          3   -1    0    0  501    0  0.00000000000E+00  0.00000000000E+00  0.29767054445E+03  0.29767054445E+03  0.00000000000E+00 0. -1.
         -3   -1    0    0    0  501 -0.00000000000E+00 -0.00000000000E+00 -0.63351354326E+02  0.63351354326E+02  0.00000000000E+00 0.  1.
         23    2    1    2    0    0 -0.20285875963E+01  0.81856753751E+02  0.12945777967E+03  0.17840442965E+03  0.91455893736E+02 0.  0.
          5    1    1    2  502    0 -0.23406624205E+02  0.24739880975E+02  0.48227607035E+02  0.59188734128E+02  0.41800000000E+01 0. -1.
         -5    1    1    2    0  502  0.25435211801E+02 -0.10659663473E+03  0.56633803425E+02  0.12342873500E+03  0.41800000000E+01 0. -1.
        -11    1    3    3    0    0  0.29047537369E+02  0.20406142728E+02  0.45723747653E+01  0.35792131806E+02  0.00000000000E+00 0.  1.
         11    1    3    3    0    0 -0.31076124965E+02  0.61450611023E+02  0.12488540490E+03  0.14261229784E+03  0.00000000000E+00 0. -1.
</event>
<event>
 7    1  0.5137842E-006  0.1192691E+03  0.7561462E-02  0.1244308E+00
          1   -1    0    0  501    0  0.00000000000E+00  0.00000000000E+00  0.12924681438E+03  0.12924681438E+03  0.00000000000E+00 0. -1.
         -1   -1    0    0    0  501 -0.00000000000E+00 -0.00000000000E+00 -0.11965412176E+03  0.11965412176E+03  0.00000000000E+00 0.  1.
         23    2    1    2    0    0 -0.47193683243E+02  0.35262816256E+02  0.16525608618E+02  0.11045769240E+03  0.91962471265E+02 0.  0.
          5    1    1    2  502    0  0.55976072893E+02  0.34785226003E+02 -0.13556921844E+02  0.67413612976E+02  0.41800000000E+01 0.  1.
         -5    1    1    2    0  502 -0.87823896502E+01 -0.70048042259E+02  0.66240058464E+01  0.71029630759E+02  0.41800000000E+01 0.  1.
        -11    1    3    3    0    0  0.24019415827E+02  0.12109341677E+02 -0.13110241832E+02  0.29924019339E+02  0.00000000000E+00 0.  1.
         11    1    3    3    0    0 -0.71213099071E+02  0.23153474579E+02  0.29635850450E+02  0.80533673058E+02  0.00000000000E+00 0. -1.
</event>
<event>
 7    1  0.5137842E-006  0.1322479E+03  0.7561462E-02  0.1224158E+00
         -4   -1    0    0    0  501 -0.00000000000E+00  0.00000000000E+00  0.29329781049E+03  0.29329781049E+03  0.00000000000E+00 0.  1.
          4   -1    0    0  501    0  0.00000000000E+00 -0.00000000000E+00 -0.10460128133E+03  0.10460128133E+03  0.00000000000E+00 0. -1.
         23    2    1    2    0    0 -0.48954248663E+02  0.11718818305E+03  0.29806723657E+02  0.15910443016E+03  0.91083424472E+02 0.  0.
          5    1    1    2  502    0  0.47799195066E+02 -0.11240008772E+03  0.17952292517E+03  0.21717388386E+03  0.41800000000E+01 0.  1.
         -5    1    1    2    0  502  0.11550535968E+01 -0.47880953280E+01 -0.20633119662E+02  0.21620777800E+02  0.41800000000E+01 0.  1.
        -11    1    3    3    0    0 -0.36317349301E+02  0.28302577326E+02  0.49061887387E+02  0.67283389759E+02  0.00000000000E+00 0.  1.
         11    1    3    3    0    0 -0.12636899362E+02  0.88885605727E+02 -0.19255163729E+02  0.91821040406E+02  0.00000000000E+00 0. -1.
</event>
<event>
 7    1  0.5137842E-006  0.1042723E+03  0.7561462E-02  0.1271560E+00
          1   -1    0    0  501    0  0.00000000000E+00  0.00000000000E+00  0.27386489374E+03  0.27386489374E+03  0.00000000000E+00 0. -1.
         -1   -1    0    0    0  501 -0.00000000000E+00 -0.00000000000E+00 -0.67209758783E+02  0.67209758783E+02  0.00000000000E+00 0.  1.
         23    2    1    2    0    0  0.59585908669E+02  0.36077710768E+02  0.14529014217E+03  0.18530269543E+03  0.91519297393E+02 0.  0.
          5    1    1    2  502    0 -0.35931916536E+01  0.16080082921E+02 -0.31242182489E+02  0.35567210457E+02  0.41800000000E+01 0.  1.
         -5    1    1    2    0  502 -0.55992717016E+02 -0.52157793689E+02  0.92607175278E+02  0.12020474664E+03  0.41800000000E+01 0.  1.
        -11    1    3    3    0    0  0.27655936783E+02  0.65744763251E+02  0.93947951542E+02  0.11795525564E+03  0.00000000000E+00 0.  1.
         11    1    3    3    0    0  0.31929971886E+02 -0.29667052482E+02  0.51342190628E+02  0.67347439789E+02  0.00000000000E+00 0. -1.
</event>
<event>
 7    1  0.5137842E-006  0.2380322E+03  0.7561462E-02  0.1121111E+00
         -1   -1    0    0    0  501 -0.00000000000E+00  0.00000000000E+00  0.32289709118E+03  0.32289709118E+03  0.00000000000E+00 0.  1.
          1   -1    0    0  501    0  0.00000000000E+00 -0.00000000000E+00 -0.24296253102E+03  0.24296253102E+03  0.00000000000E+00 0. -1.
         23    2    1    2    0    0  0.20653923141E+03 -0.67507938035E+02 -0.10182200991E+03  0.25618281066E+03  0.89700250657E+02 0.  0.
          5    1    1    2  502    0 -0.21690754518E+03  0.43648787612E+02  0.14544432232E+03  0.26481243005E+03  0.41800000000E+01 0.  1.
         -5    1    1    2    0  502  0.10368313767E+02  0.23859150423E+02  0.36312247750E+02  0.44864381484E+02  0.41800000000E+01 0.  1.
        -11    1    3    3    0    0  0.83993460577E+02 -0.64391334292E+02 -0.77577880515E+02  0.13122298921E+03  0.00000000000E+00 0. -1.
         11    1    3    3    0    0  0.12254577083E+03 -0.31166037424E+01 -0.24244129399E+02  0.12495982146E+03  0.00000000000E+00 0.  1.
</event>
<event>
 7    1  0.5137842E-006  0.1163319E+03  0.7561462E-02  0.1249274E+00
         -2   -1    0    0    0  501 -0.00000000000E+00  0.00000000000E+00  0.23165880418E+02  0.23165880418E+02  0.00000000000E+00 0.  1.
          2   -1    0    0  501    0  0.00000000000E+00 -0.00000000000E+00 -0.67559863367E+03  0.67559863367E+03  0.00000000000E+00 0. -1.
         23    2    1    2    0    0  0.33280109846E+02  0.49162230996E+02 -0.34193389311E+03  0.35878908531E+03  0.91029279968E+02 0.  0.
          5    1    1    2  502    0  0.89997946454E+01  0.33881318639E+02 -0.37610753047E+02  0.51584699293E+02  0.41800000000E+01 0. -1.
         -5    1    1    2    0  502 -0.42279904492E+02 -0.83043549635E+02 -0.27288810709E+03  0.28839072948E+03  0.41800000000E+01 0. -1.
        -11    1    3    3    0    0 -0.16517081697E+02  0.51642593582E+02 -0.12594352729E+03  0.13711872055E+03  0.00000000000E+00 0. -1.
         11    1    3    3    0    0  0.49797191543E+02 -0.24803625866E+01 -0.21599036582E+03  0.22167036476E+03  0.00000000000E+00 0.  1.
</event>
<event>
 7    1  0.5137842E-006  0.8002724E+02  0.7561462E-02  0.1328974E+00
          1   -1    0    0  501    0  0.00000000000E+00  0.00000000000E+00  0.12167817659E+03  0.12167817659E+03  0.00000000000E+00 0. -1.
         -1   -1    0    0    0  501 -0.00000000000E+00 -0.00000000000E+00 -0.10193138190E+03  0.10193138190E+03  0.00000000000E+00 0.  1.
         23    2    1    2    0    0  0.18514690929E+02 -0.27707814330E+01  0.21950667594E+02  0.97091029820E+02  0.92705799461E+02 0.  0.
          5    1    1    2  502    0 -0.42575290238E+02  0.35111508656E+02 -0.42186760804E+02  0.69589284851E+02  0.41800000000E+01 0. -1.
         -5    1    1    2    0  502  0.24060599309E+02 -0.32340727224E+02  0.39982887908E+02  0.56929243820E+02  0.41800000000E+01 0. -1.
        -11    1    3    3    0    0  0.15415734003E+02  0.28691510681E+02 -0.24602173432E+02  0.40818066803E+02  0.00000000000E+00 0.  1.
         11    1    3    3    0    0  0.30989569257E+01 -0.31462292114E+02  0.46552841026E+02  0.56272963016E+02  0.00000000000E+00 0. -1.
</event>
<event>
 7    1  0.5137842E-006  0.1277719E+03  0.7561462E-02  0.1230800E+00
         -1   -1    0    0    0  501 -0.00000000000E+00  0.00000000000E+00  0.46125028887E+02  0.46125028887E+02  0.00000000000E+00 0.  1.
          1   -1    0    0  501    0  0.00000000000E+00 -0.00000000000E+00 -0.51511573794E+03  0.51511573794E+03  0.00000000000E+00 0. -1.
         23    2    1    2    0    0 -0.77934844479E+02 -0.74269015591E+02 -0.23893501587E+03  0.27811019072E+03  0.93089256705E+02 0.  0.
          5    1    1    2  502    0  0.51730066570E+01  0.30318514223E+02 -0.18352851452E+03  0.18613479079E+03  0.41800000000E+01 0. -1.
         -5    1    1    2    0  502  0.72761837822E+02  0.43950501368E+02 -0.46527178665E+02  0.96995785312E+02  0.41800000000E+01 0. -1.
        -11    1    3    3    0    0 -0.92623085389E+02 -0.37725571368E+02 -0.14393718011E+03  0.17527169338E+03  0.00000000000E+00 0.  1.
         11    1    3    3    0    0  0.14688240910E+02 -0.36543444223E+02 -0.94997835757E+02  0.10283849734E+03  0.00000000000E+00 0. -1.
</event>
<event>
 7    1  0.5137842E-006  0.1155598E+03  0.7561462E-02  0.1250607E+00
         -1   -1    0    0    0  501 -0.00000000000E+00  0.00000000000E+00  0.36155649491E+02  0.36155649491E+02  0.00000000000E+00 0.  1.
          1   -1    0    0  501    0  0.00000000000E+00 -0.00000000000E+00 -0.65285900119E+03  0.65285900119E+03  0.00000000000E+00 0. -1.
         23    2    1    2    0    0  0.56618260569E+02  0.45194636162E+02 -0.46618280185E+03  0.48032774545E+03  0.90222811651E+02 0.  0.
          5    1    1    2  502    0 -0.11109030950E+02  0.32842140752E+02 -0.98163888054E+02  0.10419039349E+03  0.41800000000E+01 0. -1.
         -5    1    1    2    0  502 -0.45509229619E+02 -0.78036776914E+02 -0.52356661797E+02  0.10449651174E+03  0.41800000000E+01 0. -1.
        -11    1    3    3    0    0  0.69793187103E+02  0.55392892370E+02 -0.44243583349E+03  0.45131909803E+03  0.00000000000E+00 0. -1.
         11    1    3    3    0    0 -0.13174926534E+02 -0.10198256208E+02 -0.23746968356E+02  0.29008647417E+02  0.00000000000E+00 0.  1.
</event>
<event>
 7    1  0.5137842E-006  0.2496464E+03  0.7561462E-02  0.1113528E+00
          1   -1    0    0  501    0  0.00000000000E+00  0.00000000000E+00  0.14255403265E+04  0.14255403265E+04  0.00000000000E+00 0. -1.
         -1   -1    0    0    0  501 -0.00000000000E+00 -0.00000000000E+00 -0.52545007134E+02  0.52545007134E+02  0.00000000000E+00 0.  1.
         23    2    1    2    0    0 -0.19767004411E+03  0.12275253270E+03  0.92319627137E+03  0.95644945539E+03  0.91447113826E+02 0.  0.
          5    1    1    2  502    0  0.19656003418E+03 -0.13544185830E+03  0.44860413795E+03  0.50817663170E+03  0.41800000000E+01 0.  1.
         -5    1    1    2    0  502  0.11100099305E+01  0.12689325603E+02  0.11949099970E+01  0.13459246494E+02  0.41800000000E+01 0.  1.
        -11    1    3    3    0    0 -0.10116529850E+03  0.14629017316E+02  0.31253051672E+03  0.32882175969E+03  0.00000000000E+00 0.  1.
         11    1    3    3    0    0 -0.96504745615E+02  0.10812351538E+03  0.61066575465E+03  0.62762769570E+03  0.00000000000E+00 0. -1.
</event>
<event>
 7    1  0.5137842E-006  0.1109185E+03  0.7561462E-02  0.1258878E+00
          1   -1    0    0  501    0  0.00000000000E+00  0.00000000000E+00  0.50193616390E+03  0.50193616390E+03  0.00000000000E+00 0. -1.
         -1   -1    0    0    0  501 -0.00000000000E+00 -0.00000000000E+00 -0.39098225302E+02  0.39098225302E+02  0.00000000000E+00 0.  1.
         23    2    1    2    0    0 -0.82743180659E+01 -0.87370823772E+02  0.24552044174E+03  0.27537046813E+03  0.88580371546E+02 0.  0.
          5    1    1    2  502    0  0.36339050088E+02  0.26658810733E+02  0.81077960239E+01  0.45982904512E+02  0.41800000000E+01 0.  1.
         -5    1    1    2    0  502 -0.28064732022E+02  0.60712013039E+02  0.20920970084E+03  0.21968101656E+03  0.41800000000E+01 0.  1.
        -11    1    3    3    0    0  0.27808681136E+02 -0.24460983704E+02  0.29035994856E+02  0.47061146050E+02  0.00000000000E+00 0.  1.
         11    1    3    3    0    0 -0.36082999202E+02 -0.62909840068E+02  0.21648444688E+03  0.22830932208E+03  0.00000000000E+00 0. -1.
</event>
<event>
 7    1  0.5137842E-006  0.1412940E+03  0.7561462E-02  0.1211598E+00
          2   -1    0    0  501    0  0.00000000000E+00  0.00000000000E+00  0.62312432589E+03  0.62312432589E+03  0.00000000000E+00 0. -1.
         -2   -1    0    0    0  501 -0.00000000000E+00 -0.00000000000E+00 -0.39809568662E+02  0.39809568662E+02  0.00000000000E+00 0.  1.
         23    2    1    2    0    0  0.56775370421E+02 -0.95005972408E+02  0.37588122751E+03  0.39661444710E+03  0.61373813421E+02 0.  0.
          5    1    1    2  502    0  0.36299006359E+01 -0.26159410227E+02  0.14018101676E+02  0.30190569664E+02  0.41800000000E+01 0.  1.
         -5    1    1    2    0  502 -0.60405271057E+02  0.12116538263E+03  0.19341542804E+03  0.23612887778E+03  0.41800000000E+01 0.  1.
        -11    1    3    3    0    0  0.53232870097E+02 -0.43435989152E+02  0.15142233600E+03  0.16628032791E+03  0.00000000000E+00 0. -1.
         11    1    3    3    0    0  0.35425003239E+01 -0.51569983256E+02  0.22445889152E+03  0.23033411919E+03  0.00000000000E+00 0.  1.
</event>
<event>
 7    1  0.5137842E-006  0.1119191E+03  0.7561462E-02  0.1257057E+00
          1   -1    0    0  501    0  0.00000000000E+00  0.00000000000E+00  0.52191953748E+03  0.52191953748E+03  0.00000000000E+00 0. -1.
         -1   -1    0    0    0  501 -0.00000000000E+00 -0.00000000000E+00 -0.47477823861E+02  0.47477823861E+02  0.00000000000E+00 0.  1.
         23    2    1    2    0    0 -0.61994972255E+02 -0.21700330422E+02  0.38878172160E+03  0.40417291950E+03  0.88827027881E+02 0.  0.
          5    1    1    2  502    0 -0.28463282170E+02  0.27013859806E+01 -0.11460148758E+02  0.31084776461E+02  0.41800000000E+01 0. -1.
         -5    1    1    2    0  502  0.90458254425E+02  0.18998944441E+02  0.97120140776E+02  0.13413966538E+03  0.41800000000E+01 0. -1.
        -11    1    3    3    0    0 -0.64981444877E+02 -0.44926214621E+02  0.35053529606E+03  0.35932707485E+03  0.00000000000E+00 0. -1.
         11    1    3    3    0    0  0.29864726227E+01  0.23225884200E+02  0.38246425542E+02  0.44845844649E+02  0.00000000000E+00 0.  1.
</event>
<event>
 7    1  0.5137842E-006  0.2332373E+03  0.7561462E-02  0.1124382E+00
         -2   -1    0    0    0  501 -0.00000000000E+00  0.00000000000E+00  0.33300752406E+02  0.33300752406E+02  0.00000000000E+00 0. -1.
          2   -1    0    0  501    0  0.00000000000E+00 -0.00000000000E+00 -0.18125049390E+04  0.18125049390E+04  0.00000000000E+00 0.  1.
         23    2    1    2    0    0  0.21360826477E+03 -0.32849598119E+02 -0.10195079672E+04  0.10461239320E+04  0.90946133372E+02 0.  0.
          5    1    1    2  502    0 -0.16302132833E+03  0.78906419156E+02 -0.55290121707E+03  0.58182420430E+03  0.41800000000E+01 0.  1.
         -5    1    1    2    0  502 -0.50586936444E+02 -0.46056821037E+02 -0.20679500237E+03  0.21785755508E+03  0.41800000000E+01 0.  1.
        -11    1    3    3    0    0  0.14605244417E+03 -0.14508196192E+02 -0.85244439451E+03  0.86498742762E+03  0.00000000000E+00 0.  1.
         11    1    3    3    0    0  0.67555820608E+02 -0.18341401927E+02 -0.16706357266E+03  0.18113650442E+03  0.00000000000E+00 0. -1.
</event>
<event>
 7    1  0.5137842E-006  0.8388084E+02  0.7561462E-02  0.1318385E+00
         -1   -1    0    0    0  501 -0.00000000000E+00  0.00000000000E+00  0.36383537408E+02  0.36383537408E+02  0.00000000000E+00 0.  1.
          1   -1    0    0  501    0  0.00000000000E+00 -0.00000000000E+00 -0.43187965927E+03  0.43187965927E+03  0.00000000000E+00 0. -1.
         23    2    1    2    0    0  0.87911035971E+01 -0.31582240018E+02 -0.27267504383E+03  0.28991575252E+03  0.92869492526E+02 0.  0.
          5    1    1    2  502    0 -0.42910083620E+02  0.38627880591E+02 -0.81861786356E+01  0.58462589371E+02  0.41800000000E+01 0.  1.
         -5    1    1    2    0  502  0.34118980023E+02 -0.70456405734E+01 -0.11463489940E+03  0.11988485479E+03  0.41800000000E+01 0.  1.
        -11    1    3    3    0    0 -0.15806299473E+02  0.15201749377E+02 -0.14278982594E+02  0.26169096871E+02  0.00000000000E+00 0.  1.
         11    1    3    3    0    0  0.24597403070E+02 -0.46783989395E+02 -0.25839606124E+03  0.26374665565E+03  0.00000000000E+00 0. -1.
</event>
<event>
 7    1  0.5137842E-006  0.1075848E+03  0.7561462E-02  0.1265109E+00
         -2   -1    0    0    0  501 -0.00000000000E+00  0.00000000000E+00  0.78582161142E+02  0.78582161142E+02  0.00000000000E+00 0.  1.
          2   -1    0    0  501    0  0.00000000000E+00 -0.00000000000E+00 -0.17400127202E+03  0.17400127202E+03  0.00000000000E+00 0. -1.
         23    2    1    2    0    0 -0.95741381333E+01  0.53422149059E+02 -0.50956036409E+02  0.11670266117E+03  0.89874375362E+02 0.  0.
          5    1    1    2  502    0 -0.32441571685E+02  0.11968904684E+02 -0.46400034962E+02  0.58018496165E+02  0.41800000000E+01 0. -1.
         -5    1    1    2    0  502  0.42015709818E+02 -0.65391053742E+02  0.19369604930E+01  0.77862275827E+02  0.41800000000E+01 0.  1.
        -11    1    3    3    0    0 -0.34446735633E+02 -0.87476087533E+01 -0.59808306552E+01  0.36039819506E+02  0.00000000000E+00 0. -1.
         11    1    3    3    0    0  0.24872597500E+02  0.62169757812E+02 -0.44975205754E+02  0.80662841664E+02  0.00000000000E+00 0.  1.
</event>
<event>
 7    1  0.5137842E-006  0.9401061E+02  0.7561462E-02  0.1293420E+00
         -1   -1    0    0    0  501 -0.00000000000E+00  0.00000000000E+00  0.64856174603E+02  0.64856174603E+02  0.00000000000E+00 0.  1.
          1   -1    0    0  501    0  0.00000000000E+00 -0.00000000000E+00 -0.18819504457E+03  0.18819504457E+03  0.00000000000E+00 0. -1.
         23    2    1    2    0    0  0.17003754381E+02 -0.98505341138E+01 -0.45990204575E+02  0.10464630563E+03  0.91921649684E+02 0.  0.
          5    1    1    2  502    0  0.15184314886E+00  0.65182367065E+02 -0.24136077300E+02  0.69633229568E+02  0.41800000000E+01 0. -1.
         -5    1    1    2    0  502 -0.17155597530E+02 -0.55331832952E+02 -0.53212588098E+02  0.78771683976E+02  0.41800000000E+01 0. -1.
        -11    1    3    3    0    0  0.39763550942E+02 -0.12567782243E+02  0.11076507020E+02  0.43148327219E+02  0.00000000000E+00 0.  1.
         11    1    3    3    0    0 -0.22759796561E+02  0.27172481293E+01 -0.57066711595E+02  0.61497978415E+02  0.00000000000E+00 0. -1.
</event>
<event>
 7    1  0.5137842E-006  0.1231346E+03  0.7561462E-02  0.1238014E+00
          2   -1    0    0  501    0  0.00000000000E+00  0.00000000000E+00  0.54146829658E+03  0.54146829658E+03  0.00000000000E+00 0. -1.
         -2   -1    0    0    0  501 -0.00000000000E+00 -0.00000000000E+00 -0.29171644402E+02  0.29171644402E+02  0.00000000000E+00 0.  1.
         23    2    1    2    0    0  0.10258674963E+02 -0.64123251367E+02  0.23333703230E+03  0.25809678191E+03  0.89166958063E+02 0.  0.
          5    1    1    2  502    0 -0.64951675800E+02  0.28576080409E+02  0.10583633690E+03  0.12749162784E+03  0.41800000000E+01 0. -1.
         -5    1    1    2    0  502  0.54693000836E+02  0.35547170957E+02  0.17312328297E+03  0.18505153123E+03  0.41800000000E+01 0. -1.
        -11    1    3    3    0    0 -0.37652016123E+02 -0.43855965970E+02  0.13482653886E+03  0.14669429318E+03  0.00000000000E+00 0. -1.
         11    1    3    3    0    0  0.47910691086E+02 -0.20267285397E+02  0.98510493443E+02  0.11140248873E+03  0.00000000000E+00 0.  1.
</event>
<event>
 7    1  0.5137842E-006  0.9009298E+02  0.7561462E-02  0.1302627E+00
         -1   -1    0    0    0  501 -0.00000000000E+00  0.00000000000E+00  0.71649692987E+03  0.71649692987E+03  0.00000000000E+00 0.  1.
          1   -1    0    0  501    0  0.00000000000E+00 -0.00000000000E+00 -0.27176421902E+02  0.27176421902E+02  0.00000000000E+00 0. -1.
         23    2    1    2    0    0 -0.30291852969E+02 -0.17894892036E+02  0.92778196880E+02  0.13314217030E+03  0.88776236568E+02 0.  0.
          5    1    1    2  502    0  0.55784386512E+02 -0.16809965497E+02  0.13668216895E+03  0.14864037280E+03  0.41800000000E+01 0. -1.
         -5    1    1    2    0  502 -0.25492533542E+02  0.34704857534E+02  0.45986014214E+03  0.46189080867E+03  0.41800000000E+01 0. -1.
        -11    1    3    3    0    0 -0.53310096440E+02 -0.14465836589E+02  0.23445046376E+02  0.60007474620E+02  0.00000000000E+00 0. -1.
         11    1    3    3    0    0  0.23018243471E+02 -0.34290554475E+01  0.69333150504E+02  0.73134695682E+02  0.00000000000E+00 0.  1.
</event>
<event>
 7    1  0.5137842E-006  0.1362889E+03  0.7561462E-02  0.1218412E+00
          3   -1    0    0  501    0  0.00000000000E+00  0.00000000000E+00  0.11706561203E+03  0.11706561203E+03  0.00000000000E+00 0. -1.
         -3   -1    0    0    0  501 -0.00000000000E+00 -0.00000000000E+00 -0.22284922069E+03  0.22284922069E+03  0.00000000000E+00 0.  1.
         23    2    1    2    0    0  0.97756279647E+02  0.45377533290E+02  0.36622262193E+01  0.14181897275E+03  0.92107537118E+02 0.  0.
          5    1    1    2  502    0 -0.76116778721E+02 -0.85100903471E+02 -0.99696311540E+02  0.15163361998E+03  0.41800000000E+01 0.  1.
         -5    1    1    2    0  502 -0.21639500926E+02  0.39723370181E+02 -0.97495233477E+01  0.46462239984E+02  0.41800000000E+01 0.  1.
        -11    1    3    3    0    0  0.84861233472E+02  0.24443273099E+02  0.40799233129E+02  0.97280419254E+02  0.00000000000E+00 0. -1.
         11    1    3    3    0    0  0.12895046174E+02  0.20934260191E+02 -0.37137006910E+02  0.44538553499E+02  0.00000000000E+00 0.  1.
</event>
<event>
 7    1  0.5137842E-006  0.1322510E+03  0.7561462E-02  0.1224153E+00
          1   -1    0    0  501    0  0.00000000000E+00  0.00000000000E+00  0.61376651415E+02  0.61376651415E+02  0.00000000000E+00 0. -1.
         -1   -1    0    0    0  501 -0.00000000000E+00 -0.00000000000E+00 -0.38835507331E+03  0.38835507331E+03  0.00000000000E+00 0.  1.
         23    2    1    2    0    0 -0.85402607852E+02 -0.43033944248E+02 -0.72145603964E+02  0.15017656545E+03  0.90567581692E+02 0.  0.
          5    1    1    2  502    0  0.11425900670E+03  0.43846564493E+02 -0.23265194449E+03  0.26291071014E+03  0.41800000000E+01 0. -1.
         -5    1    1    2    0  502 -0.28856398846E+02 -0.81262024467E+00 -0.22180873437E+02  0.36644449135E+02  0.41800000000E+01 0. -1.
        -11    1    3    3    0    0 -0.68753921449E+02 -0.58410255188E+02 -0.85144619125E+02  0.12405025510E+03  0.00000000000E+00 0.  1.
         11    1    3    3    0    0 -0.16648686403E+02  0.15376310940E+02  0.12999015161E+02  0.26126310345E+02  0.00000000000E+00 0. -1.
</event>
<event>
 7    1  0.5137842E-006  0.1007493E+03  0.7561462E-02  0.1278728E+00
          3   -1    0    0  501    0  0.00000000000E+00  0.00000000000E+00  0.57287454143E+03  0.57287454143E+03  0.00000000000E+00 0.  1.
         -3   -1    0    0    0  501 -0.00000000000E+00 -0.00000000000E+00 -0.28413438110E+02  0.28413438110E+02  0.00000000000E+00 0. -1.
         23    2    1    2    0    0 -0.15731874201E+01  0.65207124034E+02  0.20020510313E+03  0.22924641125E+03  0.90649819697E+02 0.  0.
          5    1    1    2  502    0 -0.30186335825E+02  0.24300770439E+02  0.16032218839E+03  0.16499217801E+03  0.41800000000E+01 0. -1.
         -5    1    1    2    0  502  0.31759523245E+02 -0.89507894473E+02  0.18393381180E+03  0.20704939028E+03  0.41800000000E+01 0. -1.
        -11    1    3    3    0    0 -0.88971205842E+01  0.23890330308E+02  0.83339733003E+00  0.25506885110E+02  0.00000000000E+00 0. -1.
         11    1    3    3    0    0  0.73239331641E+01  0.41316793726E+02  0.19937170580E+03  0.20373952614E+03  0.00000000000E+00 0.  1.
</event>
<event>
 7    1  0.5137842E-006  0.8655977E+02  0.7561462E-02  0.1311403E+00
         -1   -1    0    0    0  501 -0.00000000000E+00  0.00000000000E+00  0.14018025239E+03  0.14018025239E+03  0.00000000000E+00 0.  1.
          1   -1    0    0  501    0  0.00000000000E+00 -0.00000000000E+00 -0.12822985100E+03  0.12822985100E+03  0.00000000000E+00 0. -1.
         23    2    1    2    0    0 -0.43496959556E+02  0.39173345669E+02 -0.38894038730E+02  0.11180739921E+03  0.86957528531E+02 0.  0.
          5    1    1    2  502    0  0.35118527273E+01  0.66891528636E+01 -0.43452201956E+02  0.44301739587E+02  0.41800000000E+01 0. -1.
         -5    1    1    2    0  502  0.39985106829E+02 -0.45862498533E+02  0.94296642079E+02  0.11230096459E+03  0.41800000000E+01 0.  1.
        -11    1    3    3    0    0 -0.62147622508E+02  0.51857248782E+02 -0.22774562928E+02  0.84084374001E+02  0.00000000000E+00 0. -1.
         11    1    3    3    0    0  0.18650662952E+02 -0.12683903112E+02 -0.16119475803E+02  0.27723025211E+02  0.00000000000E+00 0.  1.
</event>
<event>
 7    1  0.5137842E-006  0.1404566E+03  0.7561462E-02  0.1212716E+00
         -2   -1    0    0    0  501 -0.00000000000E+00  0.00000000000E+00  0.64612700371E+02  0.64612700371E+02  0.00000000000E+00 0. -1.
          2   -1    0    0  501    0  0.00000000000E+00 -0.00000000000E+00 -0.32778747952E+03  0.32778747952E+03  0.00000000000E+00 0.  1.
         23    2    1    2    0    0 -0.48041618826E+02  0.92922624344E+02 -0.13008836297E+03  0.18190690785E+03  0.72280908178E+02 0.  0.
          5    1    1    2  502    0  0.88197417572E+02 -0.76636683846E+02 -0.11281745415E+03  0.16247220113E+03  0.41800000000E+01 0.  1.
         -5    1    1    2    0  502 -0.40155798746E+02 -0.16285940498E+02 -0.20268962027E+02  0.48021070922E+02  0.41800000000E+01 0.  1.
        -11    1    3    3    0    0 -0.12030177296E+02  0.81933687552E+02 -0.59721777701E+02  0.10210066138E+03  0.00000000000E+00 0. -1.
         11    1    3    3    0    0 -0.36011441531E+02  0.10988936792E+02 -0.70366585273E+02  0.79806246472E+02  0.00000000000E+00 0.  1.
</event>
<event>
 7    1  0.5137842E-006  0.1153642E+03  0.7561462E-02  0.1250947E+00
          2   -1    0    0  501    0  0.00000000000E+00  0.00000000000E+00  0.83123969726E+02  0.83123969726E+02  0.00000000000E+00 0. -1.
         -2   -1    0    0    0  501 -0.00000000000E+00 -0.00000000000E+00 -0.23042143795E+03  0.23042143795E+03  0.00000000000E+00 0.  1.
         23    2    1    2    0    0 -0.69880872108E+02  0.53088506613E+02 -0.66771290918E+02  0.14082148832E+03  0.87581735884E+02 0.  0.
          5    1    1    2  502    0 -0.29444164786E+02 -0.27019241584E+02  0.29944609115E+01  0.40291903056E+02  0.41800000000E+01 0.  1.
         -5    1    1    2    0  502  0.99325036894E+02 -0.26069265029E+02 -0.83520638219E+02  0.13243201630E+03  0.41800000000E+01 0.  1.
        -11    1    3    3    0    0 -0.42332814111E+02  0.33125018277E+02 -0.86242573928E+02  0.10162241654E+03  0.00000000000E+00 0.  1.
         11    1    3    3    0    0 -0.27548057997E+02  0.19963488337E+02  0.19471283010E+02  0.39199071775E+02  0.00000000000E+00 0. -1.
</event>
<event>
 7    1  0.5137842E-006  0.1143552E+03  0.7561462E-02  0.1252711E+00
          1   -1    0    0  501    0  0.00000000000E+00  0.00000000000E+00  0.60109680313E+03  0.60109680313E+03  0.00000000000E+00 0. -1.
         -1   -1    0    0    0  501 -0.00000000000E+00 -0.00000000000E+00 -0.22161935342E+02  0.22161935342E+02  0.00000000000E+00 0.  1.
         23    2    1    2    0    0 -0.27044981279E+02  0.26376612708E+02  0.25841650177E+03  0.27712721212E+03  0.92699765905E+02 0.  0.
          5    1    1    2  502    0  0.73621606049E+02  0.23908027888E+01  0.15329221359E+03  0.17012299069E+03  0.41800000000E+01 0.  1.
         -5    1    1    2    0  502 -0.46576624769E+02 -0.28767415497E+02  0.16722615242E+03  0.17600853566E+03  0.41800000000E+01 0.  1.
        -11    1    3    3    0    0 -0.25915020362E+02  0.60535900752E+02  0.17512183720E+03  0.18709313569E+03  0.00000000000E+00 0. -1.
         11    1    3    3    0    0 -0.11299609171E+01 -0.34159288044E+02  0.83294664579E+02  0.90034076430E+02  0.00000000000E+00 0.  1.
</event>
<event>
 7    1  0.5137842E-006  0.9658451E+02  0.7561462E-02  0.1287647E+00
          2   -1    0    0  501    0  0.00000000000E+00  0.00000000000E+00  0.27334904383E+03  0.27334904383E+03  0.00000000000E+00 0. -1.
         -2   -1    0    0    0  501 -0.00000000000E+00 -0.00000000000E+00 -0.54830382888E+02  0.54830382888E+02  0.00000000000E+00 0.  1.
         23    2    1    2    0    0  0.45185733015E+02 -0.34383736718E+02  0.92465091075E+02  0.14173812073E+03  0.91191611364E+02 0.  0.
          5    1    1    2  502    0  0.25476513508E+02 -0.19263772938E+02  0.80323411681E+02  0.86541715678E+02  0.41800000000E+01 0.  1.
         -5    1    1    2    0  502 -0.70662246523E+02  0.53647509656E+02  0.45730158189E+02  0.99899590310E+02  0.41800000000E+01 0.  1.
        -11    1    3    3    0    0  0.27468553483E+02 -0.44082744467E+02  0.52390011601E+01  0.52203993366E+02  0.00000000000E+00 0.  1.
         11    1    3    3    0    0  0.17717179532E+02  0.96990077487E+01  0.87226089915E+02  0.89534127369E+02  0.00000000000E+00 0. -1.
</event>
<event>
 7    1  0.5137842E-006  0.1880827E+03  0.7561462E-02  0.1160202E+00
          2   -1    0    0  501    0  0.00000000000E+00  0.00000000000E+00  0.45299418503E+03  0.45299418503E+03  0.00000000000E+00 0. -1.
         -2   -1    0    0    0  501 -0.00000000000E+00 -0.00000000000E+00 -0.11178088702E+03  0.11178088702E+03  0.00000000000E+00 0.  1.
         23    2    1    2    0    0  0.13095820581E+03 -0.10733813471E+03  0.29036936952E+03  0.34819946087E+03  0.90867854370E+02 0.  0.
          5    1    1    2  502    0 -0.11036319546E+02 -0.25267177313E+02 -0.67503142385E+01  0.28692677478E+02  0.41800000000E+01 0.  1.
         -5    1    1    2    0  502 -0.11992188627E+03  0.13260531203E+03  0.57594242722E+02  0.18788293370E+03  0.41800000000E+01 0.  1.
        -11    1    3    3    0    0  0.26465001215E+02 -0.24986262453E+02  0.15179131162E+03  0.15609392007E+03  0.00000000000E+00 0. -1.
         11    1    3    3    0    0  0.10449320460E+03 -0.82351872259E+02  0.13857805791E+03  0.19210554080E+03  0.00000000000E+00 0.  1.
</event>
<event>
 7    1  0.5137842E-006  0.7303481E+02  0.7561462E-02  0.1350067E+00
          1   -1    0    0  501    0  0.00000000000E+00  0.00000000000E+00  0.18889850457E+02  0.18889850457E+02  0.00000000000E+00 0. -1.
         -1   -1    0    0    0  501 -0.00000000000E+00 -0.00000000000E+00 -0.73149118952E+03  0.73149118952E+03  0.00000000000E+00 0.  1.
         23    2    1    2    0    0  0.10487718351E+02  0.27996055314E+02 -0.18894114529E+03  0.21115838455E+03  0.89416640688E+02 0.  0.
          5    1    1    2  502    0 -0.18532272293E+02  0.14264566377E+02 -0.46870570744E+03  0.46930739985E+03  0.41800000000E+01 0. -1.
         -5    1    1    2    0  502  0.80445539419E+01 -0.42260621692E+02 -0.54954486330E+02  0.69915255572E+02  0.41800000000E+01 0. -1.
        -11    1    3    3    0    0 -0.29689478793E+02 -0.73308500245E+00 -0.21715069369E+02  0.36790580348E+02  0.00000000000E+00 0. -1.
         11    1    3    3    0    0  0.40177197144E+02  0.28729140317E+02 -0.16722607592E+03  0.17436780420E+03  0.00000000000E+00 0.  1.
</event>
<event>
 7    1  0.5137842E-006  0.1026206E+03  0.7561462E-02  0.1274880E+00
         -1   -1    0    0    0  501 -0.00000000000E+00  0.00000000000E+00  0.31029483094E+03  0.31029483094E+03  0.00000000000E+00 0.  1.
          1   -1    0    0  501    0  0.00000000000E+00 -0.00000000000E+00 -0.39406588722E+02  0.39406588722E+02  0.00000000000E+00 0. -1.
         23    2    1    2    0    0  0.15477816257E+02 -0.12241294976E+02  0.12940222181E+03  0.15981191393E+03  0.91681517917E+02 0.  0.
          5    1    1    2  502    0  0.35368995998E+02  0.44226938572E+02  0.32638521507E+02  0.65496056824E+02  0.41800000000E+01 0.  1.
         -5    1    1    2    0  502 -0.50846812256E+02 -0.31985643596E+02  0.10884749890E+03  0.12439344890E+03  0.41800000000E+01 0.  1.
        -11    1    3    3    0    0 -0.18778849314E+02  0.29048896314E+02  0.78820778266E+02  0.86076702104E+02  0.00000000000E+00 0.  1.
         11    1    3    3    0    0  0.34256665571E+02 -0.41290191290E+02  0.50581443543E+02  0.73735211830E+02  0.00000000000E+00 0. -1.
</event>
<event>
 7    1  0.5137842E-006  0.2002373E+03  0.7561462E-02  0.1149539E+00
         -1   -1    0    0    0  501 -0.00000000000E+00  0.00000000000E+00  0.18886846424E+03  0.18886846424E+03  0.00000000000E+00 0.  1.
          1   -1    0    0  501    0  0.00000000000E+00 -0.00000000000E+00 -0.34416509459E+03  0.34416509459E+03  0.00000000000E+00 0. -1.
         23    2    1    2    0    0  0.36426496606E+01  0.18011949914E+03 -0.22371580879E+03  0.30098196948E+03  0.89917072792E+02 0.  0.
          5    1    1    2  502    0 -0.44803351140E+02 -0.14999907577E+02  0.34061105845E+02  0.58394938411E+02  0.41800000000E+01 0. -1.
         -5    1    1    2    0  502  0.41160701479E+02 -0.16511959157E+03  0.34358072585E+02  0.17365665094E+03  0.41800000000E+01 0.  1.
        -11    1    3    3    0    0  0.16187170812E+02  0.13568635435E+03 -0.21383258087E+03  0.25376600225E+03  0.00000000000E+00 0. -1.
         11    1    3    3    0    0 -0.12544521151E+02  0.44433144796E+02 -0.98832279200E+01  0.47215967230E+02  0.00000000000E+00 0.  1.
</event>
<event>
 7    1  0.5137842E-006  0.9650547E+02  0.7561462E-02  0.1287821E+00
          1   -1    0    0  501    0  0.00000000000E+00  0.00000000000E+00  0.47871760666E+03  0.47871760666E+03  0.00000000000E+00 0. -1.
         -1   -1    0    0    0  501 -0.00000000000E+00 -0.00000000000E+00 -0.26592254073E+02  0.26592254073E+02  0.00000000000E+00 0.  1.
         23    2    1    2    0    0  0.30372199247E+02 -0.12986696849E+02  0.18930943942E+03  0.21237488910E+03  0.90409650402E+02 0.  0.
          5    1    1    2  502    0 -0.19002764065E+02  0.55737171549E+02  0.23063797967E+03  0.23807370162E+03  0.41800000000E+01 0.  1.
         -5    1    1    2    0  502 -0.11369435182E+02 -0.42750474699E+02  0.32177933491E+02  0.54861270010E+02  0.41800000000E+01 0.  1.
        -11    1    3    3    0    0  0.36879299015E+02 -0.44252901525E+02  0.15568741744E+03  0.16600293352E+03  0.00000000000E+00 0.  1.
         11    1    3    3    0    0 -0.65070997682E+01  0.31266204676E+02  0.33622021978E+02  0.46371955578E+02  0.00000000000E+00 0. -1.
</event>
<event>
 7    1  0.5137842E-006  0.8625968E+02  0.7561462E-02  0.1312171E+00
          1   -1    0    0  501    0  0.00000000000E+00  0.00000000000E+00  0.12010589592E+02  0.12010589592E+02  0.00000000000E+00 0. -1.
         -1   -1    0    0    0  501 -0.00000000000E+00 -0.00000000000E+00 -0.11722009221E+04  0.11722009221E+04  0.00000000000E+00 0.  1.
         23    2    1    2    0    0  0.16698165274E+02 -0.10522790838E+02 -0.30559644755E+03  0.32028548557E+03  0.93829876189E+02 0.  0.
          5    1    1    2  502    0 -0.42887927373E+02  0.22072017203E+02 -0.12948401564E+03  0.13823939730E+03  0.41800000000E+01 0.  1.
         -5    1    1    2    0  502  0.26189762099E+02 -0.11549226365E+02 -0.72510986928E+03  0.72568662879E+03  0.41800000000E+01 0.  1.
        -11    1    3    3    0    0 -0.33093169816E+02 -0.27021563561E+02 -0.11811173947E+03  0.12560137653E+03  0.00000000000E+00 0. -1.
         11    1    3    3    0    0  0.49791335090E+02  0.16498772723E+02 -0.18748470808E+03  0.19468410904E+03  0.00000000000E+00 0.  1.
</event>
<event>
 7    1  0.5137842E-006  0.9876536E+02  0.7561462E-02  0.1282914E+00
         -1   -1    0    0    0  501 -0.00000000000E+00  0.00000000000E+00  0.41758889894E+02  0.41758889894E+02  0.00000000000E+00 0.  1.
          1   -1    0    0  501    0  0.00000000000E+00 -0.00000000000E+00 -0.41121438872E+03  0.41121438872E+03  0.00000000000E+00 0. -1.
         23    2    1    2    0    0  0.55328239575E+02  0.41761937602E+02 -0.17942245702E+03  0.21509274417E+03  0.96266281676E+02 0.  0.
          5    1    1    2  502    0  0.26210792121E+02  0.96176558444E+01 -0.42550296232E+01  0.28549651568E+02  0.41800000000E+01 0.  1.
         -5    1    1    2    0  502 -0.81539031695E+02 -0.51379593446E+02 -0.18577801219E+03  0.20933088288E+03  0.41800000000E+01 0.  1.
        -11    1    3    3    0    0  0.38046931664E+02  0.14834193732E+02 -0.17847013739E+03  0.18308252853E+03  0.00000000000E+00 0. -1.
         11    1    3    3    0    0  0.17281307910E+02  0.26927743871E+02 -0.95231962790E+00  0.32010215646E+02  0.00000000000E+00 0.  1.
</event>
<event>
 7    1  0.5137842E-006  0.1555907E+03  0.7561462E-02  0.1193767E+00
         -1   -1    0    0    0  501 -0.00000000000E+00  0.00000000000E+00  0.14926186085E+03  0.14926186085E+03  0.00000000000E+00 0.  1.
          1   -1    0    0  501    0  0.00000000000E+00 -0.00000000000E+00 -0.17227048501E+03  0.17227048501E+03  0.00000000000E+00 0. -1.
         23    2    1    2    0    0  0.77569680028E+01  0.11473853044E+03  0.88212777454E+01  0.14864333661E+03  0.93765268930E+02 0.  0.
          5    1    1    2  502    0  0.54854656537E+02 -0.48711306712E+02  0.71147163000E+01  0.73823548637E+02  0.41800000000E+01 0. -1.
         -5    1    1    2    0  502 -0.62611624540E+02 -0.66027223729E+02 -0.38944618204E+02  0.99065460620E+02  0.41800000000E+01 0. -1.
        -11    1    3    3    0    0  0.46136655532E+02  0.89457540741E+02  0.16654597472E+02  0.10202263570E+03  0.00000000000E+00 0.  1.
         11    1    3    3    0    0 -0.38379687530E+02  0.25280989699E+02 -0.78333197266E+01  0.46620700906E+02  0.00000000000E+00 0. -1.
</event>
<event>
 7    1  0.5137842E-006  0.1495701E+03  0.7561462E-02  0.1201002E+00
         -1   -1    0    0    0  501 -0.00000000000E+00  0.00000000000E+00  0.33278411946E+03  0.33278411946E+03  0.00000000000E+00 0.  1.
          1   -1    0    0  501    0  0.00000000000E+00 -0.00000000000E+00 -0.11417555414E+03  0.11417555414E+03  0.00000000000E+00 0. -1.
         23    2    1    2    0    0 -0.54416580296E+01  0.13011608556E+03 -0.33914260206E+01  0.16079320716E+03  0.94250444748E+02 0.  0.
          5    1    1    2  502    0 -0.24731648463E+02 -0.52099421327E+02  0.10608058003E+02  0.58787817045E+02  0.41800000000E+01 0.  1.
         -5    1    1    2    0  502  0.30173306492E+02 -0.78016664232E+02  0.21139193333E+03  0.22737864939E+03  0.41800000000E+01 0.  1.
        -11    1    3    3    0    0 -0.46973186753E+02  0.76070999895E+02  0.13887995125E+02  0.90477365718E+02  0.00000000000E+00 0.  1.
         11    1    3    3    0    0  0.41531528723E+02  0.54045085664E+02 -0.17279421146E+02  0.70315841442E+02  0.00000000000E+00 0. -1.
</event>
<event>
 7    1  0.5137842E-006  0.5587517E+02  0.7561462E-02  0.1416005E+00
         -1   -1    0    0    0  501 -0.00000000000E+00  0.00000000000E+00  0.48491318196E+02  0.48491318196E+02  0.00000000000E+00 0.  1.
          1   -1    0    0  501    0  0.00000000000E+00 -0.00000000000E+00 -0.27677320432E+03  0.27677320432E+03  0.00000000000E+00 0. -1.
         23    2    1    2    0    0  0.26948989918E+02  0.31438832460E+02 -0.95946168418E+02  0.13851954980E+03  0.90924970167E+02 0.  0.
          5    1    1    2  502    0 -0.82577126023E+01 -0.10100898070E+02 -0.15158948086E+03  0.15220729636E+03  0.41800000000E+01 0.  1.
         -5    1    1    2    0  502 -0.18691277316E+02 -0.21337934390E+02  0.19253763156E+02  0.34537676346E+02  0.41800000000E+01 0.  1.
        -11    1    3    3    0    0  0.37148580833E+02  0.87760307622E+00 -0.99398154900E+02  0.10611682450E+03  0.00000000000E+00 0. -1.
         11    1    3    3    0    0 -0.10199590915E+02  0.30561229384E+02  0.34519864823E+01  0.32402725301E+02  0.00000000000E+00 0.  1.
</event>
<event>
 7    1  0.5137842E-006  0.1107661E+03  0.7561462E-02  0.1259158E+00
         -1   -1    0    0    0  501 -0.00000000000E+00  0.00000000000E+00  0.30425042731E+03  0.30425042731E+03  0.00000000000E+00 0.  1.
          1   -1    0    0  501    0  0.00000000000E+00 -0.00000000000E+00 -0.51280500305E+02  0.51280500305E+02  0.00000000000E+00 0. -1.
         23    2    1    2    0    0  0.32634933469E+02  0.40590206269E+02  0.63614437768E+02  0.12268869285E+03  0.91066541242E+02 0.  0.
          5    1    1    2  502    0  0.16305039869E+01  0.41811568903E+02  0.89296388805E+02  0.98702498910E+02  0.41800000000E+01 0. -1.
         -5    1    1    2    0  502 -0.34265437456E+02 -0.82401775172E+02  0.10005910043E+03  0.13413973585E+03  0.41800000000E+01 0. -1.
        -11    1    3    3    0    0  0.32802413597E+02 -0.13917349524E+02 -0.39806525590E+01  0.35854379793E+02  0.00000000000E+00 0. -1.
         11    1    3    3    0    0 -0.16748012802E+00  0.54507555792E+02  0.67595090327E+02  0.86834313059E+02  0.00000000000E+00 0.  1.
</event>
<event>
 7    1  0.5137842E-006  0.1344058E+03  0.7561462E-02  0.1221061E+00
          1   -1    0    0  501    0  0.00000000000E+00  0.00000000000E+00  0.25801799843E+03  0.25801799843E+03  0.00000000000E+00 0. -1.
         -1   -1    0    0    0  501 -0.00000000000E+00 -0.00000000000E+00 -0.12144610626E+03  0.12144610626E+03  0.00000000000E+00 0.  1.
         23    2    1    2    0    0  0.92312981346E+02 -0.66147547305E+02  0.15100779803E+03  0.20990128995E+03  0.91422163167E+02 0.  0.
          5    1    1    2  502    0 -0.90372927517E+02  0.89031460877E+02  0.19452806057E+02  0.12841242587E+03  0.41800000000E+01 0.  1.
         -5    1    1    2    0  502 -0.19400538297E+01 -0.22883913573E+02 -0.33888711913E+02  0.41150388873E+02  0.41800000000E+01 0.  1.
        -11    1    3    3    0    0  0.69438179686E+02 -0.29736279489E+02  0.29645914607E+02  0.81146702760E+02  0.00000000000E+00 0.  1.
         11    1    3    3    0    0  0.22874801661E+02 -0.36411267816E+02  0.12136188342E+03  0.12875458719E+03  0.00000000000E+00 0. -1.
</event>
<event>
 7    1  0.5137842E-006  0.1178923E+03  0.7561462E-02  0.1246615E+00
          4   -1    0    0  501    0  0.00000000000E+00  0.00000000000E+00  0.28752518730E+03  0.28752518730E+03  0.00000000000E+00 0. -1.
         -4   -1    0    0    0  501 -0.00000000000E+00 -0.00000000000E+00 -0.53861357843E+02  0.53861357843E+02  0.00000000000E+00 0.  1.
         23    2    1    2    0    0 -0.52835110209E+02 -0.28387279222E+02  0.10622277623E+03  0.15300857876E+03  0.92363198800E+02 0.  0.
          5    1    1    2  502    0  0.79917294713E+02  0.49309644166E+02  0.12113720274E+03  0.15332941430E+03  0.41800000000E+01 0.  1.
         -5    1    1    2    0  502 -0.27082184504E+02 -0.20922364944E+02  0.63038504959E+01  0.35048552087E+02  0.41800000000E+01 0.  1.
        -11    1    3    3    0    0 -0.57113071744E+02 -0.55632681916E+02  0.92767489592E+02  0.12232213776E+03  0.00000000000E+00 0. -1.
         11    1    3    3    0    0  0.42779615346E+01  0.27245402693E+02  0.13455286636E+02  0.30686441001E+02  0.00000000000E+00 0.  1.
</event>
<event>
 7    1  0.5137842E-006  0.1872101E+03  0.7561462E-02  0.1161002E+00
          1   -1    0    0  501    0  0.00000000000E+00  0.00000000000E+00  0.42182943728E+03  0.42182943728E+03  0.00000000000E+00 0. -1.
         -1   -1    0    0    0  501 -0.00000000000E+00 -0.00000000000E+00 -0.13381946352E+03  0.13381946352E+03  0.00000000000E+00 0.  1.
         23    2    1    2    0    0  0.20947322151E+02 -0.17224546833E+03  0.28089758315E+03  0.34162848164E+03  0.87745516012E+02 0.  0.
          5    1    1    2  502    0  0.34731875764E+02  0.11789942261E+03 -0.31659133046E+02  0.12698956709E+03  0.41800000000E+01 0.  1.
         -5    1    1    2    0  502 -0.55679197915E+02  0.54346045721E+02  0.38771523656E+02  0.87030852073E+02  0.41800000000E+01 0.  1.
        -11    1    3    3    0    0  0.59588645111E+01 -0.42892454801E+02  0.15480262761E+02  0.45988142822E+02  0.00000000000E+00 0.  1.
         11    1    3    3    0    0  0.14988457640E+02 -0.12935301353E+03  0.26541732039E+03  0.29564033882E+03  0.00000000000E+00 0. -1.
</event>
<event>
 7    1  0.5137842E-006  0.1030029E+03  0.7561462E-02  0.1274105E+00
          2   -1    0    0  501    0  0.00000000000E+00  0.00000000000E+00  0.30270270155E+03  0.30270270155E+03  0.00000000000E+00 0. -1.
         -2   -1    0    0    0  501 -0.00000000000E+00 -0.00000000000E+00 -0.12448841995E+03  0.12448841995E+03  0.00000000000E+00 0.  1.
         23    2    1    2    0    0  0.41578542553E+02  0.44492049575E+02  0.25305092015E+03  0.26921524078E+03  0.68802325546E+02 0.  0.
          5    1    1    2  502    0 -0.15444454652E+02  0.39228313532E+02  0.36808405416E+00  0.42367436174E+02  0.41800000000E+01 0. -1.
         -5    1    1    2    0  502 -0.26134087901E+02 -0.83720363107E+02 -0.75204722601E+02  0.11560844455E+03  0.41800000000E+01 0. -1.
        -11    1    3    3    0    0 -0.12408674240E+01  0.30880074504E+02  0.35476638144E+02  0.47050086157E+02  0.00000000000E+00 0.  1.
         11    1    3    3    0    0  0.42819409977E+02  0.13611975071E+02  0.21757428201E+03  0.22216515462E+03  0.00000000000E+00 0. -1.
</event>
<event>
 7    1  0.5137842E-006  0.1296463E+03  0.7561462E-02  0.1227981E+00
         -1   -1    0    0    0  501 -0.00000000000E+00  0.00000000000E+00  0.96858722219E+02  0.96858722219E+02  0.00000000000E+00 0.  1.
          1   -1    0    0  501    0  0.00000000000E+00 -0.00000000000E+00 -0.20428043051E+03  0.20428043051E+03  0.00000000000E+00 0. -1.
         23    2    1    2    0    0 -0.35516709693E+02  0.80368429929E+02 -0.63241368946E+02  0.14201564773E+03  0.91915462565E+02 0.  0.
          5    1    1    2  502    0  0.35612338453E+02 -0.11285287334E+03 -0.24523296841E+02  0.12092507664E+03  0.41800000000E+01 0. -1.
         -5    1    1    2    0  502 -0.95628760537E-01  0.32484443413E+02 -0.19657042499E+02  0.38198428352E+02  0.41800000000E+01 0. -1.
        -11    1    3    3    0    0  0.82796292703E+01  0.58669606135E+02 -0.71055604971E+02  0.92517965513E+02  0.00000000000E+00 0. -1.
         11    1    3    3    0    0 -0.43796338963E+02  0.21698823794E+02  0.78142360252E+01  0.49497682221E+02  0.00000000000E+00 0.  1.
</event>
<event>
 7    1  0.5137842E-006  0.9309034E+02  0.7561462E-02  0.1295536E+00
          4   -1    0    0  501    0  0.00000000000E+00  0.00000000000E+00  0.78288129186E+02  0.78288129186E+02  0.00000000000E+00 0.  1.
         -4   -1    0    0    0  501 -0.00000000000E+00 -0.00000000000E+00 -0.35403703701E+03  0.35403703701E+03  0.00000000000E+00 0. -1.
         23    2    1    2    0    0 -0.27331163073E+02  0.33028866218E+02  0.23827569286E+02  0.10463132964E+03  0.92423284979E+02 0.  0.
          5    1    1    2  502    0  0.29297513528E+02 -0.78896001135E+02 -0.22199909734E+03  0.23745314257E+03  0.41800000000E+01 0. -1.
         -5    1    1    2    0  502 -0.19663504545E+01  0.45867134917E+02 -0.77577379765E+02  0.90240693984E+02  0.41800000000E+01 0.  1.
        -11    1    3    3    0    0 -0.30813467005E+02  0.98074556431E+01  0.56081019099E+02  0.64735899146E+02  0.00000000000E+00 0.  1.
         11    1    3    3    0    0  0.34823039321E+01  0.23221410575E+02 -0.32253449813E+02  0.39895430497E+02  0.00000000000E+00 0. -1.
</event>
<event>
 7    1  0.5137842E-006  0.6203256E+02  0.7561462E-02  0.1389495E+00
         -3   -1    0    0    0  501 -0.00000000000E+00  0.00000000000E+00  0.17557433380E+03  0.17557433380E+03  0.00000000000E+00 0.  1.
          3   -1    0    0  501    0  0.00000000000E+00 -0.00000000000E+00 -0.71737056000E+02  0.71737056000E+02  0.00000000000E+00 0. -1.
         23    2    1    2    0    0 -0.21277013511E+02  0.17345623146E+02  0.42441698425E+02  0.10528619983E+03  0.92359645749E+02 0.  0.
          5    1    1    2  502    0  0.22996489246E+02 -0.44498323252E+02 -0.21507629417E+02  0.54671654566E+02  0.41800000000E+01 0.  1.
         -5    1    1    2    0  502 -0.17194757349E+01  0.27152700106E+02  0.82903208792E+02  0.87353535405E+02  0.41800000000E+01 0.  1.
        -11    1    3    3    0    0  0.86174844322E+00  0.23326940330E+02  0.67438196134E+02  0.71363849765E+02  0.00000000000E+00 0.  1.
         11    1    3    3    0    0 -0.22138761954E+02 -0.59813171841E+01 -0.24996497708E+02  0.33922350063E+02  0.00000000000E+00 0. -1.
</event>
<event>
 7    1  0.5137842E-006  0.9865981E+02  0.7561462E-02  0.1283140E+00
          1   -1    0    0  501    0  0.00000000000E+00  0.00000000000E+00  0.20754404501E+03  0.20754404501E+03  0.00000000000E+00 0. -1.
         -1   -1    0    0    0  501 -0.00000000000E+00 -0.00000000000E+00 -0.71400042305E+02  0.71400042305E+02  0.00000000000E+00 0.  1.
         23    2    1    2    0    0  0.38458254197E+02 -0.39115263306E+02  0.51110832203E+02  0.11804927307E+03  0.91182633014E+02 0.  0.
          5    1    1    2  502    0  0.39949478444E+01  0.70888538284E+02  0.14556204634E+02  0.72598209081E+02  0.41800000000E+01 0.  1.
         -5    1    1    2    0  502 -0.42453202041E+02 -0.31773274978E+02  0.70476965868E+02  0.88296605169E+02  0.41800000000E+01 0.  1.
        -11    1    3    3    0    0  0.34742019667E+02 -0.10494954215E+01 -0.17939287461E+02  0.39114286467E+02  0.00000000000E+00 0.  1.
         11    1    3    3    0    0  0.37162345294E+01 -0.38065767885E+02  0.69050119664E+02  0.78934986598E+02  0.00000000000E+00 0. -1.
</event>
<event>
 7    1  0.5137842E-006  0.8958826E+02  0.7561462E-02  0.1303852E+00
          2   -1    0    0  501    0  0.00000000000E+00  0.00000000000E+00  0.18479431491E+03  0.18479431491E+03  0.00000000000E+00 0. -1.
         -2   -1    0    0    0  501 -0.00000000000E+00 -0.00000000000E+00 -0.96545465453E+02  0.96545465453E+02  0.00000000000E+00 0.  1.
         23    2    1    2    0    0  0.14859039103E+02  0.66706394847E+02  0.81929753828E+02  0.13866234213E+03  0.88567637472E+02 0.  0.
          5    1    1    2  502    0  0.18315824808E+02  0.13736150111E+02 -0.38287771312E+02  0.44805993911E+02  0.41800000000E+01 0. -1.
         -5    1    1    2    0  502 -0.33174863911E+02 -0.80442544958E+02  0.44606866941E+02  0.97871444319E+02  0.41800000000E+01 0. -1.
        -11    1    3    3    0    0  0.12303189499E+02  0.37415570029E+02 -0.11243650680E+02  0.40959895423E+02  0.00000000000E+00 0. -1.
         11    1    3    3    0    0  0.25558496038E+01  0.29290824818E+02  0.93173404508E+02  0.97702446711E+02  0.00000000000E+00 0.  1.
</event>
<event>
 7    1  0.5137842E-006  0.1004551E+03  0.7561462E-02  0.1279342E+00
         -1   -1    0    0    0  501 -0.00000000000E+00  0.00000000000E+00  0.22982660024E+03  0.22982660024E+03  0.00000000000E+00 0.  1.
          1   -1    0    0  501    0  0.00000000000E+00 -0.00000000000E+00 -0.78996255870E+02  0.78996255870E+02  0.00000000000E+00 0. -1.
         23    2    1    2    0    0 -0.30806735182E+02  0.73054675943E+02  0.57777025093E+02  0.13391652168E+03  0.91155962721E+02 0.  0.
          5    1    1    2  502    0  0.59460228862E+01  0.60644966635E+01 -0.27182187467E+02  0.28783276802E+02  0.41800000000E+01 0.  1.
         -5    1    1    2    0  502  0.24860712295E+02 -0.79119172606E+02  0.12023550674E+03  0.14612305763E+03  0.41800000000E+01 0.  1.
        -11    1    3    3    0    0 -0.42635564662E+02  0.93975987480E+01 -0.47376135674E+01  0.43915273181E+02  0.00000000000E+00 0. -1.
         11    1    3    3    0    0  0.11828829480E+02  0.63657077195E+02  0.62514638660E+02  0.90001248495E+02  0.00000000000E+00 0.  1.
</event>
<event>
 7    1  0.5137842E-006  0.9231050E+02  0.7561462E-02  0.1297351E+00
         -1   -1    0    0    0  501 -0.00000000000E+00  0.00000000000E+00  0.65186361090E+03  0.65186361090E+03  0.00000000000E+00 0.  1.
          1   -1    0    0  501    0  0.00000000000E+00 -0.00000000000E+00 -0.20830380131E+02  0.20830380131E+02  0.00000000000E+00 0. -1.
         23    2    1    2    0    0 -0.42026483797E+02 -0.59397074425E+01  0.25153240224E+03  0.27085921167E+03  0.91075011394E+02 0.  0.
          5    1    1    2  502    0  0.58764057151E+02  0.20328117444E+02  0.79603015954E+02  0.10109678195E+03  0.41800000000E+01 0.  1.
         -5    1    1    2    0  502 -0.16737573354E+02 -0.14388410002E+02  0.29989781257E+03  0.30073799741E+03  0.41800000000E+01 0.  1.
        -11    1    3    3    0    0  0.25540792880E+02  0.14339316295E+02  0.88420677405E+02  0.93145930053E+02  0.00000000000E+00 0.  1.
         11    1    3    3    0    0 -0.67567276677E+02 -0.20279023738E+02  0.16311172484E+03  0.17771328161E+03  0.00000000000E+00 0. -1.
</event>
<event>
 7    1  0.5137842E-006  0.9707320E+02  0.7561462E-02  0.1286574E+00
         -1   -1    0    0    0  501 -0.00000000000E+00  0.00000000000E+00  0.88916056916E+02  0.88916056916E+02  0.00000000000E+00 0.  1.
          1   -1    0    0  501    0  0.00000000000E+00 -0.00000000000E+00 -0.19388586582E+03  0.19388586582E+03  0.00000000000E+00 0. -1.
         23    2    1    2    0    0  0.11285094962E+02  0.50206084284E+02 -0.10478330540E+03  0.14754650726E+03  0.90235394642E+02 0.  0.
          5    1    1    2  502    0  0.51259178106E+02 -0.45627243707E+02 -0.15692650138E+02  0.70520070737E+02  0.41800000000E+01 0. -1.
         -5    1    1    2    0  502 -0.62544273068E+02 -0.45788405773E+01  0.15506146640E+02  0.64735344738E+02  0.41800000000E+01 0. -1.
        -11    1    3    3    0    0 -0.90504187927E+01  0.37473622625E+02  0.15084343579E+01  0.38580537155E+02  0.00000000000E+00 0.  1.
         11    1    3    3    0    0  0.20335513755E+02  0.12732461659E+02 -0.10629173976E+03  0.10896597011E+03  0.00000000000E+00 0. -1.
</event>
<event>
 7    1  0.5137842E-006  0.6953876E+02  0.7561462E-02  0.1361669E+00
         -2   -1    0    0    0  501 -0.00000000000E+00  0.00000000000E+00  0.95259686399E+02  0.95259686399E+02  0.00000000000E+00 0.  1.
          2   -1    0    0  501    0  0.00000000000E+00 -0.00000000000E+00 -0.14690456528E+03  0.14690456528E+03  0.00000000000E+00 0. -1.
         23    2    1    2    0    0  0.40981351369E+02 -0.12093466176E+01 -0.46074890133E+02  0.11040737267E+03  0.91574880614E+02 0.  0.
          5    1    1    2  502    0 -0.60671526182E+02 -0.47981094775E+01 -0.52407576154E+02  0.80424389225E+02  0.41800000000E+01 0. -1.
         -5    1    1    2    0  502  0.19690174813E+02  0.60074560951E+01  0.46837587410E+02  0.51332489782E+02  0.41800000000E+01 0. -1.
        -11    1    3    3    0    0  0.34648301344E+02 -0.18054868806E+02  0.18602529818E+02  0.43272822756E+02  0.00000000000E+00 0.  1.
         11    1    3    3    0    0  0.63330500249E+01  0.16845522188E+02 -0.64677419951E+02  0.67134549912E+02  0.00000000000E+00 0. -1.
</event>
<event>
 7    1  0.5137842E-006  0.1763411E+03  0.7561462E-02  0.1171392E+00
          2   -1    0    0  501    0  0.00000000000E+00  0.00000000000E+00  0.10853447896E+04  0.10853447896E+04  0.00000000000E+00 0. -1.
         -2   -1    0    0    0  501 -0.00000000000E+00 -0.00000000000E+00 -0.54243008582E+02  0.54243008582E+02  0.00000000000E+00 0.  1.
         23    2    1    2    0    0  0.50693284730E+02  0.12574745260E+03  0.40341361390E+03  0.43641997415E+03  0.96631356195E+02 0.  0.
          5    1    1    2  502    0 -0.73433444174E+02 -0.14142293062E+03  0.64883659841E+03  0.66813121456E+03  0.41800000000E+01 0. -1.
         -5    1    1    2    0  502  0.22740159444E+02  0.15675478018E+02 -0.21148431249E+02  0.35036609524E+02  0.41800000000E+01 0.  1.
        -11    1    3    3    0    0  0.66668810495E+02  0.39214747476E+02  0.21445673361E+03  0.22797854571E+03  0.00000000000E+00 0.  1.
         11    1    3    3    0    0 -0.15975525765E+02  0.86532705125E+02  0.18895688029E+03  0.20844142844E+03  0.00000000000E+00 0. -1.
</event>
<event>
 7    1  0.5137842E-006  0.7413380E+02  0.7561462E-02  0.1346575E+00
         -2   -1    0    0    0  501 -0.00000000000E+00  0.00000000000E+00  0.39756071755E+03  0.39756071755E+03  0.00000000000E+00 0. -1.
          2   -1    0    0  501    0  0.00000000000E+00 -0.00000000000E+00 -0.35253349434E+02  0.35253349434E+02  0.00000000000E+00 0.  1.
         23    2    1    2    0    0 -0.22778718757E+02 -0.15755722679E+02  0.79516992196E+02  0.12235408536E+03  0.88771940003E+02 0.  0.
          5    1    1    2  502    0  0.37992368680E+02  0.25819803857E+02  0.28748853612E+03  0.29116526776E+03  0.41800000000E+01 0.  1.
         -5    1    1    2    0  502 -0.15213649923E+02 -0.10064081178E+02 -0.46981601963E+01  0.19294713866E+02  0.41800000000E+01 0.  1.
        -11    1    3    3    0    0  0.24069664546E+02  0.14080529618E+02  0.33495573933E+01  0.28086110453E+02  0.00000000000E+00 0.  1.
         11    1    3    3    0    0 -0.46848383303E+02 -0.29836252297E+02  0.76167434803E+02  0.94267974910E+02  0.00000000000E+00 0. -1.
</event>
<event>
 7    1  0.5137842E-006  0.1055811E+03  0.7561462E-02  0.1268979E+00
          3   -1    0    0  501    0  0.00000000000E+00  0.00000000000E+00  0.25684604743E+03  0.25684604743E+03  0.00000000000E+00 0. -1.
         -3   -1    0    0    0  501 -0.00000000000E+00 -0.00000000000E+00 -0.49589381531E+02  0.49589381531E+02  0.00000000000E+00 0.  1.
         23    2    1    2    0    0  0.26151508985E+02 -0.10902049039E+02  0.12937816105E+03  0.15637804747E+03  0.83142222004E+02 0.  0.
          5    1    1    2  502    0 -0.34527191008E+02  0.63876051644E+02  0.32426345683E+02  0.79631759913E+02  0.41800000000E+01 0. -1.
         -5    1    1    2    0  502  0.83756820229E+01 -0.52974002605E+02  0.45452159170E+02  0.70425621577E+02  0.41800000000E+01 0. -1.
        -11    1    3    3    0    0 -0.71961850231E+01 -0.39839610988E+02  0.82981296710E+02  0.92330251198E+02  0.00000000000E+00 0. -1.
         11    1    3    3    0    0  0.33347694008E+02  0.28937561950E+02  0.46396864335E+02  0.64047796273E+02  0.00000000000E+00 0.  1.
</event>
<event>
 7    1  0.5137842E-006  0.1301703E+03  0.7561462E-02  0.1227203E+00
          1   -1    0    0  501    0  0.00000000000E+00  0.00000000000E+00  0.40718599820E+02  0.40718599820E+02  0.00000000000E+00 0. -1.
         -1   -1    0    0    0  501 -0.00000000000E+00 -0.00000000000E+00 -0.54608966779E+03  0.54608966779E+03  0.00000000000E+00 0.  1.
         23    2    1    2    0    0 -0.35901488700E+02  0.78838625702E+02 -0.17871357702E+03  0.21819819270E+03  0.90374016687E+02 0.  0.
          5    1    1    2  502    0  0.76511465781E+02 -0.81329455162E+02 -0.14865144115E+03  0.18596560980E+03  0.41800000000E+01 0. -1.
         -5    1    1    2    0  502 -0.40609977081E+02  0.24908294593E+01 -0.17800604980E+03  0.18264446511E+03  0.41800000000E+01 0.  1.
        -11    1    3    3    0    0  0.34570590794E+01  0.66302955595E+02 -0.15924970717E+03  0.17253551058E+03  0.00000000000E+00 0.  1.
         11    1    3    3    0    0 -0.39358547779E+02  0.12535670108E+02 -0.19463869845E+02  0.45662682112E+02  0.00000000000E+00 0. -1.
</event>
<event>
 7    1  0.5137842E-006  0.8946670E+02  0.7561462E-02  0.1304148E+00
         -2   -1    0    0    0  501 -0.00000000000E+00  0.00000000000E+00  0.87510969262E+02  0.87510969262E+02  0.00000000000E+00 0.  1.
          2   -1    0    0  501    0  0.00000000000E+00 -0.00000000000E+00 -0.16407868509E+03  0.16407868509E+03  0.00000000000E+00 0. -1.
         23    2    1    2    0    0  0.46252989985E+02 -0.21551308085E+02 -0.43159372034E+02  0.11242515362E+03  0.90404014344E+02 0.  0.
          5    1    1    2  502    0 -0.51616683719E+02 -0.30914084184E+01  0.37353568487E+02  0.63926522843E+02  0.41800000000E+01 0.  1.
         -5    1    1    2    0  502  0.53636937331E+01  0.24642716503E+02 -0.70761912281E+02  0.75237977888E+02  0.41800000000E+01 0.  1.
        -11    1    3    3    0    0 -0.12308125214E+02 -0.38587567533E+02 -0.28999110791E+02  0.49814041605E+02  0.00000000000E+00 0. -1.
         11    1    3    3    0    0  0.58561115199E+02  0.17036259448E+02 -0.14160261244E+02  0.62611112016E+02  0.00000000000E+00 0.  1.
</event>
<event>
 7    1  0.5137842E-006  0.1395590E+03  0.7561462E-02  0.1213924E+00
          1   -1    0    0  501    0  0.00000000000E+00  0.00000000000E+00  0.91999414129E+02  0.91999414129E+02  0.00000000000E+00 0. -1.
         -1   -1    0    0    0  501 -0.00000000000E+00 -0.00000000000E+00 -0.33217209306E+03  0.33217209306E+03  0.00000000000E+00 0.  1.
         23    2    1    2    0    0  0.56865397392E+02 -0.82847942260E+02 -0.12212779881E+01  0.13634652300E+03  0.92148943874E+02 0.  0.
          5    1    1    2  502    0 -0.39315731300E+02  0.10831277545E+03 -0.12668054806E+03  0.17129745389E+03  0.41800000000E+01 0. -1.
         -5    1    1    2    0  502 -0.17549666092E+02 -0.25464833190E+02 -0.11227085289E+03  0.11652753030E+03  0.41800000000E+01 0. -1.
        -11    1    3    3    0    0  0.56580875677E+02 -0.72901877492E+01 -0.16229257039E+02  0.59312149799E+02  0.00000000000E+00 0.  1.
         11    1    3    3    0    0  0.28452171525E+00 -0.75557754511E+02  0.15007979051E+02  0.77034373202E+02  0.00000000000E+00 0. -1.
</event>
<event>
 7    1  0.5137842E-006  0.6764803E+02  0.7561462E-02  0.1368279E+00
         -1   -1    0    0    0  501 -0.00000000000E+00  0.00000000000E+00  0.48051741083E+03  0.48051741083E+03  0.00000000000E+00 0.  1.
          1   -1    0    0  501    0  0.00000000000E+00 -0.00000000000E+00 -0.22814018694E+02  0.22814018694E+02  0.00000000000E+00 0. -1.
         23    2    1    2    0    0  0.93047246223E+01  0.18785886619E+02  0.20594921459E+03  0.22550191894E+03  0.89423425449E+02 0.  0.
          5    1    1    2  502    0 -0.13105726961E+02  0.17511717811E+02 -0.11241058241E+01  0.22297003246E+02  0.41800000000E+01 0. -1.
         -5    1    1    2    0  502  0.38010023384E+01 -0.36297604430E+02  0.25287828337E+03  0.25553250734E+03  0.41800000000E+01 0.  1.
        -11    1    3    3    0    0  0.11591268100E+02 -0.27555910039E+02  0.14936399419E+03  0.15232625655E+03  0.00000000000E+00 0.  1.
         11    1    3    3    0    0 -0.22865434778E+01  0.46341796658E+02  0.56585220402E+02  0.73175662392E+02  0.00000000000E+00 0. -1.
</event>
<event>
 7    1  0.5137842E-006  0.1298879E+03  0.7561462E-02  0.1227622E+00
         -3   -1    0    0    0  501 -0.00000000000E+00  0.00000000000E+00  0.68280206697E+02  0.68280206697E+02  0.00000000000E+00 0.  1.
          3   -1    0    0  501    0  0.00000000000E+00 -0.00000000000E+00 -0.37015563142E+03  0.37015563142E+03  0.00000000000E+00 0. -1.
         23    2    1    2    0    0  0.89859286183E+02 -0.57573507353E+02 -0.20006779500E+03  0.24503903040E+03  0.92884895232E+02 0.  0.
          5    1    1    2  502    0 -0.38942327530E+02  0.83471140058E+02 -0.21364981027E+02  0.94646029554E+02  0.41800000000E+01 0. -1.
         -5    1    1    2    0  502 -0.50916958654E+02 -0.25897632705E+02 -0.80442648704E+02  0.98750778168E+02  0.41800000000E+01 0. -1.
        -11    1    3    3    0    0  0.32603779160E+02 -0.37337385715E+02 -0.17387910101E+02  0.52530240864E+02  0.00000000000E+00 0.  1.
         11    1    3    3    0    0  0.57255507023E+02 -0.20236121638E+02 -0.18267988489E+03  0.19250878954E+03  0.00000000000E+00 0. -1.
</event>
<event>
 7    1  0.5137842E-006  0.5746628E+02  0.7561462E-02  0.1408783E+00
         -1   -1    0    0    0  501 -0.00000000000E+00  0.00000000000E+00  0.10541994097E+03  0.10541994097E+03  0.00000000000E+00 0.  1.
          1   -1    0    0  501    0  0.00000000000E+00 -0.00000000000E+00 -0.18873604609E+03  0.18873604609E+03  0.00000000000E+00 0. -1.
         23    2    1    2    0    0 -0.83359792833E+00 -0.55728787624E+02 -0.10505445690E+03  0.15549289626E+03  0.10017589140E+03 0.  0.
          5    1    1    2  502    0  0.69812443645E+01  0.10135416631E+02 -0.50925595526E+02  0.52558092838E+02  0.41800000000E+01 0. -1.
         -5    1    1    2    0  502 -0.61476464361E+01  0.45593370993E+02  0.72663947310E+02  0.86104997961E+02  0.41800000000E+01 0. -1.
        -11    1    3    3    0    0 -0.59811058976E+00 -0.17890298068E+02  0.18816865364E+02  0.25971040090E+02  0.00000000000E+00 0.  1.
         11    1    3    3    0    0 -0.23548733858E+00 -0.37838489556E+02 -0.12387132226E+03  0.12952185617E+03  0.00000000000E+00 0. -1.
</event>
<event>
 7    1  0.5137842E-006  0.4157023E+03  0.7561462E-02  0.1038474E+00
          2   -1    0    0  501    0  0.00000000000E+00  0.00000000000E+00  0.10397748305E+04  0.10397748305E+04  0.00000000000E+00 0. -1.
         -2   -1    0    0    0  501 -0.00000000000E+00 -0.00000000000E+00 -0.23113445868E+03  0.23113445868E+03  0.00000000000E+00 0.  1.
         23    2    1    2    0    0  0.71288651273E+02  0.39558433326E+03  0.71378821706E+03  0.82434715283E+03  0.92117170263E+02 0.  0.
          5    1    1    2  502    0 -0.12764658894E+02  0.91444365163E+01  0.27716878030E+02  0.32128724899E+02  0.41800000000E+01 0. -1.
         -5    1    1    2    0  502 -0.58523992379E+02 -0.40472876977E+03  0.67135276769E+02  0.41443341148E+03  0.41800000000E+01 0.  1.
        -11    1    3    3    0    0  0.81760536229E+02  0.34891161487E+03  0.66839534705E+03  0.75840387673E+03  0.00000000000E+00 0. -1.
         11    1    3    3    0    0 -0.10471884955E+02  0.46672718390E+02  0.45392870005E+02  0.65943276107E+02  0.00000000000E+00 0.  1.
</event>
<event>
 7    1  0.5137842E-006  0.1191233E+03  0.7561462E-02  0.1244550E+00
          1   -1    0    0  501    0  0.00000000000E+00  0.00000000000E+00  0.60091896300E+02  0.60091896300E+02  0.00000000000E+00 0. -1.
         -1   -1    0    0    0  501 -0.00000000000E+00 -0.00000000000E+00 -0.33890444642E+03  0.33890444642E+03  0.00000000000E+00 0.  1.
         23    2    1    2    0    0 -0.13597136285E+02  0.89725859081E+02 -0.13798919834E+03  0.18991567124E+03  0.93762100136E+02 0.  0.
          5    1    1    2  502    0  0.27460656210E+02 -0.93365424706E+02 -0.37017064558E+02  0.10420616891E+03  0.41800000000E+01 0. -1.
         -5    1    1    2    0  502 -0.13863519924E+02  0.36395656248E+01 -0.10380628722E+03  0.10487450257E+03  0.41800000000E+01 0. -1.
        -11    1    3    3    0    0 -0.31873844071E+02 -0.24199728235E+01 -0.15428682342E+02  0.35494259299E+02  0.00000000000E+00 0. -1.
         11    1    3    3    0    0  0.18276707786E+02  0.92145831904E+02 -0.12256051600E+03  0.15442141194E+03  0.00000000000E+00 0.  1.
</event>
<event>
 7    1  0.5137842E-006  0.7421507E+02  0.7561462E-02  0.1346319E+00
          1   -1    0    0  501    0  0.00000000000E+00  0.00000000000E+00  0.12028620398E+03  0.12028620398E+03  0.00000000000E+00 0. -1.
         -1   -1    0    0    0  501 -0.00000000000E+00 -0.00000000000E+00 -0.11714499171E+03  0.11714499171E+03  0.00000000000E+00 0.  1.
         23    2    1    2    0    0  0.24573826187E+02  0.36979549060E+02  0.12607189583E+02  0.10435853619E+03  0.93597023802E+02 0.  0.
          5    1    1    2  502    0 -0.57503781980E+01 -0.92390997670E+01 -0.66104104594E+02  0.67124160018E+02  0.41800000000E+01 0. -1.
         -5    1    1    2    0  502 -0.18823447989E+02 -0.27740449293E+02  0.56638127283E+02  0.65948499478E+02  0.41800000000E+01 0. -1.
        -11    1    3    3    0    0  0.17021125780E+02 -0.30585703149E+02  0.96473460577E+01  0.36308060343E+02  0.00000000000E+00 0. -1.
         11    1    3    3    0    0  0.75527004076E+01  0.67565252209E+02  0.29598435255E+01  0.68050475848E+02  0.00000000000E+00 0.  1.
</event>
<event>
 7    1  0.5137842E-006  0.1410608E+03  0.7561462E-02  0.1211909E+00
          2   -1    0    0  501    0  0.00000000000E+00  0.00000000000E+00  0.51652619024E+03  0.51652619024E+03  0.00000000000E+00 0. -1.
         -2   -1    0    0    0  501 -0.00000000000E+00 -0.00000000000E+00 -0.51506411245E+02  0.51506411245E+02  0.00000000000E+00 0.  1.
         23    2    1    2    0    0  0.34244551926E+02  0.10848270406E+03  0.27953278188E+03  0.31704703461E+03  0.97154822785E+02 0.  0.
          5    1    1    2  502    0 -0.62842570217E+02 -0.11892676241E+03  0.16924315976E+03  0.21622553729E+03  0.41800000000E+01 0. -1.
         -5    1    1    2    0  502  0.28598018291E+02  0.10444058351E+02  0.16243837354E+02  0.34760029588E+02  0.41800000000E+01 0. -1.
        -11    1    3    3    0    0  0.23312822620E+02  0.32195220781E+02  0.16641486755E+02  0.43092447378E+02  0.00000000000E+00 0.  1.
         11    1    3    3    0    0  0.10931729306E+02  0.76287483283E+02  0.26289129513E+03  0.27395458723E+03  0.00000000000E+00 0. -1.
</event>
<event>
 7    1  0.5137842E-006  0.1370870E+03  0.7561462E-02  0.1217303E+00
          1   -1    0    0  501    0  0.00000000000E+00  0.00000000000E+00  0.59928844547E+03  0.59928844547E+03  0.00000000000E+00 0. -1.
         -1   -1    0    0    0  501 -0.00000000000E+00 -0.00000000000E+00 -0.47926881604E+02  0.47926881604E+02  0.00000000000E+00 0.  1.
         23    2    1    2    0    0  0.12615296245E+03 -0.31453164868E+02  0.25615220121E+03  0.30123983304E+03  0.90706203261E+02 0.  0.
          5    1    1    2  502    0 -0.12458697125E+03  0.19229056641E+02  0.30476225115E+03  0.32983203627E+03  0.41800000000E+01 0. -1.
         -5    1    1    2    0  502 -0.15659911981E+01  0.12224108226E+02 -0.95528884857E+01  0.16143457770E+02  0.41800000000E+01 0. -1.
        -11    1    3    3    0    0  0.27029790994E+02  0.82338861565E+01  0.54902205189E+01  0.28784527159E+02  0.00000000000E+00 0.  1.
         11    1    3    3    0    0  0.99123171455E+02 -0.39687051024E+02  0.25066198069E+03  0.27245530588E+03  0.00000000000E+00 0. -1.
</event>
<event>
 7    1  0.5137842E-006  0.1113668E+03  0.7561462E-02  0.1258060E+00
          1   -1    0    0  501    0  0.00000000000E+00  0.00000000000E+00  0.47136615279E+03  0.47136615279E+03  0.00000000000E+00 0. -1.
         -1   -1    0    0    0  501 -0.00000000000E+00 -0.00000000000E+00 -0.40746587396E+02  0.40746587396E+02  0.00000000000E+00 0.  1.
         23    2    1    2    0    0  0.15164076573E+02 -0.63566304148E+02  0.29499741852E+03  0.31638050748E+03  0.93821769027E+02 0.  0.
          5    1    1    2  502    0 -0.23161556736E+02 -0.34149323392E+02  0.27742539215E+02  0.49897443628E+02  0.41800000000E+01 0.  1.
         -5    1    1    2    0  502  0.79974801625E+01  0.97715627540E+02  0.10787960766E+03  0.14583478907E+03  0.41800000000E+01 0.  1.
        -11    1    3    3    0    0 -0.17907471805E+02 -0.35465242054E+02  0.35501162939E+02  0.53280329488E+02  0.00000000000E+00 0.  1.
         11    1    3    3    0    0  0.33071548378E+02 -0.28101062095E+02  0.25949625558E+03  0.26310017800E+03  0.00000000000E+00 0. -1.
</event>
<event>
 7    1  0.5137842E-006  0.1649379E+03  0.7561462E-02  0.1183232E+00
         -2   -1    0    0    0  501 -0.00000000000E+00  0.00000000000E+00  0.20484946325E+03  0.20484946325E+03  0.00000000000E+00 0. -1.
          2   -1    0    0  501    0  0.00000000000E+00 -0.00000000000E+00 -0.13311172305E+03  0.13311172305E+03  0.00000000000E+00 0.  1.
         23    2    1    2    0    0  0.10338850814E+03 -0.68635496215E+02  0.28219665062E+02  0.15646470489E+03  0.91021093297E+02 0.  0.
          5    1    1    2  502    0  0.42707406857E+01 -0.29710858233E+02  0.85078895652E+01  0.31477466667E+02  0.41800000000E+01 0.  1.
         -5    1    1    2    0  502 -0.10765924882E+03  0.98346354448E+02  0.35010185568E+02  0.15001901474E+03  0.41800000000E+01 0.  1.
        -11    1    3    3    0    0  0.11778632216E+03 -0.73091362100E+02  0.23011586741E+02  0.14051867501E+03  0.00000000000E+00 0.  1.
         11    1    3    3    0    0 -0.14397814019E+02  0.44558658847E+01  0.52080783209E+01  0.15946029886E+02  0.00000000000E+00 0. -1.
</event>
<event>
 7    1  0.5137842E-006  0.2158360E+03  0.7561462E-02  0.1137026E+00
          2   -1    0    0  501    0  0.00000000000E+00  0.00000000000E+00  0.28819099247E+03  0.28819099247E+03  0.00000000000E+00 0. -1.
         -2   -1    0    0    0  501 -0.00000000000E+00 -0.00000000000E+00 -0.22181628707E+03  0.22181628707E+03  0.00000000000E+00 0.  1.
         23    2    1    2    0    0 -0.19392571324E+03  0.51869287347E+02  0.13984398237E+03  0.26233269965E+03  0.94681047075E+02 0.  0.
          5    1    1    2  502    0 -0.12416026538E+02  0.82752332321E+01 -0.21518531153E+02  0.26517103594E+02  0.41800000000E+01 0. -1.
         -5    1    1    2    0  502  0.20634173978E+03 -0.60144520579E+02 -0.51950745820E+02  0.22115747630E+03  0.41800000000E+01 0. -1.
        -11    1    3    3    0    0 -0.17019712681E+03  0.40775120271E+02  0.71345971243E+02  0.18899714289E+03  0.00000000000E+00 0.  1.
         11    1    3    3    0    0 -0.23728586430E+02  0.11094167076E+02  0.68498011130E+02  0.73335556763E+02  0.00000000000E+00 0. -1.
</event>
<event>
 7    1  0.5137842E-006  0.8899012E+02  0.7561462E-02  0.1305316E+00
          2   -1    0    0  501    0  0.00000000000E+00  0.00000000000E+00  0.60097645859E+02  0.60097645859E+02  0.00000000000E+00 0. -1.
         -2   -1    0    0    0  501 -0.00000000000E+00 -0.00000000000E+00 -0.22152418479E+03  0.22152418479E+03  0.00000000000E+00 0.  1.
         23    2    1    2    0    0  0.76598826161E+01  0.24527090012E+02 -0.22030033947E+02  0.92575891532E+02  0.86166822798E+02 0.  0.
          5    1    1    2  502    0  0.25269736950E+01  0.31285228758E+02 -0.12691407290E+03  0.13080445495E+03  0.41800000000E+01 0.  1.
         -5    1    1    2    0  502 -0.10186856311E+02 -0.55812318769E+02 -0.12482432089E+02  0.58241484174E+02  0.41800000000E+01 0.  1.
        -11    1    3    3    0    0  0.18653557822E+02  0.54446171757E+02 -0.18761744798E+02  0.60533824480E+02  0.00000000000E+00 0.  1.
         11    1    3    3    0    0 -0.10993675206E+02 -0.29919081745E+02 -0.32682891490E+01  0.32042067052E+02  0.00000000000E+00 0. -1.
</event>
<event>
 7    1  0.5137842E-006  0.8044352E+02  0.7561462E-02  0.1327797E+00
         -2   -1    0    0    0  501 -0.00000000000E+00  0.00000000000E+00  0.33798472656E+02  0.33798472656E+02  0.00000000000E+00 0. -1.
          2   -1    0    0  501    0  0.00000000000E+00 -0.00000000000E+00 -0.49089514124E+03  0.49089514124E+03  0.00000000000E+00 0.  1.
         23    2    1    2    0    0 -0.38086195820E+01 -0.35051593072E+02 -0.32499434439E+03  0.33936600396E+03  0.91130900354E+02 0.  0.
          5    1    1    2  502    0  0.30304113259E+02  0.18622200314E+02 -0.14644252135E+03  0.15075811780E+03  0.41800000000E+01 0. -1.
         -5    1    1    2    0  502 -0.26495493677E+02  0.16429392758E+02  0.14340197157E+02  0.34569492129E+02  0.41800000000E+01 0. -1.
        -11    1    3    3    0    0  0.25506940694E+01  0.29070472599E+02 -0.60993158802E+02  0.67614819663E+02  0.00000000000E+00 0. -1.
         11    1    3    3    0    0 -0.63593136514E+01 -0.64122065671E+02 -0.26400118559E+03  0.27175118430E+03  0.00000000000E+00 0.  1.
</event>
<event>
 7    1  0.5137842E-006  0.8541149E+02  0.7561462E-02  0.1314360E+00
          3   -1    0    0  501    0  0.00000000000E+00  0.00000000000E+00  0.20234210556E+03  0.20234210556E+03  0.00000000000E+00 0. -1.
         -3   -1    0    0    0  501 -0.00000000000E+00 -0.00000000000E+00 -0.55857698267E+02  0.55857698267E+02  0.00000000000E+00 0.  1.
         23    2    1    2    0    0  0.20628040876E+02  0.18408344313E+02  0.69571084865E+02  0.11814019047E+03  0.91392480790E+02 0.  0.
          5    1    1    2  502    0  0.35961326290E+02 -0.26729508973E+02  0.68695739041E+02  0.82123447327E+02  0.41800000000E+01 0. -1.
         -5    1    1    2    0  502 -0.56589367167E+02  0.83211646596E+01  0.82175833916E+01  0.57936166032E+02  0.41800000000E+01 0.  1.
        -11    1    3    3    0    0 -0.21226119402E+02 -0.30372005235E+01 -0.11563190251E+02  0.24361447015E+02  0.00000000000E+00 0.  1.
         11    1    3    3    0    0  0.41854160278E+02  0.21445544836E+02  0.81134275116E+02  0.93778743458E+02  0.00000000000E+00 0. -1.
</event>
<event>
 7    1  0.5137842E-006  0.8105190E+02  0.7561462E-02  0.1326093E+00
          3   -1    0    0  501    0  0.00000000000E+00  0.00000000000E+00  0.18261503714E+02  0.18261503714E+02  0.00000000000E+00 0. -1.
         -3   -1    0    0    0  501 -0.00000000000E+00 -0.00000000000E+00 -0.94392784206E+03  0.94392784206E+03  0.00000000000E+00 0.  1.
         23    2    1    2    0    0 -0.41105530412E+02 -0.36319790178E+02 -0.23473044115E+03  0.25783276081E+03  0.91490768683E+02 0.  0.
          5    1    1    2  502    0 -0.16807635272E+01 -0.14547812137E+02 -0.52954172513E+03  0.52976067697E+03  0.41800000000E+01 0.  1.
         -5    1    1    2    0  502  0.42786293939E+02  0.50867602315E+02 -0.16139417206E+03  0.17459590799E+03  0.41800000000E+01 0.  1.
        -11    1    3    3    0    0 -0.49100010759E+02 -0.66531521926E+01 -0.21651910831E+03  0.22211618526E+03  0.00000000000E+00 0.  1.
         11    1    3    3    0    0  0.79944803466E+01 -0.29666637986E+02 -0.18211332848E+02  0.35716575557E+02  0.00000000000E+00 0. -1.
</event>
<event>
 7    1  0.5137842E-006  0.1538800E+03  0.7561462E-02  0.1195785E+00
         -3   -1    0    0    0  501 -0.00000000000E+00  0.00000000000E+00  0.58537794243E+03  0.58537794243E+03  0.00000000000E+00 0.  1.
          3   -1    0    0  501    0  0.00000000000E+00 -0.00000000000E+00 -0.42463401432E+02  0.42463401432E+02  0.00000000000E+00 0. -1.
         23    2    1    2    0    0  0.68646634963E+02  0.87855176607E+02  0.21201282717E+03  0.25693284270E+03  0.92920149713E+02 0.  0.
          5    1    1    2  502    0 -0.88235052275E+02 -0.10648465363E+03  0.25322817583E+03  0.28855915744E+03  0.41800000000E+01 0. -1.
         -5    1    1    2    0  502  0.19588417312E+02  0.18629477023E+02  0.77673537996E+02  0.82349343723E+02  0.41800000000E+01 0. -1.
        -11    1    3    3    0    0 -0.58752981836E+01  0.63324356471E+02  0.12159684009E+03  0.13722348477E+03  0.00000000000E+00 0.  1.
         11    1    3    3    0    0  0.74521933147E+02  0.24530820136E+02  0.90415987079E+02  0.11970935793E+03  0.00000000000E+00 0. -1.
</event>
<event>
 7    1  0.5137842E-006  0.9953602E+02  0.7561462E-02  0.1281275E+00
          1   -1    0    0  501    0  0.00000000000E+00  0.00000000000E+00  0.25200312888E+03  0.25200312888E+03  0.00000000000E+00 0. -1.
         -1   -1    0    0    0  501 -0.00000000000E+00 -0.00000000000E+00 -0.77445873152E+02  0.77445873152E+02  0.00000000000E+00 0.  1.
         23    2    1    2    0    0  0.74467214883E+02 -0.11798956242E+02  0.13363223757E+03  0.17776829926E+03  0.89774227055E+02 0.  0.
          5    1    1    2  502    0 -0.53969813327E+02 -0.70569666675E+01 -0.38901123928E+02  0.67032166696E+02  0.41800000000E+01 0. -1.
         -5    1    1    2    0  502 -0.20497401556E+02  0.18855922910E+02  0.79826142083E+02  0.84648536072E+02  0.41800000000E+01 0. -1.
        -11    1    3    3    0    0  0.81952471035E+02  0.19414709308E+02  0.86360590384E+02  0.12062872800E+03  0.00000000000E+00 0.  1.
         11    1    3    3    0    0 -0.74852561520E+01 -0.31213665550E+02  0.47271647187E+02  0.57139571267E+02  0.00000000000E+00 0. -1.
</event>
<event>
 7    1  0.5137842E-006  0.1633154E+03  0.7561462E-02  0.1185004E+00
          1   -1    0    0  501    0  0.00000000000E+00  0.00000000000E+00  0.62158500258E+02  0.62158500258E+02  0.00000000000E+00 0. -1.
         -1   -1    0    0    0  501 -0.00000000000E+00 -0.00000000000E+00 -0.46797680105E+03  0.46797680105E+03  0.00000000000E+00 0.  1.
         23    2    1    2    0    0 -0.11753578976E+03 -0.42342215935E+02 -0.11855118997E+03  0.19282359233E+03  0.86712328964E+02 0.  0.
          5    1    1    2  502    0 -0.11527440616E+02  0.45779067725E+02 -0.69709177091E+02  0.84293811752E+02  0.41800000000E+01 0. -1.
         -5    1    1    2    0  502  0.12906323037E+03 -0.34368517895E+01 -0.21755793373E+03  0.25301789722E+03  0.41800000000E+01 0. -1.
        -11    1    3    3    0    0  0.11987803440E+02 -0.12143664599E+02 -0.24803157016E+02  0.30106022971E+02  0.00000000000E+00 0.  1.
         11    1    3    3    0    0 -0.12952359320E+03 -0.30198551337E+02 -0.93748032952E+02  0.16271756936E+03  0.00000000000E+00 0. -1.
</event>
<event>
 7    1  0.5137842E-006  0.8670617E+02  0.7561462E-02  0.1311030E+00
          2   -1    0    0  501    0  0.00000000000E+00  0.00000000000E+00  0.50886735333E+03  0.50886735333E+03  0.00000000000E+00 0. -1.
         -2   -1    0    0    0  501 -0.00000000000E+00 -0.00000000000E+00 -0.33513665330E+02  0.33513665330E+02  0.00000000000E+00 0.  1.
         23    2    1    2    0    0 -0.68079781714E+02  0.86864270276E+01  0.26547245264E+03  0.28859335455E+03  0.90001058265E+02 0.  0.
          5    1    1    2  502    0  0.30936235557E+02 -0.24115077163E+02  0.20967158450E+03  0.21335002546E+03  0.41800000000E+01 0.  1.
         -5    1    1    2    0  502  0.37143546157E+02  0.15428650136E+02  0.20965086491E+00  0.40437638650E+02  0.41800000000E+01 0.  1.
        -11    1    3    3    0    0 -0.35513024004E+01  0.26380042507E+02  0.17749485514E+02  0.31993165323E+02  0.00000000000E+00 0.  1.
         11    1    3    3    0    0 -0.64528479314E+02 -0.17693615479E+02  0.24772296712E+03  0.25660018923E+03  0.00000000000E+00 0. -1.
</event>
<event>
 7    1  0.5137842E-006  0.9680557E+02  0.7561462E-02  0.1287161E+00
          1   -1    0    0  501    0  0.00000000000E+00  0.00000000000E+00  0.20162499253E+02  0.20162499253E+02  0.00000000000E+00 0. -1.
         -1   -1    0    0    0  501 -0.00000000000E+00 -0.00000000000E+00 -0.74032359534E+03  0.74032359534E+03  0.00000000000E+00 0.  1.
         23    2    1    2    0    0  0.36636458890E+02  0.46518984435E+01 -0.19643259242E+03  0.22076089056E+03  0.93732263162E+02 0.  0.
          5    1    1    2  502    0 -0.20476254900E+02 -0.48927767388E+02 -0.99192146363E+02  0.11256001837E+03  0.41800000000E+01 0. -1.
         -5    1    1    2    0  502 -0.16160203989E+02  0.44275868945E+02 -0.42453635730E+03  0.42716518566E+03  0.41800000000E+01 0. -1.
        -11    1    3    3    0    0 -0.23369836869E+02  0.20432606710E+02 -0.30128775035E+02  0.43259493494E+02  0.00000000000E+00 0. -1.
         11    1    3    3    0    0  0.60006295759E+02 -0.15780708266E+02 -0.16630381738E+03  0.17750139707E+03  0.00000000000E+00 0.  1.
</event>
<event>
 7    1  0.5137842E-006  0.1129069E+03  0.7561462E-02  0.1255279E+00
         -2   -1    0    0    0  501 -0.00000000000E+00  0.00000000000E+00  0.10440016223E+03  0.10440016223E+03  0.00000000000E+00 0.  1.
          2   -1    0    0  501    0  0.00000000000E+00 -0.00000000000E+00 -0.23939428405E+03  0.23939428405E+03  0.00000000000E+00 0. -1.
         23    2    1    2    0    0  0.62077117889E+02  0.30400677915E+02 -0.15964284401E+03  0.20606618662E+03  0.11045209749E+03 0.  0.
          5    1    1    2  502    0 -0.62412350218E+02  0.17766158560E+02 -0.23835191361E+02  0.69256960638E+02  0.41800000000E+01 0. -1.
         -5    1    1    2    0  502  0.33523232857E+00 -0.48166836474E+02  0.48483913548E+02  0.68471299021E+02  0.41800000000E+01 0.  1.
        -11    1    3    3    0    0  0.64113875106E+02 -0.15929951065E+02 -0.14169519791E+03  0.15633899524E+03  0.00000000000E+00 0.  1.
         11    1    3    3    0    0 -0.20367572168E+01  0.46330628980E+02 -0.17947646102E+02  0.49727191377E+02  0.00000000000E+00 0. -1.
</event>
<event>
 7    1  0.5137842E-006  0.1741702E+03  0.7561462E-02  0.1173567E+00
          2   -1    0    0  501    0  0.00000000000E+00  0.00000000000E+00  0.88056410170E+02  0.88056410170E+02  0.00000000000E+00 0. -1.
         -2   -1    0    0    0  501 -0.00000000000E+00 -0.00000000000E+00 -0.36921079843E+03  0.36921079843E+03  0.00000000000E+00 0.  1.
         23    2    1    2    0    0  0.13913966992E+03 -0.30017207145E+02 -0.10787494298E+03  0.20049102012E+03  0.91097559549E+02 0.  0.
          5    1    1    2  502    0 -0.10270818422E+03  0.72834001383E+02 -0.84796196398E+02  0.15186056166E+03  0.41800000000E+01 0. -1.
         -5    1    1    2    0  502 -0.36431485700E+02 -0.42816794237E+02 -0.88483248883E+02  0.10491562682E+03  0.41800000000E+01 0. -1.
        -11    1    3    3    0    0  0.95249437963E+02 -0.60236393859E+02 -0.54926968474E+02  0.12537085165E+03  0.00000000000E+00 0.  1.
         11    1    3    3    0    0  0.43890231957E+02  0.30219186714E+02 -0.52947974509E+02  0.75120168473E+02  0.00000000000E+00 0. -1.
</event>
<event>
 7    1  0.5137842E-006  0.1053357E+03  0.7561462E-02  0.1269460E+00
          1   -1    0    0  501    0  0.00000000000E+00  0.00000000000E+00  0.21097521152E+03  0.21097521152E+03  0.00000000000E+00 0. -1.
         -1   -1    0    0    0  501 -0.00000000000E+00 -0.00000000000E+00 -0.17048476356E+03  0.17048476356E+03  0.00000000000E+00 0.  1.
         23    2    1    2    0    0  0.94596753829E+02  0.25738743893E+02  0.14023175274E+03  0.19382505193E+03  0.91061394162E+02 0.  0.
          5    1    1    2  502    0 -0.57396880349E+02  0.32470751097E+01  0.18281606333E+02  0.60470115765E+02  0.41800000000E+01 0.  1.
         -5    1    1    2    0  502 -0.37199873480E+02 -0.28985819003E+02 -0.11802291111E+03  0.12716480738E+03  0.41800000000E+01 0.  1.
        -11    1    3    3    0    0  0.38483196213E+02  0.30875971696E+02  0.78619275754E+01  0.49960903956E+02  0.00000000000E+00 0.  1.
         11    1    3    3    0    0  0.56113557617E+02 -0.51372278025E+01  0.13236982517E+03  0.14386414798E+03  0.00000000000E+00 0. -1.
</event>
<event>
 7    1  0.5137842E-006  0.1633625E+03  0.7561462E-02  0.1184952E+00
          1   -1    0    0  501    0  0.00000000000E+00  0.00000000000E+00  0.15959816010E+03  0.15959816010E+03  0.00000000000E+00 0. -1.
         -1   -1    0    0    0  501 -0.00000000000E+00 -0.00000000000E+00 -0.18849033403E+03  0.18849033403E+03  0.00000000000E+00 0.  1.
         23    2    1    2    0    0 -0.11573161032E+02  0.12834877321E+03  0.27044884462E+02  0.15998308682E+03  0.90861524596E+02 0.  0.
          5    1    1    2  502    0 -0.43740379298E+02 -0.85830582989E+01 -0.43257059488E-01  0.44770123320E+02  0.41800000000E+01 0. -1.
         -5    1    1    2    0  502  0.55313540330E+02 -0.11976571491E+03 -0.55893801334E+02  0.14333528400E+03  0.41800000000E+01 0. -1.
        -11    1    3    3    0    0 -0.43983193221E+02  0.86452199594E+02 -0.66168388315E+01  0.97222871058E+02  0.00000000000E+00 0.  1.
         11    1    3    3    0    0  0.32410032189E+02  0.41896573614E+02  0.33661723294E+02  0.62760215760E+02  0.00000000000E+00 0. -1.
</event>
<event>
 7    1  0.5137842E-006  0.1833266E+03  0.7561462E-02  0.1164622E+00
         -2   -1    0    0    0  501 -0.00000000000E+00  0.00000000000E+00  0.79583610787E+03  0.79583610787E+03  0.00000000000E+00 0.  1.
          2   -1    0    0  501    0  0.00000000000E+00 -0.00000000000E+00 -0.80979596257E+02  0.80979596257E+02  0.00000000000E+00 0. -1.
         23    2    1    2    0    0 -0.16750370587E+03 -0.21085913561E+02  0.79240950922E+02  0.20737205224E+03  0.90674872578E+02 0.  0.
          5    1    1    2  502    0  0.75607540539E+02 -0.20669598696E+02  0.11575845922E+03  0.13986145208E+03  0.41800000000E+01 0. -1.
         -5    1    1    2    0  502  0.91896165326E+02  0.41755512256E+02  0.51985710147E+03  0.52958219981E+03  0.41800000000E+01 0. -1.
        -11    1    3    3    0    0 -0.11932486807E+03 -0.51710104396E+02  0.33695982144E+02  0.13434201967E+03  0.00000000000E+00 0.  1.
         11    1    3    3    0    0 -0.48178837792E+02  0.30624190836E+02  0.45544968778E+02  0.73030032564E+02  0.00000000000E+00 0. -1.
</event>
<event>
 7    1  0.5137842E-006  0.8612523E+02  0.7561462E-02  0.1312516E+00
         -4   -1    0    0    0  501 -0.00000000000E+00  0.00000000000E+00  0.36317306316E+03  0.36317306316E+03  0.00000000000E+00 0.  1.
          4   -1    0    0  501    0  0.00000000000E+00 -0.00000000000E+00 -0.53741586145E+02  0.53741586145E+02  0.00000000000E+00 0. -1.
         23    2    1    2    0    0 -0.49719650442E+02 -0.10102710756E+02  0.31536754367E+02  0.10796926163E+03  0.89937123455E+02 0.  0.
          5    1    1    2  502    0  0.40333475250E+02 -0.37732355312E+02  0.24201659294E+03  0.24827408951E+03  0.41800000000E+01 0. -1.
         -5    1    1    2    0  502  0.93861751921E+01  0.47835066068E+02  0.35878129711E+02  0.60671298173E+02  0.41800000000E+01 0. -1.
        -11    1    3    3    0    0 -0.10739996674E+02  0.17246855689E+02  0.52235458557E+02  0.56047700135E+02  0.00000000000E+00 0.  1.
         11    1    3    3    0    0 -0.38979653767E+02 -0.27349566445E+02 -0.20698704190E+02  0.51921561491E+02  0.00000000000E+00 0. -1.
</event>
<event>
 7    1  0.5137842E-006  0.1801328E+03  0.7561462E-02  0.1167675E+00
          2   -1    0    0  501    0  0.00000000000E+00  0.00000000000E+00  0.18706510469E+03  0.18706510469E+03  0.00000000000E+00 0. -1.
         -2   -1    0    0    0  501 -0.00000000000E+00 -0.00000000000E+00 -0.21229068983E+03  0.21229068983E+03  0.00000000000E+00 0.  1.
         23    2    1    2    0    0 -0.11079156809E+03 -0.97883717455E+02  0.64169622761E+02  0.18606031447E+03  0.92976913442E+02 0.  0.
          5    1    1    2  502    0  0.17431075136E+02  0.95113974786E+02 -0.25624486805E+02  0.10012291098E+03  0.41800000000E+01 0. -1.
         -5    1    1    2    0  502  0.93360492958E+02  0.27697426690E+01 -0.63770721088E+02  0.11317256906E+03  0.41800000000E+01 0. -1.
        -11    1    3    3    0    0  0.69095401600E+01 -0.36668802334E+02 -0.28542548752E+01  0.37423115594E+02  0.00000000000E+00 0.  1.
         11    1    3    3    0    0 -0.11770110825E+03 -0.61214915121E+02  0.67023877636E+02  0.14863719888E+03  0.00000000000E+00 0. -1.
</event>
<event>
 7    1  0.5137842E-006  0.1296294E+03  0.7561462E-02  0.1228007E+00
         -4   -1    0    0    0  501 -0.00000000000E+00  0.00000000000E+00  0.63689315097E+03  0.63689315097E+03  0.00000000000E+00 0. -1.
          4   -1    0    0  501    0  0.00000000000E+00 -0.00000000000E+00 -0.28942703464E+02  0.28942703464E+02  0.00000000000E+00 0.  1.
         23    2    1    2    0    0 -0.32120075196E+02 -0.65805575942E+02  0.18094005161E+03  0.21489484051E+03  0.89880015272E+02 0.  0.
          5    1    1    2  502    0  0.75669589830E+02  0.65631756172E+02  0.27253575408E+03  0.29039046799E+03  0.41800000000E+01 0.  1.
         -5    1    1    2    0  502 -0.43549514634E+02  0.17381976936E+00  0.15447464181E+03  0.16055054594E+03  0.41800000000E+01 0.  1.
        -11    1    3    3    0    0 -0.47925836236E+02 -0.80491614562E+02  0.13731846122E+03  0.16622919595E+03  0.00000000000E+00 0. -1.
         11    1    3    3    0    0  0.15805761040E+02  0.14686038621E+02  0.43621590388E+02  0.48665644560E+02  0.00000000000E+00 0.  1.
</event>
<event>
 7    1  0.5137842E-006  0.1004756E+03  0.7561462E-02  0.1279299E+00
          1   -1    0    0  501    0  0.00000000000E+00  0.00000000000E+00  0.17341040962E+03  0.17341040962E+03  0.00000000000E+00 0. -1.
         -1   -1    0    0    0  501 -0.00000000000E+00 -0.00000000000E+00 -0.13135203855E+03  0.13135203855E+03  0.00000000000E+00 0.  1.
         23    2    1    2    0    0  0.32941927713E+02  0.90811189096E+02  0.57183104787E+02  0.14599563368E+03  0.93343317458E+02 0.  0.
          5    1    1    2  502    0 -0.52316626226E+01 -0.66441005097E+02  0.50255142461E+02  0.83575290582E+02  0.41800000000E+01 0.  1.
         -5    1    1    2    0  502 -0.27710265091E+02 -0.24370184000E+02 -0.65379876179E+02  0.75191523915E+02  0.41800000000E+01 0.  1.
        -11    1    3    3    0    0  0.17098237318E+02  0.60010393331E+02  0.82249292825E+02  0.10324022083E+03  0.00000000000E+00 0. -1.
         11    1    3    3    0    0  0.15843690395E+02  0.30800795766E+02 -0.25066188038E+02  0.42755412849E+02  0.00000000000E+00 0.  1.
</event>
<event>
 7    1  0.5137842E-006  0.1071342E+03  0.7561462E-02  0.1265971E+00
         -2   -1    0    0    0  501 -0.00000000000E+00  0.00000000000E+00  0.14339832633E+03  0.14339832633E+03  0.00000000000E+00 0.  1.
          2   -1    0    0  501    0  0.00000000000E+00 -0.00000000000E+00 -0.14419904447E+03  0.14419904447E+03  0.00000000000E+00 0. -1.
         23    2    1    2    0    0  0.46300592400E+02 -0.18489683089E+02 -0.81158061330E+02  0.13075610311E+03  0.89581886257E+02 0.  0.
          5    1    1    2  502    0 -0.72251992471E+01 -0.51889589845E+02  0.43424260952E+02  0.68175302550E+02  0.41800000000E+01 0. -1.
         -5    1    1    2    0  502 -0.39075393153E+02  0.70379272934E+02  0.36933082242E+02  0.88665965131E+02  0.41800000000E+01 0. -1.
        -11    1    3    3    0    0 -0.11717426363E+02 -0.19872183617E+02 -0.67223997013E+02  0.71072269815E+02  0.00000000000E+00 0. -1.
         11    1    3    3    0    0  0.58018018763E+02  0.13825005284E+01 -0.13934064317E+02  0.59683833299E+02  0.00000000000E+00 0.  1.
</event>
<event>
 7    1  0.5137842E-006  0.3009414E+03  0.7561462E-02  0.1084771E+00
         -1   -1    0    0    0  501 -0.00000000000E+00  0.00000000000E+00  0.26408338369E+03  0.26408338369E+03  0.00000000000E+00 0.  1.
          1   -1    0    0  501    0  0.00000000000E+00 -0.00000000000E+00 -0.43415168590E+03  0.43415168590E+03  0.00000000000E+00 0. -1.
         23    2    1    2    0    0 -0.28404014455E+03 -0.74550209219E+02 -0.21575259020E+03  0.37578805606E+03  0.91820180199E+02 0.  0.
          5    1    1    2  502    0  0.92247699804E+02 -0.17250460110E+02  0.56285555380E+02  0.10951142697E+03  0.41800000000E+01 0. -1.
         -5    1    1    2    0  502  0.19179244475E+03  0.91800669329E+02 -0.10601267402E+02  0.21293558656E+03  0.41800000000E+01 0. -1.
        -11    1    3    3    0    0 -0.25386845070E+03 -0.56389064849E+02 -0.14746874794E+03  0.29895810495E+03  0.00000000000E+00 0.  1.
         11    1    3    3    0    0 -0.30171693851E+02 -0.18161144370E+02 -0.68283842260E+02  0.76829951115E+02  0.00000000000E+00 0. -1.
</event>
<event>
 7    1  0.5137842E-006  0.9014515E+02  0.7561462E-02  0.1302501E+00
         -1   -1    0    0    0  501 -0.00000000000E+00  0.00000000000E+00  0.11059026103E+03  0.11059026103E+03  0.00000000000E+00 0.  1.
          1   -1    0    0  501    0  0.00000000000E+00 -0.00000000000E+00 -0.13713868145E+03  0.13713868145E+03  0.00000000000E+00 0. -1.
         23    2    1    2    0    0 -0.57679682649E+01  0.53631840084E+02 -0.30823341349E+02  0.11143355823E+03  0.92507922900E+02 0.  0.
          5    1    1    2  502    0  0.11298691026E+01  0.18552423373E+02 -0.44869865396E+02  0.48746756178E+02  0.41800000000E+01 0. -1.
         -5    1    1    2    0  502  0.46380991622E+01 -0.72184263457E+02  0.49144786329E+02  0.87548628076E+02  0.41800000000E+01 0. -1.
        -11    1    3    3    0    0 -0.37461586245E+02  0.38312230781E+02 -0.48293427241E+02  0.72134960915E+02  0.00000000000E+00 0. -1.
         11    1    3    3    0    0  0.31693617981E+02  0.15319609302E+02  0.17470085893E+02  0.39298597316E+02  0.00000000000E+00 0.  1.
</event>
<event>
 7    1  0.5137842E-006  0.1208186E+03  0.7561462E-02  0.1241753E+00
         -1   -1    0    0    0  501 -0.00000000000E+00  0.00000000000E+00  0.87721520500E+02  0.87721520500E+02  0.00000000000E+00 0.  1.
          1   -1    0    0  501    0  0.00000000000E+00 -0.00000000000E+00 -0.24276798495E+03  0.24276798495E+03  0.00000000000E+00 0. -1.
         23    2    1    2    0    0 -0.62121929415E+02  0.38091174260E+02 -0.14391121134E+03  0.18620016067E+03  0.93005330032E+02 0.  0.
          5    1    1    2  502    0 -0.32954690953E+02 -0.10142429540E+02 -0.26802956239E+02  0.43871988739E+02  0.41800000000E+01 0. -1.
         -5    1    1    2    0  502  0.95076620369E+02 -0.27948744720E+02  0.15667703130E+02  0.10041735604E+03  0.41800000000E+01 0.  1.
        -11    1    3    3    0    0  0.96319203005E+01 -0.15437903347E+02 -0.18562111145E+01  0.18290660681E+02  0.00000000000E+00 0.  1.
         11    1    3    3    0    0 -0.71753849716E+02  0.53529077607E+02 -0.14205500022E+03  0.16790949999E+03  0.00000000000E+00 0. -1.
</event>
<event>
 7    1  0.5137842E-006  0.1535766E+03  0.7561462E-02  0.1196146E+00
         -1   -1    0    0    0  501 -0.00000000000E+00  0.00000000000E+00  0.48232456884E+03  0.48232456884E+03  0.00000000000E+00 0. -1.
          1   -1    0    0  501    0  0.00000000000E+00 -0.00000000000E+00 -0.70284158433E+02  0.70284158433E+02  0.00000000000E+00 0.  1.
         23    2    1    2    0    0  0.10341519127E+03  0.70460502502E+02  0.75664443545E+02  0.17253625781E+03  0.91565648821E+02 0.  0.
          5    1    1    2  502    0 -0.65655507840E+02  0.18310810752E+02  0.21130020668E+03  0.22206121058E+03  0.41800000000E+01 0. -1.
         -5    1    1    2    0  502 -0.37759683428E+02 -0.88771313254E+02  0.12507576018E+03  0.15801125888E+03  0.41800000000E+01 0. -1.
        -11    1    3    3    0    0  0.21932438706E+02  0.55211051379E+02  0.66440774726E+02  0.89127260746E+02  0.00000000000E+00 0. -1.
         11    1    3    3    0    0  0.81482752562E+02  0.15249451123E+02  0.92236688191E+01  0.83408997063E+02  0.00000000000E+00 0.  1.
</event>
<event>
 7    1  0.5137842E-006  0.1116217E+03  0.7561462E-02  0.1257596E+00
          2   -1    0    0  501    0  0.00000000000E+00  0.00000000000E+00  0.67132113982E+02  0.67132113982E+02  0.00000000000E+00 0.  1.
         -2   -1    0    0    0  501 -0.00000000000E+00 -0.00000000000E+00 -0.26366167080E+03  0.26366167080E+03  0.00000000000E+00 0. -1.
         23    2    1    2    0    0 -0.88864267862E+01  0.76383909780E+02 -0.89209349166E+02  0.14891903558E+03  0.91132326462E+02 0.  0.
          5    1    1    2  502    0 -0.26806246585E+02 -0.95368778756E+02 -0.99533161147E+02  0.14049235348E+03  0.41800000000E+01 0.  1.
         -5    1    1    2    0  502  0.35692673371E+02  0.18984868976E+02 -0.77870465060E+01  0.41382395722E+02  0.41800000000E+01 0.  1.
        -11    1    3    3    0    0  0.12135635414E+02  0.21712738100E+02  0.15236857935E+02  0.29169821433E+02  0.00000000000E+00 0.  1.
         11    1    3    3    0    0 -0.21022062201E+02  0.54671171680E+02 -0.10444620710E+03  0.11974921415E+03  0.00000000000E+00 0. -1.
</event>
<event>
 7    1  0.5137842E-006  0.1302711E+03  0.7561462E-02  0.1227054E+00
         -1   -1    0    0    0  501 -0.00000000000E+00  0.00000000000E+00  0.53094458754E+02  0.53094458754E+02  0.00000000000E+00 0.  1.
          1   -1    0    0  501    0  0.00000000000E+00 -0.00000000000E+00 -0.64705500962E+03  0.64705500962E+03  0.00000000000E+00 0. -1.
         23    2    1    2    0    0  0.75563171425E+02 -0.77376401149E+02 -0.46557678009E+03  0.48651424873E+03  0.90760540585E+02 0.  0.
          5    1    1    2  502    0  0.28978677213E+01  0.67154203471E+02 -0.11501380529E+03  0.13328065309E+03  0.41800000000E+01 0. -1.
         -5    1    1    2    0  502 -0.78461039147E+02  0.10222197678E+02 -0.13369965491E+02  0.80354566557E+02  0.41800000000E+01 0.  1.
        -11    1    3    3    0    0  0.72538757481E+02 -0.54105585268E+02 -0.44838061007E+03  0.45742153118E+03  0.00000000000E+00 0. -1.
         11    1    3    3    0    0  0.30244139441E+01 -0.23270815881E+02 -0.17196170021E+02  0.29092717557E+02  0.00000000000E+00 0.  1.
</event>
<event>
 7    1  0.5137842E-006  0.9885971E+02  0.7561462E-02  0.1282712E+00
          2   -1    0    0  501    0  0.00000000000E+00  0.00000000000E+00  0.53596588979E+03  0.53596588979E+03  0.00000000000E+00 0.  1.
         -2   -1    0    0    0  501 -0.00000000000E+00 -0.00000000000E+00 -0.26047056041E+02  0.26047056041E+02  0.00000000000E+00 0. -1.
         23    2    1    2    0    0 -0.34429550754E+02  0.28182535894E+02  0.20669546878E+03  0.23099605532E+03  0.93040375473E+02 0.  0.
          5    1    1    2  502    0 -0.38278951838E+02 -0.20683523617E+01  0.19006521911E+03  0.19393766047E+03  0.41800000000E+01 0.  1.
         -5    1    1    2    0  502  0.72708502592E+02 -0.26114183532E+02  0.11315814586E+03  0.13707923003E+03  0.41800000000E+01 0.  1.
        -11    1    3    3    0    0  0.14562246420E+02 -0.11648611195E+02  0.45166735638E+01  0.19187222406E+02  0.00000000000E+00 0. -1.
         11    1    3    3    0    0 -0.48991797174E+02  0.39831147088E+02  0.20217879521E+03  0.21180883292E+03  0.00000000000E+00 0.  1.
</event>
<event>
 7    1  0.5137842E-006  0.1284518E+03  0.7561462E-02  0.1229771E+00
         -4   -1    0    0    0  501 -0.00000000000E+00  0.00000000000E+00  0.34681893960E+03  0.34681893960E+03  0.00000000000E+00 0.  1.
          4   -1    0    0  501    0  0.00000000000E+00 -0.00000000000E+00 -0.60298013364E+02  0.60298013364E+02  0.00000000000E+00 0. -1.
         23    2    1    2    0    0  0.16905579004E+02 -0.78764808340E+02  0.63593002112E+02  0.13909617236E+03  0.93882807864E+02 0.  0.
          5    1    1    2  502    0 -0.33785494647E+02  0.10665829536E+03  0.19514880770E+03  0.22498440205E+03  0.41800000000E+01 0.  1.
         -5    1    1    2    0  502  0.16879915643E+02 -0.27893487017E+02  0.27779116416E+02  0.43036378553E+02  0.41800000000E+01 0.  1.
        -11    1    3    3    0    0 -0.31249255545E+02 -0.36003314131E+02  0.57075813061E+02  0.74366679616E+02  0.00000000000E+00 0.  1.
         11    1    3    3    0    0  0.48154834549E+02 -0.42761494209E+02  0.65171890511E+01  0.64729492741E+02  0.00000000000E+00 0. -1.
</event>
<event>
 7    1  0.5137842E-006  0.1097067E+03  0.7561462E-02  0.1261114E+00
         -1   -1    0    0    0  501 -0.00000000000E+00  0.00000000000E+00  0.16954006977E+02  0.16954006977E+02  0.00000000000E+00 0.  1.
          1   -1    0    0  501    0  0.00000000000E+00 -0.00000000000E+00 -0.78536180953E+03  0.78536180953E+03  0.00000000000E+00 0. -1.
         23    2    1    2    0    0 -0.39066269989E+02  0.62046149816E+01 -0.34317847958E+03  0.35730795551E+03  0.91284366293E+02 0.  0.
          5    1    1    2  502    0  0.14000497562E+02  0.56474715737E+02 -0.13612694503E+03  0.14809937546E+03  0.41800000000E+01 0. -1.
         -5    1    1    2    0  502  0.25065772427E+02 -0.62679330719E+02 -0.28910237795E+03  0.29690848553E+03  0.41800000000E+01 0. -1.
        -11    1    3    3    0    0 -0.23448429080E+02 -0.39061934583E+02 -0.22911490303E+03  0.23360073277E+03  0.00000000000E+00 0. -1.
         11    1    3    3    0    0 -0.15617840908E+02  0.45266549564E+02 -0.11406357654E+03  0.12370722274E+03  0.00000000000E+00 0.  1.
</event>
<event>
 7    1  0.5137842E-006  0.1110281E+03  0.7561462E-02  0.1258678E+00
          2   -1    0    0  501    0  0.00000000000E+00  0.00000000000E+00  0.47209019645E+03  0.47209019645E+03  0.00000000000E+00 0. -1.
         -2   -1    0    0    0  501 -0.00000000000E+00 -0.00000000000E+00 -0.44198541197E+02  0.44198541197E+02  0.00000000000E+00 0.  1.
         23    2    1    2    0    0 -0.76027634920E+02  0.57020150865E+02  0.22195394624E+03  0.25727312936E+03  0.88850492190E+02 0.  0.
          5    1    1    2  502    0  0.37043426458E+02  0.30002143721E+01  0.17830180099E+03  0.18218183599E+03  0.41800000000E+01 0. -1.
         -5    1    1    2    0  502  0.38984208462E+02 -0.60020365237E+02  0.27635908023E+02  0.76833772294E+02  0.41800000000E+01 0. -1.
        -11    1    3    3    0    0 -0.37352640471E+02  0.63577872498E+02  0.75015929961E+02  0.10518914093E+03  0.00000000000E+00 0.  1.
         11    1    3    3    0    0 -0.38674994449E+02 -0.65577216331E+01  0.14693801628E+03  0.15208398843E+03  0.00000000000E+00 0. -1.
</event>
<event>
 7    1  0.5137842E-006  0.1649165E+03  0.7561462E-02  0.1183255E+00
         -4   -1    0    0    0  501 -0.00000000000E+00  0.00000000000E+00  0.26425623247E+04  0.26425623247E+04  0.00000000000E+00 0.  1.
          4   -1    0    0  501    0  0.00000000000E+00 -0.00000000000E+00 -0.16203634462E+02  0.16203634462E+02  0.00000000000E+00 0. -1.
         23    2    1    2    0    0  0.14068861825E+03  0.72295399210E+02  0.77328535122E+03  0.79475170184E+03  0.92952251756E+02 0.  0.
          5    1    1    2  502    0 -0.12126512400E+02  0.19612459832E+01  0.84105604207E+03  0.84115613123E+03  0.41800000000E+01 0.  1.
         -5    1    1    2    0  502 -0.12856210585E+03 -0.74256645193E+02  0.10120172970E+04  0.10228581261E+04  0.41800000000E+01 0.  1.
        -11    1    3    3    0    0  0.12423522804E+03  0.82349593448E+02  0.74928091401E+03  0.76396186785E+03  0.00000000000E+00 0.  1.
         11    1    3    3    0    0  0.16453390212E+02 -0.10054194238E+02  0.24004437216E+02  0.30789833993E+02  0.00000000000E+00 0. -1.
</event>
<event>
 7    1  0.5137842E-006  0.1380989E+03  0.7561462E-02  0.1215910E+00
         -1   -1    0    0    0  501 -0.00000000000E+00  0.00000000000E+00  0.14945688991E+03  0.14945688991E+03  0.00000000000E+00 0.  1.
          1   -1    0    0  501    0  0.00000000000E+00 -0.00000000000E+00 -0.14963671228E+03  0.14963671228E+03  0.00000000000E+00 0. -1.
         23    2    1    2    0    0 -0.84322524748E+02  0.50729258077E+02 -0.28124581264E+02  0.13749883399E+03  0.91821519654E+02 0.  0.
          5    1    1    2  502    0  0.86984567570E+02 -0.84178940508E+02  0.36897673804E+02  0.12661484807E+03  0.41800000000E+01 0.  1.
         -5    1    1    2    0  502 -0.26620428217E+01  0.33449682431E+02 -0.89529149104E+01  0.34979920127E+02  0.41800000000E+01 0.  1.
        -11    1    3    3    0    0 -0.96672892619E+02  0.39038473628E+02 -0.44987476882E+02  0.11354965287E+03  0.00000000000E+00 0. -1.
         11    1    3    3    0    0  0.12350367871E+02  0.11690784449E+02  0.16862895618E+02  0.23949181118E+02  0.00000000000E+00 0.  1.
</event>
<event>
 7    1  0.5137842E-006  0.1075381E+03  0.7561462E-02  0.1265198E+00
          2   -1    0    0  501    0  0.00000000000E+00  0.00000000000E+00  0.32205773719E+03  0.32205773719E+03  0.00000000000E+00 0. -1.
         -2   -1    0    0    0  501 -0.00000000000E+00 -0.00000000000E+00 -0.52883789057E+02  0.52883789057E+02  0.00000000000E+00 0.  1.
         23    2    1    2    0    0  0.41297858362E+02 -0.96639947617E+01  0.20343710914E+03  0.22740268931E+03  0.92338615044E+02 0.  0.
          5    1    1    2  502    0 -0.37062324430E+02  0.65730970973E+02  0.34435299975E+02  0.83050820114E+02  0.41800000000E+01 0.  1.
         -5    1    1    2    0  502 -0.42355339326E+01 -0.56066976211E+02  0.31301539014E+02  0.64488016823E+02  0.41800000000E+01 0.  1.
        -11    1    3    3    0    0 -0.15734441529E+02  0.14294918910E+02  0.85154367075E+01  0.22900437096E+02  0.00000000000E+00 0.  1.
         11    1    3    3    0    0  0.57032299891E+02 -0.23958913671E+02  0.19492167243E+03  0.20450225221E+03  0.00000000000E+00 0. -1.
</event>
<event>
 7    1  0.5137842E-006  0.9113925E+02  0.7561462E-02  0.1300116E+00
         -3   -1    0    0    0  501 -0.00000000000E+00  0.00000000000E+00  0.13205062025E+03  0.13205062025E+03  0.00000000000E+00 0.  1.
          3   -1    0    0  501    0  0.00000000000E+00 -0.00000000000E+00 -0.15539671030E+03  0.15539671030E+03  0.00000000000E+00 0. -1.
         23    2    1    2    0    0 -0.85554320576E+02 -0.23094603570E+02 -0.39947731917E+02  0.13325308647E+03  0.91146372852E+02 0.  0.
          5    1    1    2  502    0  0.35615261331E+02 -0.26318550374E+01 -0.53378075184E+02  0.64358875153E+02  0.41800000000E+01 0.  1.
         -5    1    1    2    0  502  0.49939059246E+02  0.25726458608E+02  0.69979717052E+02  0.89835368923E+02  0.41800000000E+01 0.  1.
        -11    1    3    3    0    0 -0.43237162422E+02 -0.35629316578E+01  0.27428884859E+02  0.51327287294E+02  0.00000000000E+00 0.  1.
         11    1    3    3    0    0 -0.42317158154E+02 -0.19531671913E+02 -0.67376616776E+02  0.81925799172E+02  0.00000000000E+00 0. -1.
</event>
<event>
 7    1  0.5137842E-006  0.2681521E+03  0.7561462E-02  0.1102342E+00
          1   -1    0    0  501    0  0.00000000000E+00  0.00000000000E+00  0.80727784830E+03  0.80727784830E+03  0.00000000000E+00 0. -1.
         -1   -1    0    0    0  501 -0.00000000000E+00 -0.00000000000E+00 -0.38907492181E+03  0.38907492181E+03  0.00000000000E+00 0.  1.
         23    2    1    2    0    0 -0.31962147676E+01  0.10963672482E+03  0.65148618452E+03  0.66688076305E+03  0.90913564955E+02 0.  0.
          5    1    1    2  502    0 -0.17462813346E+03  0.33947545053E+02  0.30369245374E+02  0.18051920749E+03  0.41800000000E+01 0. -1.
         -5    1    1    2    0  502  0.17782434822E+03 -0.14358426987E+03 -0.26365250340E+03  0.34895279957E+03  0.41800000000E+01 0.  1.
        -11    1    3    3    0    0 -0.16149402633E+02  0.11471814297E+03  0.63418046053E+03  0.64467504376E+03  0.00000000000E+00 0. -1.
         11    1    3    3    0    0  0.12953187865E+02 -0.50814181557E+01  0.17305723984E+02  0.22205719285E+02  0.00000000000E+00 0.  1.
</event>
<event>
 7    1  0.5137842E-006  0.1162516E+03  0.7561462E-02  0.1249412E+00
         -2   -1    0    0    0  501 -0.00000000000E+00  0.00000000000E+00  0.82926098502E+02  0.82926098502E+02  0.00000000000E+00 0.  1.
          2   -1    0    0  501    0  0.00000000000E+00 -0.00000000000E+00 -0.49036859446E+03  0.49036859446E+03  0.00000000000E+00 0. -1.
         23    2    1    2    0    0  0.26828125482E+02 -0.25578440999E+02 -0.41297701682E+03  0.42439636792E+03  0.90488981257E+02 0.  0.
          5    1    1    2  502    0 -0.71050723188E+02 -0.21384788411E+02  0.29498051531E+02  0.79957000225E+02  0.41800000000E+01 0. -1.
         -5    1    1    2    0  502  0.44222597705E+02  0.46963229410E+02 -0.23963530674E+02  0.68941324812E+02  0.41800000000E+01 0.  1.
        -11    1    3    3    0    0  0.14135062499E+02 -0.57489116398E+02 -0.31650084577E+03  0.32199003691E+03  0.00000000000E+00 0. -1.
         11    1    3    3    0    0  0.12693062983E+02  0.31910675399E+02 -0.96476171043E+02  0.10240633101E+03  0.00000000000E+00 0.  1.
</event>
<event>
 7    1  0.5137842E-006  0.1780671E+03  0.7561462E-02  0.1169687E+00
          2   -1    0    0  501    0  0.00000000000E+00  0.00000000000E+00  0.36316333216E+03  0.36316333216E+03  0.00000000000E+00 0. -1.
         -2   -1    0    0    0  501 -0.00000000000E+00 -0.00000000000E+00 -0.12797220557E+03  0.12797220557E+03  0.00000000000E+00 0.  1.
         23    2    1    2    0    0  0.12512348197E+03 -0.73000016911E+02  0.24581996592E+03  0.29944548713E+03  0.90858438820E+02 0.  0.
          5    1    1    2  502    0 -0.56843369798E+02  0.97333194107E+02 -0.29664797557E+02  0.11662929297E+03  0.41800000000E+01 0.  1.
         -5    1    1    2    0  502 -0.68280112173E+02 -0.24333177196E+02  0.19035958232E+02  0.75060757634E+02  0.41800000000E+01 0.  1.
        -11    1    3    3    0    0  0.36613102523E+02  0.20519096799E+02  0.53460790281E+02  0.67967703413E+02  0.00000000000E+00 0.  1.
         11    1    3    3    0    0  0.88510379448E+02 -0.93519113711E+02  0.19235917564E+03  0.23147778371E+03  0.00000000000E+00 0. -1.
</event>
<event>
 7    1  0.5137842E-006  0.1625420E+03  0.7561462E-02  0.1185856E+00
         -1   -1    0    0    0  501 -0.00000000000E+00  0.00000000000E+00  0.22223100504E+03  0.22223100504E+03  0.00000000000E+00 0.  1.
          1   -1    0    0  501    0  0.00000000000E+00 -0.00000000000E+00 -0.17290382274E+03  0.17290382274E+03  0.00000000000E+00 0. -1.
         23    2    1    2    0    0 -0.23666849772E+02  0.15505856431E+03 -0.21725253790E+02  0.18228144033E+03  0.90284321413E+02 0.  0.
          5    1    1    2  502    0  0.41854968111E+02 -0.76499420621E+02 -0.21620494920E+02  0.89938411769E+02  0.41800000000E+01 0. -1.
         -5    1    1    2    0  502 -0.18188118339E+02 -0.78559143689E+02  0.92672931001E+02  0.12291497568E+03  0.41800000000E+01 0. -1.
        -11    1    3    3    0    0 -0.79245727463E+01  0.77048253491E+02  0.34550632106E+02  0.84811428464E+02  0.00000000000E+00 0.  1.
         11    1    3    3    0    0 -0.15742277026E+02  0.78010310819E+02 -0.56275885896E+02  0.97470011867E+02  0.00000000000E+00 0. -1.
</event>
<event>
 7    1  0.5137842E-006  0.7375814E+02  0.7561462E-02  0.1347760E+00
          4   -1    0    0  501    0  0.00000000000E+00  0.00000000000E+00  0.12972594269E+03  0.12972594269E+03  0.00000000000E+00 0. -1.
         -4   -1    0    0    0  501 -0.00000000000E+00 -0.00000000000E+00 -0.12117076559E+03  0.12117076559E+03  0.00000000000E+00 0.  1.
         23    2    1    2    0    0 -0.46277014352E+00  0.54389205991E+02  0.36674784103E+02  0.11162705115E+03  0.90316991060E+02 0.  0.
          5    1    1    2  502    0  0.22693045090E+02 -0.18034396668E+02  0.45496287326E+02  0.54107285268E+02  0.41800000000E+01 0. -1.
         -5    1    1    2    0  502 -0.22230274947E+02 -0.36354809323E+02 -0.73615894330E+02  0.85162371873E+02  0.41800000000E+01 0. -1.
        -11    1    3    3    0    0 -0.24386161931E+02  0.13071180566E+02 -0.22450958467E+02  0.35631253012E+02  0.00000000000E+00 0.  1.
         11    1    3    3    0    0  0.23923391787E+02  0.41318025425E+02  0.59125742570E+02  0.75995798134E+02  0.00000000000E+00 0. -1.
</event>
<event>
 6    1  0.5137842E-006  0.2305004E+03  0.7561462E-02  0.1126288E+00
         -2   -1    0    0    0  501 -0.00000000000E+00  0.00000000000E+00  0.43543697386E+03  0.43543697386E+03  0.00000000000E+00 0.  1.
          2   -1    0    0  501    0  0.00000000000E+00 -0.00000000000E+00 -0.13596528844E+03  0.13596528844E+03  0.00000000000E+00 0. -1.
          5    1    1    2  502    0 -0.49257899655E+02 -0.79434546825E+02  0.85251634752E+02  0.12657607015E+03  0.41800000000E+01 0.  1.
         -5    1    1    2    0  502 -0.63132629596E+02  0.30823186062E+02  0.67778254813E+01  0.70705084944E+02  0.41800000000E+01 0.  1.
        -11    1    1    2    0    0 -0.17733957053E+02 -0.98830912441E+02  0.19866144971E+02  0.10235578246E+03  0.00000000000E+00 0. -1.
         11    1    1    2    0    0  0.13012448630E+03  0.14744227320E+03  0.18757608022E+03  0.27176532474E+03  0.00000000000E+00 0.  1.
</event>
<event>
 7    1  0.5137842E-006  0.9530184E+02  0.7561462E-02  0.1290498E+00
         -1   -1    0    0    0  501 -0.00000000000E+00  0.00000000000E+00  0.20491392534E+03  0.20491392534E+03  0.00000000000E+00 0.  1.
          1   -1    0    0  501    0  0.00000000000E+00 -0.00000000000E+00 -0.82545069950E+02  0.82545069950E+02  0.00000000000E+00 0. -1.
         23    2    1    2    0    0  0.65722826194E+02 -0.11184669810E+02  0.30435573506E+02  0.11850822384E+03  0.93130490508E+02 0.  0.
          5    1    1    2  502    0  0.10996600073E+02  0.19496275107E+02 -0.21748539776E+02  0.31488114244E+02  0.41800000000E+01 0.  1.
         -5    1    1    2    0  502 -0.76719426267E+02 -0.83116052978E+01  0.11368182166E+03  0.13746265720E+03  0.41800000000E+01 0.  1.
        -11    1    3    3    0    0  0.63197093423E+02  0.14421041410E+02 -0.14779213992E+02  0.66485067637E+02  0.00000000000E+00 0. -1.
         11    1    3    3    0    0  0.25257327705E+01 -0.25605711220E+02  0.45214787499E+02  0.52023156206E+02  0.00000000000E+00 0.  1.
</event>
<event>
 7    1  0.5137842E-006  0.8618110E+02  0.7561462E-02  0.1312372E+00
          4   -1    0    0  501    0  0.00000000000E+00  0.00000000000E+00  0.22806027990E+03  0.22806027990E+03  0.00000000000E+00 0. -1.
         -4   -1    0    0    0  501 -0.00000000000E+00 -0.00000000000E+00 -0.61373605780E+02  0.61373605780E+02  0.00000000000E+00 0.  1.
         23    2    1    2    0    0 -0.93615082766E-01  0.47245602307E+02  0.74539668107E+02  0.12704255313E+03  0.91386500557E+02 0.  0.
          5    1    1    2  502    0 -0.36937777625E+02 -0.58229984801E+02  0.10116869216E+03  0.12250594768E+03  0.41800000000E+01 0. -1.
         -5    1    1    2    0  502  0.37031392708E+02  0.10984382494E+02 -0.90216861436E+01  0.39885384861E+02  0.41800000000E+01 0. -1.
        -11    1    3    3    0    0 -0.19617193675E+02  0.92074223545E+01  0.80957418840E+02  0.83807604543E+02  0.00000000000E+00 0. -1.
         11    1    3    3    0    0  0.19523578592E+02  0.38038179952E+02 -0.64177507325E+01  0.43234948590E+02  0.00000000000E+00 0.  1.
</event>
<event>
 7    1  0.5137842E-006  0.1120976E+03  0.7561462E-02  0.1256734E+00
         -3   -1    0    0    0  501 -0.00000000000E+00  0.00000000000E+00  0.21061541644E+03  0.21061541644E+03  0.00000000000E+00 0.  1.
          3   -1    0    0  501    0  0.00000000000E+00 -0.00000000000E+00 -0.63660176981E+02  0.63660176981E+02  0.00000000000E+00 0. -1.
         23    2    1    2    0    0  0.25920231131E+02 -0.13952926439E+02  0.65564674915E+02  0.12215945889E+03  0.98780890168E+02 0.  0.
          5    1    1    2  502    0 -0.51141240500E+02  0.57981205040E+02  0.45226001551E+02  0.89666661776E+02  0.41800000000E+01 0.  1.
         -5    1    1    2    0  502  0.25221009369E+02 -0.44028278601E+02  0.36164562989E+02  0.62449472747E+02  0.41800000000E+01 0.  1.
        -11    1    3    3    0    0 -0.12932018291E+02 -0.44559177629E+02  0.54319287885E+02  0.71437682244E+02  0.00000000000E+00 0.  1.
         11    1    3    3    0    0  0.38852249422E+02  0.30606251190E+02  0.11245387030E+02  0.50721776650E+02  0.00000000000E+00 0. -1.
</event>
<event>
 7    1  0.5137842E-006  0.1289949E+03  0.7561462E-02  0.1228955E+00
          1   -1    0    0  501    0  0.00000000000E+00  0.00000000000E+00  0.11448410117E+03  0.11448410117E+03  0.00000000000E+00 0. -1.
         -1   -1    0    0    0  501 -0.00000000000E+00 -0.00000000000E+00 -0.21608817375E+03  0.21608817375E+03  0.00000000000E+00 0.  1.
         23    2    1    2    0    0 -0.10058975397E+03  0.37283705175E+02 -0.33473736797E+02  0.15225351050E+03  0.10272422854E+03 0.  0.
          5    1    1    2  502    0  0.10887874920E+03 -0.55003754856E+02 -0.16772187445E+02  0.12320216616E+03  0.41800000000E+01 0. -1.
         -5    1    1    2    0  502 -0.82889952331E+01  0.17720049680E+02 -0.51358148339E+02  0.55116598257E+02  0.41800000000E+01 0. -1.
        -11    1    3    3    0    0 -0.68154740325E+02  0.46144294148E+02  0.23941083518E+02  0.85717792734E+02  0.00000000000E+00 0. -1.
         11    1    3    3    0    0 -0.32435013641E+02 -0.88605889727E+01 -0.57414820314E+02  0.66535717766E+02  0.00000000000E+00 0.  1.
</event>
<event>
 7    1  0.5137842E-006  0.9638363E+02  0.7561462E-02  0.1288090E+00
         -1   -1    0    0    0  501 -0.00000000000E+00  0.00000000000E+00  0.27005436251E+02  0.27005436251E+02  0.00000000000E+00 0.  1.
          1   -1    0    0  501    0  0.00000000000E+00 -0.00000000000E+00 -0.46413949081E+03  0.46413949081E+03  0.00000000000E+00 0. -1.
         23    2    1    2    0    0 -0.68961267927E+01  0.30705871915E+02 -0.19899107784E+03  0.22031324265E+03  0.89163157718E+02 0.  0.
          5    1    1    2  502    0  0.19705352450E+02 -0.62263351239E+02 -0.22460463614E+03  0.23394388386E+03  0.41800000000E+01 0.  1.
         -5    1    1    2    0  502 -0.12809225658E+02  0.31557479324E+02 -0.13538340582E+02  0.36887800544E+02  0.41800000000E+01 0.  1.
        -11    1    3    3    0    0 -0.40406636144E+02  0.41387269670E+02 -0.10373055758E+03  0.11876712891E+03  0.00000000000E+00 0. -1.
         11    1    3    3    0    0  0.33510509352E+02 -0.10681397755E+02 -0.95260520263E+02  0.10154611374E+03  0.00000000000E+00 0.  1.
</event>
<event>
 7    1  0.5137842E-006  0.6704523E+02  0.7561462E-02  0.1370439E+00
          1   -1    0    0  501    0  0.00000000000E+00  0.00000000000E+00  0.84775861362E+02  0.84775861362E+02  0.00000000000E+00 0. -1.
         -1   -1    0    0    0  501 -0.00000000000E+00 -0.00000000000E+00 -0.17453934470E+03  0.17453934470E+03  0.00000000000E+00 0.  1.
         23    2    1    2    0    0  0.38296267914E+02 -0.35409461392E+02 -0.53183193104E+02  0.11893704508E+03  0.92720734309E+02 0.  0.
          5    1    1    2  502    0 -0.52629384654E+02  0.23773950448E+02 -0.76650786084E+02  0.96061793946E+02  0.41800000000E+01 0.  1.
         -5    1    1    2    0  502  0.14333116740E+02  0.11635510944E+02  0.40070495846E+02  0.44316367041E+02  0.41800000000E+01 0.  1.
        -11    1    3    3    0    0  0.20657737832E+02 -0.37155032045E+01 -0.74135057574E+02  0.77049035411E+02  0.00000000000E+00 0.  1.
         11    1    3    3    0    0  0.17638530082E+02 -0.31693958187E+02  0.20951864470E+02  0.41888009666E+02  0.00000000000E+00 0. -1.
</event>
<event>
 7    1  0.5137842E-006  0.9399423E+02  0.7561462E-02  0.1293458E+00
          2   -1    0    0  501    0  0.00000000000E+00  0.00000000000E+00  0.56081318975E+03  0.56081318975E+03  0.00000000000E+00 0.  1.
         -2   -1    0    0    0  501 -0.00000000000E+00 -0.00000000000E+00 -0.32209890120E+02  0.32209890120E+02  0.00000000000E+00 0. -1.
         23    2    1    2    0    0 -0.16536782233E+02  0.71494790978E+02  0.29346183943E+03  0.31675567631E+03  0.93964551676E+02 0.  0.
          5    1    1    2  502    0 -0.48928545756E+01 -0.75165009312E+02  0.24168132996E+03  0.25318186408E+03  0.41800000000E+01 0. -1.
         -5    1    1    2    0  502  0.21429636809E+02  0.36702183338E+01 -0.65398697557E+01  0.23085539474E+02  0.41800000000E+01 0. -1.
        -11    1    3    3    0    0  0.39025394650E+01  0.69789264237E+02  0.28679347510E+03  0.29518853056E+03  0.00000000000E+00 0.  1.
         11    1    3    3    0    0 -0.20439321698E+02  0.17055267414E+01  0.66683643310E+01  0.21567145750E+02  0.00000000000E+00 0. -1.
</event>
<event>
 7    1  0.5137842E-006  0.1301716E+03  0.7561462E-02  0.1227201E+00
          2   -1    0    0  501    0  0.00000000000E+00  0.00000000000E+00  0.40216702005E+03  0.40216702005E+03  0.00000000000E+00 0. -1.
         -2   -1    0    0    0  501 -0.00000000000E+00 -0.00000000000E+00 -0.54082445430E+02  0.54082445430E+02  0.00000000000E+00 0.  1.
         23    2    1    2    0    0 -0.90997522406E+02 -0.37158548426E+02  0.15499352918E+03  0.20606374263E+03  0.93690795359E+02 0.  0.
          5    1    1    2  502    0  0.30543775584E+02  0.77152150464E+02  0.77107868267E+02  0.11335110188E+03  0.41800000000E+01 0.  1.
         -5    1    1    2    0  502  0.60453746823E+02 -0.39993602039E+02  0.11598317718E+03  0.13683462098E+03  0.41800000000E+01 0.  1.
        -11    1    3    3    0    0 -0.31051450291E+02 -0.31836749353E+02  0.13579822739E+03  0.14289482054E+03  0.00000000000E+00 0.  1.
         11    1    3    3    0    0 -0.59946072116E+02 -0.53217990727E+01  0.19195301785E+02  0.63168922091E+02  0.00000000000E+00 0. -1.
</event>
<event>
 7    1  0.5137842E-006  0.1429501E+03  0.7561462E-02  0.1209414E+00
         -2   -1    0    0    0  501 -0.00000000000E+00  0.00000000000E+00  0.10836684449E+03  0.10836684449E+03  0.00000000000E+00 0.  1.
          2   -1    0    0  501    0  0.00000000000E+00 -0.00000000000E+00 -0.22109460304E+03  0.22109460304E+03  0.00000000000E+00 0. -1.
         23    2    1    2    0    0 -0.11696559496E+02  0.94234992347E+02 -0.11447900097E+03  0.17239928621E+03  0.87172409258E+02 0.  0.
          5    1    1    2  502    0 -0.41712673100E+02  0.69883329820E+01 -0.80613803074E+00  0.42507718752E+02  0.41800000000E+01 0.  1.
         -5    1    1    2    0  502  0.53409232596E+02 -0.10122332533E+03  0.25573804548E+01  0.11455444257E+03  0.41800000000E+01 0.  1.
        -11    1    3    3    0    0  0.37117766093E+02  0.54464214519E+02 -0.60375345503E+02  0.89382669279E+02  0.00000000000E+00 0.  1.
         11    1    3    3    0    0 -0.48814325589E+02  0.39770777829E+02 -0.54103655471E+02  0.83016616933E+02  0.00000000000E+00 0. -1.
</event>
<event>
 7    1  0.5137842E-006  0.2365823E+03  0.7561462E-02  0.1122091E+00
          2   -1    0    0  501    0  0.00000000000E+00  0.00000000000E+00  0.29276444939E+03  0.29276444939E+03  0.00000000000E+00 0. -1.
         -2   -1    0    0    0  501 -0.00000000000E+00 -0.00000000000E+00 -0.21568180235E+03  0.21568180235E+03  0.00000000000E+00 0.  1.
         23    2    1    2    0    0 -0.83302484105E+02 -0.20841238745E+03  0.68349897879E+02  0.25135332498E+03  0.90176262608E+02 0.  0.
          5    1    1    2  502    0  0.64447477531E+02  0.21164966261E+03 -0.20148201808E+02  0.22219918875E+03  0.41800000000E+01 0. -1.
         -5    1    1    2    0  502  0.18855006574E+02 -0.32372751639E+01  0.28880950974E+02  0.34893738013E+02  0.41800000000E+01 0. -1.
        -11    1    3    3    0    0  0.96445953166E+01 -0.20493980718E+02 -0.13414869845E+02  0.26324517041E+02  0.00000000000E+00 0.  1.
         11    1    3    3    0    0 -0.92947079422E+02 -0.18791840673E+03  0.81764767724E+02  0.22502880794E+03  0.00000000000E+00 0. -1.
</event>
<event>
 7    1  0.5137842E-006  0.9691264E+02  0.7561462E-02  0.1286926E+00
          2   -1    0    0  501    0  0.00000000000E+00  0.00000000000E+00  0.41706404756E+03  0.41706404756E+03  0.00000000000E+00 0. -1.
         -2   -1    0    0    0  501 -0.00000000000E+00 -0.00000000000E+00 -0.35455641315E+02  0.35455641315E+02  0.00000000000E+00 0.  1.
         23    2    1    2    0    0  0.29435736620E+02  0.87040499663E+01  0.25204528280E+03  0.26982749413E+03  0.91311712986E+02 0.  0.
          5    1    1    2  502    0 -0.43230179883E+02 -0.42547876308E+02  0.13250612225E+03  0.14578928310E+03  0.41800000000E+01 0. -1.
         -5    1    1    2    0  502  0.13794443263E+02  0.33843826342E+02 -0.29429988098E+01  0.36902911652E+02  0.41800000000E+01 0. -1.
        -11    1    3    3    0    0 -0.32198123937E+02 -0.62938040597E+01  0.91621745698E+02  0.97318422918E+02  0.00000000000E+00 0.  1.
         11    1    3    3    0    0  0.61633860557E+02  0.14997854026E+02  0.16042353711E+03  0.17250907121E+03  0.00000000000E+00 0. -1.
</event>
<event>
 7    1  0.5137842E-006  0.1251904E+03  0.7561462E-02  0.1234772E+00
         -2   -1    0    0    0  501 -0.00000000000E+00  0.00000000000E+00  0.31879782616E+03  0.31879782616E+03  0.00000000000E+00 0.  1.
          2   -1    0    0  501    0  0.00000000000E+00 -0.00000000000E+00 -0.63836627769E+02  0.63836627769E+02  0.00000000000E+00 0. -1.
         23    2    1    2    0    0 -0.42344631455E+02 -0.69329362175E+02  0.55131517855E+02  0.13327623903E+03  0.90130146774E+02 0.  0.
          5    1    1    2  502    0  0.80267921641E+02  0.75168152635E+02  0.13856452035E+03  0.17694854935E+03  0.41800000000E+01 0.  1.
         -5    1    1    2    0  502 -0.37923290186E+02 -0.58387904600E+01  0.61265160183E+02  0.72409665549E+02  0.41800000000E+01 0.  1.
        -11    1    3    3    0    0 -0.22207341994E+02  0.66108843745E+01 -0.15297456093E+02  0.27764761724E+02  0.00000000000E+00 0. -1.
         11    1    3    3    0    0 -0.20137289461E+02 -0.75940246550E+02  0.70428973949E+02  0.10551147731E+03  0.00000000000E+00 0.  1.
</event>
<event>
 7    1  0.5137842E-006  0.1390912E+03  0.7561462E-02  0.1214557E+00
          2   -1    0    0  501    0  0.00000000000E+00  0.00000000000E+00  0.83714277620E+02  0.83714277620E+02  0.00000000000E+00 0. -1.
         -2   -1    0    0    0  501 -0.00000000000E+00 -0.00000000000E+00 -0.24794925974E+03  0.24794925974E+03  0.00000000000E+00 0.  1.
         23    2    1    2    0    0 -0.41909925568E+02  0.39070834964E+02 -0.32352044117E+02  0.11232452637E+03  0.91033908298E+02 0.  0.
          5    1    1    2  502    0 -0.93122710328E+01 -0.94564065654E+02 -0.48508236182E+02  0.10676892002E+03  0.41800000000E+01 0. -1.
         -5    1    1    2    0  502  0.51222196601E+02  0.55493230690E+02 -0.83374701825E+02  0.11257009097E+03  0.41800000000E+01 0.  1.
        -11    1    3    3    0    0  0.28758821237E+02  0.58576316038E+01 -0.11324310727E+02  0.31458252660E+02  0.00000000000E+00 0. -1.
         11    1    3    3    0    0 -0.70668746805E+02  0.33213203361E+02 -0.21027733391E+02  0.80866273712E+02  0.00000000000E+00 0.  1.
</event>
<event>
 7    1  0.5137842E-006  0.1449873E+03  0.7561462E-02  0.1206771E+00
          4   -1    0    0  501    0  0.00000000000E+00  0.00000000000E+00  0.22030779228E+03  0.22030779228E+03  0.00000000000E+00 0. -1.
         -4   -1    0    0    0  501 -0.00000000000E+00 -0.00000000000E+00 -0.15341642074E+03  0.15341642074E+03  0.00000000000E+00 0.  1.
         23    2    1    2    0    0 -0.37270345894E+02 -0.12066373886E+03  0.10876087940E+03  0.19110736099E+03  0.93510844182E+02 0.  0.
          5    1    1    2  502    0 -0.14950718520E+02  0.10632557744E+03 -0.62742200796E+02  0.12442953252E+03  0.41800000000E+01 0. -1.
         -5    1    1    2    0  502  0.52221064413E+02  0.14338161420E+02  0.20872692932E+02  0.58187319509E+02  0.41800000000E+01 0. -1.
        -11    1    3    3    0    0 -0.38724263882E+02 -0.96221603681E+02  0.29038812257E+02  0.10770987998E+03  0.00000000000E+00 0.  1.
         11    1    3    3    0    0  0.14539179888E+01 -0.24442135177E+02  0.79722067143E+02  0.83397481012E+02  0.00000000000E+00 0. -1.
</event>
<event>
 7    1  0.5137842E-006  0.1145956E+03  0.7561462E-02  0.1252289E+00
         -2   -1    0    0    0  501 -0.00000000000E+00  0.00000000000E+00  0.15893339379E+02  0.15893339379E+02  0.00000000000E+00 0.  1.
          2   -1    0    0  501    0  0.00000000000E+00 -0.00000000000E+00 -0.87565696608E+03  0.87565696608E+03  0.00000000000E+00 0. -1.
         23    2    1    2    0    0  0.30429274834E+01 -0.40758975439E+02 -0.40272088956E+03  0.41594163455E+03  0.95670136284E+02 0.  0.
          5    1    1    2  502    0  0.43019197919E+02  0.65320257087E+02 -0.30043401354E+03  0.31047617665E+03  0.41800000000E+01 0. -1.
         -5    1    1    2    0  502 -0.46062125402E+02 -0.24561281648E+02 -0.15660872360E+03  0.16513249426E+03  0.41800000000E+01 0. -1.
        -11    1    3    3    0    0 -0.39026039766E+02 -0.40757203822E+02 -0.16136729921E+03  0.17094907633E+03  0.00000000000E+00 0.  1.
         11    1    3    3    0    0  0.42068967249E+02 -0.17716162593E-02 -0.24135359035E+03  0.24499255822E+03  0.00000000000E+00 0. -1.
</event>
<event>
 7    1  0.5137842E-006  0.1960649E+03  0.7561462E-02  0.1153102E+00
          2   -1    0    0  501    0  0.00000000000E+00  0.00000000000E+00  0.17484603982E+03  0.17484603982E+03  0.00000000000E+00 0. -1.
         -2   -1    0    0    0  501 -0.00000000000E+00 -0.00000000000E+00 -0.25226224161E+03  0.25226224161E+03  0.00000000000E+00 0.  1.
         23    2    1    2    0    0  0.15993897826E+03  0.66941026560E+02  0.10355726208E+02  0.19607274793E+03  0.90970894300E+02 0.  0.
          5    1    1    2  502    0 -0.79130379340E+02  0.30624675526E+02 -0.50871698466E+02  0.99019643458E+02  0.41800000000E+01 0.  1.
         -5    1    1    2    0  502 -0.80808598921E+02 -0.97565702087E+02 -0.36900229530E+02  0.13201589004E+03  0.41800000000E+01 0.  1.
        -11    1    3    3    0    0  0.11281347954E+03  0.21276083943E+02  0.43237426105E+02  0.12267447954E+03  0.00000000000E+00 0. -1.
         11    1    3    3    0    0  0.47125498717E+02  0.45664942617E+02 -0.32881699897E+02  0.73398268383E+02  0.00000000000E+00 0.  1.
</event>
<event>
 7    1  0.5137842E-006  0.1079766E+03  0.7561462E-02  0.1264363E+00
          1   -1    0    0  501    0  0.00000000000E+00  0.00000000000E+00  0.27164660093E+03  0.27164660093E+03  0.00000000000E+00 0. -1.
         -1   -1    0    0    0  501 -0.00000000000E+00 -0.00000000000E+00 -0.73551765537E+02  0.73551765537E+02  0.00000000000E+00 0.  1.
         23    2    1    2    0    0  0.71351241638E+02  0.47439912370E+01  0.14484098428E+03  0.19160046157E+03  0.10304523769E+03 0.  0.
          5    1    1    2  502    0  0.24220162721E+02 -0.29681887267E+02 -0.49863055967E+01  0.38858285570E+02  0.41800000000E+01 0.  1.
         -5    1    1    2    0  502 -0.95571404359E+02  0.24937896029E+02  0.58240156716E+02  0.11473961933E+03  0.41800000000E+01 0.  1.
        -11    1    3    3    0    0  0.51614941609E+02 -0.11633640321E+02  0.15517713503E+03  0.16394934285E+03  0.00000000000E+00 0. -1.
         11    1    3    3    0    0  0.19736300029E+02  0.16377631558E+02 -0.10336150752E+02  0.27651118723E+02  0.00000000000E+00 0.  1.
</event>
<event>
 7    1  0.5137842E-006  0.1907233E+03  0.7561462E-02  0.1157811E+00
         -1   -1    0    0    0  501 -0.00000000000E+00  0.00000000000E+00  0.60153330231E+02  0.60153330231E+02  0.00000000000E+00 0.  1.
          1   -1    0    0  501    0  0.00000000000E+00 -0.00000000000E+00 -0.68345712883E+03  0.68345712883E+03  0.00000000000E+00 0. -1.
         23    2    1    2    0    0 -0.10732083391E+03  0.13233107685E+03 -0.35548338345E+03  0.40242779347E+03  0.80934651134E+02 0.  0.
          5    1    1    2  502    0 -0.23891268147E+02 -0.46063493885E+02 -0.89501376697E+02  0.10354036408E+03  0.41800000000E+01 0.  1.
         -5    1    1    2    0  502  0.13121210206E+03 -0.86267582961E+02 -0.17831903845E+03  0.23764230152E+03  0.41800000000E+01 0.  1.
        -11    1    3    3    0    0 -0.55446496098E+02  0.48224705641E+02 -0.74796876937E+02  0.10485470406E+03  0.00000000000E+00 0.  1.
         11    1    3    3    0    0 -0.51874337812E+02  0.84106371205E+02 -0.28068650651E+03  0.29757308941E+03  0.00000000000E+00 0. -1.
</event>
<event>
 7    1  0.5137842E-006  0.1485057E+03  0.7561462E-02  0.1202321E+00
         -2   -1    0    0    0  501 -0.00000000000E+00  0.00000000000E+00  0.73895580481E+02  0.73895580481E+02  0.00000000000E+00 0.  1.
          2   -1    0    0  501    0  0.00000000000E+00 -0.00000000000E+00 -0.36614795318E+03  0.36614795318E+03  0.00000000000E+00 0. -1.
         23    2    1    2    0    0  0.72580081113E+02  0.10048547365E+03 -0.12920674207E+03  0.20005112658E+03  0.89223721402E+02 0.  0.
          5    1    1    2  502    0 -0.61838679237E+00  0.17873558345E+02 -0.71697714167E+02  0.74012709090E+02  0.41800000000E+01 0.  1.
         -5    1    1    2    0  502 -0.71961694321E+02 -0.11835903199E+03 -0.91347916458E+02  0.16597969799E+03  0.41800000000E+01 0.  1.
        -11    1    3    3    0    0  0.50253904207E+01  0.62223381709E+02 -0.19019158193E+02  0.65258962286E+02  0.00000000000E+00 0.  1.
         11    1    3    3    0    0  0.67554690693E+02  0.38262091936E+02 -0.11018758388E+03  0.13479216430E+03  0.00000000000E+00 0. -1.
</event>
<event>
 7    1  0.5137842E-006  0.9904551E+02  0.7561462E-02  0.1282316E+00
         -2   -1    0    0    0  501 -0.00000000000E+00  0.00000000000E+00  0.42601419678E+02  0.42601419678E+02  0.00000000000E+00 0.  1.
          2   -1    0    0  501    0  0.00000000000E+00 -0.00000000000E+00 -0.27065023153E+03  0.27065023153E+03  0.00000000000E+00 0. -1.
         23    2    1    2    0    0 -0.13016877253E+02  0.15050595280E+01 -0.10099771388E+03  0.13447021936E+03  0.87806590806E+02 0.  0.
          5    1    1    2  502    0 -0.32096367976E+02  0.48435765271E+02 -0.62376399855E+02  0.85349211206E+02  0.41800000000E+01 0.  1.
         -5    1    1    2    0  502  0.45113245229E+02 -0.49940824799E+02 -0.64674698116E+02  0.93432220637E+02  0.41800000000E+01 0.  1.
        -11    1    3    3    0    0 -0.28193821542E+02 -0.27680170329E+02 -0.14770323744E+02  0.42181107928E+02  0.00000000000E+00 0.  1.
         11    1    3    3    0    0  0.15176944289E+02  0.29185229857E+02 -0.86227390133E+02  0.92289111432E+02  0.00000000000E+00 0. -1.
</event>
<event>
 7    1  0.5137842E-006  0.1179394E+03  0.7561462E-02  0.1246536E+00
         -2   -1    0    0    0  501 -0.00000000000E+00  0.00000000000E+00  0.40857765627E+02  0.40857765627E+02  0.00000000000E+00 0. -1.
          2   -1    0    0  501    0  0.00000000000E+00 -0.00000000000E+00 -0.55429179182E+03  0.55429179182E+03  0.00000000000E+00 0.  1.
         23    2    1    2    0    0  0.30091827043E+01  0.61744901622E+02 -0.40070007712E+03  0.41576938130E+03  0.92098526418E+02 0.  0.
          5    1    1    2  502    0  0.43998855229E+02 -0.74107314843E+02 -0.49371507797E+02  0.99412331010E+02  0.41800000000E+01 0. -1.
         -5    1    1    2    0  502 -0.47008037934E+02  0.12362413221E+02 -0.63362441281E+02  0.79967845138E+02  0.41800000000E+01 0. -1.
        -11    1    3    3    0    0 -0.29685003682E+02 -0.13808017412E+01 -0.51963783015E+02  0.59861012373E+02  0.00000000000E+00 0.  1.
         11    1    3    3    0    0  0.32694186387E+02  0.63125703363E+02 -0.34873629410E+03  0.35590836893E+03  0.00000000000E+00 0. -1.
</event>
<event>
 7    1  0.5137842E-006  0.1275397E+03  0.7561462E-02  0.1231153E+00
         -2   -1    0    0    0  501 -0.00000000000E+00  0.00000000000E+00  0.90363789515E+02  0.90363789515E+02  0.00000000000E+00 0.  1.
          2   -1    0    0  501    0  0.00000000000E+00 -0.00000000000E+00 -0.22974220795E+03  0.22974220795E+03  0.00000000000E+00 0. -1.
         23    2    1    2    0    0 -0.44685683287E+02  0.79436801121E+02 -0.10847224406E+03  0.16861990873E+03  0.91429919748E+02 0.  0.
          5    1    1    2  502    0  0.83124755723E+02 -0.52881248288E+02 -0.70464723781E+01  0.98859883712E+02  0.41800000000E+01 0. -1.
         -5    1    1    2    0  502 -0.38439072436E+02 -0.26555552833E+02 -0.23859701995E+02  0.52626205025E+02  0.41800000000E+01 0.  1.
        -11    1    3    3    0    0 -0.23908430670E+02 -0.34113767022E+01  0.68574339759E+01  0.25105277311E+02  0.00000000000E+00 0.  1.
         11    1    3    3    0    0 -0.20777252617E+02  0.82848177823E+02 -0.11532967804E+03  0.14351463142E+03  0.00000000000E+00 0. -1.
</event>
<event>
 7    1  0.5137842E-006  0.1126411E+03  0.7561462E-02  0.1255756E+00
         -3   -1    0    0    0  501 -0.00000000000E+00  0.00000000000E+00  0.26716769974E+03  0.26716769974E+03  0.00000000000E+00 0.  1.
          3   -1    0    0  501    0  0.00000000000E+00 -0.00000000000E+00 -0.68059044044E+02  0.68059044044E+02  0.00000000000E+00 0. -1.
         23    2    1    2    0    0  0.23555343326E+02 -0.71328955684E+02  0.55937258643E+02  0.13077817470E+03  0.91275845416E+02 0.  0.
          5    1    1    2  502    0  0.12538247615E+02 -0.13108617298E+02 -0.13366024589E+02  0.22916511821E+02  0.41800000000E+01 0.  1.
         -5    1    1    2    0  502 -0.36093590942E+02  0.84437572982E+02  0.15653742164E+03  0.18153205726E+03  0.41800000000E+01 0.  1.
        -11    1    3    3    0    0 -0.28567488200E+02 -0.51661198136E+02  0.44447532406E+02  0.73895628504E+02  0.00000000000E+00 0.  1.
         11    1    3    3    0    0  0.52122831527E+02 -0.19667757548E+02  0.11489726237E+02  0.56882546201E+02  0.00000000000E+00 0. -1.
</event>
<event>
 7    1  0.5137842E-006  0.2360849E+03  0.7561462E-02  0.1122429E+00
          1   -1    0    0  501    0  0.00000000000E+00  0.00000000000E+00  0.21183433876E+04  0.21183433876E+04  0.00000000000E+00 0. -1.
         -1   -1    0    0    0  501 -0.00000000000E+00 -0.00000000000E+00 -0.31174359670E+02  0.31174359670E+02  0.00000000000E+00 0.  1.
         23    2    1    2    0    0 -0.16872338432E+03  0.15842409092E+03  0.11085662956E+04  0.11361677976E+04  0.91609275742E+02 0.  0.
          5    1    1    2  502    0  0.10753533002E+03 -0.61204694315E+02  0.29153924237E+03  0.31673721608E+03  0.41800000000E+01 0. -1.
         -5    1    1    2    0  502  0.61188054300E+02 -0.97219396602E+02  0.68706348991E+03  0.69661273361E+03  0.41800000000E+01 0. -1.
        -11    1    3    3    0    0 -0.40936956973E+02  0.21925435544E+02  0.97961091165E+02  0.10841095218E+03  0.00000000000E+00 0.  1.
         11    1    3    3    0    0 -0.12778642734E+03  0.13649865537E+03  0.10106052045E+04  0.10277568454E+04  0.00000000000E+00 0. -1.
</event>
<event>
 7    1  0.5137842E-006  0.1066663E+03  0.7561462E-02  0.1266871E+00
          1   -1    0    0  501    0  0.00000000000E+00  0.00000000000E+00  0.56334904878E+03  0.56334904878E+03  0.00000000000E+00 0. -1.
         -1   -1    0    0    0  501 -0.00000000000E+00 -0.00000000000E+00 -0.28330728457E+02  0.28330728457E+02  0.00000000000E+00 0.  1.
         23    2    1    2    0    0 -0.46492403069E+01  0.66083985056E+02  0.21517812223E+03  0.24191691737E+03  0.88506847799E+02 0.  0.
          5    1    1    2  502    0 -0.37826281645E+02 -0.54998712854E+02  0.28724089615E+03  0.29492455107E+03  0.41800000000E+01 0. -1.
         -5    1    1    2    0  502  0.42475521952E+02 -0.11085272203E+02  0.32599301936E+02  0.54838308796E+02  0.41800000000E+01 0. -1.
        -11    1    3    3    0    0 -0.36627231365E+02  0.10288969640E+02  0.12833115111E+03  0.13385178863E+03  0.00000000000E+00 0. -1.
         11    1    3    3    0    0  0.31977991058E+02  0.55795015416E+02  0.86846971119E+02  0.10806512874E+03  0.00000000000E+00 0.  1.
</event>
<event>
 7    1  0.5137842E-006  0.1043371E+03  0.7561462E-02  0.1271431E+00
         -3   -1    0    0    0  501 -0.00000000000E+00  0.00000000000E+00  0.68611103527E+02  0.68611103527E+02  0.00000000000E+00 0.  1.
          3   -1    0    0  501    0  0.00000000000E+00 -0.00000000000E+00 -0.20885787475E+03  0.20885787475E+03  0.00000000000E+00 0. -1.
         23    2    1    2    0    0 -0.36113599315E+02 -0.34009641614E+02 -0.64269720574E+02  0.12293040907E+03  0.92306233343E+02 0.  0.
          5    1    1    2  502    0  0.60846705401E+02 -0.19401277913E+02 -0.79630263919E+01  0.64495064401E+02  0.41800000000E+01 0.  1.
         -5    1    1    2    0  502 -0.24733106085E+02  0.53410919527E+02 -0.68014024254E+02  0.90043504799E+02  0.41800000000E+01 0.  1.
        -11    1    3    3    0    0  0.16713248987E+02  0.76566735458E+01 -0.51188280633E+02  0.54389313433E+02  0.00000000000E+00 0. -1.
         11    1    3    3    0    0 -0.52826848303E+02 -0.41666315160E+02 -0.13081439940E+02  0.68541095640E+02  0.00000000000E+00 0.  1.
</event>
<event>
 7    1  0.5137842E-006  0.9699972E+02  0.7561462E-02  0.1286735E+00
         -3   -1    0    0    0  501 -0.00000000000E+00  0.00000000000E+00  0.10795493701E+04  0.10795493701E+04  0.00000000000E+00 0.  1.
          3   -1    0    0  501    0  0.00000000000E+00 -0.00000000000E+00 -0.12577318310E+02  0.12577318310E+02  0.00000000000E+00 0. -1.
         23    2    1    2    0    0  0.16646274643E+02  0.10546107134E+02  0.29238704695E+03  0.30725851382E+03  0.92354156700E+02 0.  0.
          5    1    1    2  502    0  0.34492694009E+02  0.32704838304E+02  0.16997851733E+03  0.17654891997E+03  0.41800000000E+01 0.  1.
         -5    1    1    2    0  502 -0.51138968652E+02 -0.43250945438E+02  0.60460648752E+03  0.60831925462E+03  0.41800000000E+01 0.  1.
        -11    1    3    3    0    0  0.15965342067E+02 -0.32455438574E+02  0.53811889509E+02  0.64838006546E+02  0.00000000000E+00 0. -1.
         11    1    3    3    0    0  0.68093257602E+00  0.43001545708E+02  0.23857515744E+03  0.24242050728E+03  0.00000000000E+00 0.  1.
</event>
<event>
 7    1  0.5137842E-006  0.1121240E+03  0.7561462E-02  0.1256686E+00
          1   -1    0    0  501    0  0.00000000000E+00  0.00000000000E+00  0.42477554943E+02  0.42477554943E+02  0.00000000000E+00 0. -1.
         -1   -1    0    0    0  501 -0.00000000000E+00 -0.00000000000E+00 -0.35791916264E+03  0.35791916264E+03  0.00000000000E+00 0.  1.
         23    2    1    2    0    0  0.33881855785E+02 -0.47485301398E+02 -0.13294322570E+03  0.17158199149E+03  0.91452963557E+02 0.  0.
          5    1    1    2  502    0  0.22596649209E+02 -0.31249982447E+02 -0.72041352816E+02  0.81820528439E+02  0.41800000000E+01 0.  1.
         -5    1    1    2    0  502 -0.56478504995E+02  0.78735283845E+02 -0.11045702918E+03  0.14699419766E+03  0.41800000000E+01 0.  1.
        -11    1    3    3    0    0  0.47435839946E+02 -0.55274379285E+02 -0.13723851723E+03  0.15536996662E+03  0.00000000000E+00 0.  1.
         11    1    3    3    0    0 -0.13553984161E+02  0.77890778870E+01  0.42952915295E+01  0.16212024867E+02  0.00000000000E+00 0. -1.
</event>
<event>
 7    1  0.5137842E-006  0.1065714E+03  0.7561462E-02  0.1267054E+00
          1   -1    0    0  501    0  0.00000000000E+00  0.00000000000E+00  0.11119871950E+03  0.11119871950E+03  0.00000000000E+00 0. -1.
         -1   -1    0    0    0  501 -0.00000000000E+00 -0.00000000000E+00 -0.17284331687E+03  0.17284331687E+03  0.00000000000E+00 0.  1.
         23    2    1    2    0    0  0.27539924931E+02 -0.10788732362E+02  0.59140432966E+02  0.10765791242E+03  0.84957584034E+02 0.  0.
          5    1    1    2  502    0 -0.74072620013E+02  0.17067745887E+02 -0.97805484243E+02  0.12394130116E+03  0.41800000000E+01 0. -1.
         -5    1    1    2    0  502  0.46532695082E+02 -0.62790135252E+01 -0.22979546098E+02  0.52442822782E+02  0.41800000000E+01 0. -1.
        -11    1    3    3    0    0  0.31362203572E+02 -0.45330329735E+02  0.33984633645E+02  0.64756327342E+02  0.00000000000E+00 0. -1.
         11    1    3    3    0    0 -0.38222786414E+01  0.34541597373E+02  0.25155799321E+02  0.42901585082E+02  0.00000000000E+00 0.  1.
</event>
<event>
 7    1  0.5137842E-006  0.1021665E+03  0.7561462E-02  0.1275805E+00
          2   -1    0    0  501    0  0.00000000000E+00  0.00000000000E+00  0.35373438326E+03  0.35373438326E+03  0.00000000000E+00 0. -1.
         -2   -1    0    0    0  501 -0.00000000000E+00 -0.00000000000E+00 -0.39182146564E+02  0.39182146564E+02  0.00000000000E+00 0.  1.
         23    2    1    2    0    0 -0.34827595996E+01 -0.45376499927E+02  0.21232849723E+03  0.23554877631E+03  0.91261596108E+02 0.  0.
          5    1    1    2  502    0 -0.23819087141E+02 -0.24207085985E+02  0.48774870540E+01  0.34562902137E+02  0.41800000000E+01 0. -1.
         -5    1    1    2    0  502  0.27301846741E+02  0.69583585912E+02  0.97346252412E+02  0.12280485138E+03  0.41800000000E+01 0.  1.
        -11    1    3    3    0    0  0.17433462671E+02  0.20046112173E+02  0.26895439680E+02  0.37803927171E+02  0.00000000000E+00 0.  1.
         11    1    3    3    0    0 -0.20916222270E+02 -0.65422612100E+02  0.18543305755E+03  0.19774484914E+03  0.00000000000E+00 0. -1.
</event>
<event>
 7    1  0.5137842E-006  0.1043687E+03  0.7561462E-02  0.1271368E+00
          1   -1    0    0  501    0  0.00000000000E+00  0.00000000000E+00  0.61803761022E+03  0.61803761022E+03  0.00000000000E+00 0. -1.
         -1   -1    0    0    0  501 -0.00000000000E+00 -0.00000000000E+00 -0.30647708271E+02  0.30647708271E+02  0.00000000000E+00 0.  1.
         23    2    1    2    0    0 -0.67927841526E+02 -0.11483670454E+02  0.38698118136E+03  0.40259780274E+03  0.87088975812E+02 0.  0.
          5    1    1    2  502    0  0.78641243397E+02  0.40453229961E+02  0.72487549209E+02  0.11442388810E+03  0.41800000000E+01 0. -1.
         -5    1    1    2    0  502 -0.10713401871E+02 -0.28969559507E+02  0.12792117138E+03  0.13166362764E+03  0.41800000000E+01 0. -1.
        -11    1    3    3    0    0  0.66744844222E+01 -0.12782858973E+02  0.83055381488E+01  0.16641279691E+02  0.00000000000E+00 0.  1.
         11    1    3    3    0    0 -0.74602325948E+02  0.12991885189E+01  0.37867564321E+03  0.38595652305E+03  0.00000000000E+00 0. -1.
</event>
<event>
 7    1  0.5137842E-006  0.1131454E+03  0.7561462E-02  0.1254853E+00
          2   -1    0    0  501    0  0.00000000000E+00  0.00000000000E+00  0.11621703163E+04  0.11621703163E+04  0.00000000000E+00 0. -1.
         -2   -1    0    0    0  501 -0.00000000000E+00 -0.00000000000E+00 -0.17299538709E+02  0.17299538709E+02  0.00000000000E+00 0.  1.
         23    2    1    2    0    0  0.83065571602E+02  0.78457590839E+01  0.66697774846E+03  0.67847963931E+03  0.92270574406E+02 0.  0.
          5    1    1    2  502    0 -0.90052492249E+02  0.93546114651E+00  0.48037426301E+03  0.48876091436E+03  0.41800000000E+01 0.  1.
         -5    1    1    2    0  502  0.69869206468E+01 -0.87812202304E+01 -0.24812339009E+01  0.12229301310E+02  0.41800000000E+01 0.  1.
        -11    1    3    3    0    0  0.18088742613E+02  0.45569167530E+02  0.24312379963E+03  0.24801801061E+03  0.00000000000E+00 0.  1.
         11    1    3    3    0    0  0.64976828989E+02 -0.37723408447E+02  0.42385394883E+03  0.43046162871E+03  0.00000000000E+00 0. -1.
</event>
<event>
 7    1  0.5137842E-006  0.1171422E+03  0.7561462E-02  0.1247887E+00
          2   -1    0    0  501    0  0.00000000000E+00  0.00000000000E+00  0.62393885727E+03  0.62393885727E+03  0.00000000000E+00 0. -1.
         -2   -1    0    0    0  501 -0.00000000000E+00 -0.00000000000E+00 -0.56916349692E+02  0.56916349692E+02  0.00000000000E+00 0.  1.
         23    2    1    2    0    0  0.46973798162E+02 -0.25994009441E+02  0.42526729398E+03  0.43846378820E+03  0.92282154278E+02 0.  0.
          5    1    1    2  502    0 -0.85823057422E+02  0.18561341344E+02  0.17150549980E+03  0.19272189662E+03  0.41800000000E+01 0. -1.
         -5    1    1    2    0  502  0.38849259260E+02  0.74326680963E+01 -0.29750286198E+02  0.49669522133E+02  0.41800000000E+01 0.  1.
        -11    1    3    3    0    0 -0.70220980503E+01  0.28818775005E+02  0.12933230091E+03  0.13269014926E+03  0.00000000000E+00 0.  1.
         11    1    3    3    0    0  0.53995896212E+02 -0.54812784446E+02  0.29593499307E+03  0.30577363894E+03  0.00000000000E+00 0. -1.
</event>
<event>
 7    1  0.5137842E-006  0.1115649E+03  0.7561462E-02  0.1257699E+00
         -1   -1    0    0    0  501 -0.00000000000E+00  0.00000000000E+00  0.73787206547E+02  0.73787206547E+02  0.00000000000E+00 0.  1.
          1   -1    0    0  501    0  0.00000000000E+00 -0.00000000000E+00 -0.21445872951E+03  0.21445872951E+03  0.00000000000E+00 0. -1.
         23    2    1    2    0    0  0.51945035340E+02 -0.64398291019E+01 -0.10011655276E+03  0.14671090266E+03  0.93600249616E+02 0.  0.
          5    1    1    2  502    0 -0.51248094665E+02  0.57291316441E+02 -0.10270508243E+01  0.76988241828E+02  0.41800000000E+01 0. -1.
         -5    1    1    2    0  502 -0.69694067536E+00 -0.50851487339E+02 -0.39527919371E+02  0.64546791561E+02  0.41800000000E+01 0. -1.
        -11    1    3    3    0    0  0.73277139318E+02 -0.18503172515E+01 -0.41654055757E+02  0.84309093113E+02  0.00000000000E+00 0.  1.
         11    1    3    3    0    0 -0.21332103978E+02 -0.45895118504E+01 -0.58462497005E+02  0.62401809551E+02  0.00000000000E+00 0. -1.
</event>
<event>
 7    1  0.5137842E-006  0.6704474E+02  0.7561462E-02  0.1370441E+00
          3   -1    0    0  501    0  0.00000000000E+00  0.00000000000E+00  0.29054349284E+03  0.29054349284E+03  0.00000000000E+00 0. -1.
         -3   -1    0    0    0  501 -0.00000000000E+00 -0.00000000000E+00 -0.51344163286E+02  0.51344163286E+02  0.00000000000E+00 0.  1.
         23    2    1    2    0    0 -0.20884733529E+02 -0.32241322137E+02  0.16282704493E+03  0.19037312552E+03  0.90849355579E+02 0.  0.
          5    1    1    2  502    0  0.12434535102E+02 -0.18294131043E+02 -0.27546936655E+02  0.35575258437E+02  0.41800000000E+01 0.  1.
         -5    1    1    2    0  502  0.84501984270E+01  0.50535453179E+02  0.10391922128E+03  0.11593927217E+03  0.41800000000E+01 0.  1.
        -11    1    3    3    0    0 -0.11090394757E+02  0.11127051006E+02 -0.52117136217E+01  0.16552041530E+02  0.00000000000E+00 0.  1.
         11    1    3    3    0    0 -0.97943387721E+01 -0.43368373143E+02  0.16803875856E+03  0.17382108399E+03  0.00000000000E+00 0. -1.
</event>
<event>
 7    1  0.5137842E-006  0.9252345E+02  0.7561462E-02  0.1296853E+00
         -3   -1    0    0    0  501 -0.00000000000E+00  0.00000000000E+00  0.73575781310E+02  0.73575781310E+02  0.00000000000E+00 0.  1.
          3   -1    0    0  501    0  0.00000000000E+00 -0.00000000000E+00 -0.17669105291E+03  0.17669105291E+03  0.00000000000E+00 0. -1.
         23    2    1    2    0    0  0.27106848808E+02  0.19147340188E+02 -0.30138360291E+02  0.10169813542E+03  0.91284106491E+02 0.  0.
          5    1    1    2  502    0 -0.52320822884E+02  0.23792099764E+02  0.29161911866E+01  0.57701898491E+02  0.41800000000E+01 0. -1.
         -5    1    1    2    0  502  0.25213974077E+02 -0.42939439952E+02 -0.75893102495E+02  0.90866800309E+02  0.41800000000E+01 0. -1.
        -11    1    3    3    0    0  0.50927632476E+02  0.98138987855E+01 -0.47862433050E+02  0.70574420695E+02  0.00000000000E+00 0.  1.
         11    1    3    3    0    0 -0.23820783669E+02  0.93334414025E+01  0.17724072759E+02  0.31123714723E+02  0.00000000000E+00 0. -1.
</event>
<event>
 7    1  0.5137842E-006  0.1665037E+03  0.7561462E-02  0.1181544E+00
         -1   -1    0    0    0  501 -0.00000000000E+00  0.00000000000E+00  0.34585502380E+02  0.34585502380E+02  0.00000000000E+00 0.  1.
          1   -1    0    0  501    0  0.00000000000E+00 -0.00000000000E+00 -0.83381096397E+03  0.83381096397E+03  0.00000000000E+00 0. -1.
         23    2    1    2    0    0  0.12136075240E+03  0.46440126587E+02 -0.37827632524E+03  0.41043428955E+03  0.92077197110E+02 0.  0.
          5    1    1    2  502    0 -0.55849262102E+02  0.37452670265E+02 -0.10711378354E+03  0.12654120915E+03  0.41800000000E+01 0. -1.
         -5    1    1    2    0  502 -0.65511490294E+02 -0.83892796852E+02 -0.31383535281E+03  0.33142096765E+03  0.41800000000E+01 0. -1.
        -11    1    3    3    0    0  0.71832160850E+01  0.44334396443E+02 -0.11492788569E+03  0.12339188065E+03  0.00000000000E+00 0. -1.
         11    1    3    3    0    0  0.11417753631E+03  0.21057301437E+01 -0.26334843955E+03  0.28704240891E+03  0.00000000000E+00 0.  1.
</event>
<event>
 7    1  0.5137842E-006  0.7133897E+02  0.7561462E-02  0.1355598E+00
          2   -1    0    0  501    0  0.00000000000E+00  0.00000000000E+00  0.30210604861E+03  0.30210604861E+03  0.00000000000E+00 0. -1.
         -2   -1    0    0    0  501 -0.00000000000E+00 -0.00000000000E+00 -0.38568876586E+02  0.38568876586E+02  0.00000000000E+00 0.  1.
         23    2    1    2    0    0 -0.87422453413E+01  0.15691185492E+02  0.11741364709E+03  0.14748336789E+03  0.87422760903E+02 0.  0.
          5    1    1    2  502    0 -0.19936711248E+02  0.28597608190E+02  0.13449239841E+03  0.13899990389E+03  0.41800000000E+01 0. -1.
         -5    1    1    2    0  502  0.28678956589E+02 -0.44288793682E+02  0.11631126520E+02  0.54191653425E+02  0.41800000000E+01 0. -1.
        -11    1    3    3    0    0  0.91988756414E+01 -0.15864784445E+02  0.10858875079E+03  0.11012641598E+03  0.00000000000E+00 0. -1.
         11    1    3    3    0    0 -0.17941120983E+02  0.31555969937E+02  0.88248962987E+01  0.37356951903E+02  0.00000000000E+00 0.  1.
</event>
<event>
 7    1  0.5137842E-006  0.1767563E+03  0.7561462E-02  0.1170980E+00
         -2   -1    0    0    0  501 -0.00000000000E+00  0.00000000000E+00  0.75149350792E+02  0.75149350792E+02  0.00000000000E+00 0.  1.
          2   -1    0    0  501    0  0.00000000000E+00 -0.00000000000E+00 -0.62984066098E+03  0.62984066098E+03  0.00000000000E+00 0. -1.
         23    2    1    2    0    0 -0.17621984796E+02 -0.16543842828E+03 -0.40911724692E+03  0.45098608478E+03  0.91274963934E+02 0.  0.
          5    1    1    2  502    0  0.30051267209E+02  0.62248974275E+02 -0.13205371163E+03  0.14910958593E+03  0.41800000000E+01 0.  1.
         -5    1    1    2    0  502 -0.12429282412E+02  0.10318945400E+03 -0.13520351633E+02  0.10489434106E+03  0.41800000000E+01 0.  1.
        -11    1    3    3    0    0  0.26931330745E+02 -0.58927305169E+02 -0.22066194598E+03  0.22997699510E+03  0.00000000000E+00 0.  1.
         11    1    3    3    0    0 -0.44553315541E+02 -0.10651112311E+03 -0.18845530094E+03  0.22100908968E+03  0.00000000000E+00 0. -1.
</event>
<event>
 7    1  0.5137842E-006  0.1052621E+03  0.7561462E-02  0.1269604E+00
          2   -1    0    0  501    0  0.00000000000E+00  0.00000000000E+00  0.17126735180E+03  0.17126735180E+03  0.00000000000E+00 0. -1.
         -2   -1    0    0    0  501 -0.00000000000E+00 -0.00000000000E+00 -0.10743909951E+03  0.10743909951E+03  0.00000000000E+00 0.  1.
         23    2    1    2    0    0 -0.55504934055E+02  0.40363120921E+02  0.74418895877E+02  0.13564142658E+03  0.90279816719E+02 0.  0.
          5    1    1    2  502    0 -0.19170188708E+02 -0.51141666879E+02  0.24190432022E+02  0.59880010251E+02  0.41800000000E+01 0.  1.
         -5    1    1    2    0  502  0.74675122763E+02  0.10778545958E+02 -0.34781075606E+02  0.83185014473E+02  0.41800000000E+01 0.  1.
        -11    1    3    3    0    0  0.64298747029E+01  0.81219300364E+01 -0.17423612565E+02  0.20270454139E+02  0.00000000000E+00 0.  1.
         11    1    3    3    0    0 -0.61934808758E+02  0.32241190885E+02  0.91842508442E+02  0.11537097244E+03  0.00000000000E+00 0. -1.
</event>
<event>
 7    1  0.5137842E-006  0.1633291E+03  0.7561462E-02  0.1184989E+00
          2   -1    0    0  501    0  0.00000000000E+00  0.00000000000E+00  0.94863951396E+03  0.94863951396E+03  0.00000000000E+00 0.  1.
         -2   -1    0    0    0  501 -0.00000000000E+00 -0.00000000000E+00 -0.34529767664E+02  0.34529767664E+02  0.00000000000E+00 0. -1.
         23    2    1    2    0    0 -0.12203388450E+03  0.67401791493E+02  0.52876092418E+03  0.55470933218E+03  0.93161460911E+02 0.  0.
          5    1    1    2  502    0 -0.12690249444E+02 -0.59872335715E+01  0.14774166146E+03  0.14846535060E+03  0.41800000000E+01 0. -1.
         -5    1    1    2    0  502  0.13472413395E+03 -0.61414557921E+02  0.23760716066E+03  0.27999459885E+03  0.41800000000E+01 0. -1.
        -11    1    3    3    0    0 -0.84546054889E+02 -0.24928196859E+01  0.21399206737E+03  0.23010183494E+03  0.00000000000E+00 0.  1.
         11    1    3    3    0    0 -0.37487829612E+02  0.69894611179E+02  0.31476885681E+03  0.32460749723E+03  0.00000000000E+00 0. -1.
</event>
<event>
 7    1  0.5137842E-006  0.1370200E+03  0.7561462E-02  0.1217396E+00
         -2   -1    0    0    0  501 -0.00000000000E+00  0.00000000000E+00  0.66090795194E+02  0.66090795194E+02  0.00000000000E+00 0. -1.
          2   -1    0    0  501    0  0.00000000000E+00 -0.00000000000E+00 -0.47506430259E+03  0.47506430259E+03  0.00000000000E+00 0.  1.
         23    2    1    2    0    0 -0.11859480788E+03 -0.45633405105E+02 -0.28117427997E+03  0.32177403540E+03  0.91282079424E+02 0.  0.
          5    1    1    2  502    0  0.54001460525E+02  0.55905666186E+02 -0.13250153771E+03  0.15367410695E+03  0.41800000000E+01 0. -1.
         -5    1    1    2    0  502  0.64593347358E+02 -0.10272261081E+02  0.47023102841E+01  0.65706955436E+02  0.41800000000E+01 0. -1.
        -11    1    3    3    0    0 -0.94602505548E+02 -0.22302848072E+02 -0.10758450829E+03  0.14498785298E+03  0.00000000000E+00 0. -1.
         11    1    3    3    0    0 -0.23992302335E+02 -0.23330557033E+02 -0.17358977168E+03  0.17678618242E+03  0.00000000000E+00 0.  1.
</event>
<event>
 7    1  0.5137842E-006  0.1106139E+03  0.7561462E-02  0.1259437E+00
         -1   -1    0    0    0  501 -0.00000000000E+00  0.00000000000E+00  0.14883976106E+02  0.14883976106E+02  0.00000000000E+00 0.  1.
          1   -1    0    0  501    0  0.00000000000E+00 -0.00000000000E+00 -0.85393397650E+03  0.85393397650E+03  0.00000000000E+00 0. -1.
         23    2    1    2    0    0  0.30827407483E+02 -0.12099642735E+02 -0.35349372794E+03  0.36631067044E+03  0.90160751875E+02 0.  0.
          5    1    1    2  502    0 -0.53933910298E+02 -0.43116801282E+02 -0.27515353861E+03  0.28371617409E+03  0.41800000000E+01 0.  1.
         -5    1    1    2    0  502  0.23106502816E+02  0.55216444018E+02 -0.21040273385E+03  0.21879110807E+03  0.41800000000E+01 0.  1.
        -11    1    3    3    0    0  0.53507424596E+02 -0.31597254943E+02 -0.28286645858E+03  0.28961157504E+03  0.00000000000E+00 0. -1.
         11    1    3    3    0    0 -0.22680017113E+02  0.19497612208E+02 -0.70627269357E+02  0.76699095399E+02  0.00000000000E+00 0.  1.
</event>
<event>
 7    1  0.5137842E-006  0.8323232E+02  0.7561462E-02  0.1320121E+00
          1   -1    0    0  501    0  0.00000000000E+00  0.00000000000E+00  0.11413301480E+03  0.11413301480E+03  0.00000000000E+00 0. -1.
         -1   -1    0    0    0  501 -0.00000000000E+00 -0.00000000000E+00 -0.11423740050E+03  0.11423740050E+03  0.00000000000E+00 0.  1.
         23    2    1    2    0    0 -0.31982882706E+02  0.60647616627E+01  0.17643552360E+02  0.97900231417E+02  0.90628219950E+02 0.  0.
          5    1    1    2  502    0  0.14994621208E+02  0.33273135076E+02  0.42656068339E+02  0.56293452098E+02  0.41800000000E+01 0.  1.
         -5    1    1    2    0  502  0.16988261498E+02 -0.39337896739E+02 -0.60404006402E+02  0.74176731783E+02  0.41800000000E+01 0.  1.
        -11    1    3    3    0    0 -0.13054480514E+02 -0.37215704661E+02  0.29434955169E+02  0.49212241574E+02  0.00000000000E+00 0. -1.
         11    1    3    3    0    0 -0.18928402192E+02  0.43280466324E+02 -0.11791402809E+02  0.48687989843E+02  0.00000000000E+00 0.  1.
</event>
<event>
 7    1  0.5137842E-006  0.7430833E+02  0.7561462E-02  0.1346026E+00
         -1   -1    0    0    0  501 -0.00000000000E+00  0.00000000000E+00  0.87747271043E+02  0.87747271043E+02  0.00000000000E+00 0.  1.
          1   -1    0    0  501    0  0.00000000000E+00 -0.00000000000E+00 -0.17272210220E+03  0.17272210220E+03  0.00000000000E+00 0. -1.
         23    2    1    2    0    0  0.44535193086E+02 -0.17046234772E+02 -0.72679352917E+02  0.12603268963E+03  0.91257837865E+02 0.  0.
          5    1    1    2  502    0 -0.44879605786E+02  0.37219120122E+02 -0.59206294633E+02  0.83200358427E+02  0.41800000000E+01 0. -1.
         -5    1    1    2    0  502  0.34441270075E+00 -0.20172885350E+02  0.46910816395E+02  0.51236325184E+02  0.41800000000E+01 0. -1.
        -11    1    3    3    0    0  0.33535098066E+02  0.14210819722E+02 -0.83562522131E+02  0.91155061869E+02  0.00000000000E+00 0. -1.
         11    1    3    3    0    0  0.11000095019E+02 -0.31257054494E+02  0.10883169214E+02  0.34877627761E+02  0.00000000000E+00 0.  1.
</event>
<event>
 7    1  0.5137842E-006  0.9995238E+02  0.7561462E-02  0.1280396E+00
          1   -1    0    0  501    0  0.00000000000E+00  0.00000000000E+00  0.50434006104E+03  0.50434006104E+03  0.00000000000E+00 0. -1.
         -1   -1    0    0    0  501 -0.00000000000E+00 -0.00000000000E+00 -0.23220753239E+02  0.23220753239E+02  0.00000000000E+00 0.  1.
         23    2    1    2    0    0 -0.13565740603E+02 -0.98567412931E+00  0.20844979565E+03  0.22725371070E+03  0.89487042907E+02 0.  0.
          5    1    1    2  502    0 -0.39365218745E+02 -0.28620556776E+02  0.19842315865E+03  0.20434769146E+03  0.41800000000E+01 0. -1.
         -5    1    1    2    0  502  0.52930959347E+02  0.29606230905E+02  0.74246353496E+02  0.95959412114E+02  0.41800000000E+01 0. -1.
        -11    1    3    3    0    0  0.28700383360E+02 -0.28004478996E+02  0.84259789860E+02  0.93314923973E+02  0.00000000000E+00 0. -1.
         11    1    3    3    0    0 -0.42266123963E+02  0.27018804867E+02  0.12419000579E+03  0.13393878673E+03  0.00000000000E+00 0.  1.
</event>
<event>
 7    1  0.5137842E-006  0.1558550E+03  0.7561462E-02  0.1193458E+00
          1   -1    0    0  501    0  0.00000000000E+00  0.00000000000E+00  0.31178561347E+03  0.31178561347E+03  0.00000000000E+00 0. -1.
         -1   -1    0    0    0  501 -0.00000000000E+00 -0.00000000000E+00 -0.12473138162E+03  0.12473138162E+03  0.00000000000E+00 0.  1.
         23    2    1    2    0    0 -0.97584305502E+02 -0.63980758828E+02  0.21815009652E+03  0.26264856068E+03  0.88196188304E+02 0.  0.
          5    1    1    2  502    0  0.10540891327E+03 -0.39891615093E+00 -0.12239851708E+02  0.10620020951E+03  0.41800000000E+01 0.  1.
         -5    1    1    2    0  502 -0.78246077640E+01  0.64379674979E+02 -0.18856012970E+02  0.67668224908E+02  0.41800000000E+01 0.  1.
        -11    1    3    3    0    0 -0.93153513294E+02 -0.17802746412E+02  0.11171204838E+03  0.14654042641E+03  0.00000000000E+00 0. -1.
         11    1    3    3    0    0 -0.44307922074E+01 -0.46178012416E+02  0.10643804814E+03  0.11610813427E+03  0.00000000000E+00 0.  1.
</event>
<event>
 7    1  0.5137842E-006  0.1171000E+03  0.7561462E-02  0.1247959E+00
          2   -1    0    0  501    0  0.00000000000E+00  0.00000000000E+00  0.29340530400E+03  0.29340530400E+03  0.00000000000E+00 0. -1.
         -2   -1    0    0    0  501 -0.00000000000E+00 -0.00000000000E+00 -0.97618683548E+02  0.97618683548E+02  0.00000000000E+00 0.  1.
         23    2    1    2    0    0 -0.39680370252E+02 -0.29490920233E+02  0.22457937499E+03  0.24832733736E+03  0.93735396986E+02 0.  0.
          5    1    1    2  502    0  0.46394263821E+01  0.76371321599E+02  0.15411208191E+01  0.76641702051E+02  0.41800000000E+01 0. -1.
         -5    1    1    2    0  502  0.35040943870E+02 -0.46880401366E+02 -0.30333875357E+02  0.66054948140E+02  0.41800000000E+01 0.  1.
        -11    1    3    3    0    0 -0.32370103586E+02  0.26866000511E+02  0.14187515851E+03  0.14798028988E+03  0.00000000000E+00 0. -1.
         11    1    3    3    0    0 -0.73102666662E+01 -0.56356920744E+02  0.82704216483E+02  0.10034704748E+03  0.00000000000E+00 0.  1.
</event>
<event>
 7    1  0.5137842E-006  0.8485094E+02  0.7561462E-02  0.1315823E+00
          2   -1    0    0  501    0  0.00000000000E+00  0.00000000000E+00  0.81801613818E+02  0.81801613818E+02  0.00000000000E+00 0. -1.
         -2   -1    0    0    0  501 -0.00000000000E+00 -0.00000000000E+00 -0.17947918725E+03  0.17947918725E+03  0.00000000000E+00 0.  1.
         23    2    1    2    0    0 -0.64444263401E+02 -0.72606539938E+01 -0.32058234815E+02  0.11759209716E+03  0.92705936778E+02 0.  0.
          5    1    1    2  502    0 -0.15670508540E+02 -0.58349963671E+01 -0.59755750468E+02  0.62191913738E+02  0.41800000000E+01 0. -1.
         -5    1    1    2    0  502  0.80114771942E+02  0.13095650361E+02 -0.58635881491E+01  0.81496790168E+02  0.41800000000E+01 0.  1.
        -11    1    3    3    0    0 -0.29072525183E+02 -0.18024851312E+02 -0.61470292162E+02  0.70347024130E+02  0.00000000000E+00 0.  1.
         11    1    3    3    0    0 -0.35371738218E+02  0.10764197319E+02  0.29412057347E+02  0.47245073033E+02  0.00000000000E+00 0. -1.
</event>
<event>
 7    1  0.5137842E-006  0.1636751E+03  0.7561462E-02  0.1184609E+00
          1   -1    0    0  501    0  0.00000000000E+00  0.00000000000E+00  0.34136073523E+02  0.34136073523E+02  0.00000000000E+00 0. -1.
         -1   -1    0    0    0  501 -0.00000000000E+00 -0.00000000000E+00 -0.82082137011E+03  0.82082137011E+03  0.00000000000E+00 0.  1.
         23    2    1    2    0    0 -0.49247444239E+02  0.11503809738E+03 -0.31440069919E+03  0.35061699864E+03  0.91790007465E+02 0.  0.
          5    1    1    2  502    0 -0.37299706528E+02 -0.55616435391E+02 -0.13000600611E+03  0.14629931653E+03  0.41800000000E+01 0. -1.
         -5    1    1    2    0  502  0.86547150767E+02 -0.59421661986E+02 -0.34227859129E+03  0.35804112846E+03  0.41800000000E+01 0. -1.
        -11    1    3    3    0    0 -0.18879961609E+02  0.12247627192E+03 -0.25008808720E+03  0.27910740136E+03  0.00000000000E+00 0.  1.
         11    1    3    3    0    0 -0.30367482630E+02 -0.74381745458E+01 -0.64312611989E+02  0.71509597277E+02  0.00000000000E+00 0. -1.
</event>
<event>
 7    1  0.5137842E-006  0.1589331E+03  0.7561462E-02  0.1189907E+00
          2   -1    0    0  501    0  0.00000000000E+00  0.00000000000E+00  0.55151534022E+03  0.55151534022E+03  0.00000000000E+00 0. -1.
         -2   -1    0    0    0  501 -0.00000000000E+00 -0.00000000000E+00 -0.68036139071E+02  0.68036139071E+02  0.00000000000E+00 0.  1.
         23    2    1    2    0    0  0.78918481942E+02 -0.12814369065E+03  0.32053088092E+03  0.36489817090E+03  0.88100495216E+02 0.  0.
          5    1    1    2  502    0 -0.47637510076E+01  0.75389396689E+02  0.14242079684E+03  0.16126813148E+03  0.41800000000E+01 0. -1.
         -5    1    1    2    0  502 -0.74154730935E+02  0.52754293961E+02  0.20527523392E+02  0.93385176918E+02  0.41800000000E+01 0. -1.
        -11    1    3    3    0    0  0.19753132607E+02 -0.21821065419E+02  0.16409232653E+03  0.16671123768E+03  0.00000000000E+00 0. -1.
         11    1    3    3    0    0  0.59165349335E+02 -0.10632262523E+03  0.15643855439E+03  0.19818693321E+03  0.00000000000E+00 0.  1.
</event>
<event>
 7    1  0.5137842E-006  0.9931637E+02  0.7561462E-02  0.1281740E+00
         -1   -1    0    0    0  501 -0.00000000000E+00  0.00000000000E+00  0.87259508697E+03  0.87259508697E+03  0.00000000000E+00 0.  1.
          1   -1    0    0  501    0  0.00000000000E+00 -0.00000000000E+00 -0.42912762525E+02  0.42912762525E+02  0.00000000000E+00 0. -1.
         23    2    1    2    0    0 -0.54421266925E+02  0.34997381967E+02  0.47574324938E+02  0.12082121059E+03  0.90266037333E+02 0.  0.
          5    1    1    2  502    0  0.59654781447E+01 -0.42863447552E+02  0.81704391097E+02  0.92552374308E+02  0.41800000000E+01 0. -1.
         -5    1    1    2    0  502  0.48455788780E+02  0.78660655844E+01  0.70040360841E+03  0.70213426461E+03  0.41800000000E+01 0. -1.
        -11    1    3    3    0    0  0.78117875008E+00 -0.24622742033E+02 -0.34517255504E+01  0.24875772847E+02  0.00000000000E+00 0. -1.
         11    1    3    3    0    0 -0.55202445675E+02  0.59620124001E+02  0.51026050488E+02  0.95945437738E+02  0.00000000000E+00 0.  1.
</event>
<event>
 7    1  0.5137842E-006  0.1231868E+03  0.7561462E-02  0.1237931E+00
          1   -1    0    0  501    0  0.00000000000E+00  0.00000000000E+00  0.49179436773E+03  0.49179436773E+03  0.00000000000E+00 0. -1.
         -1   -1    0    0    0  501 -0.00000000000E+00 -0.00000000000E+00 -0.45142485818E+02  0.45142485818E+02  0.00000000000E+00 0.  1.
         23    2    1    2    0    0  0.94167082810E+02  0.21587439245E+02  0.26061076396E+03  0.29282166245E+03  0.92158009364E+02 0.  0.
          5    1    1    2  502    0 -0.11086640307E+02  0.34222557581E+02  0.41348847069E+01  0.36450880815E+02  0.41800000000E+01 0.  1.
         -5    1    1    2    0  502 -0.83080442502E+02 -0.55809996826E+02  0.18190623324E+03  0.20766431028E+03  0.41800000000E+01 0.  1.
        -11    1    3    3    0    0  0.24493470628E+02  0.31184667193E+02  0.24856663387E+02  0.46800291517E+02  0.00000000000E+00 0.  1.
         11    1    3    3    0    0  0.69673612182E+02 -0.95972279473E+01  0.23575410058E+03  0.24602137094E+03  0.00000000000E+00 0. -1.
</event>
<event>
 7    1  0.5137842E-006  0.1013699E+03  0.7561462E-02  0.1277441E+00
         -1   -1    0    0    0  501 -0.00000000000E+00  0.00000000000E+00  0.30232942347E+02  0.30232942347E+02  0.00000000000E+00 0.  1.
          1   -1    0    0  501    0  0.00000000000E+00 -0.00000000000E+00 -0.42577494713E+03  0.42577494713E+03  0.00000000000E+00 0. -1.
         23    2    1    2    0    0 -0.11738303063E+02 -0.18773279472E+02 -0.22361520162E+03  0.24223914439E+03  0.90475526531E+02 0.  0.
          5    1    1    2  502    0  0.85144683094E+01 -0.50493959917E+02 -0.41693455148E+02  0.66166099786E+02  0.41800000000E+01 0.  1.
         -5    1    1    2    0  502  0.32238347539E+01  0.69267239389E+02 -0.13023334802E+03  0.14760264530E+03  0.41800000000E+01 0.  1.
        -11    1    3    3    0    0  0.21661595124E+02  0.20854418633E+02 -0.32737315396E+02  0.44450683900E+02  0.00000000000E+00 0.  1.
         11    1    3    3    0    0 -0.33399898187E+02 -0.39627698105E+02 -0.19087788622E+03  0.19778846049E+03  0.00000000000E+00 0. -1.
</event>
<event>
 7    1  0.5137842E-006  0.1034233E+03  0.7561462E-02  0.1273258E+00
         -2   -1    0    0    0  501 -0.00000000000E+00  0.00000000000E+00  0.11205299188E+02  0.11205299188E+02  0.00000000000E+00 0. -1.
          2   -1    0    0  501    0  0.00000000000E+00 -0.00000000000E+00 -0.11008230599E+04  0.11008230599E+04  0.00000000000E+00 0.  1.
         23    2    1    2    0    0  0.49442456490E+01  0.51115829204E+02 -0.33839317658E+03  0.34873043351E+03  0.66825891216E+02 0.  0.
          5    1    1    2  502    0  0.12062849899E+02  0.38954182716E+02 -0.16983341879E+03  0.17471062714E+03  0.41800000000E+01 0. -1.
         -5    1    1    2    0  502 -0.17007095548E+02 -0.90070011920E+02 -0.58139116530E+03  0.58858729840E+03  0.41800000000E+01 0. -1.
        -11    1    3    3    0    0  0.62984500945E+00  0.62199694494E+02 -0.32464922536E+03  0.33055456165E+03  0.00000000000E+00 0.  1.
         11    1    3    3    0    0  0.43144006395E+01 -0.11083865290E+02 -0.13743951224E+02  0.18175871861E+02  0.00000000000E+00 0. -1.
</event>
<event>
 7    1  0.5137842E-006  0.1507071E+03  0.7561462E-02  0.1199607E+00
         -3   -1    0    0    0  501 -0.00000000000E+00  0.00000000000E+00  0.23148494680E+03  0.23148494680E+03  0.00000000000E+00 0.  1.
          3   -1    0    0  501    0  0.00000000000E+00 -0.00000000000E+00 -0.13480175559E+03  0.13480175559E+03  0.00000000000E+00 0. -1.
         23    2    1    2    0    0 -0.13332323427E+03 -0.20997187073E+02  0.78118777612E+02  0.18133268234E+03  0.92536650080E+02 0.  0.
          5    1    1    2  502    0  0.42160542327E+02  0.24031534078E+02 -0.50730285115E+02  0.70328231795E+02  0.41800000000E+01 0. -1.
         -5    1    1    2    0  502  0.91162691944E+02 -0.30343470054E+01  0.69294698708E+02  0.11462578826E+03  0.41800000000E+01 0. -1.
        -11    1    3    3    0    0 -0.37319830985E+02  0.34231109508E+02  0.10984604776E+02  0.51818917250E+02  0.00000000000E+00 0. -1.
         11    1    3    3    0    0 -0.96003403286E+02 -0.55228296581E+02  0.67134172836E+02  0.12951376509E+03  0.00000000000E+00 0.  1.
</event>
<event>
 7    1  0.5137842E-006  0.1106544E+03  0.7561462E-02  0.1259363E+00
          1   -1    0    0  501    0  0.00000000000E+00  0.00000000000E+00  0.18366136415E+03  0.18366136415E+03  0.00000000000E+00 0. -1.
         -1   -1    0    0    0  501 -0.00000000000E+00 -0.00000000000E+00 -0.11119721376E+03  0.11119721376E+03  0.00000000000E+00 0.  1.
         23    2    1    2    0    0 -0.27044658867E+02 -0.82766388520E+02  0.67695176520E+02  0.14237638642E+03  0.90037269188E+02 0.  0.
          5    1    1    2  502    0  0.40460832368E+02  0.57784903716E+02 -0.52773109030E+02  0.88196641036E+02  0.41800000000E+01 0. -1.
         -5    1    1    2    0  502 -0.13416173501E+02  0.24981484804E+02  0.57542082891E+02  0.64285550459E+02  0.41800000000E+01 0. -1.
        -11    1    3    3    0    0  0.31254729148E+02 -0.30851349650E+02  0.40415557541E+02  0.59683173179E+02  0.00000000000E+00 0. -1.
         11    1    3    3    0    0 -0.58299388015E+02 -0.51915038870E+02  0.27279618979E+02  0.82693213237E+02  0.00000000000E+00 0.  1.
</event>
<event>
 7    1  0.5137842E-006  0.9376151E+02  0.7561462E-02  0.1293990E+00
          2   -1    0    0  501    0  0.00000000000E+00  0.00000000000E+00  0.16756856879E+03  0.16756856879E+03  0.00000000000E+00 0. -1.
         -2   -1    0    0    0  501 -0.00000000000E+00 -0.00000000000E+00 -0.12572088316E+03  0.12572088316E+03  0.00000000000E+00 0.  1.
         23    2    1    2    0    0 -0.48818261000E+02  0.60131353705E+02  0.75804877588E+02  0.14229268132E+03  0.92205343584E+02 0.  0.
          5    1    1    2  502    0  0.64526169379E+01 -0.44714209816E+02  0.42481925220E+02  0.62154510658E+02  0.41800000000E+01 0. -1.
         -5    1    1    2    0  502  0.42365644062E+02 -0.15417143889E+02 -0.76439117178E+02  0.88842259975E+02  0.41800000000E+01 0. -1.
        -11    1    3    3    0    0 -0.38082593830E+02  0.24038749257E+01  0.74335153938E+02  0.83557032490E+02  0.00000000000E+00 0. -1.
         11    1    3    3    0    0 -0.10735667170E+02  0.57727478779E+02  0.14697236496E+01  0.58735648829E+02  0.00000000000E+00 0.  1.
</event>
<event>
 7    1  0.5137842E-006  0.1275346E+03  0.7561462E-02  0.1231160E+00
         -2   -1    0    0    0  501 -0.00000000000E+00  0.00000000000E+00  0.99768545790E+02  0.99768545790E+02  0.00000000000E+00 0.  1.
          2   -1    0    0  501    0  0.00000000000E+00 -0.00000000000E+00 -0.20476294716E+03  0.20476294716E+03  0.00000000000E+00 0. -1.
         23    2    1    2    0    0  0.41139412173E+01 -0.75878082058E+02 -0.10516061170E+03  0.15816922820E+03  0.90467356811E+02 0.  0.
          5    1    1    2  502    0  0.42394691590E+02  0.79679185965E+02 -0.24223768269E+02  0.93543283565E+02  0.41800000000E+01 0. -1.
         -5    1    1    2    0  502 -0.46508632807E+02 -0.38011039063E+01  0.24389978601E+02  0.52818981178E+02  0.41800000000E+01 0. -1.
        -11    1    3    3    0    0  0.46969142317E+02 -0.44988037815E+02 -0.52581238049E+02  0.83634983537E+02  0.00000000000E+00 0.  1.
         11    1    3    3    0    0 -0.42855201100E+02 -0.30890044244E+02 -0.52579373649E+02  0.74534244667E+02  0.00000000000E+00 0. -1.
</event>
<event>
 7    1  0.5137842E-006  0.2436697E+03  0.7561462E-02  0.1117372E+00
         -2   -1    0    0    0  501 -0.00000000000E+00  0.00000000000E+00  0.91858852027E+02  0.91858852027E+02  0.00000000000E+00 0. -1.
          2   -1    0    0  501    0  0.00000000000E+00 -0.00000000000E+00 -0.84061437098E+03  0.84061437098E+03  0.00000000000E+00 0.  1.
         23    2    1    2    0    0  0.21130134784E+03 -0.96507558102E+02 -0.18695783585E+03  0.31180758398E+03  0.91152447418E+02 0.  0.
          5    1    1    2  502    0 -0.12143346295E+03  0.10280825304E+03 -0.25241618326E+03  0.29840748113E+03  0.41800000000E+01 0. -1.
         -5    1    1    2    0  502 -0.89867884889E+02 -0.63006949407E+01 -0.30938149984E+03  0.32225815790E+03  0.41800000000E+01 0. -1.
        -11    1    3    3    0    0  0.14987252160E+03 -0.41450151939E+02 -0.16439432511E+03  0.22628606222E+03  0.00000000000E+00 0.  1.
         11    1    3    3    0    0  0.61428826248E+02 -0.55057406162E+02 -0.22563510737E+02  0.85521521761E+02  0.00000000000E+00 0. -1.
</event>
<event>
 7    1  0.5137842E-006  0.1055194E+03  0.7561462E-02  0.1269100E+00
         -2   -1    0    0    0  501 -0.00000000000E+00  0.00000000000E+00  0.10590866814E+04  0.10590866814E+04  0.00000000000E+00 0.  1.
          2   -1    0    0  501    0  0.00000000000E+00 -0.00000000000E+00 -0.15311832183E+02  0.15311832183E+02  0.00000000000E+00 0. -1.
         23    2    1    2    0    0  0.43067625070E+02 -0.11084134182E+01  0.24542756396E+03  0.26516277246E+03  0.90667292004E+02 0.  0.
          5    1    1    2  502    0 -0.22649829392E+02 -0.54441003698E+02  0.21829514817E+03  0.22615720588E+03  0.41800000000E+01 0.  1.
         -5    1    1    2    0  502 -0.20417795678E+02  0.55549417116E+02  0.58005213711E+03  0.58307853527E+03  0.41800000000E+01 0.  1.
        -11    1    3    3    0    0  0.36627602466E+02 -0.39383059937E+02  0.19022060903E+03  0.19767773464E+03  0.00000000000E+00 0.  1.
         11    1    3    3    0    0  0.64400226044E+01  0.38274646519E+02  0.55206954923E+02  0.67485037817E+02  0.00000000000E+00 0. -1.
</event>
<event>
 7    1  0.5137842E-006  0.1705556E+03  0.7561462E-02  0.1177270E+00
          1   -1    0    0  501    0  0.00000000000E+00  0.00000000000E+00  0.12312750991E+04  0.12312750991E+04  0.00000000000E+00 0. -1.
         -1   -1    0    0    0  501 -0.00000000000E+00 -0.00000000000E+00 -0.26401642638E+02  0.26401642638E+02  0.00000000000E+00 0.  1.
         23    2    1    2    0    0 -0.12299264521E+03 -0.74856322863E+02  0.59638236498E+03  0.61999301751E+03  0.89379844747E+02 0.  0.
          5    1    1    2  502    0  0.11147747290E+03  0.15862603552E+02  0.50939234399E+03  0.52170574241E+03  0.41800000000E+01 0.  1.
         -5    1    1    2    0  502  0.11515172309E+02  0.58993719311E+02  0.99098747482E+02  0.11597798181E+03  0.41800000000E+01 0.  1.
        -11    1    3    3    0    0 -0.11690161639E+03 -0.27052789700E+02  0.38903009605E+03  0.40711455020E+03  0.00000000000E+00 0. -1.
         11    1    3    3    0    0 -0.60910288175E+01 -0.47803533162E+02  0.20735226893E+03  0.21287846731E+03  0.00000000000E+00 0.  1.
</event>
<event>
 7    1  0.5137842E-006  0.1263786E+03  0.7561462E-02  0.1232930E+00
         -2   -1    0    0    0  501 -0.00000000000E+00  0.00000000000E+00  0.54304402113E+02  0.54304402113E+02  0.00000000000E+00 0.  1.
          2   -1    0    0  501    0  0.00000000000E+00 -0.00000000000E+00 -0.54617544723E+03  0.54617544723E+03  0.00000000000E+00 0. -1.
         23    2    1    2    0    0  0.37691245735E+02 -0.82896643712E+02 -0.29367067819E+03  0.32008031215E+03  0.88974465172E+02 0.  0.
          5    1    1    2  502    0 -0.65878710511E+02  0.73564399065E+02 -0.22141764418E+03  0.24247674293E+03  0.41800000000E+01 0. -1.
         -5    1    1    2    0  502  0.28187464777E+02  0.93322446462E+01  0.23217277262E+02  0.37922794255E+02  0.41800000000E+01 0.  1.
        -11    1    3    3    0    0  0.55285212158E+02 -0.20273379679E+02 -0.10332035234E+03  0.11892249499E+03  0.00000000000E+00 0. -1.
         11    1    3    3    0    0 -0.17593966424E+02 -0.62623264033E+02 -0.19035032585E+03  0.20115781716E+03  0.00000000000E+00 0.  1.
</event>
<event>
 7    1  0.5137842E-006  0.1472834E+03  0.7561462E-02  0.1203851E+00
          2   -1    0    0  501    0  0.00000000000E+00  0.00000000000E+00  0.57846920118E+03  0.57846920118E+03  0.00000000000E+00 0.  1.
         -2   -1    0    0    0  501 -0.00000000000E+00 -0.00000000000E+00 -0.56367173479E+02  0.56367173479E+02  0.00000000000E+00 0. -1.
         23    2    1    2    0    0  0.13623863603E+03 -0.32128201942E+02  0.28418137634E+03  0.33177419860E+03  0.98599578546E+02 0.  0.
          5    1    1    2  502    0 -0.95762196469E+02  0.43618967385E+01  0.23486002928E+03  0.25370480912E+03  0.41800000000E+01 0.  1.
         -5    1    1    2    0  502 -0.40476439557E+02  0.27766305204E+02  0.30606220763E+01  0.49357366941E+02  0.41800000000E+01 0.  1.
        -11    1    3    3    0    0  0.56589245914E+02  0.12639276046E+02  0.38365557053E+02  0.69527045242E+02  0.00000000000E+00 0. -1.
         11    1    3    3    0    0  0.79649390112E+02 -0.44767477989E+02  0.24581581929E+03  0.26224715336E+03  0.00000000000E+00 0.  1.
</event>
<event>
 7    1  0.5137842E-006  0.3377557E+03  0.7561462E-02  0.1067756E+00
          2   -1    0    0  501    0  0.00000000000E+00  0.00000000000E+00  0.13077822435E+04  0.13077822435E+04  0.00000000000E+00 0. -1.
         -2   -1    0    0    0  501 -0.00000000000E+00 -0.00000000000E+00 -0.24250465851E+03  0.24250465851E+03  0.00000000000E+00 0.  1.
         23    2    1    2    0    0  0.32009361405E+03  0.25764081570E+02  0.11481226127E+04  0.11958375025E+04  0.93370707052E+02 0.  0.
          5    1    1    2  502    0 -0.13342184950E+03 -0.72171805654E+02 -0.27220626000E+02  0.15417066626E+03  0.41800000000E+01 0. -1.
         -5    1    1    2    0  502 -0.18667176455E+03  0.46407724084E+02 -0.55624401699E+02  0.20027873326E+03  0.41800000000E+01 0. -1.
        -11    1    3    3    0    0  0.22564103596E+03  0.55452353824E+02  0.72680382054E+03  0.76304169886E+03  0.00000000000E+00 0.  1.
         11    1    3    3    0    0  0.94452578088E+02 -0.29688272255E+02  0.42131879213E+03  0.43279580360E+03  0.00000000000E+00 0. -1.
</event>
<event>
 7    1  0.5137842E-006  0.1433028E+03  0.7561462E-02  0.1208953E+00
         -4   -1    0    0    0  501 -0.00000000000E+00  0.00000000000E+00  0.40427372383E+03  0.40427372383E+03  0.00000000000E+00 0.  1.
          4   -1    0    0  501    0  0.00000000000E+00 -0.00000000000E+00 -0.71982771979E+02  0.71982771979E+02  0.00000000000E+00 0. -1.
         23    2    1    2    0    0 -0.91139594147E+02 -0.69463774501E+02  0.64502927270E+02  0.15925650179E+03  0.89835205500E+02 0.  0.
          5    1    1    2  502    0  0.90649569109E+02  0.96600527158E+02  0.25346923823E+03  0.28602995185E+03  0.41800000000E+01 0. -1.
         -5    1    1    2    0  502  0.49002503822E+00 -0.27136752657E+02  0.14318786351E+02  0.30970042168E+02  0.41800000000E+01 0. -1.
        -11    1    3    3    0    0 -0.46473806195E+02 -0.67429879981E+02  0.77440382031E+02  0.11271031961E+03  0.00000000000E+00 0.  1.
         11    1    3    3    0    0 -0.44665787953E+02 -0.20338945201E+01 -0.12937454761E+02  0.46546182186E+02  0.00000000000E+00 0. -1.
</event>
<event>
 7    1  0.5137842E-006  0.1195028E+03  0.7561462E-02  0.1243920E+00
          2   -1    0    0  501    0  0.00000000000E+00  0.00000000000E+00  0.44124412684E+03  0.44124412684E+03  0.00000000000E+00 0. -1.
         -2   -1    0    0    0  501 -0.00000000000E+00 -0.00000000000E+00 -0.37405022152E+02  0.37405022152E+02  0.00000000000E+00 0.  1.
         23    2    1    2    0    0 -0.49795250756E+02 -0.48832371948E+01  0.26621110930E+03  0.28605506991E+03  0.91955072222E+02 0.  0.
          5    1    1    2  502    0  0.30748173563E+02 -0.59665734317E+02  0.71150838161E+02  0.97904873219E+02  0.41800000000E+01 0.  1.
         -5    1    1    2    0  502  0.19047077193E+02  0.64548971511E+02  0.66477157232E+02  0.94689205860E+02  0.41800000000E+01 0.  1.
        -11    1    3    3    0    0  0.26467704531E+02 -0.89804873740E+01  0.61195633346E+02  0.67276251956E+02  0.00000000000E+00 0. -1.
         11    1    3    3    0    0 -0.76262955287E+02  0.40972501792E+01  0.20501547595E+03  0.21877881796E+03  0.00000000000E+00 0.  1.
</event>
<event>
 7    1  0.5137842E-006  0.2317364E+03  0.7561462E-02  0.1125424E+00
          1   -1    0    0  501    0  0.00000000000E+00  0.00000000000E+00  0.41829006096E+03  0.41829006096E+03  0.00000000000E+00 0. -1.
         -1   -1    0    0    0  501 -0.00000000000E+00 -0.00000000000E+00 -0.29397545692E+03  0.29397545692E+03  0.00000000000E+00 0.  1.
         23    2    1    2    0    0 -0.15079247802E+03  0.13240959781E+03  0.31777849773E+03  0.38701419282E+03  0.92337093362E+02 0.  0.
          5    1    1    2  502    0  0.58105641201E+02  0.30621200126E+02 -0.88530005486E+02  0.11031299882E+03  0.41800000000E+01 0. -1.
         -5    1    1    2    0  502  0.92686836816E+02 -0.16303079794E+03 -0.10493388820E+03  0.21493832624E+03  0.41800000000E+01 0.  1.
        -11    1    3    3    0    0 -0.41556719071E+02  0.77216328586E+02  0.76067494489E+02  0.11608439179E+03  0.00000000000E+00 0.  1.
         11    1    3    3    0    0 -0.10923575895E+03  0.55193269228E+02  0.24171100324E+03  0.27092980103E+03  0.00000000000E+00 0. -1.
</event>
<event>
 7    1  0.5137842E-006  0.7816923E+02  0.7561462E-02  0.1334329E+00
         -4   -1    0    0    0  501 -0.00000000000E+00  0.00000000000E+00  0.11475386250E+04  0.11475386250E+04  0.00000000000E+00 0.  1.
          4   -1    0    0  501    0  0.00000000000E+00 -0.00000000000E+00 -0.16153587753E+02  0.16153587753E+02  0.00000000000E+00 0. -1.
         23    2    1    2    0    0 -0.31498489043E+02  0.41564716488E+02  0.23501312692E+03  0.25713217394E+03  0.90365948152E+02 0.  0.
          5    1    1    2  502    0  0.30530914715E+02 -0.19797355058E+02  0.62856877989E+02  0.72749787156E+02  0.41800000000E+01 0.  1.
         -5    1    1    2    0  502  0.96757432739E+00 -0.21767361429E+02  0.83351503235E+03  0.83381025166E+03  0.41800000000E+01 0.  1.
        -11    1    3    3    0    0 -0.41503095159E+02  0.62094400406E+02  0.13244496058E+03  0.15205225763E+03  0.00000000000E+00 0. -1.
         11    1    3    3    0    0  0.10004606117E+02 -0.20529683918E+02  0.10256816634E+03  0.10507991631E+03  0.00000000000E+00 0.  1.
</event>
<event>
 7    1  0.5137842E-006  0.8786242E+02  0.7561462E-02  0.1308112E+00
          2   -1    0    0  501    0  0.00000000000E+00  0.00000000000E+00  0.34182045015E+03  0.34182045015E+03  0.00000000000E+00 0. -1.
         -2   -1    0    0    0  501 -0.00000000000E+00 -0.00000000000E+00 -0.36393899211E+02  0.36393899211E+02  0.00000000000E+00 0.  1.
         23    2    1    2    0    0 -0.24124656712E+02  0.46614702125E+01  0.15743867236E+03  0.18288997216E+03  0.89766797864E+02 0.  0.
          5    1    1    2  502    0 -0.12901906839E+02  0.49091864909E+02  0.10600206993E+03  0.11760264296E+03  0.41800000000E+01 0.  1.
         -5    1    1    2    0  502  0.37026563552E+02 -0.53753335121E+02  0.41985808645E+02  0.77721734236E+02  0.41800000000E+01 0.  1.
        -11    1    3    3    0    0 -0.27817424045E+02 -0.20121615240E+02  0.13668887143E+02  0.36953037170E+02  0.00000000000E+00 0.  1.
         11    1    3    3    0    0  0.36927673327E+01  0.24783085453E+02  0.14376978521E+03  0.14593693499E+03  0.00000000000E+00 0. -1.
</event>
<event>
 7    1  0.5137842E-006  0.1200315E+03  0.7561462E-02  0.1243045E+00
          1   -1    0    0  501    0  0.00000000000E+00  0.00000000000E+00  0.98293866243E+02  0.98293866243E+02  0.00000000000E+00 0. -1.
         -1   -1    0    0    0  501 -0.00000000000E+00 -0.00000000000E+00 -0.28044924618E+03  0.28044924618E+03  0.00000000000E+00 0.  1.
         23    2    1    2    0    0 -0.39434834059E+02 -0.65056799630E+02  0.47425116349E+02  0.10645343868E+03  0.57408184352E+02 0.  0.
          5    1    1    2  502    0  0.68965916827E+02 -0.59898476569E+01 -0.10844143543E+03  0.12872137847E+03  0.41800000000E+01 0.  1.
         -5    1    1    2    0  502 -0.29531082769E+02  0.71046647287E+02 -0.12113906086E+03  0.14356829527E+03  0.41800000000E+01 0.  1.
        -11    1    3    3    0    0 -0.33635528471E+02 -0.58164762547E+01  0.80068512630E+01  0.35061229852E+02  0.00000000000E+00 0.  1.
         11    1    3    3    0    0 -0.57993055873E+01 -0.59240323376E+02  0.39418265086E+02  0.71392208828E+02  0.00000000000E+00 0. -1.
</event>
<event>
 7    1  0.5137842E-006  0.2276705E+03  0.7561462E-02  0.1128290E+00
         -1   -1    0    0    0  501 -0.00000000000E+00  0.00000000000E+00  0.75505763364E+02  0.75505763364E+02  0.00000000000E+00 0.  1.
          1   -1    0    0  501    0  0.00000000000E+00 -0.00000000000E+00 -0.89282373345E+03  0.89282373345E+03  0.00000000000E+00 0. -1.
         23    2    1    2    0    0  0.14105982713E+02  0.21153318539E+03 -0.58906155391E+03  0.63263224413E+03  0.91020737953E+02 0.  0.
          5    1    1    2  502    0 -0.43302354000E+02 -0.81215473345E+02 -0.16244868930E+03  0.18675678309E+03  0.41800000000E+01 0. -1.
         -5    1    1    2    0  502  0.29196371287E+02 -0.13031771205E+03 -0.65807726869E+02  0.14894046960E+03  0.41800000000E+01 0. -1.
        -11    1    3    3    0    0 -0.93310740437E+01 -0.58093757387E+01 -0.44376542561E+02  0.45717560291E+02  0.00000000000E+00 0. -1.
         11    1    3    3    0    0  0.23437056757E+02  0.21734256113E+03 -0.54468501135E+03  0.58691468383E+03  0.00000000000E+00 0.  1.
</event>
<event>
 7    1  0.5137842E-006  0.1264078E+03  0.7561462E-02  0.1232885E+00
         -1   -1    0    0    0  501 -0.00000000000E+00  0.00000000000E+00  0.13074280838E+03  0.13074280838E+03  0.00000000000E+00 0.  1.
          1   -1    0    0  501    0  0.00000000000E+00 -0.00000000000E+00 -0.16791540701E+03  0.16791540701E+03  0.00000000000E+00 0. -1.
         23    2    1    2    0    0  0.52865416125E+02 -0.69249512449E+02 -0.70339988941E+02  0.14264649533E+03  0.88374551698E+02 0.  0.
          5    1    1    2  502    0  0.11203541259E+02  0.74247703200E+02 -0.13597402715E+02  0.76423834815E+02  0.41800000000E+01 0. -1.
         -5    1    1    2    0  502 -0.64068957384E+02 -0.49981907512E+01  0.46764793029E+02  0.79587885247E+02  0.41800000000E+01 0. -1.
        -11    1    3    3    0    0  0.51686359659E+02 -0.84164069055E+01 -0.38342225663E+01  0.52507303708E+02  0.00000000000E+00 0.  1.
         11    1    3    3    0    0  0.11790564661E+01 -0.60833105544E+02 -0.66505766375E+02  0.90139191617E+02  0.00000000000E+00 0. -1.
</event>
<event>
 7    1  0.5137842E-006  0.1155942E+03  0.7561462E-02  0.1250547E+00
          1   -1    0    0  501    0  0.00000000000E+00  0.00000000000E+00  0.18694462997E+03  0.18694462997E+03  0.00000000000E+00 0. -1.
         -1   -1    0    0    0  501 -0.00000000000E+00 -0.00000000000E+00 -0.14804078479E+03  0.14804078479E+03  0.00000000000E+00 0.  1.
         23    2    1    2    0    0 -0.24692881657E+02 -0.77201692254E+02  0.11473486831E+03  0.16681228539E+03  0.89957817107E+02 0.  0.
          5    1    1    2  502    0 -0.16314527186E+02 -0.75340247629E+01  0.24408559018E+02  0.30596984815E+02  0.41800000000E+01 0. -1.
         -5    1    1    2    0  502  0.41007408843E+02  0.84735717017E+02 -0.10023958216E+03  0.13757614455E+03  0.41800000000E+01 0.  1.
        -11    1    3    3    0    0  0.13869481794E+02 -0.78704494451E+02  0.60435042167E+02  0.10019558021E+03  0.00000000000E+00 0.  1.
         11    1    3    3    0    0 -0.38562363450E+02  0.15028021975E+01  0.54299826148E+02  0.66616705179E+02  0.00000000000E+00 0. -1.
</event>
<event>
 7    1  0.5137842E-006  0.4077817E+03  0.7561462E-02  0.1041118E+00
          1   -1    0    0  501    0  0.00000000000E+00  0.00000000000E+00  0.24853352281E+03  0.24853352281E+03  0.00000000000E+00 0. -1.
         -1   -1    0    0    0  501 -0.00000000000E+00 -0.00000000000E+00 -0.68032879591E+03  0.68032879591E+03  0.00000000000E+00 0.  1.
         23    2    1    2    0    0 -0.38673683567E+03 -0.81678875881E+02 -0.17775901010E+03  0.44263372428E+03  0.89941811000E+02 0.  0.
          5    1    1    2  502    0  0.88982204815E+02  0.75253234290E+02 -0.66171607892E+02  0.13407847007E+03  0.41800000000E+01 0.  1.
         -5    1    1    2    0  502  0.29775463085E+03  0.64256415908E+01 -0.18786465510E+03  0.35215012438E+03  0.41800000000E+01 0.  1.
        -11    1    3    3    0    0 -0.80938681558E+02 -0.46337889761E+02 -0.69524488255E+02  0.11632680116E+03  0.00000000000E+00 0.  1.
         11    1    3    3    0    0 -0.30579815411E+03 -0.35340986120E+02 -0.10823452185E+03  0.32630692312E+03  0.00000000000E+00 0. -1.
</event>
<event>
 7    1  0.5137842E-006  0.2167669E+03  0.7561462E-02  0.1136317E+00
          3   -1    0    0  501    0  0.00000000000E+00  0.00000000000E+00  0.11705635591E+03  0.11705635591E+03  0.00000000000E+00 0. -1.
         -3   -1    0    0    0  501 -0.00000000000E+00 -0.00000000000E+00 -0.47600260785E+03  0.47600260785E+03  0.00000000000E+00 0.  1.
         23    2    1    2    0    0 -0.18458189667E+03  0.96636848842E+02 -0.20031793892E+03  0.30285364887E+03  0.90464903963E+02 0.  0.
          5    1    1    2  502    0  0.14395850439E+03 -0.33626118322E+02 -0.46073588436E+02  0.15490324325E+03  0.41800000000E+01 0. -1.
         -5    1    1    2    0  502  0.40623392285E+02 -0.63010730520E+02 -0.11255472459E+03  0.13530207164E+03  0.41800000000E+01 0. -1.
        -11    1    3    3    0    0 -0.31893105837E+02  0.44714451626E+01  0.30627659999E+01  0.32350340915E+02  0.00000000000E+00 0. -1.
         11    1    3    3    0    0 -0.15268879084E+03  0.92165403680E+02 -0.20338070492E+03  0.27050330796E+03  0.00000000000E+00 0.  1.
</event>
<event>
 7    1  0.5137842E-006  0.9846677E+02  0.7561462E-02  0.1283554E+00
         -1   -1    0    0    0  501 -0.00000000000E+00  0.00000000000E+00  0.16175380709E+02  0.16175380709E+02  0.00000000000E+00 0.  1.
          1   -1    0    0  501    0  0.00000000000E+00 -0.00000000000E+00 -0.80410559858E+03  0.80410559858E+03  0.00000000000E+00 0. -1.
         23    2    1    2    0    0 -0.33067574729E+01  0.36518634714E+02 -0.38189573977E+03  0.39383538798E+03  0.88979837261E+02 0.  0.
          5    1    1    2  502    0 -0.49862447700E+02 -0.15715338332E+02 -0.31183776889E+03  0.31621749170E+03  0.41800000000E+01 0. -1.
         -5    1    1    2    0  502  0.53169205173E+02 -0.20803296382E+02 -0.94196709200E+02  0.11022809961E+03  0.41800000000E+01 0. -1.
        -11    1    3    3    0    0 -0.33577836768E+02  0.44676869531E+02 -0.31547703114E+03  0.32038921793E+03  0.00000000000E+00 0. -1.
         11    1    3    3    0    0  0.30271079295E+02 -0.81582348165E+01 -0.66418708635E+02  0.73446170042E+02  0.00000000000E+00 0.  1.
</event>
<event>
 7    1  0.5137842E-006  0.1222821E+03  0.7561462E-02  0.1239379E+00
         -1   -1    0    0    0  501 -0.00000000000E+00  0.00000000000E+00  0.16000969659E+03  0.16000969659E+03  0.00000000000E+00 0.  1.
          1   -1    0    0  501    0  0.00000000000E+00 -0.00000000000E+00 -0.11968157783E+03  0.11968157783E+03  0.00000000000E+00 0. -1.
         23    2    1    2    0    0 -0.80392350440E+02  0.26041591325E+02  0.31632430016E+01  0.12422444974E+03  0.90997875347E+02 0.  0.
          5    1    1    2  502    0  0.24755598450E+02  0.31470245028E+02 -0.30566874570E+02  0.50547227398E+02  0.41800000000E+01 0.  1.
         -5    1    1    2    0  502  0.55636751991E+02 -0.57511836353E+02  0.67731750332E+02  0.10491959729E+03  0.41800000000E+01 0.  1.
        -11    1    3    3    0    0 -0.45822456058E+02  0.60149118244E+02  0.13355878382E+01  0.75626699648E+02  0.00000000000E+00 0.  1.
         11    1    3    3    0    0 -0.34569894383E+02 -0.34107526920E+02  0.18276551634E+01  0.48597750088E+02  0.00000000000E+00 0. -1.
</event>
<event>
 7    1  0.5137842E-006  0.8536317E+02  0.7561462E-02  0.1314486E+00
          4   -1    0    0  501    0  0.00000000000E+00  0.00000000000E+00  0.56746316837E+03  0.56746316837E+03  0.00000000000E+00 0. -1.
         -4   -1    0    0    0  501 -0.00000000000E+00 -0.00000000000E+00 -0.23556675940E+02  0.23556675940E+02  0.00000000000E+00 0.  1.
         23    2    1    2    0    0 -0.34730504380E+02 -0.15825614182E+02  0.30237318908E+03  0.31635287886E+03  0.84811204992E+02 0.  0.
          5    1    1    2  502    0  0.26321286180E+02 -0.34682111473E+02  0.20973842416E+03  0.21425064278E+03  0.41800000000E+01 0.  1.
         -5    1    1    2    0  502  0.84092182008E+01  0.50507725655E+02  0.31794879184E+02  0.60416322661E+02  0.41800000000E+01 0.  1.
        -11    1    3    3    0    0  0.15560716007E+02 -0.19780110499E+02  0.29147993802E+02  0.38509663679E+02  0.00000000000E+00 0.  1.
         11    1    3    3    0    0 -0.50291220388E+02  0.39544963171E+01  0.27322519528E+03  0.27784321519E+03  0.00000000000E+00 0. -1.
</event>
<event>
 7    1  0.5137842E-006  0.9923275E+02  0.7561462E-02  0.1281918E+00
          2   -1    0    0  501    0  0.00000000000E+00  0.00000000000E+00  0.14861516049E+03  0.14861516049E+03  0.00000000000E+00 0. -1.
         -2   -1    0    0    0  501 -0.00000000000E+00 -0.00000000000E+00 -0.11585490579E+03  0.11585490579E+03  0.00000000000E+00 0.  1.
         23    2    1    2    0    0  0.64934792239E+02 -0.17159689293E+02  0.42660559898E+02  0.12214430012E+03  0.92673213509E+02 0.  0.
          5    1    1    2  502    0 -0.30750216868E+02 -0.34800690324E+02  0.40812259398E+02  0.61965932589E+02  0.41800000000E+01 0. -1.
         -5    1    1    2    0  502 -0.34184575370E+02  0.51960379616E+02 -0.50712564594E+02  0.80359833566E+02  0.41800000000E+01 0. -1.
        -11    1    3    3    0    0  0.76315490148E+02 -0.16636846576E+02  0.12345485647E+00  0.78107963369E+02  0.00000000000E+00 0.  1.
         11    1    3    3    0    0 -0.11380697909E+02 -0.52284271678E+00  0.42537105042E+02  0.44036336754E+02  0.00000000000E+00 0. -1.
</event>
<event>
 7    1  0.5137842E-006  0.1041978E+03  0.7561462E-02  0.1271708E+00
         -1   -1    0    0    0  501 -0.00000000000E+00  0.00000000000E+00  0.45959002555E+03  0.45959002555E+03  0.00000000000E+00 0.  1.
          1   -1    0    0  501    0  0.00000000000E+00 -0.00000000000E+00 -0.48569412073E+02  0.48569412073E+02  0.00000000000E+00 0. -1.
         23    2    1    2    0    0 -0.49540875488E+02 -0.95950157705E+01  0.30790098226E+02  0.10803425682E+03  0.90426809217E+02 0.  0.
          5    1    1    2  502    0 -0.20004072629E+02  0.28527531291E+02  0.44253248500E+02  0.56478361929E+02  0.41800000000E+01 0. -1.
         -5    1    1    2    0  502  0.69544948117E+02 -0.18932515520E+02  0.33597726675E+03  0.34364681888E+03  0.41800000000E+01 0.  1.
        -11    1    3    3    0    0 -0.43424592236E+02  0.35197851652E+02  0.53350610912E+01  0.56151997726E+02  0.00000000000E+00 0. -1.
         11    1    3    3    0    0 -0.61162832523E+01 -0.44792867422E+02  0.25455037135E+02  0.51882259090E+02  0.00000000000E+00 0.  1.
</event>
<event>
 7    1  0.5137842E-006  0.1140374E+03  0.7561462E-02  0.1253271E+00
          2   -1    0    0  501    0  0.00000000000E+00  0.00000000000E+00  0.19688673696E+03  0.19688673696E+03  0.00000000000E+00 0. -1.
         -2   -1    0    0    0  501 -0.00000000000E+00 -0.00000000000E+00 -0.10102197738E+03  0.10102197738E+03  0.00000000000E+00 0.  1.
         23    2    1    2    0    0  0.57511117806E+01 -0.80135075690E+02  0.85410685380E+02  0.14887400962E+03  0.91726658730E+02 0.  0.
          5    1    1    2  502    0 -0.39211621177E+02  0.14915846190E+02  0.50192207449E+02  0.65549704740E+02  0.41800000000E+01 0. -1.
         -5    1    1    2    0  502  0.33460509396E+02  0.65219229500E+02 -0.39738133250E+02  0.83484999969E+02  0.41800000000E+01 0. -1.
        -11    1    3    3    0    0 -0.36376114985E+02 -0.43126276447E+02  0.14094717917E+02  0.58152889307E+02  0.00000000000E+00 0.  1.
         11    1    3    3    0    0  0.42127226765E+02 -0.37008799243E+02  0.71315967463E+02  0.90721120317E+02  0.00000000000E+00 0. -1.
</event>
<event>
 7    1  0.5137842E-006  0.1175968E+03  0.7561462E-02  0.1247115E+00
         -2   -1    0    0    0  501 -0.00000000000E+00  0.00000000000E+00  0.33324431392E+03  0.33324431392E+03  0.00000000000E+00 0.  1.
          2   -1    0    0  501    0  0.00000000000E+00 -0.00000000000E+00 -0.52429342210E+02  0.52429342210E+02  0.00000000000E+00 0. -1.
         23    2    1    2    0    0 -0.22866265329E+02 -0.35234705652E+02  0.50749579161E+02  0.12045490784E+03  0.10084401056E+03 0.  0.
          5    1    1    2  502    0  0.47911927428E+01 -0.46795103205E+02  0.95401616062E+02  0.10645035443E+03  0.41800000000E+01 0. -1.
         -5    1    1    2    0  502  0.18075072587E+02  0.82029808857E+02  0.13466377649E+03  0.15876839386E+03  0.41800000000E+01 0. -1.
        -11    1    3    3    0    0 -0.48364729986E+02  0.12318499154E+02  0.58336104333E+01  0.50248617282E+02  0.00000000000E+00 0. -1.
         11    1    3    3    0    0  0.25498464656E+02 -0.47553204807E+02  0.44915968728E+02  0.70206290559E+02  0.00000000000E+00 0.  1.
</event>
<event>
 7    1  0.5137842E-006  0.1398220E+03  0.7561462E-02  0.1213569E+00
          1   -1    0    0  501    0  0.00000000000E+00  0.00000000000E+00  0.21150454115E+03  0.21150454115E+03  0.00000000000E+00 0. -1.
         -1   -1    0    0    0  501 -0.00000000000E+00 -0.00000000000E+00 -0.98764645434E+02  0.98764645434E+02  0.00000000000E+00 0.  1.
         23    2    1    2    0    0 -0.67110765376E+02  0.60727048063E+02  0.83409396443E+02  0.15310709529E+03  0.91066053045E+02 0.  0.
          5    1    1    2  502    0  0.16595408139E+01  0.36683478868E+02  0.78347612874E+01  0.37779459790E+02  0.41800000000E+01 0.  1.
         -5    1    1    2    0  502  0.65451224562E+02 -0.97410526931E+02  0.21495737987E+02  0.11938263151E+03  0.41800000000E+01 0.  1.
        -11    1    3    3    0    0 -0.38414341158E+01  0.61855890256E+02  0.24470331690E+02  0.66631110665E+02  0.00000000000E+00 0.  1.
         11    1    3    3    0    0 -0.63269331260E+02 -0.11288421933E+01  0.58939064753E+02  0.86475984624E+02  0.00000000000E+00 0. -1.
</event>
<event>
 7    1  0.5137842E-006  0.1619797E+03  0.7561462E-02  0.1186480E+00
         -1   -1    0    0    0  501 -0.00000000000E+00  0.00000000000E+00  0.54740787300E+03  0.54740787300E+03  0.00000000000E+00 0.  1.
          1   -1    0    0  501    0  0.00000000000E+00 -0.00000000000E+00 -0.58114241718E+02  0.58114241718E+02  0.00000000000E+00 0. -1.
         23    2    1    2    0    0  0.10527664818E+03 -0.62208746294E+02  0.11563471752E+03  0.19294523198E+03  0.94357691164E+02 0.  0.
          5    1    1    2  502    0 -0.13246037046E+03  0.46808490871E+02  0.33039772808E+03  0.35905001835E+03  0.41800000000E+01 0.  1.
         -5    1    1    2    0  502  0.27183722276E+02  0.15400255424E+02  0.43261185684E+02  0.53526864383E+02  0.41800000000E+01 0.  1.
        -11    1    3    3    0    0  0.47142031567E+02 -0.78452461257E+02  0.86445515396E+02  0.12589673129E+03  0.00000000000E+00 0.  1.
         11    1    3    3    0    0  0.58134616614E+02  0.16243714963E+02  0.29189202124E+02  0.67048500694E+02  0.00000000000E+00 0. -1.
</event>
<event>
 7    1  0.5137842E-006  0.1242383E+03  0.7561462E-02  0.1236264E+00
         -1   -1    0    0    0  501 -0.00000000000E+00  0.00000000000E+00  0.22947496838E+03  0.22947496838E+03  0.00000000000E+00 0.  1.
          1   -1    0    0  501    0  0.00000000000E+00 -0.00000000000E+00 -0.12808968060E+03  0.12808968060E+03  0.00000000000E+00 0. -1.
         23    2    1    2    0    0  0.10151779709E+03  0.25999066347E+02 -0.35741424664E+02  0.14442381578E+03  0.92730655934E+02 0.  0.
          5    1    1    2  502    0 -0.10421540793E+03 -0.24656027653E+02  0.15840095156E+03  0.19125141779E+03  0.41800000000E+01 0.  1.
         -5    1    1    2    0  502  0.26976108354E+01 -0.13430386947E+01 -0.21274239119E+02  0.21889415416E+02  0.41800000000E+01 0.  1.
        -11    1    3    3    0    0  0.65242787900E+02 -0.28081931755E+02 -0.35264459555E+02  0.79301944313E+02  0.00000000000E+00 0. -1.
         11    1    3    3    0    0  0.36275009194E+02  0.54080998103E+02 -0.47696510924E+00  0.65121871468E+02  0.00000000000E+00 0.  1.
</event>
<event>
 7    1  0.5137842E-006  0.1652681E+03  0.7561462E-02  0.1182874E+00
         -1   -1    0    0    0  501 -0.00000000000E+00  0.00000000000E+00  0.25382193633E+02  0.25382193633E+02  0.00000000000E+00 0.  1.
          1   -1    0    0  501    0  0.00000000000E+00 -0.00000000000E+00 -0.12108749133E+04  0.12108749133E+04  0.00000000000E+00 0. -1.
         23    2    1    2    0    0  0.70488670029E+02 -0.11211121476E+03 -0.68436676490E+03  0.70304802794E+03  0.91548258393E+02 0.  0.
          5    1    1    2  502    0 -0.11702588341E+02  0.11354613039E+03 -0.40165707032E+03  0.41758298438E+03  0.41800000000E+01 0. -1.
         -5    1    1    2    0  502 -0.58786081688E+02 -0.14349156287E+01 -0.99468884433E+02  0.11562609460E+03  0.41800000000E+01 0. -1.
        -11    1    3    3    0    0  0.13990913786E+02  0.13615463689E+02 -0.46027607503E+02  0.49996671614E+02  0.00000000000E+00 0.  1.
         11    1    3    3    0    0  0.56497756243E+02 -0.12572667845E+03 -0.63833915739E+03  0.65305135632E+03  0.00000000000E+00 0. -1.
</event>
<event>
 7    1  0.5137842E-006  0.1105327E+03  0.7561462E-02  0.1259587E+00
         -2   -1    0    0    0  501 -0.00000000000E+00  0.00000000000E+00  0.37892756117E+02  0.37892756117E+02  0.00000000000E+00 0. -1.
          2   -1    0    0  501    0  0.00000000000E+00 -0.00000000000E+00 -0.37309580172E+03  0.37309580172E+03  0.00000000000E+00 0.  1.
         23    2    1    2    0    0  0.21918670998E+02 -0.37461201774E+02 -0.18079779697E+03  0.20759369307E+03  0.92322956163E+02 0.  0.
          5    1    1    2  502    0 -0.72862773528E+02  0.29667230794E+02 -0.10959949036E+03  0.13497647586E+03  0.41800000000E+01 0.  1.
         -5    1    1    2    0  502  0.50944102530E+02  0.77939709803E+01 -0.44805758268E+02  0.68418388904E+02  0.41800000000E+01 0.  1.
        -11    1    3    3    0    0 -0.29913201966E+02 -0.80292203080E+01 -0.22035005328E+02  0.38010649697E+02  0.00000000000E+00 0. -1.
         11    1    3    3    0    0  0.51831872964E+02 -0.29431981466E+02 -0.15876279164E+03  0.16958304337E+03  0.00000000000E+00 0.  1.
</event>
<event>
 7    1  0.5137842E-006  0.1206226E+03  0.7561462E-02  0.1242073E+00
          2   -1    0    0  501    0  0.00000000000E+00  0.00000000000E+00  0.86586238973E+03  0.86586238973E+03  0.00000000000E+00 0. -1.
         -2   -1    0    0    0  501 -0.00000000000E+00 -0.00000000000E+00 -0.28414648502E+02  0.28414648502E+02  0.00000000000E+00 0.  1.
         23    2    1    2    0    0 -0.96284345293E+02  0.38462894451E+02  0.50957295129E+03  0.52835492903E+03  0.93510795858E+02 0.  0.
          5    1    1    2  502    0  0.84214992025E+02 -0.65172842111E+02  0.14114020089E+03  0.17685500541E+03  0.41800000000E+01 0. -1.
         -5    1    1    2    0  502  0.12069353268E+02  0.26709947659E+02  0.18673458904E+03  0.18906710379E+03  0.41800000000E+01 0. -1.
        -11    1    3    3    0    0 -0.85610031258E+02  0.39616463990E+02  0.50893070606E+03  0.51759927090E+03  0.00000000000E+00 0. -1.
         11    1    3    3    0    0 -0.10674314035E+02 -0.11535695388E+01  0.64224523557E+00  0.10755658126E+02  0.00000000000E+00 0.  1.
</event>
<event>
 7    1  0.5137842E-006  0.9093571E+02  0.7561462E-02  0.1300601E+00
         -1   -1    0    0    0  501 -0.00000000000E+00  0.00000000000E+00  0.56472149855E+02  0.56472149855E+02  0.00000000000E+00 0.  1.
          1   -1    0    0  501    0  0.00000000000E+00 -0.00000000000E+00 -0.20631625613E+03  0.20631625613E+03  0.00000000000E+00 0. -1.
         23    2    1    2    0    0  0.95098178162E+00  0.16218024097E+02 -0.10397847266E+03  0.14033122131E+03  0.92829953287E+02 0.  0.
          5    1    1    2  502    0 -0.34776691505E+01  0.39275866450E+02 -0.53111353068E+02  0.66279529968E+02  0.41800000000E+01 0. -1.
         -5    1    1    2    0  502  0.25266873689E+01 -0.55493890547E+02  0.72457194545E+01  0.56177654699E+02  0.41800000000E+01 0.  1.
        -11    1    3    3    0    0  0.36962643813E+02  0.30350871674E+02 -0.84314610655E+02  0.96934854510E+02  0.00000000000E+00 0. -1.
         11    1    3    3    0    0 -0.36011662032E+02 -0.14132847576E+02 -0.19663862004E+02  0.43396366804E+02  0.00000000000E+00 0.  1.
</event>
<event>
 7    1  0.5137842E-006  0.1221125E+03  0.7561462E-02  0.1239652E+00
          2   -1    0    0  501    0  0.00000000000E+00  0.00000000000E+00  0.54022115703E+03  0.54022115703E+03  0.00000000000E+00 0.  1.
         -2   -1    0    0    0  501 -0.00000000000E+00 -0.00000000000E+00 -0.42768974622E+02  0.42768974622E+02  0.00000000000E+00 0. -1.
         23    2    1    2    0    0  0.62358556349E+02 -0.78772310759E+02  0.20334151579E+03  0.24796408295E+03  0.10022348974E+03 0.  0.
          5    1    1    2  502    0 -0.80012689012E+00  0.14849693456E+02 -0.98680979524E+01  0.18330448876E+02  0.41800000000E+01 0.  1.
         -5    1    1    2    0  502 -0.61558429459E+02  0.63922617303E+02  0.30397876457E+03  0.31669559982E+03  0.41800000000E+01 0.  1.
        -11    1    3    3    0    0  0.69482811090E+02 -0.93048574964E+01  0.81249790823E+02  0.10731248725E+03  0.00000000000E+00 0. -1.
         11    1    3    3    0    0 -0.71242547409E+01 -0.69467453263E+02  0.12209172497E+03  0.14065159570E+03  0.00000000000E+00 0.  1.
</event>
<event>
 7    1  0.5137842E-006  0.2046028E+03  0.7561462E-02  0.1145913E+00
         -2   -1    0    0    0  501 -0.00000000000E+00  0.00000000000E+00  0.56302985713E+03  0.56302985713E+03  0.00000000000E+00 0.  1.
          2   -1    0    0  501    0  0.00000000000E+00 -0.00000000000E+00 -0.94625994924E+02  0.94625994924E+02  0.00000000000E+00 0. -1.
         23    2    1    2    0    0 -0.39310544314E+02 -0.18398409133E+03  0.11147757748E+03  0.23523528470E+03  0.86677125754E+02 0.  0.
          5    1    1    2  502    0  0.70438935570E+01 -0.16020980912E+02  0.98269647736E+01  0.20501948748E+02  0.41800000000E+01 0.  1.
         -5    1    1    2    0  502  0.32266650757E+02  0.20000507224E+03  0.34709931995E+03  0.40191861861E+03  0.41800000000E+01 0.  1.
        -11    1    3    3    0    0 -0.23157594294E+02 -0.13575074120E+03  0.32828386221E+02  0.14157062143E+03  0.00000000000E+00 0. -1.
         11    1    3    3    0    0 -0.16152950020E+02 -0.48233350128E+02  0.78649191263E+02  0.93664663269E+02  0.00000000000E+00 0.  1.
</event>
<event>
 7    1  0.5137842E-006  0.1195470E+03  0.7561462E-02  0.1243846E+00
         -1   -1    0    0    0  501 -0.00000000000E+00  0.00000000000E+00  0.13799472645E+03  0.13799472645E+03  0.00000000000E+00 0.  1.
          1   -1    0    0  501    0  0.00000000000E+00 -0.00000000000E+00 -0.13477728878E+03  0.13477728878E+03  0.00000000000E+00 0. -1.
         23    2    1    2    0    0 -0.28249554136E+02 -0.79294061180E+02  0.45288478803E+01  0.12197105801E+03  0.88152385572E+02 0.  0.
          5    1    1    2  502    0  0.53032067763E+02  0.17317703779E+02  0.43012473423E+02  0.70568040538E+02  0.41800000000E+01 0. -1.
         -5    1    1    2    0  502 -0.24782513627E+02  0.61976357401E+02 -0.44323883638E+02  0.80232916681E+02  0.41800000000E+01 0. -1.
        -11    1    3    3    0    0 -0.53960159696E+02 -0.32814268584E+02 -0.15793509983E+02  0.65099232059E+02  0.00000000000E+00 0. -1.
         11    1    3    3    0    0  0.25710605560E+02 -0.46479792596E+02  0.20322357864E+02  0.56871825952E+02  0.00000000000E+00 0.  1.
</event>
<event>
 7    1  0.5137842E-006  0.1242386E+03  0.7561462E-02  0.1236264E+00
          1   -1    0    0  501    0  0.00000000000E+00  0.00000000000E+00  0.10088822454E+04  0.10088822454E+04  0.00000000000E+00 0. -1.
         -1   -1    0    0    0  501 -0.00000000000E+00 -0.00000000000E+00 -0.20444848579E+02  0.20444848579E+02  0.00000000000E+00 0.  1.
         23    2    1    2    0    0 -0.27568962699E+02  0.89999630515E+02  0.42016293149E+03  0.43988343213E+03  0.90003131418E+02 0.  0.
          5    1    1    2  502    0 -0.19233565239E+01 -0.91606772663E+02  0.54195588458E+03  0.54966276327E+03  0.41800000000E+01 0.  1.
         -5    1    1    2    0  502  0.29492319223E+02  0.16071421478E+01  0.26318580757E+02  0.39780898584E+02  0.41800000000E+01 0.  1.
        -11    1    3    3    0    0 -0.44814347116E+02  0.98115015238E+02  0.38572663040E+03  0.40052455021E+03  0.00000000000E+00 0. -1.
         11    1    3    3    0    0  0.17245384417E+02 -0.81153847228E+01  0.34436301088E+02  0.39358881914E+02  0.00000000000E+00 0.  1.
</event>
<event>
 7    1  0.5137842E-006  0.9328275E+02  0.7561462E-02  0.1295091E+00
          3   -1    0    0  501    0  0.00000000000E+00  0.00000000000E+00  0.33178781754E+03  0.33178781754E+03  0.00000000000E+00 0. -1.
         -3   -1    0    0    0  501 -0.00000000000E+00 -0.00000000000E+00 -0.36070104094E+02  0.36070104094E+02  0.00000000000E+00 0.  1.
         23    2    1    2    0    0  0.10124069628E+02  0.13681821706E+02  0.13020316316E+03  0.15969371959E+03  0.90881963817E+02 0.  0.
          5    1    1    2  502    0 -0.39705446803E+02 -0.50892986030E+02  0.45709538247E+02  0.79205131271E+02  0.41800000000E+01 0.  1.
         -5    1    1    2    0  502  0.29581377176E+02  0.37211164324E+02  0.11980501204E+03  0.12895907078E+03  0.41800000000E+01 0.  1.
        -11    1    3    3    0    0  0.23194781595E+02  0.39166762129E+02  0.12151901256E+03  0.12976480094E+03  0.00000000000E+00 0. -1.
         11    1    3    3    0    0 -0.13070711967E+02 -0.25484940422E+02  0.86841505968E+01  0.29928918645E+02  0.00000000000E+00 0.  1.
</event>
<event>
 7    1  0.5137842E-006  0.8204768E+02  0.7561462E-02  0.1323339E+00
          1   -1    0    0  501    0  0.00000000000E+00  0.00000000000E+00  0.22724739646E+03  0.22724739646E+03  0.00000000000E+00 0. -1.
         -1   -1    0    0    0  501 -0.00000000000E+00 -0.00000000000E+00 -0.63393095214E+02  0.63393095214E+02  0.00000000000E+00 0.  1.
         23    2    1    2    0    0 -0.68538064396E+01  0.40870656613E+02  0.10848163044E+03  0.14770400952E+03  0.91273353447E+02 0.  0.
          5    1    1    2  502    0  0.25766584133E+02  0.34423530542E+02 -0.63541015449E+01  0.43666272102E+02  0.41800000000E+01 0. -1.
         -5    1    1    2    0  502 -0.18912777693E+02 -0.75294187156E+02  0.61726772347E+02  0.99270210053E+02  0.41800000000E+01 0. -1.
        -11    1    3    3    0    0  0.13464226516E+01  0.27010170700E+02  0.12305062241E+03  0.12598737179E+03  0.00000000000E+00 0. -1.
         11    1    3    3    0    0 -0.82002290911E+01  0.13860485913E+02 -0.14568991972E+02  0.21716637723E+02  0.00000000000E+00 0.  1.
</event>
<event>
 7    1  0.5137842E-006  0.9657316E+02  0.7561462E-02  0.1287672E+00
         -1   -1    0    0    0  501 -0.00000000000E+00  0.00000000000E+00  0.94503725880E+02  0.94503725880E+02  0.00000000000E+00 0.  1.
          1   -1    0    0  501    0  0.00000000000E+00 -0.00000000000E+00 -0.25886454013E+03  0.25886454013E+03  0.00000000000E+00 0. -1.
         23    2    1    2    0    0  0.25069173647E+02 -0.48743628871E+02 -0.18557302101E+03  0.21516054488E+03  0.94086710675E+02 0.  0.
          5    1    1    2  502    0 -0.16382609476E+02 -0.13424546265E+02 -0.43123059097E+02  0.48225293795E+02  0.41800000000E+01 0.  1.
         -5    1    1    2    0  502 -0.86865641709E+01  0.62168175136E+02  0.64335265851E+02  0.89982427335E+02  0.41800000000E+01 0.  1.
        -11    1    3    3    0    0 -0.27964985902E+02 -0.48064381174E+02 -0.10214108834E+03  0.11629715001E+03  0.00000000000E+00 0. -1.
         11    1    3    3    0    0  0.53034159548E+02 -0.67924769740E+00 -0.83431932670E+02  0.98863394871E+02  0.00000000000E+00 0.  1.
</event>
<event>
 7    1  0.5137842E-006  0.8955310E+02  0.7561462E-02  0.1303938E+00
         -2   -1    0    0    0  501 -0.00000000000E+00  0.00000000000E+00  0.52259675950E+02  0.52259675950E+02  0.00000000000E+00 0.  1.
          2   -1    0    0  501    0  0.00000000000E+00 -0.00000000000E+00 -0.20590905930E+03  0.20590905930E+03  0.00000000000E+00 0. -1.
         23    2    1    2    0    0 -0.21127071367E+02 -0.27810731676E+01 -0.73983837273E+02  0.11919958916E+03  0.90999155855E+02 0.  0.
          5    1    1    2  502    0 -0.10321062931E+02  0.40396273140E+02  0.38034719193E+01  0.42075194857E+02  0.41800000000E+01 0. -1.
         -5    1    1    2    0  502  0.31448134298E+02 -0.37615199972E+02 -0.83469017996E+02  0.96893951230E+02  0.41800000000E+01 0.  1.
        -11    1    3    3    0    0  0.33325239913E+02  0.16313205309E+01 -0.95124545503E+01  0.34694662608E+02  0.00000000000E+00 0.  1.
         11    1    3    3    0    0 -0.54452311279E+02 -0.44123936985E+01 -0.64471382722E+02  0.84504926554E+02  0.00000000000E+00 0. -1.
</event>
<event>
 7    1  0.5137842E-006  0.1075355E+03  0.7561462E-02  0.1265203E+00
          2   -1    0    0  501    0  0.00000000000E+00  0.00000000000E+00  0.82740701273E+03  0.82740701273E+03  0.00000000000E+00 0.  1.
         -2   -1    0    0    0  501 -0.00000000000E+00 -0.00000000000E+00 -0.26098689708E+02  0.26098689708E+02  0.00000000000E+00 0. -1.
         23    2    1    2    0    0  0.97727287141E+02 -0.13950306079E+02  0.35018516736E+03  0.37506524997E+03  0.91099158080E+02 0.  0.
          5    1    1    2  502    0 -0.91265107125E+02  0.20657504362E+01  0.45473635704E+03  0.46382778476E+03  0.41800000000E+01 0. -1.
         -5    1    1    2    0  502 -0.64621800167E+01  0.11884555643E+02 -0.36132013769E+01  0.14612667710E+02  0.41800000000E+01 0. -1.
        -11    1    3    3    0    0  0.41771546146E+02  0.17557279864E+02  0.47510682394E+02  0.65653523022E+02  0.00000000000E+00 0. -1.
         11    1    3    3    0    0  0.55955740995E+02 -0.31507585943E+02  0.30267448497E+03  0.30941172695E+03  0.00000000000E+00 0.  1.
</event>
<event>
 7    1  0.5137842E-006  0.9565298E+02  0.7561462E-02  0.1289712E+00
          2   -1    0    0  501    0  0.00000000000E+00  0.00000000000E+00  0.82945810949E+03  0.82945810949E+03  0.00000000000E+00 0.  1.
         -2   -1    0    0    0  501 -0.00000000000E+00 -0.00000000000E+00 -0.21923201391E+02  0.21923201391E+02  0.00000000000E+00 0. -1.
         23    2    1    2    0    0  0.44544772987E+02 -0.34526325712E+02  0.53914201830E+03  0.54995429976E+03  0.92732475199E+02 0.  0.
          5    1    1    2  502    0 -0.22314079103E+02 -0.16224761089E+02  0.57914962544E+00  0.27910012771E+02  0.41800000000E+01 0.  1.
         -5    1    1    2    0  502 -0.22230693884E+02  0.50751086800E+02  0.26781374018E+03  0.27351699835E+03  0.41800000000E+01 0.  1.
        -11    1    3    3    0    0  0.30373869906E+02 -0.66366438123E+02  0.33499335120E+03  0.34285218598E+03  0.00000000000E+00 0. -1.
         11    1    3    3    0    0  0.14170903081E+02  0.31840112412E+02  0.20414866710E+03  0.20710211378E+03  0.00000000000E+00 0.  1.
</event>
<event>
 7    1  0.5137842E-006  0.2107833E+03  0.7561462E-02  0.1140947E+00
          1   -1    0    0  501    0  0.00000000000E+00  0.00000000000E+00  0.57010713317E+03  0.57010713317E+03  0.00000000000E+00 0. -1.
         -1   -1    0    0    0  501 -0.00000000000E+00 -0.00000000000E+00 -0.84981079583E+02  0.84981079583E+02  0.00000000000E+00 0.  1.
         23    2    1    2    0    0 -0.14419212196E+03  0.12084924873E+03  0.27717278430E+03  0.34802298549E+03  0.94336297980E+02 0.  0.
          5    1    1    2  502    0  0.95678999807E+02 -0.13147859526E+03  0.19799042020E+03  0.25623967473E+03  0.41800000000E+01 0. -1.
         -5    1    1    2    0  502  0.48513122149E+02  0.10629346532E+02  0.99628490777E+01  0.50825552531E+02  0.41800000000E+01 0. -1.
        -11    1    3    3    0    0 -0.28869674824E+02 -0.13617855046E+02  0.58087140311E+02  0.66279860969E+02  0.00000000000E+00 0.  1.
         11    1    3    3    0    0 -0.11532244713E+03  0.13446710377E+03  0.21908564399E+03  0.28174312452E+03  0.00000000000E+00 0. -1.
</event>
<event>
 7    1  0.5137842E-006  0.1081019E+03  0.7561462E-02  0.1264126E+00
         -1   -1    0    0    0  501 -0.00000000000E+00  0.00000000000E+00  0.13116518431E+03  0.13116518431E+03  0.00000000000E+00 0.  1.
          1   -1    0    0  501    0  0.00000000000E+00 -0.00000000000E+00 -0.19584612571E+03  0.19584612571E+03  0.00000000000E+00 0. -1.
         23    2    1    2    0    0  0.16779907474E+02 -0.32842597359E+02 -0.14799879057E+03  0.17679394099E+03  0.89399407532E+02 0.  0.
          5    1    1    2  502    0 -0.67347868413E+02  0.30803795060E+02  0.47678601266E+02  0.88177835019E+02  0.41800000000E+01 0. -1.
         -5    1    1    2    0  502  0.50567960939E+02  0.20388022998E+01  0.35639247902E+02  0.62039534004E+02  0.41800000000E+01 0.  1.
        -11    1    3    3    0    0  0.49031632909E+02 -0.62168851465E+01 -0.50292220932E+02  0.70512822756E+02  0.00000000000E+00 0.  1.
         11    1    3    3    0    0 -0.32251725435E+02 -0.26625712213E+02 -0.97706569635E+02  0.10628111824E+03  0.00000000000E+00 0. -1.
</event>
<event>
 7    1  0.5137842E-006  0.9947340E+02  0.7561462E-02  0.1281407E+00
         -2   -1    0    0    0  501 -0.00000000000E+00  0.00000000000E+00  0.69342837584E+02  0.69342837584E+02  0.00000000000E+00 0.  1.
          2   -1    0    0  501    0  0.00000000000E+00 -0.00000000000E+00 -0.21532885086E+03  0.21532885086E+03  0.00000000000E+00 0. -1.
         23    2    1    2    0    0 -0.10371738293E+02  0.28879340535E+02 -0.13264521486E+03  0.16404350545E+03  0.91509176527E+02 0.  0.
          5    1    1    2  502    0  0.52229151581E+02  0.53290377099E+01  0.20722536973E+02  0.56596632907E+02  0.41800000000E+01 0.  1.
         -5    1    1    2    0  502 -0.41857413288E+02 -0.34208378245E+02 -0.34063335385E+02  0.64031550089E+02  0.41800000000E+01 0. -1.
        -11    1    3    3    0    0 -0.48888235668E+02  0.16822505412E+02 -0.49293273119E+02  0.71434466820E+02  0.00000000000E+00 0. -1.
         11    1    3    3    0    0  0.38516497375E+02  0.12056835123E+02 -0.83351941743E+02  0.92609038628E+02  0.00000000000E+00 0.  1.
</event>
<event>
 7    1  0.5137842E-006  0.7599811E+02  0.7561462E-02  0.1340808E+00
          4   -1    0    0  501    0  0.00000000000E+00  0.00000000000E+00  0.41294488920E+02  0.41294488920E+02  0.00000000000E+00 0. -1.
         -4   -1    0    0    0  501 -0.00000000000E+00 -0.00000000000E+00 -0.39188018058E+03  0.39188018058E+03  0.00000000000E+00 0.  1.
         23    2    1    2    0    0  0.42166469229E+02 -0.10381773433E+02 -0.68409921198E+02  0.12147544447E+03  0.90501789731E+02 0.  0.
          5    1    1    2  502    0 -0.43052472684E+02  0.36015177046E+02 -0.42271289921E+02  0.70391354110E+02  0.41800000000E+01 0.  1.
         -5    1    1    2    0  502  0.88600345548E+00 -0.25633403613E+02 -0.23990448054E+03  0.24130787092E+03  0.41800000000E+01 0.  1.
        -11    1    3    3    0    0 -0.99957183844E+01  0.96056162534E+01  0.15422212262E+02  0.20737089494E+02  0.00000000000E+00 0. -1.
         11    1    3    3    0    0  0.52162187613E+02 -0.19987389687E+02 -0.83832133461E+02  0.10073835498E+03  0.00000000000E+00 0.  1.
</event>
<event>
 7    1  0.5137842E-006  0.2930729E+03  0.7561462E-02  0.1088756E+00
          2   -1    0    0  501    0  0.00000000000E+00  0.00000000000E+00  0.94496740899E+03  0.94496740899E+03  0.00000000000E+00 0. -1.
         -2   -1    0    0    0  501 -0.00000000000E+00 -0.00000000000E+00 -0.13026360292E+03  0.13026360292E+03  0.00000000000E+00 0.  1.
         23    2    1    2    0    0 -0.32979301939E+02 -0.28863989200E+03  0.65247942958E+03  0.71975280083E+03  0.88961040173E+02 0.  0.
          5    1    1    2  502    0 -0.34007241446E+01  0.14098198185E+03  0.14510537460E+03  0.20238707041E+03  0.41800000000E+01 0.  1.
         -5    1    1    2    0  502  0.36380026083E+02  0.14765791015E+03  0.17119001898E+02  0.15309114068E+03  0.41800000000E+01 0.  1.
        -11    1    3    3    0    0  0.50682019530E+00 -0.16006737097E+03  0.25924434126E+03  0.30467925527E+03  0.00000000000E+00 0.  1.
         11    1    3    3    0    0 -0.33486122134E+02 -0.12857252103E+03  0.39323508832E+03  0.41507354556E+03  0.00000000000E+00 0. -1.
</event>
<event>
 7    1  0.5137842E-006  0.2203751E+03  0.7561462E-02  0.1133604E+00
         -1   -1    0    0    0  501 -0.00000000000E+00  0.00000000000E+00  0.35915779204E+03  0.35915779204E+03  0.00000000000E+00 0.  1.
          1   -1    0    0  501    0  0.00000000000E+00 -0.00000000000E+00 -0.17382235045E+03  0.17382235045E+03  0.00000000000E+00 0. -1.
         23    2    1    2    0    0  0.74932390451E+02  0.20366050799E+03  0.28002039642E+02  0.23718586680E+03  0.91545374158E+02 0.  0.
          5    1    1    2  502    0  0.18301269142E+01 -0.62255056465E+02 -0.10452840420E+02  0.63291197594E+02  0.41800000000E+01 0.  1.
         -5    1    1    2    0  502 -0.76762517365E+02 -0.14140545153E+03  0.16778624237E+03  0.23250307809E+03  0.41800000000E+01 0.  1.
        -11    1    3    3    0    0  0.72252816112E+02  0.18647933715E+03  0.52854495382E+02  0.20685407974E+03  0.00000000000E+00 0.  1.
         11    1    3    3    0    0  0.26795743392E+01  0.17181170839E+02 -0.24852455740E+02  0.30331787062E+02  0.00000000000E+00 0. -1.
</event>
<event>
 7    1  0.5137842E-006  0.9052868E+02  0.7561462E-02  0.1301576E+00
         -2   -1    0    0    0  501 -0.00000000000E+00  0.00000000000E+00  0.42973616847E+02  0.42973616847E+02  0.00000000000E+00 0.  1.
          2   -1    0    0  501    0  0.00000000000E+00 -0.00000000000E+00 -0.45258762108E+03  0.45258762108E+03  0.00000000000E+00 0. -1.
         23    2    1    2    0    0  0.52053809776E+02  0.45912450728E+02 -0.28105801875E+03  0.30323043291E+03  0.90208277314E+02 0.  0.
          5    1    1    2  502    0 -0.27093426422E+02 -0.45709900043E+02  0.76028334478E+01  0.53839801204E+02  0.41800000000E+01 0.  1.
         -5    1    1    2    0  502 -0.24960383354E+02 -0.20255068543E+00 -0.13615881893E+03  0.13849100381E+03  0.41800000000E+01 0.  1.
        -11    1    3    3    0    0  0.21004308603E+02  0.63416704400E+02 -0.11162177942E+03  0.13008566800E+03  0.00000000000E+00 0.  1.
         11    1    3    3    0    0  0.31049501173E+02 -0.17504253672E+02 -0.16943623933E+03  0.17314476492E+03  0.00000000000E+00 0. -1.
</event>
<event>
 7    1  0.5137842E-006  0.1097364E+03  0.7561462E-02  0.1261059E+00
         -1   -1    0    0    0  501 -0.00000000000E+00  0.00000000000E+00  0.23877300440E+03  0.23877300440E+03  0.00000000000E+00 0.  1.
          1   -1    0    0  501    0  0.00000000000E+00 -0.00000000000E+00 -0.65228902128E+02  0.65228902128E+02  0.00000000000E+00 0. -1.
         23    2    1    2    0    0 -0.46248644194E+02  0.21816835741E+01  0.26104499594E+02  0.10518260998E+03  0.90764749271E+02 0.  0.
          5    1    1    2  502    0 -0.35321170268E+02 -0.30481527395E+02  0.55505735227E+02  0.72629660776E+02  0.41800000000E+01 0. -1.
         -5    1    1    2    0  502  0.81569814462E+02  0.28299843820E+02  0.91933867452E+02  0.12618963577E+03  0.41800000000E+01 0. -1.
        -11    1    3    3    0    0 -0.46103670310E+01 -0.31992759114E+02  0.38132922163E+02  0.49989117541E+02  0.00000000000E+00 0.  1.
         11    1    3    3    0    0 -0.41638277163E+02  0.34174442688E+02 -0.12028422569E+02  0.55193492439E+02  0.00000000000E+00 0. -1.
</event>
<event>
 6    1  0.5137842E-006  0.1797510E+03  0.7561462E-02  0.1168044E+00
         -1   -1    0    0    0  501 -0.00000000000E+00  0.00000000000E+00  0.38704139503E+02  0.38704139503E+02  0.00000000000E+00 0.  1.
          1   -1    0    0  501    0  0.00000000000E+00 -0.00000000000E+00 -0.10640648671E+04  0.10640648671E+04  0.00000000000E+00 0. -1.
          5    1    1    2  502    0 -0.13269909930E+03  0.20755841037E+02 -0.56317306304E+03  0.57898292481E+03  0.41800000000E+01 0. -1.
         -5    1    1    2    0  502  0.15017911722E+03 -0.75011796016E+02 -0.23211234836E+03  0.28648586606E+03  0.41800000000E+01 0.  1.
        -11    1    1    2    0    0 -0.67546633558E+01  0.14041834563E+02 -0.82974307125E+02  0.84424725276E+02  0.00000000000E+00 0. -1.
         11    1    1    2    0    0 -0.10725354559E+02  0.40214120416E+02 -0.14710100903E+03  0.15287549041E+03  0.00000000000E+00 0.  1.
</event>
<event>
 7    1  0.5137842E-006  0.1086079E+03  0.7561462E-02  0.1263170E+00
          2   -1    0    0  501    0  0.00000000000E+00  0.00000000000E+00  0.16992770625E+03  0.16992770625E+03  0.00000000000E+00 0.  1.
         -2   -1    0    0    0  501 -0.00000000000E+00 -0.00000000000E+00 -0.80627146615E+02  0.80627146615E+02  0.00000000000E+00 0. -1.
         23    2    1    2    0    0  0.30408131367E+02  0.32646475801E+01  0.73197394193E+02  0.12077106587E+03  0.91063052096E+02 0.  0.
          5    1    1    2  502    0  0.44771520977E+02 -0.12875228304E+02 -0.12908722663E+02  0.48521831326E+02  0.41800000000E+01 0.  1.
         -5    1    1    2    0  502 -0.75179652344E+02  0.96105807244E+01  0.29011888108E+02  0.81261955674E+02  0.41800000000E+01 0.  1.
        -11    1    3    3    0    0  0.12413665637E+02  0.46276062057E+02  0.47799336672E+02  0.67678280123E+02  0.00000000000E+00 0.  1.
         11    1    3    3    0    0  0.17994465730E+02 -0.43011414477E+02  0.25398057520E+02  0.53092785744E+02  0.00000000000E+00 0. -1.
</event>
<event>
 7    1  0.5137842E-006  0.1028739E+03  0.7561462E-02  0.1274366E+00
         -2   -1    0    0    0  501 -0.00000000000E+00  0.00000000000E+00  0.18425834552E+03  0.18425834552E+03  0.00000000000E+00 0. -1.
          2   -1    0    0  501    0  0.00000000000E+00 -0.00000000000E+00 -0.81657069842E+02  0.81657069842E+02  0.00000000000E+00 0.  1.
         23    2    1    2    0    0  0.24408634310E+02 -0.93521023240E+00 -0.11017528635E+02  0.95175819448E+02  0.91325761006E+02 0.  0.
          5    1    1    2  502    0 -0.64921467541E+02  0.21588578729E+02  0.10321867205E+03  0.12390492459E+03  0.41800000000E+01 0. -1.
         -5    1    1    2    0  502  0.40512833231E+02 -0.20653368497E+02  0.10400132269E+02  0.46834671323E+02  0.41800000000E+01 0. -1.
        -11    1    3    3    0    0 -0.25745844914E+02 -0.25019804259E+02 -0.16022457902E+02  0.39313589161E+02  0.00000000000E+00 0. -1.
         11    1    3    3    0    0  0.50154479224E+02  0.24084594027E+02  0.50049292668E+01  0.55862230287E+02  0.00000000000E+00 0.  1.
</event>
<event>
 7    1  0.5137842E-006  0.1110270E+03  0.7561462E-02  0.1258680E+00
          1   -1    0    0  501    0  0.00000000000E+00  0.00000000000E+00  0.42265377002E+03  0.42265377002E+03  0.00000000000E+00 0. -1.
         -1   -1    0    0    0  501 -0.00000000000E+00 -0.00000000000E+00 -0.52833393767E+02  0.52833393767E+02  0.00000000000E+00 0.  1.
         23    2    1    2    0    0 -0.12217517026E+02  0.90725213841E+02  0.23855618380E+03  0.27236854514E+03  0.94314576826E+02 0.  0.
          5    1    1    2  502    0  0.21214083657E+02 -0.74076854767E+02  0.15459747723E+03  0.17278677647E+03  0.41800000000E+01 0.  1.
         -5    1    1    2    0  502 -0.89965666305E+01 -0.16648359074E+02 -0.23333284782E+02  0.30331842175E+02  0.41800000000E+01 0.  1.
        -11    1    3    3    0    0  0.24631965873E+02 -0.29841202038E+01  0.20498430789E+02  0.32184225654E+02  0.00000000000E+00 0.  1.
         11    1    3    3    0    0 -0.36849482899E+02  0.93709334044E+02  0.21805775301E+03  0.24018431948E+03  0.00000000000E+00 0. -1.
</event>
<event>
 7    1  0.5137842E-006  0.1680164E+03  0.7561462E-02  0.1179932E+00
         -2   -1    0    0    0  501 -0.00000000000E+00  0.00000000000E+00  0.45376778715E+03  0.45376778715E+03  0.00000000000E+00 0.  1.
          2   -1    0    0  501    0  0.00000000000E+00 -0.00000000000E+00 -0.85472336460E+02  0.85472336460E+02  0.00000000000E+00 0. -1.
         23    2    1    2    0    0 -0.78747216913E+02 -0.13133000619E+03  0.95345024381E+02  0.20219566547E+03  0.91343958556E+02 0.  0.
          5    1    1    2  502    0 -0.21663007788E+02  0.45408539872E+02  0.25673829978E+02  0.56637790789E+02  0.41800000000E+01 0. -1.
         -5    1    1    2    0  502  0.10041022470E+03  0.85921466320E+02  0.24727659633E+03  0.28040666735E+03  0.41800000000E+01 0. -1.
        -11    1    3    3    0    0 -0.39194497730E+02 -0.57817298252E+02 -0.69124632267E+01  0.70191386775E+02  0.00000000000E+00 0. -1.
         11    1    3    3    0    0 -0.39552719183E+02 -0.73512707940E+02  0.10225748761E+03  0.13200427870E+03  0.00000000000E+00 0.  1.
</event>
<event>
 7    1  0.5137842E-006  0.1213186E+03  0.7561462E-02  0.1240937E+00
         -2   -1    0    0    0  501 -0.00000000000E+00  0.00000000000E+00  0.52485609994E+02  0.52485609994E+02  0.00000000000E+00 0.  1.
          2   -1    0    0  501    0  0.00000000000E+00 -0.00000000000E+00 -0.49111834538E+03  0.49111834538E+03  0.00000000000E+00 0. -1.
         23    2    1    2    0    0 -0.70884838834E+02 -0.38663871272E+02 -0.34869269543E+03  0.36966090148E+03  0.92428517912E+02 0.  0.
          5    1    1    2  502    0  0.30877461085E+02  0.68185663623E+02 -0.46272244427E+01  0.75110491497E+02  0.41800000000E+01 0.  1.
         -5    1    1    2    0  502  0.40007377749E+02 -0.29521792352E+02 -0.85312815514E+02  0.98832562392E+02  0.41800000000E+01 0.  1.
        -11    1    3    3    0    0  0.19186998171E+02 -0.15774183850E+02 -0.38260628230E+02  0.45616241049E+02  0.00000000000E+00 0. -1.
         11    1    3    3    0    0 -0.90071837005E+02 -0.22889687422E+02 -0.31043206720E+03  0.32404466043E+03  0.00000000000E+00 0.  1.
</event>
<event>
 7    1  0.5137842E-006  0.2179640E+03  0.7561462E-02  0.1135410E+00
         -1   -1    0    0    0  501 -0.00000000000E+00  0.00000000000E+00  0.84289426926E+02  0.84289426926E+02  0.00000000000E+00 0.  1.
          1   -1    0    0  501    0  0.00000000000E+00 -0.00000000000E+00 -0.58923287257E+03  0.58923287257E+03  0.00000000000E+00 0. -1.
         23    2    1    2    0    0 -0.49971127751E+02 -0.18336857349E+03 -0.30330250009E+03  0.36950333593E+03  0.91755988116E+02 0.  0.
          5    1    1    2  502    0  0.90073168715E+02  0.11893181699E+03 -0.11268977613E+03  0.18701446698E+03  0.41800000000E+01 0. -1.
         -5    1    1    2    0  502 -0.40102040964E+02  0.64436756497E+02 -0.88951169426E+02  0.11700449658E+03  0.41800000000E+01 0. -1.
        -11    1    3    3    0    0 -0.72875144316E+02 -0.16788756979E+03 -0.25561378520E+03  0.31438102668E+03  0.00000000000E+00 0.  1.
         11    1    3    3    0    0  0.22904016565E+02 -0.15481003696E+02 -0.47688714889E+02  0.55122309258E+02  0.00000000000E+00 0. -1.
</event>
<event>
 7    1  0.5137842E-006  0.1180905E+03  0.7561462E-02  0.1246281E+00
          2   -1    0    0  501    0  0.00000000000E+00  0.00000000000E+00  0.28393760589E+03  0.28393760589E+03  0.00000000000E+00 0.  1.
         -2   -1    0    0    0  501 -0.00000000000E+00 -0.00000000000E+00 -0.63618822720E+02  0.63618822720E+02  0.00000000000E+00 0. -1.
         23    2    1    2    0    0  0.50719355627E+02  0.23574146447E+02  0.17314509959E+03  0.20263766772E+03  0.89188594851E+02 0.  0.
          5    1    1    2  502    0  0.87583121368E+01  0.45069417991E+02  0.16035337260E+02  0.48811524362E+02  0.41800000000E+01 0. -1.
         -5    1    1    2    0  502 -0.59477667764E+02 -0.68643564438E+02  0.31138346321E+02  0.96107236528E+02  0.41800000000E+01 0. -1.
        -11    1    3    3    0    0  0.72397818938E+02  0.88212529477E+01  0.92246423859E+02  0.11759532901E+03  0.00000000000E+00 0. -1.
         11    1    3    3    0    0 -0.21678463311E+02  0.14752893500E+02  0.80898675735E+02  0.85042338713E+02  0.00000000000E+00 0.  1.
</event>
<event>
 7    1  0.5137842E-006  0.1091512E+03  0.7561462E-02  0.1262150E+00
         -1   -1    0    0    0  501 -0.00000000000E+00  0.00000000000E+00  0.14288608920E+02  0.14288608920E+02  0.00000000000E+00 0.  1.
          1   -1    0    0  501    0  0.00000000000E+00 -0.00000000000E+00 -0.14917796585E+04  0.14917796585E+04  0.00000000000E+00 0. -1.
         23    2    1    2    0    0 -0.59150317735E+02 -0.72170381162E+02 -0.57100013016E+03  0.58624137560E+03  0.94501205431E+02 0.  0.
          5    1    1    2  502    0  0.26862164793E+02  0.50898776537E+02 -0.84566121224E+03  0.84762764209E+03  0.41800000000E+01 0. -1.
         -5    1    1    2    0  502  0.32288152942E+02  0.21271604625E+02 -0.60829707146E+02  0.72199249686E+02  0.41800000000E+01 0. -1.
        -11    1    3    3    0    0 -0.26469568132E+02  0.13717335182E+02 -0.59491107416E+02  0.66543182845E+02  0.00000000000E+00 0.  1.
         11    1    3    3    0    0 -0.32680749603E+02 -0.85887716344E+02 -0.51150902274E+03  0.51969819276E+03  0.00000000000E+00 0. -1.
</event>
<event>
 6    1  0.5137842E-006  0.6786728E+02  0.7561462E-02  0.1367499E+00
          2   -1    0    0  501    0  0.00000000000E+00  0.00000000000E+00  0.64279588821E+02  0.64279588821E+02  0.00000000000E+00 0. -1.
         -2   -1    0    0    0  501 -0.00000000000E+00 -0.00000000000E+00 -0.16110978699E+03  0.16110978699E+03  0.00000000000E+00 0.  1.
          5    1    1    2  502    0  0.28012652098E+02 -0.45376494570E+01  0.14487858523E+02  0.32135173638E+02  0.41800000000E+01 0.  1.
         -5    1    1    2    0  502 -0.60286502327E+02  0.20697382279E+01 -0.12119356654E+03  0.13544038965E+03  0.41800000000E+01 0.  1.
        -11    1    1    2    0    0  0.25916642897E+02  0.16813494677E+02  0.22048976443E+02  0.37954226965E+02  0.00000000000E+00 0. -1.
         11    1    1    2    0    0  0.63572073318E+01 -0.14345583448E+02 -0.12173466599E+02  0.19859585559E+02  0.00000000000E+00 0.  1.
</event>
<event>
 7    1  0.5137842E-006  0.9922855E+02  0.7561462E-02  0.1281927E+00
         -3   -1    0    0    0  501 -0.00000000000E+00  0.00000000000E+00  0.22957589642E+03  0.22957589642E+03  0.00000000000E+00 0.  1.
          3   -1    0    0  501    0  0.00000000000E+00 -0.00000000000E+00 -0.78419485168E+02  0.78419485168E+02  0.00000000000E+00 0. -1.
         23    2    1    2    0    0  0.32912600466E+02 -0.76547556690E+02  0.72956148482E+02  0.13857170752E+03  0.83287158786E+02 0.  0.
          5    1    1    2  502    0  0.74351511814E+01  0.29659700673E+02  0.99258713215E+02  0.10394586988E+03  0.41800000000E+01 0.  1.
         -5    1    1    2    0  502 -0.40347751648E+02  0.46887856017E+02 -0.21058450449E+02  0.65477804180E+02  0.41800000000E+01 0.  1.
        -11    1    3    3    0    0  0.55582872141E+01 -0.78005316277E+02  0.78297537008E+02  0.11066267766E+03  0.00000000000E+00 0.  1.
         11    1    3    3    0    0  0.27354313252E+02  0.14577595875E+01 -0.53413885264E+01  0.27909029863E+02  0.00000000000E+00 0. -1.
</event>
<event>
 7    1  0.5137842E-006  0.1223642E+03  0.7561462E-02  0.1239247E+00
          2   -1    0    0  501    0  0.00000000000E+00  0.00000000000E+00  0.61495097349E+03  0.61495097349E+03  0.00000000000E+00 0.  1.
         -2   -1    0    0    0  501 -0.00000000000E+00 -0.00000000000E+00 -0.37247807897E+02  0.37247807897E+02  0.00000000000E+00 0. -1.
         23    2    1    2    0    0 -0.33884775958E+02 -0.84369635476E+02  0.37857712679E+03  0.40007602787E+03  0.92053102724E+02 0.  0.
          5    1    1    2  502    0 -0.19569528952E+02  0.70621738421E+02  0.17858637826E+03  0.19308278872E+03  0.41800000000E+01 0.  1.
         -5    1    1    2    0  502  0.53454304910E+02  0.13747897055E+02  0.20539660544E+02  0.59039964787E+02  0.41800000000E+01 0.  1.
        -11    1    3    3    0    0 -0.47010470820E+02 -0.90119883546E+02  0.36923428379E+03  0.38296936444E+03  0.00000000000E+00 0.  1.
         11    1    3    3    0    0  0.13125694861E+02  0.57502480699E+01  0.93428429993E+01  0.17106663432E+02  0.00000000000E+00 0. -1.
</event>
<event>
 7    1  0.5137842E-006  0.1509310E+03  0.7561462E-02  0.1199334E+00
         -2   -1    0    0    0  501 -0.00000000000E+00  0.00000000000E+00  0.60991021708E+02  0.60991021708E+02  0.00000000000E+00 0.  1.
          2   -1    0    0  501    0  0.00000000000E+00 -0.00000000000E+00 -0.43690465734E+03  0.43690465734E+03  0.00000000000E+00 0. -1.
         23    2    1    2    0    0  0.61391575850E+02 -0.10443757382E+03 -0.15488761834E+03  0.21651296427E+03  0.90617641614E+02 0.  0.
          5    1    1    2  502    0 -0.42194311948E+02  0.12855913358E+03 -0.14072557416E+03  0.19526640881E+03  0.41800000000E+01 0.  1.
         -5    1    1    2    0  502 -0.19197263902E+02 -0.24121559755E+02 -0.80300443132E+02  0.86116305967E+02  0.41800000000E+01 0.  1.
        -11    1    3    3    0    0  0.29114113240E+02 -0.33990710132E+01 -0.83921471225E+02  0.88893186499E+02  0.00000000000E+00 0.  1.
         11    1    3    3    0    0  0.32277462610E+02 -0.10103850281E+03 -0.70966147113E+02  0.12761977777E+03  0.00000000000E+00 0. -1.
</event>
<event>
 7    1  0.5137842E-006  0.1153769E+03  0.7561462E-02  0.1250925E+00
         -2   -1    0    0    0  501 -0.00000000000E+00  0.00000000000E+00  0.87396267282E+02  0.87396267282E+02  0.00000000000E+00 0.  1.
          2   -1    0    0  501    0  0.00000000000E+00 -0.00000000000E+00 -0.26535154164E+03  0.26535154164E+03  0.00000000000E+00 0. -1.
         23    2    1    2    0    0 -0.20991175278E+02  0.63985924754E+02 -0.17832030554E+03  0.21068013248E+03  0.89739394063E+02 0.  0.
          5    1    1    2  502    0 -0.33798545149E+02 -0.52436806333E+02  0.39199285003E+02  0.73797131769E+02  0.41800000000E+01 0.  1.
         -5    1    1    2    0  502  0.54789720427E+02 -0.11549118421E+02 -0.38834253828E+02  0.68270544682E+02  0.41800000000E+01 0.  1.
        -11    1    3    3    0    0  0.24464548227E+02  0.61918091398E+02 -0.10115593605E+03  0.12109866869E+03  0.00000000000E+00 0. -1.
         11    1    3    3    0    0 -0.45455723504E+02  0.20678333564E+01 -0.77164369491E+02  0.89581463781E+02  0.00000000000E+00 0.  1.
</event>
<event>
 7    1  0.5137842E-006  0.1002108E+03  0.7561462E-02  0.1279853E+00
         -1   -1    0    0    0  501 -0.00000000000E+00  0.00000000000E+00  0.31253463727E+03  0.31253463727E+03  0.00000000000E+00 0. -1.
          1   -1    0    0  501    0  0.00000000000E+00 -0.00000000000E+00 -0.45247166473E+02  0.45247166473E+02  0.00000000000E+00 0.  1.
         23    2    1    2    0    0 -0.13486772510E+02 -0.31294748951E+02  0.58606997945E+02  0.11210690808E+03  0.89285633147E+02 0.  0.
          5    1    1    2  502    0 -0.43535723632E+02 -0.41804378543E+01  0.15030608220E+03  0.15659574081E+03  0.41800000000E+01 0. -1.
         -5    1    1    2    0  502  0.57022496142E+02  0.35475186806E+02  0.58374390644E+02  0.89079154847E+02  0.41800000000E+01 0. -1.
        -11    1    3    3    0    0  0.33120827325E+01 -0.57758919636E+02  0.56219685993E+02  0.80670414544E+02  0.00000000000E+00 0. -1.
         11    1    3    3    0    0 -0.16798855242E+02  0.26464170685E+02  0.23873119523E+01  0.31436493536E+02  0.00000000000E+00 0.  1.
</event>
<event>
 7    1  0.5137842E-006  0.8952584E+02  0.7561462E-02  0.1304004E+00
         -3   -1    0    0    0  501 -0.00000000000E+00  0.00000000000E+00  0.17560841499E+03  0.17560841499E+03  0.00000000000E+00 0.  1.
          3   -1    0    0  501    0  0.00000000000E+00 -0.00000000000E+00 -0.11531549674E+03  0.11531549674E+03  0.00000000000E+00 0. -1.
         23    2    1    2    0    0  0.13488286114E+02  0.85189583053E+02  0.81320465290E+01  0.13027738818E+03  0.97297835373E+02 0.  0.
          5    1    1    2  502    0 -0.14822539591E+02 -0.43791428954E+02  0.91985676684E+02  0.10303511074E+03  0.41800000000E+01 0. -1.
         -5    1    1    2    0  502  0.13342534767E+01 -0.41398154099E+02 -0.39824804969E+02  0.57611412810E+02  0.41800000000E+01 0. -1.
        -11    1    3    3    0    0 -0.87872805499E+01  0.35072130528E+02  0.49699720870E+02  0.61460010525E+02  0.00000000000E+00 0.  1.
         11    1    3    3    0    0  0.22275566664E+02  0.50117452525E+02 -0.41567674341E+02  0.68817377659E+02  0.00000000000E+00 0. -1.
</event>
<event>
 7    1  0.5137842E-006  0.9258824E+02  0.7561462E-02  0.1296702E+00
         -2   -1    0    0    0  501 -0.00000000000E+00  0.00000000000E+00  0.38562872579E+02  0.38562872579E+02  0.00000000000E+00 0.  1.
          2   -1    0    0  501    0  0.00000000000E+00 -0.00000000000E+00 -0.32823994618E+03  0.32823994618E+03  0.00000000000E+00 0. -1.
         23    2    1    2    0    0  0.11746025856E+02  0.82595102035E+01 -0.16855214409E+03  0.19208650429E+03  0.91001160538E+02 0.  0.
          5    1    1    2  502    0 -0.60703437157E+02  0.15436552150E+02 -0.32604108282E+02  0.70736798781E+02  0.41800000000E+01 0. -1.
         -5    1    1    2    0  502  0.48957411301E+02 -0.23696062353E+02 -0.88520821227E+02  0.10397951569E+03  0.41800000000E+01 0. -1.
        -11    1    3    3    0    0  0.25045690089E+02  0.32001700378E+02 -0.15759487851E+03  0.16274993441E+03  0.00000000000E+00 0. -1.
         11    1    3    3    0    0 -0.13299664233E+02 -0.23742190175E+02 -0.10957265584E+02  0.29336569875E+02  0.00000000000E+00 0.  1.
</event>
<event>
 7    1  0.5137842E-006  0.1128151E+03  0.7561462E-02  0.1255444E+00
          2   -1    0    0  501    0  0.00000000000E+00  0.00000000000E+00  0.47241614123E+02  0.47241614123E+02  0.00000000000E+00 0. -1.
         -2   -1    0    0    0  501 -0.00000000000E+00 -0.00000000000E+00 -0.50251201946E+03  0.50251201946E+03  0.00000000000E+00 0.  1.
         23    2    1    2    0    0  0.90804374645E+02 -0.54746428707E+02 -0.16671230191E+03  0.21785625362E+03  0.91791882668E+02 0.  0.
          5    1    1    2  502    0 -0.88278067516E+02  0.63978234482E+02 -0.11683351080E+03  0.15985547641E+03  0.41800000000E+01 0. -1.
         -5    1    1    2    0  502 -0.25263071286E+01 -0.92318057750E+01 -0.17172459262E+03  0.17204190354E+03  0.41800000000E+01 0. -1.
        -11    1    3    3    0    0  0.50932433820E+02 -0.32604789420E+02 -0.16088840640E+03  0.17187863282E+03  0.00000000000E+00 0.  1.
         11    1    3    3    0    0  0.39871940825E+02 -0.22141639287E+02 -0.58238955122E+01  0.45977620800E+02  0.00000000000E+00 0. -1.
</event>
<event>
 7    1  0.5137842E-006  0.9417147E+02  0.7561462E-02  0.1293053E+00
         -1   -1    0    0    0  501 -0.00000000000E+00  0.00000000000E+00  0.88477170345E+03  0.88477170345E+03  0.00000000000E+00 0.  1.
          1   -1    0    0  501    0  0.00000000000E+00 -0.00000000000E+00 -0.23807400395E+02  0.23807400395E+02  0.00000000000E+00 0. -1.
         23    2    1    2    0    0 -0.30623484211E+01 -0.44267056519E+02  0.12377072666E+03  0.15953253156E+03  0.90346475190E+02 0.  0.
          5    1    1    2  502    0 -0.61130246802E+01  0.84233131285E+02  0.59570487225E+03  0.60167628896E+03  0.41800000000E+01 0.  1.
         -5    1    1    2    0  502  0.91753731012E+01 -0.39966074766E+02  0.14148870415E+03  0.14737028332E+03  0.41800000000E+01 0.  1.
        -11    1    3    3    0    0 -0.22518775458E+02 -0.33396737449E+02  0.72838801966E+01  0.40932776978E+02  0.00000000000E+00 0. -1.
         11    1    3    3    0    0  0.19456427037E+02 -0.10870319070E+02  0.11648684646E+03  0.11859975459E+03  0.00000000000E+00 0.  1.
</event>
<event>
 7    1  0.5137842E-006  0.9850105E+02  0.7561462E-02  0.1283480E+00
         -1   -1    0    0    0  501 -0.00000000000E+00  0.00000000000E+00  0.34297253139E+03  0.34297253139E+03  0.00000000000E+00 0.  1.
          1   -1    0    0  501    0  0.00000000000E+00 -0.00000000000E+00 -0.36300307361E+02  0.36300307361E+02  0.00000000000E+00 0. -1.
         23    2    1    2    0    0  0.25432817586E+02  0.10668214874E+02  0.95139221730E+02  0.13198081980E+03  0.87217121396E+02 0.  0.
          5    1    1    2  502    0  0.25606986368E+02 -0.49477087190E+02  0.56434478600E+02  0.79410469603E+02  0.41800000000E+01 0.  1.
         -5    1    1    2    0  502 -0.51039803954E+02  0.38808872316E+02  0.15509852370E+03  0.16788154935E+03  0.41800000000E+01 0.  1.
        -11    1    3    3    0    0  0.50760890630E+02  0.83909007594E+01  0.93223373618E+02  0.10647850779E+03  0.00000000000E+00 0.  1.
         11    1    3    3    0    0 -0.25328073044E+02  0.22773141149E+01  0.19158481121E+01  0.25502312007E+02  0.00000000000E+00 0. -1.
</event>
<event>
 7    1  0.5137842E-006  0.1350928E+03  0.7561462E-02  0.1220089E+00
          1   -1    0    0  501    0  0.00000000000E+00  0.00000000000E+00  0.51412930294E+02  0.51412930294E+02  0.00000000000E+00 0. -1.
         -1   -1    0    0    0  501 -0.00000000000E+00 -0.00000000000E+00 -0.41306902147E+03  0.41306902147E+03  0.00000000000E+00 0.  1.
         23    2    1    2    0    0  0.59917698608E+02 -0.71584675947E+02 -0.16669163351E+03  0.21473564057E+03  0.98034678610E+02 0.  0.
          5    1    1    2  502    0 -0.91664784892E+02  0.20105034073E+02 -0.13507283611E+03  0.16452595126E+03  0.41800000000E+01 0. -1.
         -5    1    1    2    0  502  0.31747086283E+02  0.51479641874E+02 -0.59891621561E+02  0.85220359939E+02  0.41800000000E+01 0. -1.
        -11    1    3    3    0    0 -0.15095795932E+02 -0.70120105320E+01 -0.84373819490E+02  0.85999957918E+02  0.00000000000E+00 0.  1.
         11    1    3    3    0    0  0.75013494540E+02 -0.64572665415E+02 -0.82317814021E+02  0.12873568265E+03  0.00000000000E+00 0. -1.
</event>
<event>
 7    1  0.5137842E-006  0.1504778E+03  0.7561462E-02  0.1199887E+00
         -1   -1    0    0    0  501 -0.00000000000E+00  0.00000000000E+00  0.67064946876E+03  0.67064946876E+03  0.00000000000E+00 0.  1.
          1   -1    0    0  501    0  0.00000000000E+00 -0.00000000000E+00 -0.15872317613E+03  0.15872317613E+03  0.00000000000E+00 0. -1.
         23    2    1    2    0    0  0.17861987093E+01  0.64811883549E+01 -0.12467521930E+03  0.15480952299E+03  0.91525306838E+02 0.  0.
          5    1    1    2  502    0 -0.44767607674E+02 -0.98845854533E+02  0.21575844908E+03  0.24154465923E+03  0.41800000000E+01 0. -1.
         -5    1    1    2    0  502  0.42981408964E+02  0.92364666178E+02  0.42084306284E+03  0.43301846268E+03  0.41800000000E+01 0.  1.
        -11    1    3    3    0    0 -0.12405023605E+01  0.48379434639E+02 -0.79900218726E+02  0.93413882772E+02  0.00000000000E+00 0.  1.
         11    1    3    3    0    0  0.30267010698E+01 -0.41898246284E+02 -0.44775000571E+02  0.61395640213E+02  0.00000000000E+00 0. -1.
</event>
<event>
 7    1  0.5137842E-006  0.2148364E+03  0.7561462E-02  0.1137792E+00
          2   -1    0    0  501    0  0.00000000000E+00  0.00000000000E+00  0.17980545139E+03  0.17980545139E+03  0.00000000000E+00 0. -1.
         -2   -1    0    0    0  501 -0.00000000000E+00 -0.00000000000E+00 -0.28968693646E+03  0.28968693646E+03  0.00000000000E+00 0.  1.
         23    2    1    2    0    0  0.18318031945E+03 -0.77697515959E+02 -0.28435977545E+02  0.22074748802E+03  0.91262890740E+02 0.  0.
          5    1    1    2  502    0 -0.80539383822E+02 -0.25777100691E+02 -0.53874302946E+02  0.10035419366E+03  0.41800000000E+01 0.  1.
         -5    1    1    2    0  502 -0.10264093563E+03  0.10347461665E+03 -0.27571204586E+02  0.14839070618E+03  0.41800000000E+01 0.  1.
        -11    1    3    3    0    0  0.13237183406E+03 -0.51531459701E+02 -0.61423624138E+02  0.15475999287E+03  0.00000000000E+00 0.  1.
         11    1    3    3    0    0  0.50808485392E+02 -0.26166056258E+02  0.32987646593E+02  0.65987495146E+02  0.00000000000E+00 0. -1.
</event>
<event>
 7    1  0.5137842E-006  0.2357433E+03  0.7561462E-02  0.1122661E+00
         -1   -1    0    0    0  501 -0.00000000000E+00  0.00000000000E+00  0.14064992963E+03  0.14064992963E+03  0.00000000000E+00 0.  1.
          1   -1    0    0  501    0  0.00000000000E+00 -0.00000000000E+00 -0.76917508892E+03  0.76917508892E+03  0.00000000000E+00 0. -1.
         23    2    1    2    0    0 -0.16839482242E+03  0.15010802813E+03 -0.60676663319E+03  0.65336413764E+03  0.88485664802E+02 0.  0.
          5    1    1    2  502    0  0.14977144085E+02 -0.34502102303E+02 -0.49516792034E+02  0.62322507985E+02  0.41800000000E+01 0. -1.
         -5    1    1    2    0  502  0.15341767834E+03 -0.11560592583E+03  0.27758265938E+02  0.19413837292E+03  0.41800000000E+01 0.  1.
        -11    1    3    3    0    0 -0.52815273644E+01 -0.11020577421E+02 -0.44496261626E+02  0.46143959048E+02  0.00000000000E+00 0.  1.
         11    1    3    3    0    0 -0.16311329506E+03  0.16112860556E+03 -0.56227037157E+03  0.60722017860E+03  0.00000000000E+00 0. -1.
</event>
<event>
 7    1  0.5137842E-006  0.1347292E+03  0.7561462E-02  0.1220603E+00
         -1   -1    0    0    0  501 -0.00000000000E+00  0.00000000000E+00  0.32105352691E+03  0.32105352691E+03  0.00000000000E+00 0.  1.
          1   -1    0    0  501    0  0.00000000000E+00 -0.00000000000E+00 -0.29134053571E+03  0.29134053571E+03  0.00000000000E+00 0. -1.
         23    2    1    2    0    0 -0.11111602533E+02  0.60070786433E+02 -0.25670564463E+03  0.27910330878E+03  0.90933502597E+02 0.  0.
          5    1    1    2  502    0  0.83895190835E+02 -0.44788044763E+02  0.14502813861E+03  0.17347912090E+03  0.41800000000E+01 0. -1.
         -5    1    1    2    0  502 -0.72783588302E+02 -0.15282741670E+02  0.14139049722E+03  0.15981163294E+03  0.41800000000E+01 0.  1.
        -11    1    3    3    0    0 -0.21803570503E+02  0.76848373296E+02 -0.24057599016E+03  0.25349137107E+03  0.00000000000E+00 0. -1.
         11    1    3    3    0    0  0.10691967970E+02 -0.16777586863E+02 -0.16129654464E+02  0.25611937708E+02  0.00000000000E+00 0.  1.
</event>
<event>
 7    1  0.5137842E-006  0.6993006E+02  0.7561462E-02  0.1360331E+00
          2   -1    0    0  501    0  0.00000000000E+00  0.00000000000E+00  0.77412751876E+03  0.77412751876E+03  0.00000000000E+00 0.  1.
         -2   -1    0    0    0  501 -0.00000000000E+00 -0.00000000000E+00 -0.14865457091E+02  0.14865457091E+02  0.00000000000E+00 0. -1.
         23    2    1    2    0    0  0.33710419576E+01  0.28993356035E+01  0.31155942453E+03  0.32412287450E+03  0.89255771189E+02 0.  0.
          5    1    1    2  502    0  0.23709327210E+02  0.21744020824E+01  0.43240565904E+03  0.43308080838E+03  0.41800000000E+01 0.  1.
         -5    1    1    2    0  502 -0.27080369168E+02 -0.50737376859E+01  0.15296978102E+02  0.31789292969E+02  0.41800000000E+01 0.  1.
        -11    1    3    3    0    0 -0.20868862225E+02 -0.36218719102E+02  0.17853529707E+03  0.18336345689E+03  0.00000000000E+00 0.  1.
         11    1    3    3    0    0  0.24239904183E+02  0.39118054706E+02  0.13302412746E+03  0.14075941761E+03  0.00000000000E+00 0. -1.
</event>
<event>
 7    1  0.5137842E-006  0.1012141E+03  0.7561462E-02  0.1277763E+00
          1   -1    0    0  501    0  0.00000000000E+00  0.00000000000E+00  0.13018827553E+03  0.13018827553E+03  0.00000000000E+00 0. -1.
         -1   -1    0    0    0  501 -0.00000000000E+00 -0.00000000000E+00 -0.10079968564E+03  0.10079968564E+03  0.00000000000E+00 0.  1.
         23    2    1    2    0    0  0.11982202934E+02 -0.27865146618E+02  0.33142871004E+02  0.10222029105E+03  0.91817745671E+02 0.  0.
          5    1    1    2  502    0  0.47278794014E+02  0.23869429424E+01  0.29641394376E+02  0.56009521695E+02  0.41800000000E+01 0. -1.
         -5    1    1    2    0  502 -0.59260996948E+02  0.25478203676E+02 -0.33395675482E+02  0.72758148428E+02  0.41800000000E+01 0. -1.
        -11    1    3    3    0    0 -0.32661928842E+02 -0.31622461741E+02  0.35008905538E+02  0.57379483696E+02  0.00000000000E+00 0. -1.
         11    1    3    3    0    0  0.44644131776E+02  0.37573151232E+01 -0.18660345339E+01  0.44840807351E+02  0.00000000000E+00 0.  1.
</event>
<event>
 7    1  0.5137842E-006  0.1356773E+03  0.7561462E-02  0.1219267E+00
         -1   -1    0    0    0  501 -0.00000000000E+00  0.00000000000E+00  0.19805448222E+03  0.19805448222E+03  0.00000000000E+00 0.  1.
          1   -1    0    0  501    0  0.00000000000E+00 -0.00000000000E+00 -0.11254914056E+03  0.11254914056E+03  0.00000000000E+00 0. -1.
         23    2    1    2    0    0  0.70017998977E+02 -0.75262227639E+02  0.45970003668E+02  0.14395766708E+03  0.89686373452E+02 0.  0.
          5    1    1    2  502    0  0.90043886075E+01  0.56999300396E+02  0.59523776824E+02  0.83009346867E+02  0.41800000000E+01 0.  1.
         -5    1    1    2    0  502 -0.79022387585E+02  0.18262927243E+02 -0.19988438826E+02  0.83636608837E+02  0.41800000000E+01 0.  1.
        -11    1    3    3    0    0  0.36998760393E+02  0.12070513975E+02 -0.20389308955E+01  0.38971307618E+02  0.00000000000E+00 0.  1.
         11    1    3    3    0    0  0.33019238584E+02 -0.87332741614E+02  0.48008934564E+02  0.10498635946E+03  0.00000000000E+00 0. -1.
</event>
<event>
 7    1  0.5137842E-006  0.8310468E+02  0.7561462E-02  0.1320465E+00
          1   -1    0    0  501    0  0.00000000000E+00  0.00000000000E+00  0.66230461046E+02  0.66230461046E+02  0.00000000000E+00 0. -1.
         -1   -1    0    0    0  501 -0.00000000000E+00 -0.00000000000E+00 -0.22467497510E+03  0.22467497510E+03  0.00000000000E+00 0.  1.
         23    2    1    2    0    0  0.16923761772E+02 -0.48852898999E+02 -0.37802380520E+02  0.10959392329E+03  0.88931370151E+02 0.  0.
          5    1    1    2  502    0 -0.23682560521E+02  0.62210892033E+02 -0.14083453087E+03  0.15582970270E+03  0.41800000000E+01 0.  1.
         -5    1    1    2    0  502  0.67587987493E+01 -0.13357993034E+02  0.20192397332E+02  0.25481810149E+02  0.41800000000E+01 0.  1.
        -11    1    3    3    0    0  0.40840838545E+02 -0.43085807081E+02 -0.53906812891E+02  0.80189184688E+02  0.00000000000E+00 0.  1.
         11    1    3    3    0    0 -0.23917076773E+02 -0.57670919178E+01  0.16104432370E+02  0.29404738607E+02  0.00000000000E+00 0. -1.
</event>
<event>
 7    1  0.5137842E-006  0.5874139E+02  0.7561462E-02  0.1403191E+00
         -2   -1    0    0    0  501 -0.00000000000E+00  0.00000000000E+00  0.38093744635E+03  0.38093744635E+03  0.00000000000E+00 0.  1.
          2   -1    0    0  501    0  0.00000000000E+00 -0.00000000000E+00 -0.40231906300E+02  0.40231906300E+02  0.00000000000E+00 0. -1.
         23    2    1    2    0    0 -0.11517612666E+02 -0.48525654609E+02  0.97462175006E+02  0.14313762561E+03  0.92206885599E+02 0.  0.
          5    1    1    2  502    0  0.20883774883E+02  0.43819794954E+02  0.17142215524E+02  0.51649147488E+02  0.41800000000E+01 0. -1.
         -5    1    1    2    0  502 -0.93661622175E+01  0.47058596556E+01  0.22610114952E+03  0.22638257956E+03  0.41800000000E+01 0. -1.
        -11    1    3    3    0    0 -0.20870515895E+02 -0.28017383969E+02  0.11132315990E+03  0.11667646793E+03  0.00000000000E+00 0.  1.
         11    1    3    3    0    0  0.93529032294E+01 -0.20508270640E+02 -0.13860984896E+02  0.26461157680E+02  0.00000000000E+00 0. -1.
</event>
<event>
 7    1  0.5137842E-006  0.1053763E+03  0.7561462E-02  0.1269380E+00
          2   -1    0    0  501    0  0.00000000000E+00  0.00000000000E+00  0.66002602893E+02  0.66002602893E+02  0.00000000000E+00 0. -1.
         -2   -1    0    0    0  501 -0.00000000000E+00 -0.00000000000E+00 -0.24775042695E+03  0.24775042695E+03  0.00000000000E+00 0.  1.
         23    2    1    2    0    0  0.64315154706E+02 -0.25858800997E+02 -0.43923311465E+02  0.11513530977E+03  0.80757448896E+02 0.  0.
          5    1    1    2  502    0 -0.86032705758E+02  0.46292152049E+02 -0.58924143463E+02  0.11416705691E+03  0.41800000000E+01 0.  1.
         -5    1    1    2    0  502  0.21717551052E+02 -0.20433351053E+02 -0.78900369128E+02  0.84450663156E+02  0.41800000000E+01 0.  1.
        -11    1    3    3    0    0  0.48920579571E+02  0.41835721171E+01 -0.60179593385E+02  0.77667939596E+02  0.00000000000E+00 0.  1.
         11    1    3    3    0    0  0.15394575136E+02 -0.30042373114E+02  0.16256281921E+02  0.37467370174E+02  0.00000000000E+00 0. -1.
</event>
<event>
 7    1  0.5137842E-006  0.3228796E+03  0.7561462E-02  0.1074332E+00
         -1   -1    0    0    0  501 -0.00000000000E+00  0.00000000000E+00  0.16521071269E+03  0.16521071269E+03  0.00000000000E+00 0.  1.
          1   -1    0    0  501    0  0.00000000000E+00 -0.00000000000E+00 -0.76421460520E+03  0.76421460520E+03  0.00000000000E+00 0. -1.
         23    2    1    2    0    0 -0.59573341491E+02 -0.31062497998E+03 -0.45134309827E+03  0.55863118471E+03  0.91221417238E+02 0.  0.
          5    1    1    2  502    0  0.30523135209E+02  0.26677080268E+03 -0.16507842399E+03  0.31522481091E+03  0.41800000000E+01 0.  1.
         -5    1    1    2    0  502  0.29050206282E+02  0.43854177300E+02  0.17417629760E+02  0.55569322275E+02  0.41800000000E+01 0.  1.
        -11    1    3    3    0    0 -0.19701559210E+02 -0.25631885557E+03 -0.31529079204E+03  0.40681173865E+03  0.00000000000E+00 0.  1.
         11    1    3    3    0    0 -0.39871782280E+02 -0.54306124416E+02 -0.13605230623E+03  0.15181944606E+03  0.00000000000E+00 0. -1.
</event>
<event>
 7    1  0.5137842E-006  0.7080384E+02  0.7561462E-02  0.1357381E+00
          2   -1    0    0  501    0  0.00000000000E+00  0.00000000000E+00  0.43843772508E+03  0.43843772508E+03  0.00000000000E+00 0. -1.
         -2   -1    0    0    0  501 -0.00000000000E+00 -0.00000000000E+00 -0.31623128594E+02  0.31623128594E+02  0.00000000000E+00 0.  1.
         23    2    1    2    0    0 -0.39973384474E+02  0.11149444942E+02  0.14137176161E+03  0.17370058330E+03  0.91998565587E+02 0.  0.
          5    1    1    2  502    0 -0.12815687435E+02  0.22469856765E+02  0.21298505282E+03  0.21459086987E+03  0.41800000000E+01 0. -1.
         -5    1    1    2    0  502  0.52789071909E+02 -0.33619301707E+02  0.52457782063E+02  0.81769400507E+02  0.41800000000E+01 0. -1.
        -11    1    3    3    0    0 -0.23165593753E+02 -0.10364434676E+02  0.14404997292E+03  0.14626845504E+03  0.00000000000E+00 0. -1.
         11    1    3    3    0    0 -0.16807790721E+02  0.21513879619E+02 -0.26782113152E+01  0.27432128263E+02  0.00000000000E+00 0.  1.
</event>
<event>
 7    1  0.5137842E-006  0.1093475E+03  0.7561462E-02  0.1261783E+00
         -2   -1    0    0    0  501 -0.00000000000E+00  0.00000000000E+00  0.13372904694E+03  0.13372904694E+03  0.00000000000E+00 0.  1.
          2   -1    0    0  501    0  0.00000000000E+00 -0.00000000000E+00 -0.12296881662E+03  0.12296881662E+03  0.00000000000E+00 0. -1.
         23    2    1    2    0    0 -0.53583339876E+02  0.41784958688E+02  0.10117290037E+02  0.11434365726E+03  0.91405444654E+02 0.  0.
          5    1    1    2  502    0  0.91857188566E+02 -0.46984081019E+02 -0.32285743540E+01  0.10331090481E+03  0.41800000000E+01 0.  1.
         -5    1    1    2    0  502 -0.38273848690E+02  0.51991223312E+01  0.38715146376E+01  0.39043301501E+02  0.41800000000E+01 0.  1.
        -11    1    3    3    0    0 -0.19534299696E+02  0.37477990962E+02  0.47510469852E+02  0.63587997426E+02  0.00000000000E+00 0.  1.
         11    1    3    3    0    0 -0.34049040180E+02  0.43069677257E+01 -0.37393179815E+02  0.50755659830E+02  0.00000000000E+00 0. -1.
</event>
<event>
 7    1  0.5137842E-006  0.9167501E+02  0.7561462E-02  0.1298845E+00
          3   -1    0    0  501    0  0.00000000000E+00  0.00000000000E+00  0.81020378308E+02  0.81020378308E+02  0.00000000000E+00 0. -1.
         -3   -1    0    0    0  501 -0.00000000000E+00 -0.00000000000E+00 -0.23671180257E+03  0.23671180257E+03  0.00000000000E+00 0.  1.
         23    2    1    2    0    0 -0.77248142331E+02 -0.28508868776E+02 -0.51401344870E+02  0.13523897097E+03  0.94167138222E+02 0.  0.
          5    1    1    2  502    0  0.51227311900E+02  0.23687861197E+02  0.16354802785E+02  0.58909288119E+02  0.41800000000E+01 0.  1.
         -5    1    1    2    0  502  0.26020830432E+02  0.48210075787E+01 -0.12064488218E+03  0.12358392179E+03  0.41800000000E+01 0.  1.
        -11    1    3    3    0    0 -0.14137118517E+02  0.17034558568E+02  0.19841286811E+02  0.29727276496E+02  0.00000000000E+00 0. -1.
         11    1    3    3    0    0 -0.63111023814E+02 -0.45543427344E+02 -0.71242631681E+02  0.10551169447E+03  0.00000000000E+00 0.  1.
</event>
<event>
 7    1  0.5137842E-006  0.2316375E+03  0.7561462E-02  0.1125492E+00
         -2   -1    0    0    0  501 -0.00000000000E+00  0.00000000000E+00  0.43559420245E+03  0.43559420245E+03  0.00000000000E+00 0.  1.
          2   -1    0    0  501    0  0.00000000000E+00 -0.00000000000E+00 -0.12777588811E+03  0.12777588811E+03  0.00000000000E+00 0. -1.
         23    2    1    2    0    0  0.13269109719E+03  0.16072936621E+03  0.12480027420E+03  0.25909291099E+03  0.90073146091E+02 0.  0.
          5    1    1    2  502    0 -0.15338000623E+03 -0.15872597069E+03  0.15797448178E+03  0.27146412171E+03  0.41800000000E+01 0. -1.
         -5    1    1    2    0  502  0.20688909041E+02 -0.20033955277E+01  0.25043558357E+02  0.32813057860E+02  0.41800000000E+01 0. -1.
        -11    1    3    3    0    0  0.93283705551E+02  0.54573240086E+02  0.89970283885E+02  0.14062268749E+03  0.00000000000E+00 0.  1.
         11    1    3    3    0    0  0.39407391639E+02  0.10615612613E+03  0.34829990320E+02  0.11847022350E+03  0.00000000000E+00 0. -1.
</event>
<event>
 7    1  0.5137842E-006  0.1229235E+03  0.7561462E-02  0.1238351E+00
          1   -1    0    0  501    0  0.00000000000E+00  0.00000000000E+00  0.18683634894E+03  0.18683634894E+03  0.00000000000E+00 0. -1.
         -1   -1    0    0    0  501 -0.00000000000E+00 -0.00000000000E+00 -0.12011151572E+03  0.12011151572E+03  0.00000000000E+00 0.  1.
         23    2    1    2    0    0 -0.94792137910E+02  0.19613272701E+02  0.59791973659E+02  0.14862648119E+03  0.95626988462E+02 0.  0.
          5    1    1    2  502    0  0.11377265020E+03 -0.39827740326E+02 -0.16550558352E+02  0.12174505417E+03  0.41800000000E+01 0. -1.
         -5    1    1    2    0  502 -0.18980512285E+02  0.20214467625E+02  0.23483417916E+02  0.36576329299E+02  0.41800000000E+01 0. -1.
        -11    1    3    3    0    0 -0.24115240719E+02  0.11559307198E+01 -0.26313020924E+02  0.35710727812E+02  0.00000000000E+00 0.  1.
         11    1    3    3    0    0 -0.70676897191E+02  0.18457341981E+02  0.86104994583E+02  0.11291575338E+03  0.00000000000E+00 0. -1.
</event>
<event>
 7    1  0.5137842E-006  0.9230360E+02  0.7561462E-02  0.1297367E+00
          2   -1    0    0  501    0  0.00000000000E+00  0.00000000000E+00  0.14794619448E+03  0.14794619448E+03  0.00000000000E+00 0. -1.
         -2   -1    0    0    0  501 -0.00000000000E+00 -0.00000000000E+00 -0.84369846648E+02  0.84369846648E+02  0.00000000000E+00 0.  1.
         23    2    1    2    0    0  0.12008287195E+02 -0.10408396828E+02  0.40568850222E+02  0.10413715193E+03  0.94584254064E+02 0.  0.
          5    1    1    2  502    0  0.14320223353E+02 -0.52315996797E+02 -0.47080661490E+01  0.54604675667E+02  0.41800000000E+01 0.  1.
         -5    1    1    2    0  502 -0.26328510548E+02  0.62724393625E+02  0.27715563761E+02  0.73574213539E+02  0.41800000000E+01 0.  1.
        -11    1    3    3    0    0 -0.23807215188E+02  0.25957201481E+01  0.57615570349E+02  0.62394512617E+02  0.00000000000E+00 0. -1.
         11    1    3    3    0    0  0.35815502383E+02 -0.13004116976E+02 -0.17046720127E+02  0.41742639308E+02  0.00000000000E+00 0.  1.
</event>
<event>
 7    1  0.5137842E-006  0.1736804E+03  0.7561462E-02  0.1174063E+00
          3   -1    0    0  501    0  0.00000000000E+00  0.00000000000E+00  0.31725413460E+03  0.31725413460E+03  0.00000000000E+00 0.  1.
         -3   -1    0    0    0  501 -0.00000000000E+00 -0.00000000000E+00 -0.12477895966E+03  0.12477895966E+03  0.00000000000E+00 0. -1.
         23    2    1    2    0    0 -0.12962295825E+03 -0.84284503275E+02  0.15984754360E+03  0.24048878295E+03  0.91529387266E+02 0.  0.
          5    1    1    2  502    0  0.26599824565E+02 -0.28657663581E+02  0.28491463404E+02  0.48559738835E+02  0.41800000000E+01 0.  1.
         -5    1    1    2    0  502  0.10302313368E+03  0.11294216686E+03  0.41361679296E+01  0.15298457247E+03  0.41800000000E+01 0.  1.
        -11    1    3    3    0    0 -0.50210649687E+02 -0.25556412533E+02  0.12260714572E+03  0.13493239694E+03  0.00000000000E+00 0.  1.
         11    1    3    3    0    0 -0.79412308562E+02 -0.58728090742E+02  0.37240397886E+02  0.10555638601E+03  0.00000000000E+00 0. -1.
</event>
<event>
 7    1  0.5137842E-006  0.2049033E+03  0.7561462E-02  0.1145667E+00
         -2   -1    0    0    0  501 -0.00000000000E+00  0.00000000000E+00  0.75498000164E+02  0.75498000164E+02  0.00000000000E+00 0.  1.
          2   -1    0    0  501    0  0.00000000000E+00 -0.00000000000E+00 -0.84802701745E+03  0.84802701745E+03  0.00000000000E+00 0. -1.
         23    2    1    2    0    0 -0.95128153658E+02 -0.17856223670E+03 -0.57069204138E+03  0.61156394869E+03  0.85948933948E+02 0.  0.
          5    1    1    2  502    0  0.78375723954E+01  0.56794159861E+02 -0.13716161888E+03  0.14872049700E+03  0.41800000000E+01 0.  1.
         -5    1    1    2    0  502  0.87290581263E+02  0.12176807684E+03 -0.64675357025E+02  0.16324057192E+03  0.41800000000E+01 0.  1.
        -11    1    3    3    0    0 -0.58009191749E+02 -0.10159903704E+03 -0.20512259708E+03  0.23614129348E+03  0.00000000000E+00 0.  1.
         11    1    3    3    0    0 -0.37118961909E+02 -0.76963199659E+02 -0.36556944430E+03  0.37542265521E+03  0.00000000000E+00 0. -1.
</event>
<event>
 7    1  0.5137842E-006  0.1160539E+03  0.7561462E-02  0.1249753E+00
          2   -1    0    0  501    0  0.00000000000E+00  0.00000000000E+00  0.14713798509E+03  0.14713798509E+03  0.00000000000E+00 0. -1.
         -2   -1    0    0    0  501 -0.00000000000E+00 -0.00000000000E+00 -0.95101981523E+02  0.95101981523E+02  0.00000000000E+00 0.  1.
         23    2    1    2    0    0 -0.28965277437E+02 -0.29997012183E+02  0.40216346194E+02  0.10985464585E+03  0.93337455919E+02 0.  0.
          5    1    1    2  502    0  0.14609476619E+02  0.78862407459E+02  0.12494294105E+02  0.81279123411E+02  0.41800000000E+01 0.  1.
         -5    1    1    2    0  502  0.14355800818E+02 -0.48865395276E+02 -0.67463673207E+00  0.51106197348E+02  0.41800000000E+01 0.  1.
        -11    1    3    3    0    0  0.28362381791E+02  0.10780277591E+02  0.36284256286E+01  0.30558215889E+02  0.00000000000E+00 0. -1.
         11    1    3    3    0    0 -0.57327659228E+02 -0.40777289773E+02  0.36587920566E+02  0.79296429965E+02  0.00000000000E+00 0.  1.
</event>
<event>
 7    1  0.5137842E-006  0.2228612E+03  0.7561462E-02  0.1131768E+00
          2   -1    0    0  501    0  0.00000000000E+00  0.00000000000E+00  0.21900045909E+03  0.21900045909E+03  0.00000000000E+00 0. -1.
         -2   -1    0    0    0  501 -0.00000000000E+00 -0.00000000000E+00 -0.27095972952E+03  0.27095972952E+03  0.00000000000E+00 0.  1.
         23    2    1    2    0    0 -0.21867239023E+03 -0.82791877119E+01 -0.35025782827E+01  0.23952964943E+03  0.97344880201E+02 0.  0.
          5    1    1    2  502    0  0.17064229481E+03  0.44282672615E+01  0.14129187895E+02  0.17133449355E+03  0.41800000000E+01 0. -1.
         -5    1    1    2    0  502  0.48030095419E+02  0.38509204504E+01 -0.62585880041E+02  0.79096045633E+02  0.41800000000E+01 0.  1.
        -11    1    3    3    0    0 -0.90738898673E+02  0.25565688548E+02  0.36791200279E+02  0.10119656408E+03  0.00000000000E+00 0.  1.
         11    1    3    3    0    0 -0.12793349156E+03 -0.33844876260E+02 -0.40293778562E+02  0.13833308535E+03  0.00000000000E+00 0. -1.
</event>
<event>
 6    1  0.5137842E-006  0.1306007E+03  0.7561462E-02  0.1226567E+00
          1   -1    0    0  501    0  0.00000000000E+00  0.00000000000E+00  0.68297985337E+02  0.68297985337E+02  0.00000000000E+00 0. -1.
         -1   -1    0    0    0  501 -0.00000000000E+00 -0.00000000000E+00 -0.32154344838E+03  0.32154344838E+03  0.00000000000E+00 0.  1.
          5    1    1    2  502    0 -0.41831652701E+01 -0.73918876894E+02 -0.11882834828E+03  0.14006836897E+03  0.41800000000E+01 0.  1.
         -5    1    1    2    0  502 -0.18244411855E+02  0.51459246731E+02 -0.98060126503E+02  0.11231283741E+03  0.41800000000E+01 0.  1.
        -11    1    1    2    0    0  0.69318471949E+02 -0.16579872357E+02 -0.24003637226E+02  0.75207162696E+02  0.00000000000E+00 0.  1.
         11    1    1    2    0    0 -0.46890894824E+02  0.39039502520E+02 -0.12353351038E+02  0.62253064634E+02  0.00000000000E+00 0. -1.
</event>
<event>
 7    1  0.5137842E-006  0.1339460E+03  0.7561462E-02  0.1221715E+00
          2   -1    0    0  501    0  0.00000000000E+00  0.00000000000E+00  0.18678259565E+03  0.18678259565E+03  0.00000000000E+00 0. -1.
         -2   -1    0    0    0  501 -0.00000000000E+00 -0.00000000000E+00 -0.14538271742E+03  0.14538271742E+03  0.00000000000E+00 0.  1.
         23    2    1    2    0    0 -0.69833264783E+02  0.62717052396E+02  0.10030516619E+03  0.16505685504E+03  0.91501505441E+02 0.  0.
          5    1    1    2  502    0 -0.30177404395E+02  0.10650745146E+02 -0.11811040665E+02  0.34366949090E+02  0.41800000000E+01 0.  1.
         -5    1    1    2    0  502  0.10001066918E+03 -0.73367797542E+02 -0.47094247298E+02  0.13274150893E+03  0.41800000000E+01 0.  1.
        -11    1    3    3    0    0  0.63801654053E+01  0.26266586374E+02 -0.75393424201E+01  0.28062105311E+02  0.00000000000E+00 0.  1.
         11    1    3    3    0    0 -0.76213430189E+02  0.36450466022E+02  0.10784450861E+03  0.13699474973E+03  0.00000000000E+00 0. -1.
</event>
<event>
 7    1  0.5137842E-006  0.1045066E+03  0.7561462E-02  0.1271095E+00
          2   -1    0    0  501    0  0.00000000000E+00  0.00000000000E+00  0.13063479827E+03  0.13063479827E+03  0.00000000000E+00 0. -1.
         -2   -1    0    0    0  501 -0.00000000000E+00 -0.00000000000E+00 -0.90892531830E+02  0.90892531830E+02  0.00000000000E+00 0.  1.
         23    2    1    2    0    0 -0.32267043018E+01 -0.11769945333E+02  0.71140945948E+01  0.91679114607E+02  0.90584250725E+02 0.  0.
          5    1    1    2  502    0  0.11256225741E+02 -0.53663457044E+02  0.32331755396E+02  0.63790940163E+02  0.41800000000E+01 0.  1.
         -5    1    1    2    0  502 -0.80295214394E+01  0.65433402377E+02  0.29641644652E+00  0.66057275328E+02  0.41800000000E+01 0.  1.
        -11    1    3    3    0    0  0.40101687752E+02 -0.18421074322E+02  0.16019248710E+02  0.46947818576E+02  0.00000000000E+00 0. -1.
         11    1    3    3    0    0 -0.43328392054E+02  0.66511289897E+01 -0.89051541156E+01  0.44731296032E+02  0.00000000000E+00 0.  1.
</event>
<event>
 7    1  0.5137842E-006  0.1126212E+03  0.7561462E-02  0.1255791E+00
         -3   -1    0    0    0  501 -0.00000000000E+00  0.00000000000E+00  0.11182752481E+03  0.11182752481E+03  0.00000000000E+00 0.  1.
          3   -1    0    0  501    0  0.00000000000E+00 -0.00000000000E+00 -0.20403508841E+03  0.20403508841E+03  0.00000000000E+00 0. -1.
         23    2    1    2    0    0  0.34181044299E+02 -0.92239687183E+02 -0.74181178412E+02  0.15571054854E+03  0.95217771526E+02 0.  0.
          5    1    1    2  502    0  0.54986456572E+01  0.78422752543E+02  0.40066379763E+02  0.88335442535E+02  0.41800000000E+01 0. -1.
         -5    1    1    2    0  502 -0.39679689956E+02  0.13816934640E+02 -0.58092764946E+02  0.71816622150E+02  0.41800000000E+01 0. -1.
        -11    1    3    3    0    0  0.41384204705E+02 -0.76303330143E+02 -0.79015029005E+01  0.87162402090E+02  0.00000000000E+00 0.  1.
         11    1    3    3    0    0 -0.72031604057E+01 -0.15936357040E+02 -0.66279675512E+02  0.68548146448E+02  0.00000000000E+00 0. -1.
</event>
<event>
 7    1  0.5137842E-006  0.1864975E+03  0.7561462E-02  0.1161659E+00
          2   -1    0    0  501    0  0.00000000000E+00  0.00000000000E+00  0.94433539250E+03  0.94433539250E+03  0.00000000000E+00 0.  1.
         -2   -1    0    0    0  501 -0.00000000000E+00 -0.00000000000E+00 -0.49002736968E+02  0.49002736968E+02  0.00000000000E+00 0. -1.
         23    2    1    2    0    0 -0.15632312630E+03 -0.99833067265E+01  0.65468042967E+03  0.68013151202E+03  0.97138161550E+02 0.  0.
          5    1    1    2  502    0  0.27383994796E+02  0.54491770361E+02  0.10019356775E+03  0.11736890400E+03  0.41800000000E+01 0.  1.
         -5    1    1    2    0  502  0.12893913150E+03 -0.44508463634E+02  0.14045865811E+03  0.19583771344E+03  0.41800000000E+01 0.  1.
        -11    1    3    3    0    0 -0.12551037576E+03  0.25842900267E+02  0.55794779504E+03  0.57247397487E+03  0.00000000000E+00 0.  1.
         11    1    3    3    0    0 -0.30812750540E+02 -0.35826206994E+02  0.96732634631E+02  0.10765753715E+03  0.00000000000E+00 0. -1.
</event>
<event>
 7    1  0.5137842E-006  0.1138185E+03  0.7561462E-02  0.1253658E+00
         -2   -1    0    0    0  501 -0.00000000000E+00  0.00000000000E+00  0.33373469993E+02  0.33373469993E+02  0.00000000000E+00 0.  1.
          2   -1    0    0  501    0  0.00000000000E+00 -0.00000000000E+00 -0.51437773509E+03  0.51437773509E+03  0.00000000000E+00 0. -1.
         23    2    1    2    0    0  0.31471858764E+02  0.56130614717E+02 -0.30009216359E+03  0.31858445267E+03  0.85437831395E+02 0.  0.
          5    1    1    2  502    0 -0.37446141141E+02 -0.85552249254E+02 -0.17482640415E+03  0.19825020764E+03  0.41800000000E+01 0.  1.
         -5    1    1    2    0  502  0.59742823778E+01  0.29421634537E+02 -0.60856973593E+01  0.30916544780E+02  0.41800000000E+01 0.  1.
        -11    1    3    3    0    0  0.54786828696E+01 -0.21390299064E+02 -0.10044894465E+03  0.10284722330E+03  0.00000000000E+00 0.  1.
         11    1    3    3    0    0  0.25993175894E+02  0.77520913781E+02 -0.19964321894E+03  0.21573722937E+03  0.00000000000E+00 0. -1.
</event>
<event>
 7    1  0.5137842E-006  0.1251861E+03  0.7561462E-02  0.1234779E+00
          3   -1    0    0  501    0  0.00000000000E+00  0.00000000000E+00  0.23176271609E+02  0.23176271609E+02  0.00000000000E+00 0. -1.
         -3   -1    0    0    0  501 -0.00000000000E+00 -0.00000000000E+00 -0.77477632109E+03  0.77477632109E+03  0.00000000000E+00 0.  1.
         23    2    1    2    0    0  0.48804641165E+01 -0.74095010665E+02 -0.25995095218E+03  0.28523190763E+03  0.90933239566E+02 0.  0.
          5    1    1    2  502    0 -0.23482213010E+02 -0.27031970326E+02 -0.70519143038E+02  0.79199518195E+02  0.41800000000E+01 0. -1.
         -5    1    1    2    0  502  0.18601748893E+02  0.10112698099E+03 -0.42112995427E+03  0.43352116687E+03  0.41800000000E+01 0. -1.
        -11    1    3    3    0    0 -0.98479043051E+01 -0.89535210324E+02 -0.23864268786E+03  0.25507619954E+03  0.00000000000E+00 0.  1.
         11    1    3    3    0    0  0.14728368422E+02  0.15440199659E+02 -0.21308264322E+02  0.30155708088E+02  0.00000000000E+00 0. -1.
</event>
<event>
 7    1  0.5137842E-006  0.1244918E+03  0.7561462E-02  0.1235866E+00
         -1   -1    0    0    0  501 -0.00000000000E+00  0.00000000000E+00  0.18570762776E+02  0.18570762776E+02  0.00000000000E+00 0.  1.
          1   -1    0    0  501    0  0.00000000000E+00 -0.00000000000E+00 -0.89609466172E+03  0.89609466172E+03  0.00000000000E+00 0. -1.
         23    2    1    2    0    0 -0.42316620163E+01  0.62380531029E+02 -0.36141222391E+03  0.37994129303E+03  0.99133006319E+02 0.  0.
          5    1    1    2  502    0 -0.43855901905E+01  0.35487900497E+02 -0.21411894602E+03  0.21712443420E+03  0.41800000000E+01 0.  1.
         -5    1    1    2    0  502  0.86172522068E+01 -0.97868431527E+02 -0.30199272901E+03  0.31759969726E+03  0.41800000000E+01 0.  1.
        -11    1    3    3    0    0 -0.46345342775E+02  0.54945923046E+02 -0.18639229672E+03  0.19977245439E+03  0.00000000000E+00 0. -1.
         11    1    3    3    0    0  0.42113680759E+02  0.74346079838E+01 -0.17501992719E+03  0.18016883864E+03  0.00000000000E+00 0.  1.
</event>
<event>
 7    1  0.5137842E-006  0.1340597E+03  0.7561462E-02  0.1221553E+00
          2   -1    0    0  501    0  0.00000000000E+00  0.00000000000E+00  0.11970192783E+03  0.11970192783E+03  0.00000000000E+00 0. -1.
         -2   -1    0    0    0  501 -0.00000000000E+00 -0.00000000000E+00 -0.24350279906E+03  0.24350279906E+03  0.00000000000E+00 0.  1.
         23    2    1    2    0    0 -0.32205370401E+02 -0.11999115387E+03 -0.63237541984E+01  0.15134832812E+03  0.86204777525E+02 0.  0.
          5    1    1    2  502    0  0.50664671610E+02  0.60344764837E+02 -0.12603505470E+03  0.14869669467E+03  0.41800000000E+01 0.  1.
         -5    1    1    2    0  502 -0.18459301209E+02  0.59646389028E+02  0.85579376774E+01  0.63159704104E+02  0.41800000000E+01 0.  1.
        -11    1    3    3    0    0 -0.12139672241E+02 -0.13021315101E+02 -0.34589743482E+02  0.38902141885E+02  0.00000000000E+00 0.  1.
         11    1    3    3    0    0 -0.20065698160E+02 -0.10696983876E+03  0.28265989284E+02  0.11244618623E+03  0.00000000000E+00 0. -1.
</event>
<event>
 7    1  0.5137842E-006  0.1040386E+03  0.7561462E-02  0.1272025E+00
         -2   -1    0    0    0  501 -0.00000000000E+00  0.00000000000E+00  0.25616027355E+03  0.25616027355E+03  0.00000000000E+00 0.  1.
          2   -1    0    0  501    0  0.00000000000E+00 -0.00000000000E+00 -0.11068009142E+03  0.11068009142E+03  0.00000000000E+00 0. -1.
         23    2    1    2    0    0 -0.27625804345E+02  0.34625724918E+02 -0.95547287376E+01  0.10031363280E+03  0.89495285864E+02 0.  0.
          5    1    1    2  502    0  0.66951304225E+02 -0.15666103236E+02 -0.30892707168E+02  0.75496593858E+02  0.41800000000E+01 0. -1.
         -5    1    1    2    0  502 -0.39325499880E+02 -0.18959621682E+02  0.18592761803E+03  0.19103013831E+03  0.41800000000E+01 0.  1.
        -11    1    3    3    0    0 -0.11653012076E+02 -0.28198082754E+02  0.10806866757E+02  0.32368394006E+02  0.00000000000E+00 0.  1.
         11    1    3    3    0    0 -0.15972792269E+02  0.62823807672E+02 -0.20361595495E+02  0.67945238791E+02  0.00000000000E+00 0. -1.
</event>
<event>
 7    1  0.5137842E-006  0.1508564E+03  0.7561462E-02  0.1199425E+00
          1   -1    0    0  501    0  0.00000000000E+00  0.00000000000E+00  0.62827222059E+02  0.62827222059E+02  0.00000000000E+00 0. -1.
         -1   -1    0    0    0  501 -0.00000000000E+00 -0.00000000000E+00 -0.48647558955E+03  0.48647558955E+03  0.00000000000E+00 0.  1.
         23    2    1    2    0    0  0.43957705548E+02  0.10520502217E+03 -0.83442911901E+02  0.16931868133E+03  0.93304446487E+02 0.  0.
          5    1    1    2  502    0 -0.84439683287E+02 -0.55237718839E+02 -0.16678358725E+03  0.19497564739E+03  0.41800000000E+01 0.  1.
         -5    1    1    2    0  502  0.40481977739E+02 -0.49967303335E+02 -0.17342186834E+03  0.18500848289E+03  0.41800000000E+01 0.  1.
        -11    1    3    3    0    0 -0.16165307054E+02  0.56912790795E+02 -0.68946829246E+02  0.90851792340E+02  0.00000000000E+00 0.  1.
         11    1    3    3    0    0  0.60123012602E+02  0.48292231378E+02 -0.14496082655E+02  0.78466888993E+02  0.00000000000E+00 0. -1.
</event>
<event>
 7    1  0.5137842E-006  0.9298707E+02  0.7561462E-02  0.1295775E+00
          2   -1    0    0  501    0  0.00000000000E+00  0.00000000000E+00  0.55363350235E+02  0.55363350235E+02  0.00000000000E+00 0. -1.
         -2   -1    0    0    0  501 -0.00000000000E+00 -0.00000000000E+00 -0.33220623019E+03  0.33220623019E+03  0.00000000000E+00 0.  1.
         23    2    1    2    0    0 -0.63413680239E+02  0.47223294269E+02 -0.15701264900E+03  0.19807328768E+03  0.91261826538E+02 0.  0.
          5    1    1    2  502    0  0.14681829532E+02 -0.36863050818E+02  0.17336182430E+02  0.43502370685E+02  0.41800000000E+01 0. -1.
         -5    1    1    2    0  502  0.48731850707E+02 -0.10360243451E+02 -0.13716641338E+03  0.14599392206E+03  0.41800000000E+01 0.  1.
        -11    1    3    3    0    0  0.10036638235E+02  0.78467616850E+01  0.66812926081E+01  0.14385598594E+02  0.00000000000E+00 0.  1.
         11    1    3    3    0    0 -0.73450318474E+02  0.39376532584E+02 -0.16369394161E+03  0.18368768909E+03  0.00000000000E+00 0. -1.
</event>
<event>
 7    1  0.5137842E-006  0.1071203E+03  0.7561462E-02  0.1265997E+00
         -1   -1    0    0    0  501 -0.00000000000E+00  0.00000000000E+00  0.13736269550E+03  0.13736269550E+03  0.00000000000E+00 0.  1.
          1   -1    0    0  501    0  0.00000000000E+00 -0.00000000000E+00 -0.10030150680E+03  0.10030150680E+03  0.00000000000E+00 0. -1.
         23    2    1    2    0    0  0.12391930714E+02  0.27829996660E+02  0.47595899144E+02  0.10848578938E+03  0.92605227826E+02 0.  0.
          5    1    1    2  502    0  0.20915243332E+01  0.44334020914E+02  0.20652659174E+02  0.49131299753E+02  0.41800000000E+01 0.  1.
         -5    1    1    2    0  502 -0.14483455047E+02 -0.72164017574E+02 -0.31187369615E+02  0.80047113165E+02  0.41800000000E+01 0.  1.
        -11    1    3    3    0    0  0.50410757486E+02  0.28510079626E+02  0.38002202157E+02  0.69269304020E+02  0.00000000000E+00 0.  1.
         11    1    3    3    0    0 -0.38018826772E+02 -0.68008296653E+00  0.95936969875E+01  0.39216485358E+02  0.00000000000E+00 0. -1.
</event>
<event>
 7    1  0.5137842E-006  0.9741500E+02  0.7561462E-02  0.1285828E+00
          1   -1    0    0  501    0  0.00000000000E+00  0.00000000000E+00  0.78340049841E+02  0.78340049841E+02  0.00000000000E+00 0. -1.
         -1   -1    0    0    0  501 -0.00000000000E+00 -0.00000000000E+00 -0.16715003709E+03  0.16715003709E+03  0.00000000000E+00 0.  1.
         23    2    1    2    0    0 -0.16953946894E+02 -0.35440842186E+02 -0.41794020519E+02  0.10620047025E+03  0.89377346796E+02 0.  0.
          5    1    1    2  502    0  0.60537218036E+02  0.26965151787E+02 -0.63371052913E+02  0.91789089361E+02  0.41800000000E+01 0. -1.
         -5    1    1    2    0  502 -0.43583271141E+02  0.84756903987E+01  0.16355086186E+02  0.47500527316E+02  0.41800000000E+01 0. -1.
        -11    1    3    3    0    0 -0.22181796892E+02  0.18959287619E+02  0.10058602192E+02  0.30865226039E+02  0.00000000000E+00 0. -1.
         11    1    3    3    0    0  0.52278499979E+01 -0.54400129806E+02 -0.51852622711E+02  0.75335244212E+02  0.00000000000E+00 0.  1.
</event>
<event>
 7    1  0.5137842E-006  0.1502375E+03  0.7561462E-02  0.1200181E+00
          2   -1    0    0  501    0  0.00000000000E+00  0.00000000000E+00  0.57360696069E+03  0.57360696069E+03  0.00000000000E+00 0. -1.
         -2   -1    0    0    0  501 -0.00000000000E+00 -0.00000000000E+00 -0.57590893354E+02  0.57590893354E+02  0.00000000000E+00 0.  1.
         23    2    1    2    0    0 -0.12713702733E+03  0.75197547859E+02  0.22185430264E+03  0.27906435362E+03  0.82698772291E+02 0.  0.
          5    1    1    2  502    0  0.54821431173E+00 -0.86893673606E+01  0.14549408545E+03  0.14581428923E+03  0.41800000000E+01 0. -1.
         -5    1    1    2    0  502  0.12658881302E+03 -0.66508180499E+02  0.14866767924E+03  0.20631921119E+03  0.41800000000E+01 0. -1.
        -11    1    3    3    0    0 -0.39953297823E+02  0.21607326374E+02  0.14250362909E+03  0.14956746592E+03  0.00000000000E+00 0. -1.
         11    1    3    3    0    0 -0.87183729506E+02  0.53590221485E+02  0.79350673555E+02  0.12949688770E+03  0.00000000000E+00 0.  1.
</event>
<event>
 7    1  0.5137842E-006  0.9545156E+02  0.7561462E-02  0.1290162E+00
          2   -1    0    0  501    0  0.00000000000E+00  0.00000000000E+00  0.60506539260E+03  0.60506539260E+03  0.00000000000E+00 0. -1.
         -2   -1    0    0    0  501 -0.00000000000E+00 -0.00000000000E+00 -0.19783694421E+02  0.19783694421E+02  0.00000000000E+00 0.  1.
         23    2    1    2    0    0 -0.23244378491E+02  0.19661183172E+02  0.23144273277E+03  0.24831741105E+03  0.84669562547E+02 0.  0.
          5    1    1    2  502    0 -0.40107624440E+02 -0.31317220650E+02  0.77886250858E+02  0.93129642544E+02  0.41800000000E+01 0.  1.
         -5    1    1    2    0  502  0.63352002931E+02  0.11656037479E+02  0.27595271455E+03  0.28340203343E+03  0.41800000000E+01 0.  1.
        -11    1    3    3    0    0 -0.44162451373E+02 -0.32364080809E+01  0.19723008925E+03  0.20213981437E+03  0.00000000000E+00 0. -1.
         11    1    3    3    0    0  0.20918072882E+02  0.22897591253E+02  0.34212643529E+02  0.46177596684E+02  0.00000000000E+00 0.  1.
</event>
<event>
 7    1  0.5137842E-006  0.2068959E+03  0.7561462E-02  0.1144048E+00
          2   -1    0    0  501    0  0.00000000000E+00  0.00000000000E+00  0.66554440181E+02  0.66554440181E+02  0.00000000000E+00 0. -1.
         -2   -1    0    0    0  501 -0.00000000000E+00 -0.00000000000E+00 -0.77926972830E+03  0.77926972830E+03  0.00000000000E+00 0.  1.
         23    2    1    2    0    0 -0.11265791958E+03 -0.14621342028E+03 -0.19983481515E+03  0.28657125696E+03  0.90105276505E+02 0.  0.
          5    1    1    2  502    0  0.10635030209E+03  0.39110018604E+02 -0.22401125385E+03  0.25107467926E+03  0.41800000000E+01 0. -1.
         -5    1    1    2    0  502  0.63076174858E+01  0.10710340168E+03 -0.28886921911E+03  0.30817823226E+03  0.41800000000E+01 0. -1.
        -11    1    3    3    0    0 -0.22874425333E+02 -0.75069189219E+02 -0.13163543677E+03  0.15325309366E+03  0.00000000000E+00 0.  1.
         11    1    3    3    0    0 -0.89783494247E+02 -0.71144231064E+02 -0.68199378384E+02  0.13331816330E+03  0.00000000000E+00 0. -1.
</event>
<event>
 7    1  0.5137842E-006  0.1065902E+03  0.7561462E-02  0.1267018E+00
          2   -1    0    0  501    0  0.00000000000E+00  0.00000000000E+00  0.40222562654E+03  0.40222562654E+03  0.00000000000E+00 0.  1.
         -2   -1    0    0    0  501 -0.00000000000E+00 -0.00000000000E+00 -0.31002886237E+02  0.31002886237E+02  0.00000000000E+00 0. -1.
         23    2    1    2    0    0 -0.15052357451E+02  0.27432010943E+01  0.20361815902E+03  0.22352757579E+03  0.90940221222E+02 0.  0.
          5    1    1    2  502    0  0.55096491030E+02 -0.42295320764E+02  0.93469985437E+02  0.11652737043E+03  0.41800000000E+01 0. -1.
         -5    1    1    2    0  502 -0.40044133579E+02  0.39552119669E+02  0.74134595842E+02  0.93173566558E+02  0.41800000000E+01 0. -1.
        -11    1    3    3    0    0 -0.61972975149E+01 -0.41538594678E+02  0.13500811282E+03  0.14138971628E+03  0.00000000000E+00 0.  1.
         11    1    3    3    0    0 -0.88550599357E+01  0.44281795773E+02  0.68610046209E+02  0.82137859505E+02  0.00000000000E+00 0. -1.
</event>
<event>
 7    1  0.5137842E-006  0.9641889E+02  0.7561462E-02  0.1288012E+00
         -1   -1    0    0    0  501 -0.00000000000E+00  0.00000000000E+00  0.74613414761E+02  0.74613414761E+02  0.00000000000E+00 0.  1.
          1   -1    0    0  501    0  0.00000000000E+00 -0.00000000000E+00 -0.20444042319E+03  0.20444042319E+03  0.00000000000E+00 0. -1.
         23    2    1    2    0    0  0.45047857385E+01 -0.85836953108E+01 -0.12212133645E+03  0.15334910111E+03  0.92240734357E+02 0.  0.
          5    1    1    2  502    0 -0.52856036070E+02  0.33859333807E+02 -0.25910145892E+02  0.68036924497E+02  0.41800000000E+01 0. -1.
         -5    1    1    2    0  502  0.48351250331E+02 -0.25275638496E+02  0.18204473915E+02  0.57667812344E+02  0.41800000000E+01 0. -1.
        -11    1    3    3    0    0 -0.30457815697E+02 -0.22198232970E+02 -0.10602108846E+03  0.11252071490E+03  0.00000000000E+00 0. -1.
         11    1    3    3    0    0  0.34962601435E+02  0.13614537660E+02 -0.16100247991E+02  0.40828386206E+02  0.00000000000E+00 0.  1.
</event>
<event>
 7    1  0.5137842E-006  0.1829650E+03  0.7561462E-02  0.1164964E+00
          2   -1    0    0  501    0  0.00000000000E+00  0.00000000000E+00  0.26213307710E+03  0.26213307710E+03  0.00000000000E+00 0. -1.
         -2   -1    0    0    0  501 -0.00000000000E+00 -0.00000000000E+00 -0.15923476170E+03  0.15923476170E+03  0.00000000000E+00 0.  1.
         23    2    1    2    0    0 -0.37766665795E+02  0.71996794204E+02  0.89667313758E+02  0.15208477198E+03  0.92085239268E+02 0.  0.
          5    1    1    2  502    0  0.10884936223E+03  0.35987983439E+02  0.62773222377E+02  0.13077181829E+03  0.41800000000E+01 0. -1.
         -5    1    1    2    0  502 -0.71082696437E+02 -0.10798477764E+03 -0.49542220737E+02  0.13851124854E+03  0.41800000000E+01 0.  1.
        -11    1    3    3    0    0  0.21459202071E+02  0.56797787579E+02  0.54255246191E+02  0.81425535102E+02  0.00000000000E+00 0. -1.
         11    1    3    3    0    0 -0.59225867866E+02  0.15199006624E+02  0.35412067567E+02  0.70659236879E+02  0.00000000000E+00 0.  1.
</event>
<event>
 7    1  0.5137842E-006  0.1893425E+03  0.7561462E-02  0.1159056E+00
         -3   -1    0    0    0  501 -0.00000000000E+00  0.00000000000E+00  0.26510936970E+02  0.26510936970E+02  0.00000000000E+00 0.  1.
          3   -1    0    0  501    0  0.00000000000E+00 -0.00000000000E+00 -0.15338635309E+04  0.15338635309E+04  0.00000000000E+00 0. -1.
         23    2    1    2    0    0 -0.30303931624E+01 -0.16822897335E+03 -0.65976064907E+03  0.68723643485E+03  0.93271820839E+02 0.  0.
          5    1    1    2  502    0 -0.81136157508E+01  0.18707901452E+03 -0.75043138059E+03  0.77345272500E+03  0.41800000000E+01 0.  1.
         -5    1    1    2    0  502  0.11144008913E+02 -0.18850041166E+02 -0.97160564297E+02  0.99685308051E+02  0.41800000000E+01 0.  1.
        -11    1    3    3    0    0  0.68763118673E+01 -0.83951279466E+02 -0.49281769606E+03  0.49996438127E+03  0.00000000000E+00 0. -1.
         11    1    3    3    0    0 -0.99067050297E+01 -0.84277693888E+02 -0.16694295301E+03  0.18727205358E+03  0.00000000000E+00 0.  1.
</event>
<event>
 7    1  0.5137842E-006  0.9881803E+02  0.7561462E-02  0.1282801E+00
         -1   -1    0    0    0  501 -0.00000000000E+00  0.00000000000E+00  0.11060580737E+03  0.11060580737E+03  0.00000000000E+00 0.  1.
          1   -1    0    0  501    0  0.00000000000E+00 -0.00000000000E+00 -0.21481986567E+03  0.21481986567E+03  0.00000000000E+00 0. -1.
         23    2    1    2    0    0 -0.51227407907E+02 -0.65055092157E+02 -0.12729831732E+03  0.17666104382E+03  0.90265444518E+02 0.  0.
          5    1    1    2  502    0 -0.10254433315E+02  0.63656590871E+01 -0.40543678553E+02  0.42508084982E+02  0.41800000000E+01 0. -1.
         -5    1    1    2    0  502  0.61481841221E+02  0.58689433070E+02  0.63627937579E+02  0.10625654424E+03  0.41800000000E+01 0.  1.
        -11    1    3    3    0    0 -0.14938310676E+02 -0.61514285022E+02 -0.25001520516E+02  0.68060534936E+02  0.00000000000E+00 0. -1.
         11    1    3    3    0    0 -0.36289097230E+02 -0.35408071352E+01 -0.10229679681E+03  0.10860050889E+03  0.00000000000E+00 0.  1.
</event>
<event>
 7    1  0.5137842E-006  0.1737548E+03  0.7561462E-02  0.1173988E+00
          1   -1    0    0  501    0  0.00000000000E+00  0.00000000000E+00  0.98999710467E+03  0.98999710467E+03  0.00000000000E+00 0. -1.
         -1   -1    0    0    0  501 -0.00000000000E+00 -0.00000000000E+00 -0.37085319465E+02  0.37085319465E+02  0.00000000000E+00 0.  1.
         23    2    1    2    0    0  0.26529202188E+02  0.15355802054E+03  0.48316388091E+03  0.51659650068E+03  0.95607240627E+02 0.  0.
          5    1    1    2  502    0 -0.64664225536E+02 -0.12787988614E+03  0.27252149012E+03  0.30792882672E+03  0.41800000000E+01 0. -1.
         -5    1    1    2    0  502  0.38135023348E+02 -0.25678134393E+02  0.19722641417E+03  0.20255709674E+03  0.41800000000E+01 0. -1.
        -11    1    3    3    0    0  0.82300148738E+00  0.81068102365E+02  0.11637526095E+03  0.14183058878E+03  0.00000000000E+00 0.  1.
         11    1    3    3    0    0  0.25706200701E+02  0.72489918171E+02  0.36678861996E+03  0.37476591190E+03  0.00000000000E+00 0. -1.
</event>
<event>
 7    1  0.5137842E-006  0.9896917E+02  0.7561462E-02  0.1282479E+00
         -2   -1    0    0    0  501 -0.00000000000E+00  0.00000000000E+00  0.27809895322E+03  0.27809895322E+03  0.00000000000E+00 0.  1.
          2   -1    0    0  501    0  0.00000000000E+00 -0.00000000000E+00 -0.59022193516E+02  0.59022193516E+02  0.00000000000E+00 0. -1.
         23    2    1    2    0    0  0.17897240226E+02 -0.62870621432E+02  0.12473892619E+03  0.16735658537E+03  0.90417922533E+02 0.  0.
          5    1    1    2  502    0 -0.31796681592E+02  0.93190564939E+02  0.41053665810E+02  0.10676322508E+03  0.41800000000E+01 0.  1.
         -5    1    1    2    0  502  0.13899441366E+02 -0.30319943507E+02  0.53284167713E+02  0.63001336283E+02  0.41800000000E+01 0.  1.
        -11    1    3    3    0    0  0.99647727089E+01 -0.46776240644E+02  0.13734119438E+03  0.14543011056E+03  0.00000000000E+00 0.  1.
         11    1    3    3    0    0  0.79324675172E+01 -0.16094380788E+02 -0.12602268198E+02  0.21926474810E+02  0.00000000000E+00 0. -1.
</event>
<event>
 7    1  0.5137842E-006  0.1425767E+03  0.7561462E-02  0.1209903E+00
         -2   -1    0    0    0  501 -0.00000000000E+00  0.00000000000E+00  0.35953085385E+02  0.35953085385E+02  0.00000000000E+00 0.  1.
          2   -1    0    0  501    0  0.00000000000E+00 -0.00000000000E+00 -0.68822639518E+03  0.68822639518E+03  0.00000000000E+00 0. -1.
         23    2    1    2    0    0  0.80587524519E+02 -0.46467907170E+02 -0.44936376277E+03  0.46830098471E+03  0.93404526037E+02 0.  0.
          5    1    1    2  502    0 -0.11005114016E+03  0.57346701295E+02 -0.15935550283E+03  0.20201867805E+03  0.41800000000E+01 0.  1.
         -5    1    1    2    0  502  0.29463615639E+02 -0.10878794126E+02 -0.43554044193E+02  0.53859817802E+02  0.41800000000E+01 0.  1.
        -11    1    3    3    0    0  0.26446167452E+02 -0.66506083692E+02 -0.20247379517E+03  0.21475124370E+03  0.00000000000E+00 0.  1.
         11    1    3    3    0    0  0.54141357066E+02  0.20038176523E+02 -0.24688996760E+03  0.25354974101E+03  0.00000000000E+00 0. -1.
</event>
<event>
 7    1  0.5137842E-006  0.2800234E+03  0.7561462E-02  0.1095676E+00
          1   -1    0    0  501    0  0.00000000000E+00  0.00000000000E+00  0.18359178706E+03  0.18359178706E+03  0.00000000000E+00 0. -1.
         -1   -1    0    0    0  501 -0.00000000000E+00 -0.00000000000E+00 -0.45317062059E+03  0.45317062059E+03  0.00000000000E+00 0.  1.
         23    2    1    2    0    0  0.11586626778E+03  0.24045437886E+03 -0.14326265453E+03  0.31606475621E+03  0.90163416164E+02 0.  0.
          5    1    1    2  502    0 -0.12078579282E+03 -0.16439689034E+03 -0.13380279490E+03  0.24400042136E+03  0.41800000000E+01 0. -1.
         -5    1    1    2    0  502  0.49195250349E+01 -0.76057488512E+02  0.74866158883E+01  0.76697230086E+02  0.41800000000E+01 0. -1.
        -11    1    3    3    0    0  0.22890675826E+01  0.95479923497E+02 -0.67350163194E+02  0.11686616321E+03  0.00000000000E+00 0.  1.
         11    1    3    3    0    0  0.11357720020E+03  0.14497445536E+03 -0.75912491332E+02  0.19919859300E+03  0.00000000000E+00 0. -1.
</event>
<event>
 7    1  0.5137842E-006  0.2664834E+03  0.7561462E-02  0.1103309E+00
         -2   -1    0    0    0  501 -0.00000000000E+00  0.00000000000E+00  0.27048418925E+03  0.27048418925E+03  0.00000000000E+00 0.  1.
          2   -1    0    0  501    0  0.00000000000E+00 -0.00000000000E+00 -0.37035791833E+03  0.37035791833E+03  0.00000000000E+00 0. -1.
         23    2    1    2    0    0 -0.24071270660E+03 -0.86183197350E+02 -0.20209084196E+03  0.33840621595E+03  0.91147726032E+02 0.  0.
          5    1    1    2  502    0  0.17557056557E+03  0.10448049149E+03  0.11343431216E+03  0.23372208320E+03  0.41800000000E+01 0.  1.
         -5    1    1    2    0  502  0.65142141028E+02 -0.18297294143E+02 -0.11217199283E+02  0.68713808441E+02  0.41800000000E+01 0.  1.
        -11    1    3    3    0    0 -0.15895075259E+03 -0.82246034159E+02 -0.92035484545E+02  0.20124681935E+03  0.00000000000E+00 0.  1.
         11    1    3    3    0    0 -0.81761954012E+02 -0.39371631912E+01 -0.11005535742E+03  0.13715939660E+03  0.00000000000E+00 0. -1.
</event>
<event>
 7    1  0.5137842E-006  0.1182737E+03  0.7561462E-02  0.1245972E+00
         -2   -1    0    0    0  501 -0.00000000000E+00  0.00000000000E+00  0.36190698431E+02  0.36190698431E+02  0.00000000000E+00 0.  1.
          2   -1    0    0  501    0  0.00000000000E+00 -0.00000000000E+00 -0.58687150328E+03  0.58687150328E+03  0.00000000000E+00 0. -1.
         23    2    1    2    0    0  0.91662375179E+02  0.22191311924E+02 -0.31514051885E+03  0.34018484674E+03  0.86704890172E+02 0.  0.
          5    1    1    2  502    0 -0.40989976681E+00  0.34252964609E+02 -0.15087645104E+02  0.37663550511E+02  0.41800000000E+01 0.  1.
         -5    1    1    2    0  502 -0.91252475413E+02 -0.56444276532E+02 -0.22045264090E+03  0.24521380447E+03  0.41800000000E+01 0.  1.
        -11    1    3    3    0    0  0.24597028119E+02  0.96931954092E+01 -0.11251665220E+02  0.28732765265E+02  0.00000000000E+00 0.  1.
         11    1    3    3    0    0  0.67065347060E+02  0.12498116514E+02 -0.30388885363E+03  0.31145208147E+03  0.00000000000E+00 0. -1.
</event>
<event>
 7    1  0.5137842E-006  0.1189355E+03  0.7561462E-02  0.1244864E+00
         -2   -1    0    0    0  501 -0.00000000000E+00  0.00000000000E+00  0.13791623744E+03  0.13791623744E+03  0.00000000000E+00 0.  1.
          2   -1    0    0  501    0  0.00000000000E+00 -0.00000000000E+00 -0.12280054672E+03  0.12280054672E+03  0.00000000000E+00 0. -1.
         23    2    1    2    0    0 -0.14320678984E+01  0.54008783517E+02 -0.41047552355E+02  0.11333678254E+03  0.90781744899E+02 0.  0.
          5    1    1    2  502    0  0.62048556690E+02 -0.15734212168E+02  0.31383282770E+02  0.71414085846E+02  0.41800000000E+01 0.  1.
         -5    1    1    2    0  502 -0.60616488792E+02 -0.38274571349E+02  0.24779960309E+02  0.75965915767E+02  0.41800000000E+01 0.  1.
        -11    1    3    3    0    0 -0.19713531842E+02  0.72962037244E+02 -0.16546933424E+02  0.77368489854E+02  0.00000000000E+00 0.  1.
         11    1    3    3    0    0  0.18281463943E+02 -0.18953253728E+02 -0.24500618931E+02  0.35968292687E+02  0.00000000000E+00 0. -1.
</event>
<event>
 7    1  0.5137842E-006  0.1162591E+03  0.7561462E-02  0.1249399E+00
         -2   -1    0    0    0  501 -0.00000000000E+00  0.00000000000E+00  0.42945014056E+03  0.42945014056E+03  0.00000000000E+00 0. -1.
          2   -1    0    0  501    0  0.00000000000E+00 -0.00000000000E+00 -0.50261902550E+02  0.50261902550E+02  0.00000000000E+00 0.  1.
         23    2    1    2    0    0 -0.54426300446E+01 -0.96516150554E+02  0.15419969971E+03  0.20473556397E+03  0.93776938655E+02 0.  0.
          5    1    1    2  502    0  0.46070389900E+02  0.72211716860E+02  0.20717152648E+03  0.22421981772E+03  0.41800000000E+01 0.  1.
         -5    1    1    2    0  502 -0.40627759855E+02  0.24304433694E+02  0.17817011826E+02  0.50756661420E+02  0.41800000000E+01 0.  1.
        -11    1    3    3    0    0 -0.69623279498E+01 -0.76115976564E+01 -0.12255961130E+02  0.16019332464E+02  0.00000000000E+00 0.  1.
         11    1    3    3    0    0  0.15196979051E+01 -0.88904552898E+02  0.16645566084E+03  0.18871623151E+03  0.00000000000E+00 0. -1.
</event>
<event>
 7    1  0.5137842E-006  0.8602741E+02  0.7561462E-02  0.1312767E+00
          2   -1    0    0  501    0  0.00000000000E+00  0.00000000000E+00  0.38774454777E+03  0.38774454777E+03  0.00000000000E+00 0. -1.
         -2   -1    0    0    0  501 -0.00000000000E+00 -0.00000000000E+00 -0.31939147120E+02  0.31939147120E+02  0.00000000000E+00 0.  1.
         23    2    1    2    0    0 -0.17989063772E+02  0.20303726343E+02  0.14823105534E+03  0.17581686794E+03  0.90571946915E+02 0.  0.
          5    1    1    2  502    0 -0.73056947086E+01  0.37207281475E+02  0.16123576363E+03  0.16568705093E+03  0.41800000000E+01 0.  1.
         -5    1    1    2    0  502  0.25294758480E+02 -0.57511007818E+02  0.46338581678E+02  0.78179776021E+02  0.41800000000E+01 0.  1.
        -11    1    3    3    0    0 -0.36159056375E+02 -0.82571632412E+01  0.17940925141E+02  0.41201151654E+02  0.00000000000E+00 0.  1.
         11    1    3    3    0    0  0.18169992604E+02  0.28560889584E+02  0.13029013020E+03  0.13461571629E+03  0.00000000000E+00 0. -1.
</event>
<event>
 7    1  0.5137842E-006  0.1671081E+03  0.7561462E-02  0.1180898E+00
         -2   -1    0    0    0  501 -0.00000000000E+00  0.00000000000E+00  0.18695574583E+02  0.18695574583E+02  0.00000000000E+00 0.  1.
          2   -1    0    0  501    0  0.00000000000E+00 -0.00000000000E+00 -0.15260154235E+04  0.15260154235E+04  0.00000000000E+00 0. -1.
         23    2    1    2    0    0  0.61963743634E+02  0.11271139186E+03 -0.69020439215E+03  0.70812957641E+03  0.92314845265E+02 0.  0.
          5    1    1    2  502    0  0.19520094143E+02 -0.91932244198E+02 -0.47807958958E+03  0.48724751202E+03  0.41800000000E+01 0. -1.
         -5    1    1    2    0  502 -0.81483837777E+02 -0.20779147659E+02 -0.33903586717E+03  0.34933390964E+03  0.41800000000E+01 0. -1.
        -11    1    3    3    0    0  0.64587051870E+02  0.26689674299E+02 -0.37113939886E+03  0.37766159372E+03  0.00000000000E+00 0. -1.
         11    1    3    3    0    0 -0.26233082364E+01  0.86021717559E+02 -0.31906499329E+03  0.33046798269E+03  0.00000000000E+00 0.  1.
</event>
<event>
 7    1  0.5137842E-006  0.1242247E+03  0.7561462E-02  0.1236286E+00
          2   -1    0    0  501    0  0.00000000000E+00  0.00000000000E+00  0.41697482075E+03  0.41697482075E+03  0.00000000000E+00 0. -1.
         -2   -1    0    0    0  501 -0.00000000000E+00 -0.00000000000E+00 -0.49432072242E+02  0.49432072242E+02  0.00000000000E+00 0.  1.
         23    2    1    2    0    0 -0.71099509774E+02  0.53855164349E+01  0.26607925892E+03  0.29026332558E+03  0.91490338704E+02 0.  0.
          5    1    1    2  502    0  0.62498565705E+02  0.53704776287E+02  0.45624534029E+02  0.94283318867E+02  0.41800000000E+01 0. -1.
         -5    1    1    2    0  502  0.86009440693E+01 -0.59090292722E+02  0.55838955561E+02  0.81860248540E+02  0.41800000000E+01 0. -1.
        -11    1    3    3    0    0 -0.42293788077E+02  0.41925300496E+02  0.20503453219E+03  0.21350797344E+03  0.00000000000E+00 0. -1.
         11    1    3    3    0    0 -0.28805721697E+02 -0.36539784061E+02  0.61044726722E+02  0.76755352141E+02  0.00000000000E+00 0.  1.
</event>
<event>
 7    1  0.5137842E-006  0.9853371E+02  0.7561462E-02  0.1283410E+00
         -1   -1    0    0    0  501 -0.00000000000E+00  0.00000000000E+00  0.51693827207E+03  0.51693827207E+03  0.00000000000E+00 0.  1.
          1   -1    0    0  501    0  0.00000000000E+00 -0.00000000000E+00 -0.28043996538E+02  0.28043996538E+02  0.00000000000E+00 0. -1.
         23    2    1    2    0    0 -0.28764240260E+02  0.41181264177E+02  0.18582386720E+03  0.21328670831E+03  0.91855496763E+02 0.  0.
          5    1    1    2  502    0 -0.27338002443E+02 -0.21951357860E+02  0.24849564601E+03  0.25099160738E+03  0.41800000000E+01 0. -1.
         -5    1    1    2    0  502  0.56102242703E+02 -0.19229906317E+02  0.54574762324E+02  0.80703952914E+02  0.41800000000E+01 0. -1.
        -11    1    3    3    0    0  0.29856422167E+02 -0.13403861466E+01  0.76721946895E+02  0.82337474548E+02  0.00000000000E+00 0. -1.
         11    1    3    3    0    0 -0.58620662427E+02  0.42521650324E+02  0.10910192030E+03  0.13094923376E+03  0.00000000000E+00 0.  1.
</event>
<event>
 7    1  0.5137842E-006  0.7773840E+02  0.7561462E-02  0.1335595E+00
          1   -1    0    0  501    0  0.00000000000E+00  0.00000000000E+00  0.18309822239E+03  0.18309822239E+03  0.00000000000E+00 0. -1.
         -1   -1    0    0    0  501 -0.00000000000E+00 -0.00000000000E+00 -0.99138693383E+02  0.99138693383E+02  0.00000000000E+00 0.  1.
         23    2    1    2    0    0  0.37495254356E+02 -0.57198917869E+02  0.78378101315E+02  0.13955130792E+03  0.93025966649E+02 0.  0.
          5    1    1    2  502    0  0.75188223242E+01 -0.14084267209E+01 -0.49601479837E+02  0.50361647680E+02  0.41800000000E+01 0.  1.
         -5    1    1    2    0  502 -0.45014076680E+02  0.58607344590E+02  0.55182907531E+02  0.92323960177E+02  0.41800000000E+01 0.  1.
        -11    1    3    3    0    0  0.22174465107E+02 -0.12421766341E+02 -0.18698125806E+02  0.31553559078E+02  0.00000000000E+00 0.  1.
         11    1    3    3    0    0  0.15320789249E+02 -0.44777151528E+02  0.97076227121E+02  0.10799774884E+03  0.00000000000E+00 0. -1.
</event>
<event>
 7    1  0.5186483E-006  0.1796504E+03  0.7561462E-02  0.1168142E+00
          2   -1    0    0  501    0  0.00000000000E+00  0.00000000000E+00  0.13537146178E+04  0.13537146178E+04  0.00000000000E+00 0. -1.
         -2   -1    0    0    0  501 -0.00000000000E+00 -0.00000000000E+00 -0.31404621184E+02  0.31404621184E+02  0.00000000000E+00 0.  1.
         23    2    1    2    0    0  0.27922495364E+02  0.16062969913E+03  0.85689070816E+03  0.87635179756E+03  0.84553068314E+02 0.  0.
          5    1    1    2  502    0 -0.53722408969E+02 -0.11368132232E+03  0.41991342958E+03  0.43835408178E+03  0.41800000000E+01 0. -1.
         -5    1    1    2    0  502  0.25799913605E+02 -0.46948376808E+02  0.45505858913E+02  0.70413359686E+02  0.41800000000E+01 0. -1.
        -11    1    3    3    0    0  0.49723190194E+02  0.65888326829E+02  0.30544269866E+03  0.31639992007E+03  0.00000000000E+00 0.  1.
         11    1    3    3    0    0 -0.21800694830E+02  0.94741372299E+02  0.55144800950E+03  0.55995187749E+03  0.00000000000E+00 0. -1.
</event>
<event>
 7    1  0.5137842E-006  0.9954668E+02  0.7561462E-02  0.1281252E+00
         -2   -1    0    0    0  501 -0.00000000000E+00  0.00000000000E+00  0.25307068331E+02  0.25307068331E+02  0.00000000000E+00 0.  1.
          2   -1    0    0  501    0  0.00000000000E+00 -0.00000000000E+00 -0.57431848247E+03  0.57431848247E+03  0.00000000000E+00 0. -1.
         23    2    1    2    0    0  0.38335903347E+02 -0.29825048392E+02 -0.28067890203E+03  0.29960742030E+03  0.92869721951E+02 0.  0.
          5    1    1    2  502    0 -0.60032006491E+02 -0.26928305609E+02 -0.18789452247E+03  0.19912508486E+03  0.41800000000E+01 0. -1.
         -5    1    1    2    0  502  0.21696103144E+02  0.56753354001E+02 -0.80437989636E+02  0.10089304564E+03  0.41800000000E+01 0. -1.
        -11    1    3    3    0    0  0.23051721647E+02  0.13228036773E+02 -0.16015675246E+02  0.31030060930E+02  0.00000000000E+00 0.  1.
         11    1    3    3    0    0  0.15284181700E+02 -0.43053085164E+02 -0.26466322679E+03  0.26857735937E+03  0.00000000000E+00 0. -1.
</event>
<event>
 7    1  0.5730031E-006  0.4804860E+03  0.7561462E-02  0.1019002E+00
          2   -1    0    0  501    0  0.00000000000E+00  0.00000000000E+00  0.10282438140E+04  0.10282438140E+04  0.00000000000E+00 0. -1.
         -2   -1    0    0    0  501 -0.00000000000E+00 -0.00000000000E+00 -0.26058447104E+03  0.26058447104E+03  0.00000000000E+00 0.  1.
         23    2    1    2    0    0 -0.41381635491E+03 -0.24384546073E+03  0.18373592424E+03  0.52246091453E+03  0.92205927402E+02 0.  0.
          5    1    1    2  502    0  0.33980051194E+03  0.19553165389E+03  0.54070524384E+03  0.66788969800E+03  0.41800000000E+01 0. -1.
         -5    1    1    2    0  502  0.74015842967E+02  0.48313806845E+02  0.43218174870E+02  0.98477672500E+02  0.41800000000E+01 0. -1.
        -11    1    3    3    0    0 -0.10683941557E+03 -0.68040378030E+02  0.66044732916E+01  0.12683758445E+03  0.00000000000E+00 0. -1.
         11    1    3    3    0    0 -0.30697693934E+03 -0.17580508270E+03  0.17713145095E+03  0.39562333008E+03  0.00000000000E+00 0.  1.
</event>
<event>
 7    1  0.5137842E-006  0.2042335E+03  0.7561462E-02  0.1146216E+00
          1   -1    0    0  501    0  0.00000000000E+00  0.00000000000E+00  0.64727787357E+02  0.64727787357E+02  0.00000000000E+00 0. -1.
         -1   -1    0    0    0  501 -0.00000000000E+00 -0.00000000000E+00 -0.90547459938E+03  0.90547459938E+03  0.00000000000E+00 0.  1.
         23    2    1    2    0    0 -0.15464185149E+03 -0.12711779189E+03 -0.24651325935E+03  0.33080101371E+03  0.92668702329E+02 0.  0.
          5    1    1    2  502    0  0.12994437899E+03  0.12674645050E+03 -0.35384396332E+03  0.39770997866E+03  0.41800000000E+01 0. -1.
         -5    1    1    2    0  502  0.24697472494E+02  0.37134138854E+00 -0.24038958935E+03  0.24169139436E+03  0.41800000000E+01 0. -1.
        -11    1    3    3    0    0 -0.92928785798E+02 -0.59728929115E+02 -0.66544250033E+02  0.12896294590E+03  0.00000000000E+00 0.  1.
         11    1    3    3    0    0 -0.61713065687E+02 -0.67388862777E+02 -0.17996900932E+03  0.20183806781E+03  0.00000000000E+00 0. -1.
</event>
<event>
 7    1  0.5137842E-006  0.1051856E+03  0.7561462E-02  0.1269754E+00
          1   -1    0    0  501    0  0.00000000000E+00  0.00000000000E+00  0.21474213949E+03  0.21474213949E+03  0.00000000000E+00 0. -1.
         -1   -1    0    0    0  501 -0.00000000000E+00 -0.00000000000E+00 -0.57029981341E+02  0.57029981341E+02  0.00000000000E+00 0.  1.
         23    2    1    2    0    0  0.23631029386E+02 -0.35245073678E+01  0.62217197214E+02  0.11259343247E+03  0.90749400571E+02 0.  0.
          5    1    1    2  502    0  0.14716583287E+02  0.58334734916E+02  0.43786870143E+02  0.74527052258E+02  0.41800000000E+01 0. -1.
         -5    1    1    2    0  502 -0.38347612674E+02 -0.54810227548E+02  0.51708090793E+02  0.84651636105E+02  0.41800000000E+01 0. -1.
        -11    1    3    3    0    0  0.27550521475E+02 -0.38778461958E+02  0.60661215927E+02  0.77088153844E+02  0.00000000000E+00 0. -1.
         11    1    3    3    0    0 -0.39194920882E+01  0.35253954590E+02  0.15559812869E+01  0.35505278625E+02  0.00000000000E+00 0.  1.
</event>
<event>
 7    1  0.5137842E-006  0.6840395E+02  0.7561462E-02  0.1365606E+00
         -1   -1    0    0    0  501 -0.00000000000E+00  0.00000000000E+00  0.19008185691E+03  0.19008185691E+03  0.00000000000E+00 0.  1.
          1   -1    0    0  501    0  0.00000000000E+00 -0.00000000000E+00 -0.10444430064E+03  0.10444430064E+03  0.00000000000E+00 0. -1.
         23    2    1    2    0    0  0.18129085400E+02  0.15847308847E+02 -0.49709327190E+02  0.10866169480E+03  0.93576416750E+02 0.  0.
          5    1    1    2  502    0 -0.14649063596E+02 -0.25837350554E+02  0.15783693946E+03  0.16066155609E+03  0.41800000000E+01 0. -1.
         -5    1    1    2    0  502 -0.34800218046E+01  0.99900417069E+01 -0.22490056001E+02  0.25202906657E+02  0.41800000000E+01 0. -1.
        -11    1    3    3    0    0 -0.32749522351E+02 -0.14912682549E+02 -0.27122351649E+02  0.45061527649E+02  0.00000000000E+00 0. -1.
         11    1    3    3    0    0  0.50878607752E+02  0.30759991396E+02 -0.22586975541E+02  0.63600167150E+02  0.00000000000E+00 0.  1.
</event>
<event>
 7    1  0.5137842E-006  0.1266421E+03  0.7561462E-02  0.1232525E+00
         -2   -1    0    0    0  501 -0.00000000000E+00  0.00000000000E+00  0.40131473475E+02  0.40131473475E+02  0.00000000000E+00 0.  1.
          2   -1    0    0  501    0  0.00000000000E+00 -0.00000000000E+00 -0.55534141634E+03  0.55534141634E+03  0.00000000000E+00 0. -1.
         23    2    1    2    0    0  0.85274109148E+00 -0.95936354898E+02 -0.30487725513E+03  0.33259584062E+03  0.92007288522E+02 0.  0.
          5    1    1    2  502    0  0.54129145100E+02  0.99546185562E+01 -0.65618900976E+02  0.85745969848E+02  0.41800000000E+01 0.  1.
         -5    1    1    2    0  502 -0.54981886191E+02  0.85981736342E+02 -0.14471378675E+03  0.17713107935E+03  0.41800000000E+01 0.  1.
        -11    1    3    3    0    0  0.27697862945E+00 -0.75815139030E+02 -0.30304311047E+03  0.31238300022E+03  0.00000000000E+00 0. -1.
         11    1    3    3    0    0  0.57576246203E+00 -0.20121215868E+02 -0.18341446653E+01  0.20212840401E+02  0.00000000000E+00 0.  1.
</event>
<event>
 7    1  0.5137842E-006  0.1262330E+03  0.7561462E-02  0.1233155E+00
         -2   -1    0    0    0  501 -0.00000000000E+00  0.00000000000E+00  0.56302045669E+02  0.56302045669E+02  0.00000000000E+00 0.  1.
          2   -1    0    0  501    0  0.00000000000E+00 -0.00000000000E+00 -0.28619613440E+03  0.28619613440E+03  0.00000000000E+00 0. -1.
         23    2    1    2    0    0 -0.68284368779E+02 -0.34851498729E+01 -0.10261691698E+03  0.15139326673E+03  0.87833867455E+02 0.  0.
          5    1    1    2  502    0  0.15467518311E+02  0.61083300628E+02 -0.68960760718E+02  0.93506538044E+02  0.41800000000E+01 0. -1.
         -5    1    1    2    0  502  0.52816850468E+02 -0.57598150755E+02 -0.58316411031E+02  0.97598375290E+02  0.41800000000E+01 0. -1.
        -11    1    3    3    0    0 -0.54303960187E+02  0.38655442183E+02 -0.56549140089E+02  0.87412633796E+02  0.00000000000E+00 0.  1.
         11    1    3    3    0    0 -0.13980408592E+02 -0.42140592056E+02 -0.46067776895E+02  0.63980632939E+02  0.00000000000E+00 0. -1.
</event>
<event>
 7    1  0.5137842E-006  0.1329104E+03  0.7561462E-02  0.1223200E+00
          2   -1    0    0  501    0  0.00000000000E+00  0.00000000000E+00  0.37833027511E+03  0.37833027511E+03  0.00000000000E+00 0. -1.
         -2   -1    0    0    0  501 -0.00000000000E+00 -0.00000000000E+00 -0.71598153648E+02  0.71598153648E+02  0.00000000000E+00 0.  1.
         23    2    1    2    0    0 -0.93974225537E+01 -0.10910602364E+03  0.22058998825E+03  0.26268466199E+03  0.91383000507E+02 0.  0.
          5    1    1    2  502    0  0.19123434763E+02  0.11870357028E+03  0.10763924092E+03  0.16143085808E+03  0.41800000000E+01 0.  1.
         -5    1    1    2    0  502 -0.97260122097E+01 -0.95975466409E+01 -0.21497107709E+02  0.25812908687E+02  0.41800000000E+01 0.  1.
        -11    1    3    3    0    0  0.31750386265E+02 -0.46369406273E+02  0.14791267333E+03  0.15822884628E+03  0.00000000000E+00 0. -1.
         11    1    3    3    0    0 -0.41147808819E+02 -0.62736617369E+02  0.72677314921E+02  0.10445581570E+03  0.00000000000E+00 0.  1.
</event>
<event>
 7    1  0.5137842E-006  0.1144002E+03  0.7561462E-02  0.1252632E+00
         -1   -1    0    0    0  501 -0.00000000000E+00  0.00000000000E+00  0.11583634982E+03  0.11583634982E+03  0.00000000000E+00 0.  1.
          1   -1    0    0  501    0  0.00000000000E+00 -0.00000000000E+00 -0.14699581422E+03  0.14699581422E+03  0.00000000000E+00 0. -1.
         23    2    1    2    0    0  0.33691502027E+02 -0.19521096509E+02 -0.63430918340E+02  0.12790195343E+03  0.10401556504E+03 0.  0.
          5    1    1    2  502    0 -0.77754315524E+01  0.64807020848E+02  0.47014070657E+02  0.80549379431E+02  0.41800000000E+01 0.  1.
         -5    1    1    2    0  502 -0.25916070475E+02 -0.45285924339E+02 -0.14742616718E+02  0.54380831180E+02  0.41800000000E+01 0.  1.
        -11    1    3    3    0    0  0.67698701216E+02 -0.31929266416E+02 -0.41787595002E+02  0.85725114734E+02  0.00000000000E+00 0. -1.
         11    1    3    3    0    0 -0.34007199188E+02  0.12408169907E+02 -0.21643323339E+02  0.42176838694E+02  0.00000000000E+00 0.  1.
</event>
<event>
 7    1  0.5137842E-006  0.1128337E+03  0.7561462E-02  0.1255411E+00
         -1   -1    0    0    0  501 -0.00000000000E+00  0.00000000000E+00  0.13188554430E+03  0.13188554430E+03  0.00000000000E+00 0.  1.
          1   -1    0    0  501    0  0.00000000000E+00 -0.00000000000E+00 -0.11505524600E+03  0.11505524600E+03  0.00000000000E+00 0. -1.
         23    2    1    2    0    0 -0.12367115914E+02 -0.57578304311E+02  0.10261893589E+02  0.10852589052E+03  0.90577898909E+02 0.  0.
          5    1    1    2  502    0 -0.44962160936E+02 -0.11692300817E+02 -0.77014417657E+01  0.47276742905E+02  0.41800000000E+01 0.  1.
         -5    1    1    2    0  502  0.57329276850E+02  0.69270605129E+02  0.14269846470E+02  0.91138156868E+02  0.41800000000E+01 0.  1.
        -11    1    3    3    0    0  0.24902200401E+02 -0.41544127826E+02 -0.25236798594E+02  0.54616207713E+02  0.00000000000E+00 0. -1.
         11    1    3    3    0    0 -0.37269316316E+02 -0.16034176485E+02  0.35498692183E+02  0.53909682812E+02  0.00000000000E+00 0.  1.
</event>
<event>
 7    1  0.5137842E-006  0.1437186E+03  0.7561462E-02  0.1208411E+00
         -1   -1    0    0    0  501 -0.00000000000E+00  0.00000000000E+00  0.21051597346E+03  0.21051597346E+03  0.00000000000E+00 0.  1.
          1   -1    0    0  501    0  0.00000000000E+00 -0.00000000000E+00 -0.21648135543E+03  0.21648135543E+03  0.00000000000E+00 0. -1.
         23    2    1    2    0    0  0.45111472184E+02  0.11473954503E+03 -0.13712766762E+03  0.20544404995E+03  0.90570703406E+02 0.  0.
          5    1    1    2  502    0  0.23040689251E+02 -0.72990539535E+01  0.81157342150E+02  0.84782876424E+02  0.41800000000E+01 0. -1.
         -5    1    1    2    0  502 -0.68152161435E+02 -0.10744049108E+03  0.50004943495E+02  0.13677040252E+03  0.41800000000E+01 0.  1.
        -11    1    3    3    0    0 -0.12785055693E+02  0.11277821666E+02  0.73352198297E+01  0.18559427808E+02  0.00000000000E+00 0.  1.
         11    1    3    3    0    0  0.57896527877E+02  0.10346172336E+03 -0.14446288745E+03  0.18688462214E+03  0.00000000000E+00 0. -1.
</event>
<event>
 7    1  0.5137842E-006  0.1993412E+03  0.7561462E-02  0.1150296E+00
         -1   -1    0    0    0  501 -0.00000000000E+00  0.00000000000E+00  0.23211703713E+03  0.23211703713E+03  0.00000000000E+00 0.  1.
          1   -1    0    0  501    0  0.00000000000E+00 -0.00000000000E+00 -0.19184638171E+03  0.19184638171E+03  0.00000000000E+00 0. -1.
         23    2    1    2    0    0 -0.14147702385E+03 -0.67731960081E+01  0.32635938496E+01  0.16921140942E+03  0.92521487068E+02 0.  0.
          5    1    1    2  502    0 -0.85940650254E+01  0.82963223325E+02  0.77228988583E+01  0.83868170034E+02  0.41800000000E+01 0. -1.
         -5    1    1    2    0  502  0.15007108888E+03 -0.76190027317E+02  0.29284162706E+02  0.17088383939E+03  0.41800000000E+01 0.  1.
        -11    1    3    3    0    0 -0.65638471345E+02  0.16133301671E+02 -0.40407655712E+02  0.78749418941E+02  0.00000000000E+00 0.  1.
         11    1    3    3    0    0 -0.75838552509E+02 -0.22906497679E+02  0.43671249562E+02  0.90461990476E+02  0.00000000000E+00 0. -1.
</event>
<event>
 7    1  0.5137842E-006  0.1065682E+03  0.7561462E-02  0.1267060E+00
          2   -1    0    0  501    0  0.00000000000E+00  0.00000000000E+00  0.87792817538E+02  0.87792817538E+02  0.00000000000E+00 0. -1.
         -2   -1    0    0    0  501 -0.00000000000E+00 -0.00000000000E+00 -0.31284779791E+03  0.31284779791E+03  0.00000000000E+00 0.  1.
         23    2    1    2    0    0  0.83501902283E+02  0.28563002995E+02 -0.10572842327E+03  0.16522373950E+03  0.91279635083E+02 0.  0.
          5    1    1    2  502    0 -0.59407200900E+02 -0.43881062380E+01  0.40356349917E+02  0.72073423491E+02  0.41800000000E+01 0. -1.
         -5    1    1    2    0  502 -0.24094701383E+02 -0.24174896757E+02 -0.15968290702E+03  0.16334345246E+03  0.41800000000E+01 0.  1.
        -11    1    3    3    0    0  0.18781207722E+02 -0.27571949640E+02 -0.62550915619E+01  0.33942191162E+02  0.00000000000E+00 0.  1.
         11    1    3    3    0    0  0.64720694561E+02  0.56134952635E+02 -0.99473331707E+02  0.13128154833E+03  0.00000000000E+00 0. -1.
</event>
<event>
 7    1  0.5137842E-006  0.1019212E+03  0.7561462E-02  0.1276307E+00
          2   -1    0    0  501    0  0.00000000000E+00  0.00000000000E+00  0.66760259103E+03  0.66760259103E+03  0.00000000000E+00 0. -1.
         -2   -1    0    0    0  501 -0.00000000000E+00 -0.00000000000E+00 -0.28381047461E+02  0.28381047461E+02  0.00000000000E+00 0.  1.
         23    2    1    2    0    0 -0.41043525832E+02 -0.37152227352E+02  0.44838530528E+03  0.46118678607E+03  0.92622948792E+02 0.  0.
          5    1    1    2  502    0 -0.22184500586E+02  0.23213266037E+02  0.15948372461E+03  0.16273763732E+03  0.41800000000E+01 0. -1.
         -5    1    1    2    0  502  0.63228026418E+02  0.13938961315E+02  0.31352513688E+02  0.72059215107E+02  0.41800000000E+01 0. -1.
        -11    1    3    3    0    0 -0.24757632517E+02 -0.67633170863E+02  0.26727811351E+03  0.27681180634E+03  0.00000000000E+00 0. -1.
         11    1    3    3    0    0 -0.16285893315E+02  0.30480943510E+02  0.18110719177E+03  0.18437497972E+03  0.00000000000E+00 0.  1.
</event>
<event>
 7    1  0.5137842E-006  0.1925699E+03  0.7561462E-02  0.1156164E+00
         -2   -1    0    0    0  501 -0.00000000000E+00  0.00000000000E+00  0.10492006500E+04  0.10492006500E+04  0.00000000000E+00 0.  1.
          2   -1    0    0  501    0  0.00000000000E+00 -0.00000000000E+00 -0.59808714368E+02  0.59808714368E+02  0.00000000000E+00 0. -1.
         23    2    1    2    0    0 -0.13757947992E+03 -0.99941178384E+02  0.15088288892E+03  0.24433531254E+03  0.89541869267E+02 0.  0.
          5    1    1    2  502    0 -0.17034102728E+02 -0.49270778545E+01  0.15547235700E+03  0.15653613941E+03  0.41800000000E+01 0. -1.
         -5    1    1    2    0  502  0.15461358265E+03  0.10486825624E+03  0.68303668968E+03  0.70813791239E+03  0.41800000000E+01 0. -1.
        -11    1    3    3    0    0 -0.11933991999E+03 -0.10720316092E+03  0.15629571209E+03  0.22397072093E+03  0.00000000000E+00 0.  1.
         11    1    3    3    0    0 -0.18239559932E+02  0.72619825397E+01 -0.54128231658E+01  0.20364591613E+02  0.00000000000E+00 0. -1.
</event>
<event>
 7    1  0.5137842E-006  0.1051337E+03  0.7561462E-02  0.1269856E+00
         -2   -1    0    0    0  501 -0.00000000000E+00  0.00000000000E+00  0.20269730109E+02  0.20269730109E+02  0.00000000000E+00 0.  1.
          2   -1    0    0  501    0  0.00000000000E+00 -0.00000000000E+00 -0.73209663524E+03  0.73209663524E+03  0.00000000000E+00 0. -1.
         23    2    1    2    0    0  0.35195045099E+02  0.11981250921E+02 -0.44005943483E+03  0.45089103619E+03  0.90929526316E+02 0.  0.
          5    1    1    2  502    0 -0.73114513287E+02 -0.34480386866E+01 -0.24047123633E+03  0.25139910287E+03  0.41800000000E+01 0. -1.
         -5    1    1    2    0  502  0.37919468188E+02 -0.85332122344E+01 -0.31296233973E+02  0.50076226292E+02  0.41800000000E+01 0. -1.
        -11    1    3    3    0    0  0.36128065069E+00 -0.37415316007E+02 -0.14949492893E+03  0.15410635993E+03  0.00000000000E+00 0.  1.
         11    1    3    3    0    0  0.34833764448E+02  0.49396566928E+02 -0.29056450590E+03  0.29678467625E+03  0.00000000000E+00 0. -1.
</event>
<event>
 7    1  0.5137842E-006  0.8638104E+02  0.7561462E-02  0.1311860E+00
         -2   -1    0    0    0  501 -0.00000000000E+00  0.00000000000E+00  0.23564906092E+03  0.23564906092E+03  0.00000000000E+00 0.  1.
          2   -1    0    0  501    0  0.00000000000E+00 -0.00000000000E+00 -0.52895609814E+02  0.52895609814E+02  0.00000000000E+00 0. -1.
         23    2    1    2    0    0 -0.80626357734E+01  0.59963907852E+01  0.49164821457E+02  0.10525661583E+03  0.92524660007E+02 0.  0.
          5    1    1    2  502    0  0.44145005059E+02 -0.32044296746E+01  0.13947099582E+03  0.14638538492E+03  0.41800000000E+01 0.  1.
         -5    1    1    2    0  502 -0.36082369286E+02 -0.27919611105E+01 -0.58823661759E+01  0.36902669984E+02  0.41800000000E+01 0.  1.
        -11    1    3    3    0    0  0.40001700178E+02  0.15461307378E+02  0.31381713592E+02  0.53141320937E+02  0.00000000000E+00 0. -1.
         11    1    3    3    0    0 -0.48064335951E+02 -0.94649165932E+01  0.17783107865E+02  0.52115294894E+02  0.00000000000E+00 0.  1.
</event>
<event>
 7    1  0.5137842E-006  0.9545069E+02  0.7561462E-02  0.1290164E+00
         -2   -1    0    0    0  501 -0.00000000000E+00  0.00000000000E+00  0.22293912306E+03  0.22293912306E+03  0.00000000000E+00 0.  1.
          2   -1    0    0  501    0  0.00000000000E+00 -0.00000000000E+00 -0.13571373344E+03  0.13571373344E+03  0.00000000000E+00 0. -1.
         23    2    1    2    0    0 -0.55418506554E+02 -0.19447993067E+02 -0.83362551765E+02  0.13911428146E+03  0.94625752129E+02 0.  0.
          5    1    1    2  502    0  0.67191904932E+02 -0.73101987746E+01  0.26928508300E+02  0.72875291106E+02  0.41800000000E+01 0.  1.
         -5    1    1    2    0  502 -0.11773398378E+02  0.26758191842E+02  0.14365943308E+03  0.14666328393E+03  0.41800000000E+01 0.  1.
        -11    1    3    3    0    0  0.10487507262E+02 -0.25398580753E+02 -0.64800757632E+02  0.70386176928E+02  0.00000000000E+00 0. -1.
         11    1    3    3    0    0 -0.65906013817E+02  0.59505876856E+01 -0.18561794133E+02  0.68728104531E+02  0.00000000000E+00 0.  1.
</event>
<event>
 7    1  0.5137842E-006  0.9329477E+02  0.7561462E-02  0.1295064E+00
         -2   -1    0    0    0  501 -0.00000000000E+00  0.00000000000E+00  0.20616174108E+02  0.20616174108E+02  0.00000000000E+00 0.  1.
          2   -1    0    0  501    0  0.00000000000E+00 -0.00000000000E+00 -0.68880378440E+03  0.68880378440E+03  0.00000000000E+00 0. -1.
         23    2    1    2    0    0 -0.42524809042E+02  0.17837597933E+02 -0.34349434545E+03  0.35842048145E+03  0.91380177754E+02 0.  0.
          5    1    1    2  502    0  0.14291730535E+02 -0.43447448409E+02 -0.30395340800E+03  0.30740377514E+03  0.41800000000E+01 0.  1.
         -5    1    1    2    0  502  0.28233078507E+02  0.25609850477E+02 -0.20739856841E+02  0.43595701912E+02  0.41800000000E+01 0.  1.
        -11    1    3    3    0    0 -0.95063775178E+01 -0.37056101696E+02 -0.13342025030E+03  0.13879657444E+03  0.00000000000E+00 0. -1.
         11    1    3    3    0    0 -0.33018431524E+02  0.54893699628E+02 -0.21007409515E+03  0.21962390701E+03  0.00000000000E+00 0.  1.
</event>
<event>
 7    1  0.5137842E-006  0.1129573E+03  0.7561462E-02  0.1255189E+00
         -1   -1    0    0    0  501 -0.00000000000E+00  0.00000000000E+00  0.30827517071E+03  0.30827517071E+03  0.00000000000E+00 0.  1.
          1   -1    0    0  501    0  0.00000000000E+00 -0.00000000000E+00 -0.47550567889E+02  0.47550567889E+02  0.00000000000E+00 0. -1.
         23    2    1    2    0    0 -0.24152257728E+02  0.44864568343E+02  0.89589605420E+02  0.13780316785E+03  0.91472698789E+02 0.  0.
          5    1    1    2  502    0  0.65751958407E+02 -0.54005556157E+02  0.14411078907E+03  0.16740762246E+03  0.41800000000E+01 0. -1.
         -5    1    1    2    0  502 -0.41599700679E+02  0.91409878137E+01  0.27024208326E+02  0.50614948290E+02  0.41800000000E+01 0. -1.
        -11    1    3    3    0    0  0.26947314975E+02 -0.39784876035E+01  0.49600068826E+02  0.56587569090E+02  0.00000000000E+00 0.  1.
         11    1    3    3    0    0 -0.51099572703E+02  0.48843055947E+02  0.39989536594E+02  0.81215598758E+02  0.00000000000E+00 0. -1.
</event>
<event>
 7    1  0.5137842E-006  0.1411363E+03  0.7561462E-02  0.1211808E+00
          2   -1    0    0  501    0  0.00000000000E+00  0.00000000000E+00  0.58872155675E+03  0.58872155675E+03  0.00000000000E+00 0. -1.
         -2   -1    0    0    0  501 -0.00000000000E+00 -0.00000000000E+00 -0.42546942168E+02  0.42546942168E+02  0.00000000000E+00 0.  1.
         23    2    1    2    0    0 -0.77930334961E+01 -0.11042645174E+03  0.32004317392E+03  0.35013227751E+03  0.88939563579E+02 0.  0.
          5    1    1    2  502    0  0.64589252605E+02  0.41784408715E+02  0.11865664077E+03  0.14147289197E+03  0.41800000000E+01 0.  1.
         -5    1    1    2    0  502 -0.56796219109E+02  0.68642043028E+02  0.10747479989E+03  0.13966332943E+03  0.41800000000E+01 0.  1.
        -11    1    3    3    0    0 -0.21717809313E+02 -0.69046983133E+02  0.28529175841E+03  0.29433065850E+03  0.00000000000E+00 0. -1.
         11    1    3    3    0    0  0.13924775817E+02 -0.41379468609E+02  0.34751415513E+02  0.55801619010E+02  0.00000000000E+00 0.  1.
</event>
<event>
 7    1  0.5137842E-006  0.1095136E+03  0.7561462E-02  0.1261473E+00
         -1   -1    0    0    0  501 -0.00000000000E+00  0.00000000000E+00  0.35881181399E+03  0.35881181399E+03  0.00000000000E+00 0.  1.
          1   -1    0    0  501    0  0.00000000000E+00 -0.00000000000E+00 -0.40954889307E+02  0.40954889307E+02  0.00000000000E+00 0. -1.
         23    2    1    2    0    0 -0.12382565176E+02  0.40470843872E+02  0.82140797344E+02  0.12957912320E+03  0.90842839323E+02 0.  0.
          5    1    1    2  502    0 -0.14605072541E+02  0.37758736060E+02  0.12783769134E+03  0.13416026990E+03  0.41800000000E+01 0. -1.
         -5    1    1    2    0  502  0.26987637716E+02 -0.78229579932E+02  0.10787843600E+03  0.13602731019E+03  0.41800000000E+01 0. -1.
        -11    1    3    3    0    0 -0.23679469120E+02 -0.21796505471E+02  0.10192109801E+02  0.33759206311E+02  0.00000000000E+00 0. -1.
         11    1    3    3    0    0  0.11296903945E+02  0.62267349343E+02  0.71948687544E+02  0.95819916887E+02  0.00000000000E+00 0.  1.
</event>
<event>
 7    1  0.5137842E-006  0.8794880E+02  0.7561462E-02  0.1307896E+00
          1   -1    0    0  501    0  0.00000000000E+00  0.00000000000E+00  0.82782934261E+02  0.82782934261E+02  0.00000000000E+00 0. -1.
         -1   -1    0    0    0  501 -0.00000000000E+00 -0.00000000000E+00 -0.16620914131E+03  0.16620914131E+03  0.00000000000E+00 0.  1.
         23    2    1    2    0    0 -0.33057503717E+02 -0.51111283487E+01 -0.34862728339E+02  0.11069747616E+03  0.99597184781E+02 0.  0.
          5    1    1    2  502    0  0.45366965489E+01 -0.57295456473E+02 -0.72188801426E+01  0.58076979764E+02  0.41800000000E+01 0. -1.
         -5    1    1    2    0  502  0.28520807168E+02  0.62406584822E+02 -0.41344598563E+02  0.80217619642E+02  0.41800000000E+01 0. -1.
        -11    1    3    3    0    0 -0.26334171392E+02 -0.20081955498E+02  0.29453655052E+02  0.44320326211E+02  0.00000000000E+00 0. -1.
         11    1    3    3    0    0 -0.67233323251E+01  0.14970827149E+02 -0.64316383391E+02  0.66377149951E+02  0.00000000000E+00 0.  1.
</event>
<event>
 7    1  0.5137842E-006  0.1612355E+03  0.7561462E-02  0.1187309E+00
          1   -1    0    0  501    0  0.00000000000E+00  0.00000000000E+00  0.11065456509E+04  0.11065456509E+04  0.00000000000E+00 0. -1.
         -1   -1    0    0    0  501 -0.00000000000E+00 -0.00000000000E+00 -0.25206603494E+02  0.25206603494E+02  0.00000000000E+00 0.  1.
         23    2    1    2    0    0 -0.10894740676E+03  0.59023885476E+02  0.59177621706E+03  0.61148979806E+03  0.91473086522E+02 0.  0.
          5    1    1    2  502    0  0.39478001476E+02 -0.85454773895E+02  0.19697148386E+03  0.21834896115E+03  0.41800000000E+01 0.  1.
         -5    1    1    2    0  502  0.69469405286E+02  0.26430888418E+02  0.29259134644E+03  0.30191349513E+03  0.41800000000E+01 0.  1.
        -11    1    3    3    0    0  0.13057278226E+02  0.23238423218E+02  0.90860538495E+02  0.94689779195E+02  0.00000000000E+00 0. -1.
         11    1    3    3    0    0 -0.12200468499E+03  0.35785462258E+02  0.50091567857E+03  0.51680001887E+03  0.00000000000E+00 0.  1.
</event>
<event>
 7    1  0.5137842E-006  0.1270822E+03  0.7561462E-02  0.1231851E+00
          1   -1    0    0  501    0  0.00000000000E+00  0.00000000000E+00  0.83290534204E+03  0.83290534204E+03  0.00000000000E+00 0.  1.
         -1   -1    0    0    0  501 -0.00000000000E+00 -0.00000000000E+00 -0.29672116863E+02  0.29672116863E+02  0.00000000000E+00 0. -1.
         23    2    1    2    0    0 -0.41610186627E+02  0.89827811292E+02  0.52177387783E+03  0.53905473019E+03  0.92366548273E+02 0.  0.
          5    1    1    2  502    0 -0.20098228156E+02 -0.11785783661E+02 -0.13348416890E+01  0.23708599154E+02  0.41800000000E+01 0.  1.
         -5    1    1    2    0  502  0.61708414783E+02 -0.78042027631E+02  0.28279418903E+03  0.29981412956E+03  0.41800000000E+01 0.  1.
        -11    1    3    3    0    0  0.15310639875E+02  0.68402205268E+02  0.20955932971E+03  0.22097146885E+03  0.00000000000E+00 0. -1.
         11    1    3    3    0    0 -0.56920826502E+02  0.21425606023E+02  0.31221454812E+03  0.31808326134E+03  0.00000000000E+00 0.  1.
</event>
<event>
 7    1  0.5137842E-006  0.1137018E+03  0.7561462E-02  0.1253864E+00
         -1   -1    0    0    0  501 -0.00000000000E+00  0.00000000000E+00  0.77890427199E+03  0.77890427199E+03  0.00000000000E+00 0.  1.
          1   -1    0    0  501    0  0.00000000000E+00 -0.00000000000E+00 -0.26707314963E+02  0.26707314963E+02  0.00000000000E+00 0. -1.
         23    2    1    2    0    0  0.58006613068E+02  0.55092287410E+02  0.20501989461E+03  0.23909345340E+03  0.93448354622E+02 0.  0.
          5    1    1    2  502    0  0.37096110151E+02 -0.63134912132E+01  0.10597719474E+03  0.11253719280E+03  0.41800000000E+01 0. -1.
         -5    1    1    2    0  502 -0.95102723219E+02 -0.48778796197E+02  0.44119986768E+03  0.45398094075E+03  0.41800000000E+01 0.  1.
        -11    1    3    3    0    0  0.30297227031E+02  0.42370297444E+02  0.20182266718E+03  0.20843596873E+03  0.00000000000E+00 0.  1.
         11    1    3    3    0    0  0.27709386037E+02  0.12721989967E+02  0.31972274281E+01  0.30657484673E+02  0.00000000000E+00 0. -1.
</event>
<event>
 7    1  0.5137842E-006  0.1171358E+03  0.7561462E-02  0.1247898E+00
         -2   -1    0    0    0  501 -0.00000000000E+00  0.00000000000E+00  0.65324878845E+02  0.65324878845E+02  0.00000000000E+00 0.  1.
          2   -1    0    0  501    0  0.00000000000E+00 -0.00000000000E+00 -0.53007967432E+03  0.53007967432E+03  0.00000000000E+00 0. -1.
         23    2    1    2    0    0  0.53774618551E+02 -0.78680142786E+02 -0.40984193232E+03  0.42883029355E+03  0.82720836002E+02 0.  0.
          5    1    1    2  502    0 -0.45275075821E+02  0.76888748490E+01 -0.78608583882E+02  0.91135795092E+02  0.41800000000E+01 0. -1.
         -5    1    1    2    0  502 -0.84995427302E+01  0.70991267937E+02  0.23695720722E+02  0.75438464529E+02  0.41800000000E+01 0. -1.
        -11    1    3    3    0    0 -0.98555992407E+01 -0.41898317296E+02 -0.79424116662E+02  0.90337102766E+02  0.00000000000E+00 0.  1.
         11    1    3    3    0    0  0.63630217791E+02 -0.36781825490E+02 -0.33041781566E+03  0.33849319078E+03  0.00000000000E+00 0. -1.
</event>
<event>
 7    1  0.5137842E-006  0.1017145E+03  0.7561462E-02  0.1276731E+00
          1   -1    0    0  501    0  0.00000000000E+00  0.00000000000E+00  0.16662651237E+03  0.16662651237E+03  0.00000000000E+00 0. -1.
         -1   -1    0    0    0  501 -0.00000000000E+00 -0.00000000000E+00 -0.82175176048E+02  0.82175176048E+02  0.00000000000E+00 0.  1.
         23    2    1    2    0    0 -0.12217805620E+02  0.37367786892E+02  0.18940398810E+02  0.10222612277E+03  0.92443578462E+02 0.  0.
          5    1    1    2  502    0 -0.42139263982E+02 -0.15255139901E+00 -0.12721687892E+02  0.44215999182E+02  0.41800000000E+01 0.  1.
         -5    1    1    2    0  502  0.54357069601E+02 -0.37215235493E+02  0.78232625399E+02  0.10235956646E+03  0.41800000000E+01 0.  1.
        -11    1    3    3    0    0 -0.35999263038E+02 -0.13875961778E+02 -0.83692122786E+01  0.39478259444E+02  0.00000000000E+00 0.  1.
         11    1    3    3    0    0  0.23781457418E+02  0.51243748670E+02  0.27309611089E+02  0.62747863330E+02  0.00000000000E+00 0. -1.
</event>
<event>
 7    1  0.5137842E-006  0.1325213E+03  0.7561462E-02  0.1223762E+00
         -1   -1    0    0    0  501 -0.00000000000E+00  0.00000000000E+00  0.82135090628E+03  0.82135090628E+03  0.00000000000E+00 0.  1.
          1   -1    0    0  501    0  0.00000000000E+00 -0.00000000000E+00 -0.26775903127E+02  0.26775903127E+02  0.00000000000E+00 0. -1.
         23    2    1    2    0    0 -0.26117780126E+02 -0.76031831080E+02  0.17608013231E+03  0.21200887220E+03  0.86490294951E+02 0.  0.
          5    1    1    2  502    0  0.41674672565E+02 -0.23307693842E+02  0.18751637795E+03  0.19354557945E+03  0.41800000000E+01 0.  1.
         -5    1    1    2    0  502 -0.15556892439E+02  0.99339524922E+02  0.43097849290E+03  0.44257235776E+03  0.41800000000E+01 0.  1.
        -11    1    3    3    0    0  0.22758106593E+02  0.35972541101E+01  0.50277503603E+02  0.55305506248E+02  0.00000000000E+00 0.  1.
         11    1    3    3    0    0 -0.48875886719E+02 -0.79629085190E+02  0.12580262870E+03  0.15670336595E+03  0.00000000000E+00 0. -1.
</event>
<event>
 7    1  0.5137842E-006  0.7893814E+02  0.7561462E-02  0.1332092E+00
         -1   -1    0    0    0  501 -0.00000000000E+00  0.00000000000E+00  0.10019313633E+03  0.10019313633E+03  0.00000000000E+00 0.  1.
          1   -1    0    0  501    0  0.00000000000E+00 -0.00000000000E+00 -0.17234775345E+03  0.17234775345E+03  0.00000000000E+00 0. -1.
         23    2    1    2    0    0 -0.35545991826E+01  0.58841731878E+02 -0.70533249903E+02  0.12947481297E+03  0.91180059581E+02 0.  0.
          5    1    1    2  502    0 -0.30822667810E+02 -0.74772952393E+00 -0.50711516803E+02  0.59495598886E+02  0.41800000000E+01 0. -1.
         -5    1    1    2    0  502  0.34377266993E+02 -0.58094002354E+02  0.49090149588E+02  0.83570477933E+02  0.41800000000E+01 0.  1.
        -11    1    3    3    0    0 -0.40077042611E+01  0.28064807937E+02  0.19445052072E+02  0.34377393561E+02  0.00000000000E+00 0.  1.
         11    1    3    3    0    0  0.45310507846E+00  0.30776923942E+02 -0.89978301975E+02  0.95097419406E+02  0.00000000000E+00 0. -1.
</event>
<event>
 7    1  0.5137842E-006  0.8580727E+02  0.7561462E-02  0.1313335E+00
         -1   -1    0    0    0  501 -0.00000000000E+00  0.00000000000E+00  0.23755330205E+03  0.23755330205E+03  0.00000000000E+00 0.  1.
          1   -1    0    0  501    0  0.00000000000E+00 -0.00000000000E+00 -0.62060759267E+02  0.62060759267E+02  0.00000000000E+00 0. -1.
         23    2    1    2    0    0 -0.29398464959E+02  0.39605911516E+02  0.51632183157E+02  0.11679820415E+03  0.92428568021E+02 0.  0.
          5    1    1    2  502    0 -0.44701778886E+01 -0.70993420964E+02  0.28431040725E+02  0.76719259559E+02  0.41800000000E+01 0.  1.
         -5    1    1    2    0  502  0.33868642847E+02  0.31387509449E+02  0.95429318901E+02  0.10609659761E+03  0.41800000000E+01 0.  1.
        -11    1    3    3    0    0 -0.95706759807E+01  0.30880980078E+02  0.76957078371E+02  0.83472298883E+02  0.00000000000E+00 0.  1.
         11    1    3    3    0    0 -0.19827788978E+02  0.87249314375E+01 -0.25324895214E+02  0.33325905268E+02  0.00000000000E+00 0. -1.
</event>
<event>
 7    1  0.5137842E-006  0.1096158E+03  0.7561462E-02  0.1261283E+00
          1   -1    0    0  501    0  0.00000000000E+00  0.00000000000E+00  0.24990879583E+02  0.24990879583E+02  0.00000000000E+00 0. -1.
         -1   -1    0    0    0  501 -0.00000000000E+00 -0.00000000000E+00 -0.64232461989E+03  0.64232461989E+03  0.00000000000E+00 0.  1.
         23    2    1    2    0    0  0.33820029715E+02  0.22463874095E+02 -0.13744583175E+03  0.16973296865E+03  0.90936812863E+02 0.  0.
          5    1    1    2  502    0 -0.44606695508E+02 -0.64847390671E+02 -0.21326084999E+03  0.22736007543E+03  0.41800000000E+01 0.  1.
         -5    1    1    2    0  502  0.10786665793E+02  0.42383516576E+02 -0.26662705856E+03  0.27022245539E+03  0.41800000000E+01 0.  1.
        -11    1    3    3    0    0  0.40363124589E+02 -0.25714432962E+02 -0.89255469286E+02  0.10127661471E+03  0.00000000000E+00 0.  1.
         11    1    3    3    0    0 -0.65430948738E+01  0.48178307057E+02 -0.48190362463E+02  0.68456353947E+02  0.00000000000E+00 0. -1.
</event>
<event>
 7    1  0.5137842E-006  0.1371035E+03  0.7561462E-02  0.1217280E+00
          1   -1    0    0  501    0  0.00000000000E+00  0.00000000000E+00  0.24058126950E+03  0.24058126950E+03  0.00000000000E+00 0. -1.
         -1   -1    0    0    0  501 -0.00000000000E+00 -0.00000000000E+00 -0.10727583516E+03  0.10727583516E+03  0.00000000000E+00 0.  1.
         23    2    1    2    0    0 -0.98165636339E+02  0.38859649076E+02  0.11584764695E+03  0.18198097817E+03  0.92465315814E+02 0.  0.
          5    1    1    2  502    0  0.43633074472E+01  0.33445812980E+02 -0.22559454426E+02  0.40792919015E+02  0.41800000000E+01 0. -1.
         -5    1    1    2    0  502  0.93802328892E+02 -0.72305462056E+02  0.40017241825E+02  0.12508320747E+03  0.41800000000E+01 0.  1.
        -11    1    3    3    0    0 -0.68034099941E+02  0.55039394427E+02  0.11891379124E+03  0.14764302706E+03  0.00000000000E+00 0. -1.
         11    1    3    3    0    0 -0.30131536399E+02 -0.16179745351E+02 -0.30661442934E+01  0.34337951107E+02  0.00000000000E+00 0.  1.
</event>
<event>
 7    1  0.5137842E-006  0.1097854E+03  0.7561462E-02  0.1260968E+00
          2   -1    0    0  501    0  0.00000000000E+00  0.00000000000E+00  0.18602395242E+03  0.18602395242E+03  0.00000000000E+00 0.  1.
         -2   -1    0    0    0  501 -0.00000000000E+00 -0.00000000000E+00 -0.70100280978E+02  0.70100280978E+02  0.00000000000E+00 0. -1.
         23    2    1    2    0    0  0.31584213504E+02  0.26219415059E+01  0.32328580022E+02  0.10236166835E+03  0.91805974432E+02 0.  0.
          5    1    1    2  502    0 -0.56487922724E+02  0.44943673936E+02  0.31618136823E+02  0.78917667329E+02  0.41800000000E+01 0.  1.
         -5    1    1    2    0  502  0.24903709220E+02 -0.47565615441E+02  0.51976954600E+02  0.74844897720E+02  0.41800000000E+01 0.  1.
        -11    1    3    3    0    0  0.33031125738E+02 -0.39371596918E+02  0.37164509424E+01  0.51526594289E+02  0.00000000000E+00 0. -1.
         11    1    3    3    0    0 -0.14469122343E+01  0.41993538424E+02  0.28612129080E+02  0.50835074062E+02  0.00000000000E+00 0.  1.
</event>
<event>
 7    1  0.5137842E-006  0.9145070E+02  0.7561462E-02  0.1299376E+00
          1   -1    0    0  501    0  0.00000000000E+00  0.00000000000E+00  0.33799945438E+02  0.33799945438E+02  0.00000000000E+00 0. -1.
         -1   -1    0    0    0  501 -0.00000000000E+00 -0.00000000000E+00 -0.41074288618E+03  0.41074288618E+03  0.00000000000E+00 0.  1.
         23    2    1    2    0    0  0.28776950570E+02  0.17093909739E+02 -0.10816884734E+03  0.14624860464E+03  0.92562628475E+02 0.  0.
          5    1    1    2  502    0  0.23259158411E+02 -0.37051112862E+02 -0.30350461103E+02  0.53407829983E+02  0.41800000000E+01 0.  1.
         -5    1    1    2    0  502 -0.52036108982E+02  0.19957203124E+02 -0.23842363230E+03  0.24488639700E+03  0.41800000000E+01 0.  1.
        -11    1    3    3    0    0  0.54429425014E+02  0.18197339708E+02 -0.10592660452E+03  0.12047469040E+03  0.00000000000E+00 0.  1.
         11    1    3    3    0    0 -0.25652474444E+02 -0.11034299694E+01 -0.22422428195E+01  0.25773914248E+02  0.00000000000E+00 0. -1.
</event>
<event>
 7    1  0.5137842E-006  0.1204405E+03  0.7561462E-02  0.1242372E+00
         -2   -1    0    0    0  501 -0.00000000000E+00  0.00000000000E+00  0.35191244368E+02  0.35191244368E+02  0.00000000000E+00 0.  1.
          2   -1    0    0  501    0  0.00000000000E+00 -0.00000000000E+00 -0.47595922139E+03  0.47595922139E+03  0.00000000000E+00 0. -1.
         23    2    1    2    0    0  0.55275100110E+02 -0.74864545699E+01 -0.28251889325E+03  0.30186270786E+03  0.90514008098E+02 0.  0.
          5    1    1    2  502    0 -0.72516503646E+01 -0.55136717115E+02 -0.47632984201E+02  0.73341786119E+02  0.41800000000E+01 0.  1.
         -5    1    1    2    0  502 -0.48023449746E+02  0.62623171685E+02 -0.11061609957E+03  0.13594597178E+03  0.41800000000E+01 0.  1.
        -11    1    3    3    0    0  0.27760116415E+02 -0.48978595607E+02 -0.13985527347E+03  0.15076148184E+03  0.00000000000E+00 0.  1.
         11    1    3    3    0    0  0.27514983695E+02  0.41492141037E+02 -0.14266361978E+03  0.15110122602E+03  0.00000000000E+00 0. -1.
</event>
<event>
 7    1  0.5137842E-006  0.7051257E+03  0.7561462E-02  0.9708507E-01
          2   -1    0    0  501    0  0.00000000000E+00  0.00000000000E+00  0.89501574013E+03  0.89501574013E+03  0.00000000000E+00 0. -1.
         -2   -1    0    0    0  501 -0.00000000000E+00 -0.00000000000E+00 -0.74256554123E+03  0.74256554123E+03  0.00000000000E+00 0.  1.
         23    2    1    2    0    0 -0.35798993891E+01  0.14744040106E+03  0.33420204149E+03  0.37732157061E+03  0.94493785864E+02 0.  0.
          5    1    1    2  502    0 -0.11906763364E+02 -0.69125120566E+03 -0.18691600022E+03  0.71618786913E+03  0.41800000000E+01 0. -1.
         -5    1    1    2    0  502  0.15486662753E+02  0.54381080460E+03  0.51641576366E+01  0.54407184163E+03  0.41800000000E+01 0.  1.
        -11    1    3    3    0    0  0.44191784354E+02  0.88907924341E+02  0.17838835500E+03  0.20415665068E+03  0.00000000000E+00 0.  1.
         11    1    3    3    0    0 -0.47771683743E+02  0.58532476719E+02  0.15581368649E+03  0.17316491993E+03  0.00000000000E+00 0. -1.
</event>
<event>
 7    1  0.5137842E-006  0.1058008E+03  0.7561462E-02  0.1268550E+00
          2   -1    0    0  501    0  0.00000000000E+00  0.00000000000E+00  0.10350620020E+03  0.10350620020E+03  0.00000000000E+00 0. -1.
         -2   -1    0    0    0  501 -0.00000000000E+00 -0.00000000000E+00 -0.19520432093E+03  0.19520432093E+03  0.00000000000E+00 0.  1.
         23    2    1    2    0    0  0.58362432389E+02 -0.30431910844E+01  0.30915513979E+02  0.11405338394E+03  0.92935304685E+02 0.  0.
          5    1    1    2  502    0  0.23719697163E+02 -0.15026785152E+02  0.78088254020E+01  0.29442799793E+02  0.41800000000E+01 0. -1.
         -5    1    1    2    0  502 -0.82082129552E+02  0.18069976236E+02 -0.13042246011E+03  0.15521433740E+03  0.41800000000E+01 0. -1.
        -11    1    3    3    0    0  0.56146887248E+00 -0.33651865449E+02 -0.12105833382E+02  0.35767506166E+02  0.00000000000E+00 0. -1.
         11    1    3    3    0    0  0.57800963516E+02  0.30608674365E+02  0.43021347360E+02  0.78285877772E+02  0.00000000000E+00 0.  1.
</event>
<event>
 7    1  0.5337573E-006  0.1708238E+03  0.7561462E-02  0.1176991E+00
         -2   -1    0    0    0  501 -0.00000000000E+00  0.00000000000E+00  0.13890671425E+03  0.13890671425E+03  0.00000000000E+00 0.  1.
          2   -1    0    0  501    0  0.00000000000E+00 -0.00000000000E+00 -0.22782217178E+03  0.22782217178E+03  0.00000000000E+00 0. -1.
         23    2    1    2    0    0 -0.13348374779E+03 -0.14868343029E+02 -0.84450218387E+02  0.18313569671E+03  0.91476037700E+02 0.  0.
          5    1    1    2  502    0  0.10016902293E+03  0.66344956632E+02 -0.15288347708E+02  0.12118866449E+03  0.41800000000E+01 0. -1.
         -5    1    1    2    0  502  0.33314724863E+02 -0.51476613603E+02  0.10823108558E+02  0.62404524833E+02  0.41800000000E+01 0. -1.
        -11    1    3    3    0    0 -0.10213501651E+03 -0.49293613152E+02 -0.44644096410E+02  0.12187910912E+03  0.00000000000E+00 0. -1.
         11    1    3    3    0    0 -0.31348731280E+02  0.34425270123E+02 -0.39806121978E+02  0.61256587587E+02  0.00000000000E+00 0.  1.
</event>
<event>
 7    1  0.5137842E-006  0.1089818E+03  0.7561462E-02  0.1262467E+00
         -2   -1    0    0    0  501 -0.00000000000E+00  0.00000000000E+00  0.23533144516E+02  0.23533144516E+02  0.00000000000E+00 0.  1.
          2   -1    0    0  501    0  0.00000000000E+00 -0.00000000000E+00 -0.59580453907E+03  0.59580453907E+03  0.00000000000E+00 0. -1.
         23    2    1    2    0    0  0.30677640384E+02  0.34350909777E+02 -0.35484040730E+03  0.36919881180E+03  0.90966726673E+02 0.  0.
          5    1    1    2  502    0 -0.47914058943E+02  0.25052033974E+02 -0.14494825238E+03  0.15476055608E+03  0.41800000000E+01 0. -1.
         -5    1    1    2    0  502  0.17236418558E+02 -0.59402943751E+02 -0.72482734871E+02  0.95378315698E+02  0.41800000000E+01 0.  1.
        -11    1    3    3    0    0 -0.88416344053E+01 -0.27196306888E+02 -0.89148798460E+02  0.93623297710E+02  0.00000000000E+00 0. -1.
         11    1    3    3    0    0  0.39519274790E+02  0.61547216666E+02 -0.26569160884E+03  0.27557551409E+03  0.00000000000E+00 0.  1.
</event>
<event>
 7    1  0.5137842E-006  0.1286539E+03  0.7561462E-02  0.1229467E+00
          2   -1    0    0  501    0  0.00000000000E+00  0.00000000000E+00  0.83179998918E+03  0.83179998918E+03  0.00000000000E+00 0. -1.
         -2   -1    0    0    0  501 -0.00000000000E+00 -0.00000000000E+00 -0.30212877637E+02  0.30212877637E+02  0.00000000000E+00 0.  1.
         23    2    1    2    0    0  0.10008418765E+03  0.55143973112E+02  0.31617332982E+03  0.34788147796E+03  0.89432912460E+02 0.  0.
          5    1    1    2  502    0 -0.86630814885E+02 -0.49983881782E+02  0.48863749330E+03  0.49878588470E+03  0.41800000000E+01 0. -1.
         -5    1    1    2    0  502 -0.13453372768E+02 -0.51600913304E+01 -0.32237115713E+01  0.15345504151E+02  0.41800000000E+01 0. -1.
        -11    1    3    3    0    0  0.44159172600E+02 -0.20043553159E+02  0.76906870292E+02  0.90919982655E+02  0.00000000000E+00 0.  1.
         11    1    3    3    0    0  0.55925015052E+02  0.75187526271E+02  0.23926645953E+03  0.25696149531E+03  0.00000000000E+00 0. -1.
</event>
<event>
 7    1  0.5137842E-006  0.1473991E+03  0.7561462E-02  0.1203706E+00
          3   -1    0    0  501    0  0.00000000000E+00  0.00000000000E+00  0.12368353779E+03  0.12368353779E+03  0.00000000000E+00 0. -1.
         -3   -1    0    0    0  501 -0.00000000000E+00 -0.00000000000E+00 -0.19896681162E+03  0.19896681162E+03  0.00000000000E+00 0.  1.
         23    2    1    2    0    0 -0.79663172580E+02  0.86499315222E+02 -0.51926937330E+01  0.13720802567E+03  0.70503373255E+02 0.  0.
          5    1    1    2  502    0  0.91657518404E+02 -0.10817297673E+03 -0.74050476473E+02  0.16001074664E+03  0.41800000000E+01 0. -1.
         -5    1    1    2    0  502 -0.11994345825E+02  0.21673661504E+02  0.39598963707E+01  0.25431577105E+02  0.41800000000E+01 0. -1.
        -11    1    3    3    0    0 -0.49085659579E+02  0.83822897725E+02 -0.25469322309E+02  0.10042094671E+03  0.00000000000E+00 0.  1.
         11    1    3    3    0    0 -0.30577513000E+02  0.26764174974E+01  0.20276628576E+02  0.36787078959E+02  0.00000000000E+00 0. -1.
</event>
<event>
 7    1  0.5137842E-006  0.8888078E+02  0.7561462E-02  0.1305585E+00
         -2   -1    0    0    0  501 -0.00000000000E+00  0.00000000000E+00  0.27128546776E+03  0.27128546776E+03  0.00000000000E+00 0.  1.
          2   -1    0    0  501    0  0.00000000000E+00 -0.00000000000E+00 -0.19083387725E+03  0.19083387725E+03  0.00000000000E+00 0. -1.
         23    2    1    2    0    0 -0.40379458260E+02 -0.48491480808E+02 -0.15443902457E+03  0.18892657811E+03  0.88656163055E+02 0.  0.
          5    1    1    2  502    0 -0.17891295394E+02  0.32166385979E+02  0.74283260328E+01  0.37781308414E+02  0.41800000000E+01 0. -1.
         -5    1    1    2    0  502  0.58270753654E+02  0.16325094829E+02  0.22746228904E+03  0.23541145848E+03  0.41800000000E+01 0.  1.
        -11    1    3    3    0    0  0.94946274542E+01 -0.21147281494E+02 -0.12046337406E+03  0.12267346883E+03  0.00000000000E+00 0. -1.
         11    1    3    3    0    0 -0.49874085714E+02 -0.27344199313E+02 -0.33975650505E+02  0.66253109279E+02  0.00000000000E+00 0.  1.
</event>
<event>
 7    1  0.5137842E-006  0.1164312E+03  0.7561462E-02  0.1249103E+00
          1   -1    0    0  501    0  0.00000000000E+00  0.00000000000E+00  0.64783146812E+03  0.64783146812E+03  0.00000000000E+00 0.  1.
         -1   -1    0    0    0  501 -0.00000000000E+00 -0.00000000000E+00 -0.32587998825E+02  0.32587998825E+02  0.00000000000E+00 0. -1.
         23    2    1    2    0    0  0.33643668395E+02 -0.35691230865E+02  0.47334975993E+03  0.48500478485E+03  0.93615627529E+02 0.  0.
          5    1    1    2  502    0 -0.78423751285E+02  0.13135422811E+02  0.11017631354E+03  0.13593791437E+03  0.41800000000E+01 0. -1.
         -5    1    1    2    0  502  0.44780082890E+02  0.22555808054E+02  0.31717395816E+02  0.59476767716E+02  0.41800000000E+01 0. -1.
        -11    1    3    3    0    0 -0.25032807906E+02 -0.36477316659E+02  0.15059914626E+03  0.15696285852E+03  0.00000000000E+00 0. -1.
         11    1    3    3    0    0  0.58676476301E+02  0.78608579409E+00  0.32275061368E+03  0.32804192633E+03  0.00000000000E+00 0.  1.
</event>
<event>
 7    1  0.5137842E-006  0.5033601E+02  0.7561462E-02  0.1443538E+00
          1   -1    0    0  501    0  0.00000000000E+00  0.00000000000E+00  0.16511102412E+03  0.16511102412E+03  0.00000000000E+00 0. -1.
         -1   -1    0    0    0  501 -0.00000000000E+00 -0.00000000000E+00 -0.86303748432E+02  0.86303748432E+02  0.00000000000E+00 0.  1.
         23    2    1    2    0    0 -0.62471677351E+01  0.25002974184E+01  0.88583375235E+02  0.12577795544E+03  0.89038200315E+02 0.  0.
          5    1    1    2  502    0  0.17046946357E+02 -0.81502168404E+01  0.55668282284E+02  0.58936020116E+02  0.41800000000E+01 0.  1.
         -5    1    1    2    0  502 -0.10799778622E+02  0.56499194220E+01 -0.65444381826E+02  0.66700796999E+02  0.41800000000E+01 0.  1.
        -11    1    3    3    0    0  0.90350942116E+01  0.33057107909E+02  0.84727728788E+02  0.91395805901E+02  0.00000000000E+00 0. -1.
         11    1    3    3    0    0 -0.15282261947E+02 -0.30556810490E+02  0.38556464465E+01  0.34382149541E+02  0.00000000000E+00 0.  1.
</event>
<event>
 7    1  0.5137842E-006  0.1081670E+03  0.7561462E-02  0.1264002E+00
         -3   -1    0    0    0  501 -0.00000000000E+00  0.00000000000E+00  0.16457278625E+04  0.16457278625E+04  0.00000000000E+00 0.  1.
          3   -1    0    0  501    0  0.00000000000E+00 -0.00000000000E+00 -0.88512051314E+01  0.88512051314E+01  0.00000000000E+00 0. -1.
         23    2    1    2    0    0 -0.63100206104E+01  0.39193499757E+01  0.35103773176E+03  0.36264910239E+03  0.90728742325E+02 0.  0.
          5    1    1    2  502    0  0.65157567180E+02  0.56597947797E+01  0.67263918230E+03  0.67582429951E+03  0.41800000000E+01 0.  1.
         -5    1    1    2    0  502 -0.58847546570E+02 -0.95791447554E+01  0.61319974329E+03  0.61610566572E+03  0.41800000000E+01 0.  1.
        -11    1    3    3    0    0  0.25214812623E+02  0.37359299188E+02  0.17231378384E+03  0.17811104433E+03  0.00000000000E+00 0. -1.
         11    1    3    3    0    0 -0.31524833234E+02 -0.33439949212E+02  0.17872394792E+03  0.18453805807E+03  0.00000000000E+00 0.  1.
</event>
<event>
 7    1  0.5137842E-006  0.1399146E+03  0.7561462E-02  0.1213444E+00
         -2   -1    0    0    0  501 -0.00000000000E+00  0.00000000000E+00  0.15649191582E+02  0.15649191582E+02  0.00000000000E+00 0.  1.
          2   -1    0    0  501    0  0.00000000000E+00 -0.00000000000E+00 -0.12804583858E+04  0.12804583858E+04  0.00000000000E+00 0. -1.
         23    2    1    2    0    0 -0.47514587355E+01  0.89181276597E+02 -0.57656264013E+03  0.59090701819E+03  0.93652280766E+02 0.  0.
          5    1    1    2  502    0  0.20989793534E+02 -0.11810862894E+03 -0.52160734340E+03  0.53524005152E+03  0.41800000000E+01 0.  1.
         -5    1    1    2    0  502 -0.16238334799E+02  0.28927352341E+02 -0.16663921064E+03  0.16996050763E+03  0.41800000000E+01 0.  1.
        -11    1    3    3    0    0  0.42284518944E+02  0.46444152915E+02 -0.35040485977E+03  0.35598961450E+03  0.00000000000E+00 0.  1.
         11    1    3    3    0    0 -0.47035977679E+02  0.42737123682E+02 -0.22615778037E+03  0.23491740369E+03  0.00000000000E+00 0. -1.
</event>
<event>
 7    1  0.9632610E-006  0.3392938E+03  0.7561462E-02  0.1067097E+00
          1   -1    0    0  501    0  0.00000000000E+00  0.00000000000E+00  0.44643243347E+03  0.44643243347E+03  0.00000000000E+00 0. -1.
         -1   -1    0    0    0  501 -0.00000000000E+00 -0.00000000000E+00 -0.25929284906E+03  0.25929284906E+03  0.00000000000E+00 0.  1.
         23    2    1    2    0    0  0.90024740618E+02 -0.30943609447E+03  0.99600107661E+02  0.34912265075E+03  0.90062718907E+02 0.  0.
          5    1    1    2  502    0  0.26501919124E+02  0.11234735697E+03  0.15505141670E+02  0.11654253366E+03  0.41800000000E+01 0. -1.
         -5    1    1    2    0  502 -0.11652665974E+03  0.19708873750E+03  0.72034335078E+02  0.24006009812E+03  0.41800000000E+01 0. -1.
        -11    1    3    3    0    0  0.16212590178E+02 -0.20801732478E+03  0.71681552437E+02  0.22061799666E+03  0.00000000000E+00 0. -1.
         11    1    3    3    0    0  0.73812150440E+02 -0.10141876969E+03  0.27918555224E+02  0.12850465409E+03  0.00000000000E+00 0.  1.
</event>
<event>
 7    1  0.5137842E-006  0.1021846E+03  0.7561462E-02  0.1275768E+00
         -2   -1    0    0    0  501 -0.00000000000E+00  0.00000000000E+00  0.13804063399E+02  0.13804063399E+02  0.00000000000E+00 0.  1.
          2   -1    0    0  501    0  0.00000000000E+00 -0.00000000000E+00 -0.86828949853E+03  0.86828949853E+03  0.00000000000E+00 0. -1.
         23    2    1    2    0    0  0.12585533832E+02 -0.76520489162E+01 -0.40338131690E+03  0.41373465388E+03  0.90790569362E+02 0.  0.
          5    1    1    2  502    0  0.52075396696E+02  0.44531644911E+01 -0.11993440875E+03  0.13089466153E+03  0.41800000000E+01 0.  1.
         -5    1    1    2    0  502 -0.64660930528E+02  0.31988844250E+01 -0.33116970948E+03  0.33746424651E+03  0.41800000000E+01 0.  1.
        -11    1    3    3    0    0  0.13837327252E+02 -0.46335957851E+02 -0.28808159754E+03  0.29211213507E+03  0.00000000000E+00 0.  1.
         11    1    3    3    0    0 -0.12517934201E+01  0.38683908935E+02 -0.11529971936E+03  0.12162251881E+03  0.00000000000E+00 0. -1.
</event>
<event>
 7    1  0.5137842E-006  0.1454352E+03  0.7561462E-02  0.1206197E+00
         -3   -1    0    0    0  501 -0.00000000000E+00  0.00000000000E+00  0.12998648880E+04  0.12998648880E+04  0.00000000000E+00 0.  1.
          3   -1    0    0  501    0  0.00000000000E+00 -0.00000000000E+00 -0.34954406990E+02  0.34954406990E+02  0.00000000000E+00 0. -1.
         23    2    1    2    0    0  0.74409140875E+02 -0.13863441556E-01  0.10469167366E+03  0.16023597876E+03  0.95804498412E+02 0.  0.
          5    1    1    2  502    0  0.47070847454E+02  0.22072379053E+02  0.51578540839E+03  0.51841577378E+03  0.41800000000E+01 0. -1.
         -5    1    1    2    0  502 -0.12147998833E+03 -0.22058515612E+02  0.64443339893E+03  0.65616754242E+03  0.41800000000E+01 0.  1.
        -11    1    3    3    0    0 -0.15343755048E+02  0.17980550373E+02  0.36881434617E+01  0.23923490818E+02  0.00000000000E+00 0. -1.
         11    1    3    3    0    0  0.89752895924E+02 -0.17994413815E+02  0.10100353020E+03  0.13631248794E+03  0.00000000000E+00 0.  1.
</event>
<event>
 7    1  0.5137842E-006  0.1244656E+03  0.7561462E-02  0.1235907E+00
         -1   -1    0    0    0  501 -0.00000000000E+00  0.00000000000E+00  0.25290161057E+02  0.25290161057E+02  0.00000000000E+00 0.  1.
          1   -1    0    0  501    0  0.00000000000E+00 -0.00000000000E+00 -0.79636534221E+03  0.79636534221E+03  0.00000000000E+00 0. -1.
         23    2    1    2    0    0  0.82110089312E+02 -0.36872782593E+02 -0.38699551106E+03  0.40781220481E+03  0.91889063267E+02 0.  0.
          5    1    1    2  502    0  0.13635844057E+02  0.32174155612E+02 -0.22747198853E+03  0.23017838843E+03  0.41800000000E+01 0. -1.
         -5    1    1    2    0  502 -0.95745933369E+02  0.46986269805E+01 -0.15660768156E+03  0.18366491003E+03  0.41800000000E+01 0. -1.
        -11    1    3    3    0    0  0.58666900131E+02 -0.60659283786E+02 -0.18851055605E+03  0.20653712408E+03  0.00000000000E+00 0.  1.
         11    1    3    3    0    0  0.23443189180E+02  0.23786501193E+02 -0.19848495501E+03  0.20127508073E+03  0.00000000000E+00 0. -1.
</event>
<event>
 7    1  0.5137842E-006  0.9450673E+02  0.7561462E-02  0.1292291E+00
          2   -1    0    0  501    0  0.00000000000E+00  0.00000000000E+00  0.50216138415E+03  0.50216138415E+03  0.00000000000E+00 0. -1.
         -2   -1    0    0    0  501 -0.00000000000E+00 -0.00000000000E+00 -0.33439705178E+02  0.33439705178E+02  0.00000000000E+00 0.  1.
         23    2    1    2    0    0  0.50966094259E+02 -0.44669475803E+02  0.25819629387E+03  0.28151428945E+03  0.89398345403E+02 0.  0.
          5    1    1    2  502    0  0.10974015972E+02 -0.17122603118E+02 -0.50740582226E+01  0.21373605941E+02  0.41800000000E+01 0. -1.
         -5    1    1    2    0  502 -0.61940110231E+02  0.61792078921E+02  0.21559944332E+03  0.23271319394E+03  0.41800000000E+01 0. -1.
        -11    1    3    3    0    0  0.57526056461E+02 -0.30652290651E+02  0.25792668389E+03  0.26603568249E+03  0.00000000000E+00 0. -1.
         11    1    3    3    0    0 -0.65599622022E+01 -0.14017185152E+02  0.26960997598E+00  0.15478606953E+02  0.00000000000E+00 0.  1.
</event>
<event>
 7    1  0.5137842E-006  0.9618156E+02  0.7561462E-02  0.1288537E+00
         -1   -1    0    0    0  501 -0.00000000000E+00  0.00000000000E+00  0.33383979374E+02  0.33383979374E+02  0.00000000000E+00 0.  1.
          1   -1    0    0  501    0  0.00000000000E+00 -0.00000000000E+00 -0.39555424113E+03  0.39555424113E+03  0.00000000000E+00 0. -1.
         23    2    1    2    0    0  0.19801311444E+02 -0.27465746159E+02 -0.18808239470E+03  0.21192110148E+03  0.91592067950E+02 0.  0.
          5    1    1    2  502    0  0.36276915873E+02  0.51023739157E+01 -0.14547768273E+03  0.15007757134E+03  0.41800000000E+01 0.  1.
         -5    1    1    2    0  502 -0.56078227317E+02  0.22363372244E+02 -0.28610184322E+02  0.66939547683E+02  0.41800000000E+01 0.  1.
        -11    1    3    3    0    0 -0.21110762329E+02  0.22194904993E+02 -0.39343191058E+02  0.49861455819E+02  0.00000000000E+00 0.  1.
         11    1    3    3    0    0  0.40912073773E+02 -0.49660651152E+02 -0.14873920364E+03  0.16205964567E+03  0.00000000000E+00 0. -1.
</event>
<event>
 7    1  0.5137842E-006  0.1822732E+03  0.7561462E-02  0.1165621E+00
          2   -1    0    0  501    0  0.00000000000E+00  0.00000000000E+00  0.65730570759E+02  0.65730570759E+02  0.00000000000E+00 0. -1.
         -2   -1    0    0    0  501 -0.00000000000E+00 -0.00000000000E+00 -0.54343831427E+03  0.54343831427E+03  0.00000000000E+00 0.  1.
         23    2    1    2    0    0 -0.51397250426E+02  0.14558403966E+03 -0.22457658678E+03  0.28736472442E+03  0.91145222366E+02 0.  0.
          5    1    1    2  502    0  0.92237018036E+02 -0.92353215691E+02 -0.15235117950E+03  0.20066175082E+03  0.41800000000E+01 0. -1.
         -5    1    1    2    0  502 -0.40839767610E+02 -0.53230823968E+02 -0.10077997724E+03  0.12114240979E+03  0.41800000000E+01 0. -1.
        -11    1    3    3    0    0  0.98444166010E+01  0.63824190007E+02 -0.14205264298E+03  0.15604292084E+03  0.00000000000E+00 0.  1.
         11    1    3    3    0    0 -0.61241667027E+02  0.81759849652E+02 -0.82523943795E+02  0.13132180358E+03  0.00000000000E+00 0. -1.
</event>
<event>
 7    1  0.5137842E-006  0.7435207E+02  0.7561462E-02  0.1345889E+00
         -1   -1    0    0    0  501 -0.00000000000E+00  0.00000000000E+00  0.13950469332E+03  0.13950469332E+03  0.00000000000E+00 0.  1.
          1   -1    0    0  501    0  0.00000000000E+00 -0.00000000000E+00 -0.11876407291E+03  0.11876407291E+03  0.00000000000E+00 0. -1.
         23    2    1    2    0    0 -0.40386756936E+02 -0.43568781395E+02 -0.26902944687E+02  0.11182166928E+03  0.90834951643E+02 0.  0.
          5    1    1    2  502    0  0.37302466407E+02  0.60246649128E+02  0.81665444719E+02  0.10820281878E+03  0.41800000000E+01 0.  1.
         -5    1    1    2    0  502  0.30842905292E+01 -0.16677867732E+02 -0.34021879616E+02  0.38244278170E+02  0.41800000000E+01 0.  1.
        -11    1    3    3    0    0 -0.14463319401E+02 -0.89674556718E+01  0.33479582734E+02  0.37556428602E+02  0.00000000000E+00 0.  1.
         11    1    3    3    0    0 -0.25923437535E+02 -0.34601325724E+02 -0.60382527421E+02  0.74265240679E+02  0.00000000000E+00 0. -1.
</event>
<event>
 7    1  0.5137842E-006  0.1356640E+03  0.7561462E-02  0.1219285E+00
          2   -1    0    0  501    0  0.00000000000E+00  0.00000000000E+00  0.98720901413E+03  0.98720901413E+03  0.00000000000E+00 0. -1.
         -2   -1    0    0    0  501 -0.00000000000E+00 -0.00000000000E+00 -0.25440342196E+02  0.25440342196E+02  0.00000000000E+00 0.  1.
         23    2    1    2    0    0  0.10791687134E+03  0.41451720268E+02  0.47906454576E+03  0.50077502355E+03  0.88929685544E+02 0.  0.
          5    1    1    2  502    0 -0.11130590817E+03 -0.22219519756E+02  0.47806478399E+03  0.49137167434E+03  0.41800000000E+01 0. -1.
         -5    1    1    2    0  502  0.33890368296E+01 -0.19232200511E+02  0.46393421839E+01  0.20502658438E+02  0.41800000000E+01 0. -1.
        -11    1    3    3    0    0  0.83866086007E+02 -0.65158936567E+01  0.20644706138E+03  0.22292681850E+03  0.00000000000E+00 0.  1.
         11    1    3    3    0    0  0.24050785338E+02  0.47967613924E+02  0.27261748438E+03  0.27784820505E+03  0.00000000000E+00 0. -1.
</event>
<event>
 7    1  0.5137842E-006  0.7169078E+02  0.7561462E-02  0.1354436E+00
          2   -1    0    0  501    0  0.00000000000E+00  0.00000000000E+00  0.61690087270E+03  0.61690087270E+03  0.00000000000E+00 0.  1.
         -2   -1    0    0    0  501 -0.00000000000E+00 -0.00000000000E+00 -0.20607155127E+02  0.20607155127E+02  0.00000000000E+00 0. -1.
         23    2    1    2    0    0 -0.16953101402E+02  0.27749946741E+02  0.30309986934E+03  0.31708424717E+03  0.87266384246E+02 0.  0.
          5    1    1    2  502    0  0.29330454806E+02 -0.84636122064E+01  0.29542060524E+03  0.29702308785E+03  0.41800000000E+01 0. -1.
         -5    1    1    2    0  502 -0.12377353404E+02 -0.19286334534E+02 -0.22267570138E+01  0.23400692807E+02  0.41800000000E+01 0. -1.
        -11    1    3    3    0    0  0.31612703684E+02  0.25571576724E+02  0.18410967159E+03  0.18854612100E+03  0.00000000000E+00 0. -1.
         11    1    3    3    0    0 -0.48565805087E+02  0.21783700172E+01  0.11899019774E+03  0.12853812617E+03  0.00000000000E+00 0.  1.
</event>
<event>
 7    1  0.5137842E-006  0.1665842E+03  0.7561462E-02  0.1181458E+00
         -1   -1    0    0    0  501 -0.00000000000E+00  0.00000000000E+00  0.19215131879E+02  0.19215131879E+02  0.00000000000E+00 0.  1.
          1   -1    0    0  501    0  0.00000000000E+00 -0.00000000000E+00 -0.16017942939E+04  0.16017942939E+04  0.00000000000E+00 0. -1.
         23    2    1    2    0    0  0.10336312617E+03 -0.90636495090E+02 -0.75738985310E+03  0.77514517207E+03  0.91168734321E+02 0.  0.
          5    1    1    2  502    0 -0.79649782221E+02  0.11420926313E+03 -0.75805086849E+03  0.77074407894E+03  0.41800000000E+01 0.  1.
         -5    1    1    2    0  502 -0.23713343947E+02 -0.23572768043E+02 -0.67138440447E+02  0.75120174787E+02  0.41800000000E+01 0.  1.
        -11    1    3    3    0    0  0.83546622023E+02 -0.18782152921E+02 -0.31093666739E+03  0.32251266401E+03  0.00000000000E+00 0.  1.
         11    1    3    3    0    0  0.19816504144E+02 -0.71854342169E+02 -0.44645318571E+03  0.45263250806E+03  0.00000000000E+00 0. -1.
</event>
<event>
 7    1  0.5137842E-006  0.1936885E+03  0.7561462E-02  0.1155176E+00
          1   -1    0    0  501    0  0.00000000000E+00  0.00000000000E+00  0.33587921702E+03  0.33587921702E+03  0.00000000000E+00 0. -1.
         -1   -1    0    0    0  501 -0.00000000000E+00 -0.00000000000E+00 -0.13408961509E+03  0.13408961509E+03  0.00000000000E+00 0.  1.
         23    2    1    2    0    0 -0.15086113813E+03 -0.97628225966E+02  0.15636557947E+03  0.24636078175E+03  0.62873578252E+02 0.  0.
          5    1    1    2  502    0  0.14532520787E+02  0.62034945300E+02 -0.21757838921E+02  0.67456686498E+02  0.41800000000E+01 0.  1.
         -5    1    1    2    0  502  0.13632861734E+03  0.35593280666E+02  0.67181861383E+02  0.15615136385E+03  0.41800000000E+01 0.  1.
        -11    1    3    3    0    0 -0.12487956176E+03 -0.64773507925E+02  0.14694311137E+03  0.20342760445E+03  0.00000000000E+00 0. -1.
         11    1    3    3    0    0 -0.25981576365E+02 -0.32854718041E+02  0.94224680949E+01  0.42933177299E+02  0.00000000000E+00 0.  1.
</event>
<event>
 7    1  0.5137842E-006  0.1714357E+03  0.7561462E-02  0.1176359E+00
         -1   -1    0    0    0  501 -0.00000000000E+00  0.00000000000E+00  0.48361468909E+02  0.48361468909E+02  0.00000000000E+00 0.  1.
          1   -1    0    0  501    0  0.00000000000E+00 -0.00000000000E+00 -0.62846806012E+03  0.62846806012E+03  0.00000000000E+00 0. -1.
         23    2    1    2    0    0  0.13679022152E+03 -0.37275257757E+01 -0.24306552320E+03  0.29216077940E+03  0.86900018968E+02 0.  0.
          5    1    1    2  502    0 -0.15876514780E+03 -0.14871192206E+01 -0.26392627423E+03  0.30803106062E+03  0.41800000000E+01 0.  1.
         -5    1    1    2    0  502  0.21974926274E+02  0.52146449963E+01 -0.73114793778E+02  0.76637689007E+02  0.41800000000E+01 0.  1.
        -11    1    3    3    0    0  0.35718031902E+02 -0.40060460255E+02 -0.96987722700E+02  0.11084780843E+03  0.00000000000E+00 0.  1.
         11    1    3    3    0    0  0.10107218962E+03  0.36332934479E+02 -0.14607780050E+03  0.18131297097E+03  0.00000000000E+00 0. -1.
</event>
<event>
 6    1  0.5137842E-006  0.2015714E+03  0.7561462E-02  0.1148420E+00
          2   -1    0    0  501    0  0.00000000000E+00  0.00000000000E+00  0.99794644144E+03  0.99794644144E+03  0.00000000000E+00 0. -1.
         -2   -1    0    0    0  501 -0.00000000000E+00 -0.00000000000E+00 -0.53843155618E+02  0.53843155618E+02  0.00000000000E+00 0.  1.
          5    1    1    2  502    0  0.18540447360E+02 -0.20290211474E+02  0.26014816012E+02  0.38074714997E+02  0.41800000000E+01 0. -1.
         -5    1    1    2    0  502  0.67889776052E+02  0.17243735955E+03  0.29089300171E+03  0.34493459599E+03  0.41800000000E+01 0. -1.
        -11    1    1    2    0    0 -0.42343994726E+02 -0.13694219347E+03  0.59522064456E+03  0.61223671399E+03  0.00000000000E+00 0. -1.
         11    1    1    2    0    0 -0.44086228686E+02 -0.15204954607E+02  0.31974823533E+02  0.56543572087E+02  0.00000000000E+00 0.  1.
</event>
<event>
 7    1  0.5137842E-006  0.1187177E+03  0.7561462E-02  0.1245228E+00
          2   -1    0    0  501    0  0.00000000000E+00  0.00000000000E+00  0.10155156206E+03  0.10155156206E+03  0.00000000000E+00 0. -1.
         -2   -1    0    0    0  501 -0.00000000000E+00 -0.00000000000E+00 -0.17173514851E+03  0.17173514851E+03  0.00000000000E+00 0.  1.
         23    2    1    2    0    0 -0.33034064175E+02  0.66778552150E+02 -0.25313523721E+02  0.12093394386E+03  0.91834742183E+02 0.  0.
          5    1    1    2  502    0  0.50047012014E+02  0.19260654311E+01 -0.61601491964E+02  0.79502385825E+02  0.41800000000E+01 0.  1.
         -5    1    1    2    0  502 -0.17012947839E+02 -0.68704617581E+02  0.16731429231E+02  0.72850380886E+02  0.41800000000E+01 0.  1.
        -11    1    3    3    0    0 -0.20622737273E+02  0.88709392252E+02 -0.28741705917E+02  0.95502561355E+02  0.00000000000E+00 0.  1.
         11    1    3    3    0    0 -0.12411326902E+02 -0.21930840102E+02  0.34281821957E+01  0.25431382507E+02  0.00000000000E+00 0. -1.
</event>
<event>
 7    1  0.5137842E-006  0.1589176E+03  0.7561462E-02  0.1189924E+00
          2   -1    0    0  501    0  0.00000000000E+00  0.00000000000E+00  0.45834409282E+03  0.45834409282E+03  0.00000000000E+00 0. -1.
         -2   -1    0    0    0  501 -0.00000000000E+00 -0.00000000000E+00 -0.67180028573E+02  0.67180028573E+02  0.00000000000E+00 0.  1.
         23    2    1    2    0    0  0.12966180258E+03  0.41941182640E+02  0.15834101457E+03  0.22815938544E+03  0.91725582146E+02 0.  0.
          5    1    1    2  502    0 -0.20667556757E+02  0.20301025194E+02  0.13511163018E+03  0.13824581201E+03  0.41800000000E+01 0. -1.
         -5    1    1    2    0  502 -0.10899424582E+03 -0.62242207834E+02  0.97711419493E+02  0.15911892395E+03  0.41800000000E+01 0. -1.
        -11    1    3    3    0    0  0.30335494905E+02  0.54988771376E+02  0.47404886929E+02  0.78684372866E+02  0.00000000000E+00 0.  1.
         11    1    3    3    0    0  0.99326307674E+02 -0.13047588736E+02  0.11093612764E+03  0.14947501257E+03  0.00000000000E+00 0. -1.
</event>
<event>
 7    1  0.5137842E-006  0.1045749E+03  0.7561462E-02  0.1270960E+00
          2   -1    0    0  501    0  0.00000000000E+00  0.00000000000E+00  0.83795271225E+03  0.83795271225E+03  0.00000000000E+00 0. -1.
         -2   -1    0    0    0  501 -0.00000000000E+00 -0.00000000000E+00 -0.13807426333E+02  0.13807426333E+02  0.00000000000E+00 0.  1.
         23    2    1    2    0    0  0.42027052285E+01 -0.44684944659E+01  0.33042426042E+03  0.34240260517E+03  0.89564066331E+02 0.  0.
          5    1    1    2  502    0 -0.52636704475E+02 -0.33688283288E+02  0.21967603022E+03  0.22843063223E+03  0.41800000000E+01 0.  1.
         -5    1    1    2    0  502  0.48433999247E+02  0.38156777754E+02  0.27404499528E+03  0.28092690118E+03  0.41800000000E+01 0.  1.
        -11    1    3    3    0    0  0.43689631162E+02  0.53786362147E+01  0.11436700655E+03  0.12254601498E+03  0.00000000000E+00 0.  1.
         11    1    3    3    0    0 -0.39486925934E+02 -0.98471306806E+01  0.21605725387E+03  0.21985659020E+03  0.00000000000E+00 0. -1.
</event>
<event>
 7    1  0.5137842E-006  0.9142279E+02  0.7561462E-02  0.1299442E+00
          2   -1    0    0  501    0  0.00000000000E+00  0.00000000000E+00  0.24761281515E+02  0.24761281515E+02  0.00000000000E+00 0. -1.
         -2   -1    0    0    0  501 -0.00000000000E+00 -0.00000000000E+00 -0.57449335489E+03  0.57449335489E+03  0.00000000000E+00 0.  1.
         23    2    1    2    0    0  0.17830136153E+02  0.19002585799E+02 -0.13579242816E+03  0.16604236920E+03  0.91931892189E+02 0.  0.
          5    1    1    2  502    0  0.13653320998E+02  0.39805422740E+02 -0.28359731564E+03  0.28673296757E+03  0.41800000000E+01 0.  1.
         -5    1    1    2    0  502 -0.31483457151E+02 -0.58808008539E+02 -0.13034232957E+03  0.14647929963E+03  0.41800000000E+01 0.  1.
        -11    1    3    3    0    0  0.18547523405E+02  0.44501265108E+02 -0.29035018402E+02  0.56279707837E+02  0.00000000000E+00 0. -1.
         11    1    3    3    0    0 -0.71738725174E+00 -0.25498679309E+02 -0.10675740976E+03  0.10976266136E+03  0.00000000000E+00 0.  1.
</event>
<event>
 7    1  0.5137842E-006  0.1180234E+03  0.7561462E-02  0.1246394E+00
          2   -1    0    0  501    0  0.00000000000E+00  0.00000000000E+00  0.91999748074E+03  0.91999748074E+03  0.00000000000E+00 0. -1.
         -2   -1    0    0    0  501 -0.00000000000E+00 -0.00000000000E+00 -0.16381286922E+02  0.16381286922E+02  0.00000000000E+00 0.  1.
         23    2    1    2    0    0  0.24378762781E+02 -0.52708102002E+02  0.40563646842E+03  0.41965452672E+03  0.90534574585E+02 0.  0.
          5    1    1    2  502    0 -0.15723918400E+02  0.92059500573E+02  0.28545608285E+03  0.30037450106E+03  0.41800000000E+01 0.  1.
         -5    1    1    2    0  502 -0.86548443810E+01 -0.39351398570E+02  0.21252364255E+03  0.21634973987E+03  0.41800000000E+01 0.  1.
        -11    1    3    3    0    0 -0.30094915458E+02 -0.68941877968E+01  0.69261913747E+02  0.75831698238E+02  0.00000000000E+00 0.  1.
         11    1    3    3    0    0  0.54473678239E+02 -0.45813914206E+02  0.33637455467E+03  0.34382282848E+03  0.00000000000E+00 0. -1.
</event>
<event>
 7    1  0.5137842E-006  0.8846265E+02  0.7561462E-02  0.1306618E+00
          1   -1    0    0  501    0  0.00000000000E+00  0.00000000000E+00  0.25384009759E+03  0.25384009759E+03  0.00000000000E+00 0. -1.
         -1   -1    0    0    0  501 -0.00000000000E+00 -0.00000000000E+00 -0.72101373827E+02  0.72101373827E+02  0.00000000000E+00 0.  1.
         23    2    1    2    0    0  0.33697732913E+02  0.45422790363E+01  0.17620085013E+03  0.20107148805E+03  0.90701897547E+02 0.  0.
          5    1    1    2  502    0  0.97425784492E+01  0.34456370674E+02  0.42436705306E+02  0.55682184512E+02  0.41800000000E+01 0. -1.
         -5    1    1    2    0  502 -0.43440311363E+02 -0.38998649710E+02 -0.36898831677E+02  0.69187798849E+02  0.41800000000E+01 0.  1.
        -11    1    3    3    0    0  0.20609415715E+01 -0.33106930741E+02  0.23511785737E+02  0.40658583495E+02  0.00000000000E+00 0.  1.
         11    1    3    3    0    0  0.31636791342E+02  0.37649209778E+02  0.15268906439E+03  0.16041290456E+03  0.00000000000E+00 0. -1.
</event>
<event>
 7    1  0.5137842E-006  0.9603706E+02  0.7561462E-02  0.1288857E+00
         -1   -1    0    0    0  501 -0.00000000000E+00  0.00000000000E+00  0.25829698843E+03  0.25829698843E+03  0.00000000000E+00 0.  1.
          1   -1    0    0  501    0  0.00000000000E+00 -0.00000000000E+00 -0.63789360473E+02  0.63789360473E+02  0.00000000000E+00 0. -1.
         23    2    1    2    0    0  0.43923068788E+02  0.48399092249E+02  0.35352684788E+02  0.11777081283E+03  0.91369819588E+02 0.  0.
          5    1    1    2  502    0 -0.25039398868E+01  0.15410034348E+02 -0.98530005502E+01  0.18928626294E+02  0.41800000000E+01 0. -1.
         -5    1    1    2    0  502 -0.41419128901E+02 -0.63809126597E+02  0.16900794372E+03  0.18538690978E+03  0.41800000000E+01 0.  1.
        -11    1    3    3    0    0  0.50688193420E+01 -0.20232276073E+02 -0.13643860114E+02  0.24923740558E+02  0.00000000000E+00 0.  1.
         11    1    3    3    0    0  0.38854249446E+02  0.68631368322E+02  0.48996544902E+02  0.92847072276E+02  0.00000000000E+00 0. -1.
</event>
<event>
 7    1  0.5137842E-006  0.1688598E+03  0.7561462E-02  0.1179042E+00
         -2   -1    0    0    0  501 -0.00000000000E+00  0.00000000000E+00  0.10688913689E+03  0.10688913689E+03  0.00000000000E+00 0.  1.
          2   -1    0    0  501    0  0.00000000000E+00 -0.00000000000E+00 -0.32749395224E+03  0.32749395224E+03  0.00000000000E+00 0. -1.
         23    2    1    2    0    0  0.14947880483E+03  0.21845866028E+02 -0.12296971826E+03  0.21528996484E+03  0.91690034348E+02 0.  0.
          5    1    1    2  502    0 -0.67162613221E+02  0.44449864573E+02 -0.91093964567E+01  0.81160708345E+02  0.41800000000E+01 0. -1.
         -5    1    1    2    0  502 -0.82316191604E+02 -0.66295730601E+02 -0.88525700641E+02  0.13793241595E+03  0.41800000000E+01 0. -1.
        -11    1    3    3    0    0  0.52188573875E+02  0.11647758490E+02  0.55681570186E+01  0.53761714012E+02  0.00000000000E+00 0.  1.
         11    1    3    3    0    0  0.97290230950E+02  0.10198107538E+02 -0.12853787527E+03  0.16152825083E+03  0.00000000000E+00 0. -1.
</event>
<event>
 7    1  0.5137842E-006  0.9794312E+02  0.7561462E-02  0.1284682E+00
          2   -1    0    0  501    0  0.00000000000E+00  0.00000000000E+00  0.30493265866E+03  0.30493265866E+03  0.00000000000E+00 0.  1.
         -2   -1    0    0    0  501 -0.00000000000E+00 -0.00000000000E+00 -0.61134392477E+02  0.61134392477E+02  0.00000000000E+00 0. -1.
         23    2    1    2    0    0 -0.20309038134E+02  0.34973709864E+02  0.21199950395E+03  0.23081606708E+03  0.81833060182E+02 0.  0.
          5    1    1    2  502    0 -0.47936877082E+02  0.10521645617E+02  0.14171516734E+02  0.51253814467E+02  0.41800000000E+01 0.  1.
         -5    1    1    2    0  502  0.68245915216E+02 -0.45495355481E+02  0.17627245499E+02  0.83997169583E+02  0.41800000000E+01 0.  1.
        -11    1    3    3    0    0  0.10318254452E+02 -0.70549773161E+01 -0.32653174723E-01  0.12499605838E+02  0.00000000000E+00 0. -1.
         11    1    3    3    0    0 -0.30627292587E+02  0.42028687181E+02  0.21203215712E+03  0.21831646125E+03  0.00000000000E+00 0.  1.
</event>
<event>
 7    1  0.5137842E-006  0.1536424E+03  0.7561462E-02  0.1196067E+00
          1   -1    0    0  501    0  0.00000000000E+00  0.00000000000E+00  0.17566729380E+03  0.17566729380E+03  0.00000000000E+00 0. -1.
         -1   -1    0    0    0  501 -0.00000000000E+00 -0.00000000000E+00 -0.18390934969E+03  0.18390934969E+03  0.00000000000E+00 0.  1.
         23    2    1    2    0    0  0.13760381223E+03  0.37619440373E+02 -0.20978551350E+00  0.16967336489E+03  0.91863895582E+02 0.  0.
          5    1    1    2  502    0 -0.80005411899E+02 -0.23361043149E+02  0.57543873281E+02  0.10136751956E+03  0.41800000000E+01 0.  1.
         -5    1    1    2    0  502 -0.57598400327E+02 -0.14258397224E+02 -0.65576143656E+02  0.88535759038E+02  0.41800000000E+01 0.  1.
        -11    1    3    3    0    0  0.61123795273E+02 -0.24469361759E+02  0.20604448453E+02  0.68988486790E+02  0.00000000000E+00 0. -1.
         11    1    3    3    0    0  0.76480016953E+02  0.62088802133E+02 -0.20814233967E+02  0.10068487810E+03  0.00000000000E+00 0.  1.
</event>
<event>
 7    1  0.5137842E-006  0.2034112E+03  0.7561462E-02  0.1146892E+00
         -2   -1    0    0    0  501 -0.00000000000E+00  0.00000000000E+00  0.65153061997E+03  0.65153061997E+03  0.00000000000E+00 0. -1.
          2   -1    0    0  501    0  0.00000000000E+00 -0.00000000000E+00 -0.81851527893E+02  0.81851527893E+02  0.00000000000E+00 0.  1.
         23    2    1    2    0    0 -0.18577292955E+03  0.58833984267E+02  0.18807018569E+03  0.28701263038E+03  0.95041234160E+02 0.  0.
          5    1    1    2  502    0  0.59913298430E+02 -0.31744813127E+02  0.26174554579E+03  0.27041734343E+03  0.41800000000E+01 0.  1.
         -5    1    1    2    0  502  0.12585963112E+03 -0.27089171141E+02  0.11986336060E+03  0.17595217405E+03  0.41800000000E+01 0.  1.
        -11    1    3    3    0    0 -0.19289590671E+03  0.51065999134E+02  0.15608546590E+03  0.25333621880E+03  0.00000000000E+00 0.  1.
         11    1    3    3    0    0  0.71229771528E+01  0.77679851336E+01  0.31984719788E+02  0.33676411574E+02  0.00000000000E+00 0. -1.
</event>
<event>
 7    1  0.5137842E-006  0.1464224E+03  0.7561462E-02  0.1204939E+00
          1   -1    0    0  501    0  0.00000000000E+00  0.00000000000E+00  0.42215042405E+03  0.42215042405E+03  0.00000000000E+00 0. -1.
         -1   -1    0    0    0  501 -0.00000000000E+00 -0.00000000000E+00 -0.65238435258E+02  0.65238435258E+02  0.00000000000E+00 0.  1.
         23    2    1    2    0    0  0.11137540169E+03  0.41818893043E+02  0.12338842303E+03  0.19698502208E+03  0.97082933966E+02 0.  0.
          5    1    1    2  502    0 -0.10735436081E+03 -0.79930635361E+02  0.17580003777E+03  0.22099092952E+03  0.41800000000E+01 0. -1.
         -5    1    1    2    0  502 -0.40210408839E+01  0.38111742318E+02  0.57723527997E+02  0.69412907710E+02  0.41800000000E+01 0. -1.
        -11    1    3    3    0    0  0.41626115205E+02  0.62548548964E+01  0.10970774273E+03  0.11750593811E+03  0.00000000000E+00 0. -1.
         11    1    3    3    0    0  0.69749286486E+02  0.35564038147E+02  0.13680680305E+02  0.79479083967E+02  0.00000000000E+00 0.  1.
</event>
<event>
 7    1  0.5137842E-006  0.1147648E+03  0.7561462E-02  0.1251992E+00
         -3   -1    0    0    0  501 -0.00000000000E+00  0.00000000000E+00  0.19097697387E+03  0.19097697387E+03  0.00000000000E+00 0.  1.
          3   -1    0    0  501    0  0.00000000000E+00 -0.00000000000E+00 -0.10016771245E+03  0.10016771245E+03  0.00000000000E+00 0. -1.
         23    2    1    2    0    0  0.71822375031E+02  0.46392894692E+02  0.45015291694E+02  0.13285108875E+03  0.91171711965E+02 0.  0.
          5    1    1    2  502    0 -0.13492132149E+02  0.38444233353E+02  0.36455583624E+02  0.54831365890E+02  0.41800000000E+01 0.  1.
         -5    1    1    2    0  502 -0.58330242881E+02 -0.84837128045E+02  0.93383860966E+01  0.10346223168E+03  0.41800000000E+01 0.  1.
        -11    1    3    3    0    0  0.57055033566E+02  0.37925198332E+02  0.72989077686E+02  0.10010495984E+03  0.00000000000E+00 0.  1.
         11    1    3    3    0    0  0.14767341465E+02  0.84676963594E+01 -0.27973785992E+02  0.32746128906E+02  0.00000000000E+00 0. -1.
</event>
<event>
 7    1  0.5137842E-006  0.1738538E+03  0.7561462E-02  0.1173888E+00
         -2   -1    0    0    0  501 -0.00000000000E+00  0.00000000000E+00  0.38742954009E+02  0.38742954009E+02  0.00000000000E+00 0.  1.
          2   -1    0    0  501    0  0.00000000000E+00 -0.00000000000E+00 -0.93090775802E+03  0.93090775802E+03  0.00000000000E+00 0. -1.
         23    2    1    2    0    0 -0.72852684908E+02  0.12959879414E+03 -0.53977382877E+03  0.56724437568E+03  0.91142933771E+02 0.  0.
          5    1    1    2  502    0  0.23483826038E+02  0.23420239840E+02 -0.58068075738E+02  0.67002772625E+02  0.41800000000E+01 0.  1.
         -5    1    1    2    0  502  0.49368858871E+02 -0.15301903398E+03 -0.29432289950E+03  0.33540356372E+03  0.41800000000E+01 0.  1.
        -11    1    3    3    0    0 -0.42683229483E+02  0.10858316217E+03 -0.49849014767E+03  0.51196151077E+03  0.00000000000E+00 0.  1.
         11    1    3    3    0    0 -0.30169455425E+02  0.21015631970E+02 -0.41283681105E+02  0.55282864916E+02  0.00000000000E+00 0. -1.
</event>
<event>
 7    1  0.5137842E-006  0.5181178E+02  0.7561462E-02  0.1435807E+00
         -2   -1    0    0    0  501 -0.00000000000E+00  0.00000000000E+00  0.56472220303E+02  0.56472220303E+02  0.00000000000E+00 0.  1.
          2   -1    0    0  501    0  0.00000000000E+00 -0.00000000000E+00 -0.24137796634E+03  0.24137796634E+03  0.00000000000E+00 0. -1.
         23    2    1    2    0    0 -0.16400055857E+02 -0.20839844367E+02 -0.12390307880E+03  0.15618797069E+03  0.91320579873E+02 0.  0.
          5    1    1    2  502    0  0.17498393573E+02 -0.76277804733E+01  0.35735764065E+02  0.40729523025E+02  0.41800000000E+01 0.  1.
         -5    1    1    2    0  502 -0.10983377156E+01  0.28467624840E+02 -0.96738431304E+02  0.10093269292E+03  0.41800000000E+01 0.  1.
        -11    1    3    3    0    0  0.17063045019E+02 -0.11395671470E+02  0.62668793121E+01  0.21454197955E+02  0.00000000000E+00 0.  1.
         11    1    3    3    0    0 -0.33463100876E+02 -0.94441728971E+01 -0.13016995811E+03  0.13473377274E+03  0.00000000000E+00 0. -1.
</event>
<event>
 7    1  0.5137842E-006  0.1697404E+03  0.7561462E-02  0.1178119E+00
         -1   -1    0    0    0  501 -0.00000000000E+00  0.00000000000E+00  0.10396758404E+03  0.10396758404E+03  0.00000000000E+00 0.  1.
          1   -1    0    0  501    0  0.00000000000E+00 -0.00000000000E+00 -0.68366771503E+03  0.68366771503E+03  0.00000000000E+00 0. -1.
         23    2    1    2    0    0 -0.11223577331E+03  0.66019821573E+02 -0.58532776382E+03  0.60698608571E+03  0.94170226119E+02 0.  0.
          5    1    1    2  502    0  0.84047326921E+02 -0.10245055798E+03  0.15098840039E+02  0.13343731623E+03  0.41800000000E+01 0.  1.
         -5    1    1    2    0  502  0.28188446393E+02  0.36430736405E+02 -0.94712071975E+01  0.47211897132E+02  0.41800000000E+01 0.  1.
        -11    1    3    3    0    0 -0.12927663938E+03  0.60524092161E+02 -0.51524997405E+03  0.53465704052E+03  0.00000000000E+00 0. -1.
         11    1    3    3    0    0  0.17040866063E+02  0.54957294115E+01 -0.70077789770E+02  0.72329045182E+02  0.00000000000E+00 0.  1.
</event>
<event>
 7    1  0.5137842E-006  0.7707802E+02  0.7561462E-02  0.1337554E+00
          2   -1    0    0  501    0  0.00000000000E+00  0.00000000000E+00  0.56440721664E+02  0.56440721664E+02  0.00000000000E+00 0. -1.
         -2   -1    0    0    0  501 -0.00000000000E+00 -0.00000000000E+00 -0.23227215485E+03  0.23227215485E+03  0.00000000000E+00 0.  1.
         23    2    1    2    0    0  0.13937930271E+02 -0.27432543255E+02 -0.44372624950E+02  0.10465892481E+03  0.89653501699E+02 0.  0.
          5    1    1    2  502    0  0.50691146654E+01  0.37985804554E+02  0.10838731660E+02  0.40044572355E+02  0.41800000000E+01 0.  1.
         -5    1    1    2    0  502 -0.19007044937E+02 -0.10553261299E+02 -0.14229753990E+03  0.14400937936E+03  0.41800000000E+01 0.  1.
        -11    1    3    3    0    0 -0.35384825978E+02 -0.26376050724E+02 -0.29672956666E+02  0.53181447127E+02  0.00000000000E+00 0.  1.
         11    1    3    3    0    0  0.49322756249E+02 -0.10564925306E+01 -0.14699668284E+02  0.51477477678E+02  0.00000000000E+00 0. -1.
</event>
<event>
 7    1  0.5137842E-006  0.9548495E+02  0.7561462E-02  0.1290088E+00
          1   -1    0    0  501    0  0.00000000000E+00  0.00000000000E+00  0.42909607099E+02  0.42909607099E+02  0.00000000000E+00 0. -1.
         -1   -1    0    0    0  501 -0.00000000000E+00 -0.00000000000E+00 -0.51781846904E+03  0.51781846904E+03  0.00000000000E+00 0.  1.
         23    2    1    2    0    0 -0.89787755959E+02  0.87359192361E+01 -0.12274423657E+03  0.17627319852E+03  0.88701383874E+02 0.  0.
          5    1    1    2  502    0  0.54145779732E+02  0.50704876761E+01 -0.34645774407E+02  0.64616386407E+02  0.41800000000E+01 0.  1.
         -5    1    1    2    0  502  0.35641976227E+02 -0.13806406912E+02 -0.31751885097E+03  0.31983849121E+03  0.41800000000E+01 0.  1.
        -11    1    3    3    0    0 -0.80346558990E+02  0.20472421010E+02 -0.13392544463E+03  0.15751417169E+03  0.00000000000E+00 0.  1.
         11    1    3    3    0    0 -0.94411969682E+01 -0.11736501774E+02  0.11181208060E+02  0.18759026834E+02  0.00000000000E+00 0. -1.
</event>
<event>
 7    1  0.5137842E-006  0.1088260E+03  0.7561462E-02  0.1262760E+00
         -3   -1    0    0    0  501 -0.00000000000E+00  0.00000000000E+00  0.17639439873E+03  0.17639439873E+03  0.00000000000E+00 0.  1.
          3   -1    0    0  501    0  0.00000000000E+00 -0.00000000000E+00 -0.74606125766E+02  0.74606125766E+02  0.00000000000E+00 0. -1.
         23    2    1    2    0    0  0.48473289209E+01  0.32322472041E+02  0.20467276841E+02  0.98264117638E+02  0.90380797724E+02 0.  0.
          5    1    1    2  502    0  0.11668221808E+02 -0.78789618624E+02  0.51962717591E+02  0.95192162611E+02  0.41800000000E+01 0. -1.
         -5    1    1    2    0  502 -0.16515550729E+02  0.46467146583E+02  0.29358278529E+02  0.57544244244E+02  0.41800000000E+01 0. -1.
        -11    1    3    3    0    0 -0.35978444181E+02  0.31101096904E+02  0.30122100536E+02  0.56294472331E+02  0.00000000000E+00 0.  1.
         11    1    3    3    0    0  0.40825773102E+02  0.12213751363E+01 -0.96548236952E+01  0.41969645307E+02  0.00000000000E+00 0. -1.
</event>
<event>
 7    1  0.5137842E-006  0.1037076E+03  0.7561462E-02  0.1272687E+00
         -1   -1    0    0    0  501 -0.00000000000E+00  0.00000000000E+00  0.23248351593E+02  0.23248351593E+02  0.00000000000E+00 0.  1.
          1   -1    0    0  501    0  0.00000000000E+00 -0.00000000000E+00 -0.84937777303E+03  0.84937777303E+03  0.00000000000E+00 0. -1.
         23    2    1    2    0    0  0.79633566777E+02 -0.27728422581E+02 -0.45988018336E+03  0.47652705231E+03  0.92075393869E+02 0.  0.
          5    1    1    2  502    0 -0.41125136812E+02  0.12097316871E+02 -0.20260512239E+02  0.47598137668E+02  0.41800000000E+01 0.  1.
         -5    1    1    2    0  502 -0.38508429965E+02  0.15631105711E+02 -0.34598872583E+03  0.34850093464E+03  0.41800000000E+01 0.  1.
        -11    1    3    3    0    0  0.96326683479E+02 -0.78926902313E+01 -0.39515363241E+03  0.40680157044E+03  0.00000000000E+00 0.  1.
         11    1    3    3    0    0 -0.16693116702E+02 -0.19835732350E+02 -0.64726550958E+02  0.69725481870E+02  0.00000000000E+00 0. -1.
</event>
<event>
 7    1  0.5137842E-006  0.1916877E+03  0.7561462E-02  0.1156948E+00
          2   -1    0    0  501    0  0.00000000000E+00  0.00000000000E+00  0.66141740573E+03  0.66141740573E+03  0.00000000000E+00 0. -1.
         -2   -1    0    0    0  501 -0.00000000000E+00 -0.00000000000E+00 -0.69705357231E+02  0.69705357231E+02  0.00000000000E+00 0.  1.
         23    2    1    2    0    0  0.22419547470E+02 -0.16378787310E+03  0.42506475467E+03  0.46514013279E+03  0.91357506479E+02 0.  0.
          5    1    1    2  502    0  0.48433246663E+02  0.10242813297E+03  0.95374926923E+02  0.14815920792E+03  0.41800000000E+01 0.  1.
         -5    1    1    2    0  502 -0.70852794133E+02  0.61359740132E+02  0.71272366912E+02  0.11782342225E+03  0.41800000000E+01 0.  1.
        -11    1    3    3    0    0 -0.20875218492E+02 -0.66208608302E+02  0.25555292594E+03  0.26481437369E+03  0.00000000000E+00 0. -1.
         11    1    3    3    0    0  0.43294765962E+02 -0.97579264800E+02  0.16951182873E+03  0.20032575910E+03  0.00000000000E+00 0.  1.
</event>
<event>
 7    1  0.5137842E-006  0.6544641E+02  0.7561462E-02  0.1376300E+00
         -1   -1    0    0    0  501 -0.00000000000E+00  0.00000000000E+00  0.23885906324E+02  0.23885906324E+02  0.00000000000E+00 0.  1.
          1   -1    0    0  501    0  0.00000000000E+00 -0.00000000000E+00 -0.54098046638E+03  0.54098046638E+03  0.00000000000E+00 0. -1.
         23    2    1    2    0    0  0.23314286636E+02  0.21409269492E+02 -0.21651785554E+03  0.23776348006E+03  0.93003106934E+02 0.  0.
          5    1    1    2  502    0 -0.10954740770E+02 -0.10432129978E+02 -0.30807623397E+03  0.30847572679E+03  0.41800000000E+01 0. -1.
         -5    1    1    2    0  502 -0.12359545866E+02 -0.10977139515E+02  0.74995294527E+01  0.18627165859E+02  0.41800000000E+01 0. -1.
        -11    1    3    3    0    0  0.37112922576E+02 -0.28228085763E+02 -0.10807088060E+03  0.11770093067E+03  0.00000000000E+00 0. -1.
         11    1    3    3    0    0 -0.13798635941E+02  0.49637355255E+02 -0.10844697495E+03  0.12006254939E+03  0.00000000000E+00 0.  1.
</event>
<event>
 7    1  0.5137842E-006  0.1902069E+03  0.7561462E-02  0.1158275E+00
          2   -1    0    0  501    0  0.00000000000E+00  0.00000000000E+00  0.15213062295E+03  0.15213062295E+03  0.00000000000E+00 0. -1.
         -2   -1    0    0    0  501 -0.00000000000E+00 -0.00000000000E+00 -0.28965838195E+03  0.28965838195E+03  0.00000000000E+00 0.  1.
         23    2    1    2    0    0 -0.69318187456E+02 -0.16533311984E+03 -0.54525709899E+02  0.20795976103E+03  0.90189564462E+02 0.  0.
          5    1    1    2  502    0  0.88737153821E+02  0.15054380017E+03 -0.32799888191E+02  0.17785112680E+03  0.41800000000E+01 0.  1.
         -5    1    1    2    0  502 -0.19418966366E+02  0.14789319676E+02 -0.50202160914E+02  0.55978117078E+02  0.41800000000E+01 0.  1.
        -11    1    3    3    0    0 -0.65739822693E+02 -0.13343354010E+03 -0.78220940631E+02  0.16806174301E+03  0.00000000000E+00 0.  1.
         11    1    3    3    0    0 -0.35783647629E+01 -0.31899579744E+02  0.23695230732E+02  0.39898018017E+02  0.00000000000E+00 0. -1.
</event>
<event>
 7    1  0.5137842E-006  0.1516545E+03  0.7561462E-02  0.1198455E+00
         -2   -1    0    0    0  501 -0.00000000000E+00  0.00000000000E+00  0.89881664497E+02  0.89881664497E+02  0.00000000000E+00 0. -1.
          2   -1    0    0  501    0  0.00000000000E+00 -0.00000000000E+00 -0.30883931514E+03  0.30883931514E+03  0.00000000000E+00 0.  1.
         23    2    1    2    0    0  0.11087275853E+03 -0.29887324110E+02 -0.16831766163E+03  0.22152705227E+03  0.86933186665E+02 0.  0.
          5    1    1    2  502    0  0.20060433379E+02 -0.93961577718E+01 -0.32034063529E+02  0.39170938135E+02  0.41800000000E+01 0. -1.
         -5    1    1    2    0  502 -0.13093319191E+03  0.39283481882E+02 -0.18605925481E+02  0.13802298923E+03  0.41800000000E+01 0. -1.
        -11    1    3    3    0    0  0.11218240637E+03  0.18903539635E+01 -0.12949623953E+03  0.17134101023E+03  0.00000000000E+00 0.  1.
         11    1    3    3    0    0 -0.13096478334E+01 -0.31777678073E+02 -0.38821422106E+02  0.50186042039E+02  0.00000000000E+00 0. -1.
</event>
<event>
 7    1  0.5137842E-006  0.1087991E+03  0.7561462E-02  0.1262810E+00
         -2   -1    0    0    0  501 -0.00000000000E+00  0.00000000000E+00  0.68106091968E+02  0.68106091968E+02  0.00000000000E+00 0.  1.
          2   -1    0    0  501    0  0.00000000000E+00 -0.00000000000E+00 -0.29186299188E+03  0.29186299188E+03  0.00000000000E+00 0. -1.
         23    2    1    2    0    0  0.17938866267E+02  0.27200447882E+02 -0.20774878517E+03  0.22971979634E+03  0.92465992698E+02 0.  0.
          5    1    1    2  502    0  0.45407617720E+02 -0.34215866541E+02  0.15430326027E+02  0.59060516688E+02  0.41800000000E+01 0.  1.
         -5    1    1    2    0  502 -0.63346483987E+02  0.70154186590E+01 -0.31438440772E+02  0.71188770818E+02  0.41800000000E+01 0.  1.
        -11    1    3    3    0    0  0.41565869614E+02  0.49218765276E+02 -0.11970222312E+03  0.13593686252E+03  0.00000000000E+00 0. -1.
         11    1    3    3    0    0 -0.23627003347E+02 -0.22018317394E+02 -0.88046562052E+02  0.93782933827E+02  0.00000000000E+00 0.  1.
</event>
<event>
 7    1  0.5137842E-006  0.7574761E+02  0.7561462E-02  0.1341571E+00
          1   -1    0    0  501    0  0.00000000000E+00  0.00000000000E+00  0.24479665108E+03  0.24479665108E+03  0.00000000000E+00 0. -1.
         -1   -1    0    0    0  501 -0.00000000000E+00 -0.00000000000E+00 -0.57199989708E+02  0.57199989708E+02  0.00000000000E+00 0.  1.
         23    2    1    2    0    0  0.14575424414E+02  0.43052946436E+02  0.96571316149E+02  0.14075920792E+03  0.91766749526E+02 0.  0.
          5    1    1    2  502    0  0.12195864135E+02 -0.28554840699E+02  0.11692412715E+03  0.12104892374E+03  0.41800000000E+01 0.  1.
         -5    1    1    2    0  502 -0.26771288549E+02 -0.14498105737E+02 -0.25898781925E+02  0.40188509126E+02  0.41800000000E+01 0.  1.
        -11    1    3    3    0    0  0.43784846360E+02  0.41272182162E+02  0.28326611782E+02  0.66504907535E+02  0.00000000000E+00 0. -1.
         11    1    3    3    0    0 -0.29209421946E+02  0.17807642734E+01  0.68244704367E+02  0.74254300387E+02  0.00000000000E+00 0.  1.
</event>
<event>
 7    1  0.5137842E-006  0.1046642E+03  0.7561462E-02  0.1270783E+00
         -1   -1    0    0    0  501 -0.00000000000E+00  0.00000000000E+00  0.69475907356E+03  0.69475907356E+03  0.00000000000E+00 0.  1.
          1   -1    0    0  501    0  0.00000000000E+00 -0.00000000000E+00 -0.17913455700E+02  0.17913455700E+02  0.00000000000E+00 0. -1.
         23    2    1    2    0    0  0.19458260691E+02  0.16492454324E+02  0.25258612145E+03  0.26961249053E+03  0.90777317320E+02 0.  0.
          5    1    1    2  502    0  0.52537887410E+02 -0.10647526444E+02  0.14734391586E+03  0.15684801999E+03  0.41800000000E+01 0. -1.
         -5    1    1    2    0  502 -0.71996148102E+02 -0.58449278799E+01  0.27691558055E+03  0.28621201875E+03  0.41800000000E+01 0. -1.
        -11    1    3    3    0    0  0.46881994888E+02  0.26690544773E+02  0.94263218217E+02  0.10860875164E+03  0.00000000000E+00 0. -1.
         11    1    3    3    0    0 -0.27423734197E+02 -0.10198090450E+02  0.15832290323E+03  0.16100373888E+03  0.00000000000E+00 0.  1.
</event>
<event>
 7    1  0.5137842E-006  0.8015216E+02  0.7561462E-02  0.1328620E+00
          1   -1    0    0  501    0  0.00000000000E+00  0.00000000000E+00  0.17936782654E+03  0.17936782654E+03  0.00000000000E+00 0. -1.
         -1   -1    0    0    0  501 -0.00000000000E+00 -0.00000000000E+00 -0.68892580289E+02  0.68892580289E+02  0.00000000000E+00 0.  1.
         23    2    1    2    0    0  0.17073385529E+01  0.29960087568E+02  0.75120167096E+02  0.11485549187E+03  0.81536633835E+02 0.  0.
          5    1    1    2  502    0  0.13438103959E+02 -0.58139341828E+02 -0.25106623250E+02  0.64873574260E+02  0.41800000000E+01 0. -1.
         -5    1    1    2    0  502 -0.15145442512E+02  0.28179254260E+02  0.60461702405E+02  0.68531340694E+02  0.41800000000E+01 0. -1.
        -11    1    3    3    0    0 -0.23442812404E+02  0.35430861010E+02  0.78138129305E+02  0.88940871463E+02  0.00000000000E+00 0. -1.
         11    1    3    3    0    0  0.25150150956E+02 -0.54707734418E+01 -0.30179622092E+01  0.25914620412E+02  0.00000000000E+00 0.  1.
</event>
<event>
 7    1  0.5137842E-006  0.1093525E+03  0.7561462E-02  0.1261774E+00
          1   -1    0    0  501    0  0.00000000000E+00  0.00000000000E+00  0.75133926386E+02  0.75133926386E+02  0.00000000000E+00 0. -1.
         -1   -1    0    0    0  501 -0.00000000000E+00 -0.00000000000E+00 -0.32323092814E+03  0.32323092814E+03  0.00000000000E+00 0.  1.
         23    2    1    2    0    0 -0.85430160661E+02 -0.19156099776E+02 -0.28109152979E+02  0.13058079324E+03  0.92714349341E+02 0.  0.
          5    1    1    2  502    0  0.61737975570E+01  0.17576452240E+02 -0.17599317807E+03  0.17702575682E+03  0.41800000000E+01 0.  1.
         -5    1    1    2    0  502  0.79256363104E+02  0.15796475356E+01 -0.43994670706E+02  0.90758304465E+02  0.41800000000E+01 0.  1.
        -11    1    3    3    0    0 -0.30243449533E+02 -0.48931450394E+02 -0.35255944671E+02  0.67468027331E+02  0.00000000000E+00 0.  1.
         11    1    3    3    0    0 -0.55186711128E+02  0.29775350618E+02  0.71467916924E+01  0.63112765912E+02  0.00000000000E+00 0. -1.
</event>
<event>
 7    1  0.5137842E-006  0.9070531E+02  0.7561462E-02  0.1301153E+00
          3   -1    0    0  501    0  0.00000000000E+00  0.00000000000E+00  0.81919877728E+03  0.81919877728E+03  0.00000000000E+00 0.  1.
         -3   -1    0    0    0  501 -0.00000000000E+00 -0.00000000000E+00 -0.14803309889E+02  0.14803309889E+02  0.00000000000E+00 0. -1.
         23    2    1    2    0    0 -0.82856200435E+01 -0.52020120645E+01  0.39473478112E+03  0.40555888457E+03  0.92556733953E+02 0.  0.
          5    1    1    2  502    0  0.50354726576E+02  0.15558370505E+01  0.71131722926E+02  0.87265190791E+02  0.41800000000E+01 0.  1.
         -5    1    1    2    0  502 -0.42069106532E+02  0.36461750140E+01  0.33852896334E+03  0.34117801181E+03  0.41800000000E+01 0.  1.
        -11    1    3    3    0    0 -0.48235102262E+02 -0.88205904762E+00  0.27664246422E+03  0.28081747832E+03  0.00000000000E+00 0.  1.
         11    1    3    3    0    0  0.39949482219E+02 -0.43199530169E+01  0.11809231690E+03  0.12474140625E+03  0.00000000000E+00 0. -1.
</event>
<event>
 7    1  0.5137842E-006  0.1704625E+03  0.7561462E-02  0.1177366E+00
          2   -1    0    0  501    0  0.00000000000E+00  0.00000000000E+00  0.18543480062E+04  0.18543480062E+04  0.00000000000E+00 0. -1.
         -2   -1    0    0    0  501 -0.00000000000E+00 -0.00000000000E+00 -0.19008610823E+02  0.19008610823E+02  0.00000000000E+00 0.  1.
         23    2    1    2    0    0  0.49356059516E+02 -0.14242243651E+03  0.73174301888E+03  0.75251247214E+03  0.90038902759E+02 0.  0.
          5    1    1    2  502    0 -0.48370230537E+02  0.40097356885E+02  0.16383800489E+03  0.17552162681E+03  0.41800000000E+01 0.  1.
         -5    1    1    2    0  502 -0.98582897923E+00  0.10232507962E+03  0.93975837161E+03  0.94532251808E+03  0.41800000000E+01 0.  1.
        -11    1    3    3    0    0  0.68625132601E+02 -0.60827560402E+02  0.38972175325E+03  0.40036539047E+03  0.00000000000E+00 0. -1.
         11    1    3    3    0    0 -0.19269073085E+02 -0.81594876103E+02  0.34202126563E+03  0.35214708167E+03  0.00000000000E+00 0.  1.
</event>
<event>
 7    1  0.5137842E-006  0.1097826E+03  0.7561462E-02  0.1260973E+00
         -1   -1    0    0    0  501 -0.00000000000E+00  0.00000000000E+00  0.60773693534E+03  0.60773693534E+03  0.00000000000E+00 0.  1.
          1   -1    0    0  501    0  0.00000000000E+00 -0.00000000000E+00 -0.54561220541E+02  0.54561220541E+02  0.00000000000E+00 0. -1.
         23    2    1    2    0    0  0.63080023943E+02  0.51007185285E+02  0.34090218422E+02  0.12525057124E+03  0.89133272307E+02 0.  0.
          5    1    1    2  502    0  0.13385419471E+02  0.25703148158E+02  0.11706711376E+03  0.12067312379E+03  0.41800000000E+01 0. -1.
         -5    1    1    2    0  502 -0.76465443415E+02 -0.76710333443E+02  0.40201838261E+03  0.41637446086E+03  0.41800000000E+01 0.  1.
        -11    1    3    3    0    0  0.37506276169E+02  0.37219904528E+02 -0.25712672504E+02  0.58763794741E+02  0.00000000000E+00 0. -1.
         11    1    3    3    0    0  0.25573747774E+02  0.13787280758E+02  0.59802890926E+02  0.66486776498E+02  0.00000000000E+00 0.  1.
</event>
<event>
 7    1  0.5137842E-006  0.1553709E+03  0.7561462E-02  0.1194024E+00
         -3   -1    0    0    0  501 -0.00000000000E+00  0.00000000000E+00  0.89232802900E+02  0.89232802900E+02  0.00000000000E+00 0.  1.
          3   -1    0    0  501    0  0.00000000000E+00 -0.00000000000E+00 -0.51156358991E+03  0.51156358991E+03  0.00000000000E+00 0. -1.
         23    2    1    2    0    0 -0.78636772711E+02 -0.11732782031E+03 -0.36805340010E+03  0.40447101138E+03  0.90465099773E+02 0.  0.
          5    1    1    2  502    0 -0.77079280865E+01  0.69734109135E+02  0.19702086329E+02  0.72992484119E+02  0.41800000000E+01 0. -1.
         -5    1    1    2    0  502  0.86344700798E+02  0.47593711177E+02 -0.73979473238E+02  0.12333289731E+03  0.41800000000E+01 0. -1.
        -11    1    3    3    0    0 -0.51850064690E+02 -0.66521525059E+02 -0.10231587639E+03  0.13259743989E+03  0.00000000000E+00 0.  1.
         11    1    3    3    0    0 -0.26786708022E+02 -0.50806295252E+02 -0.26573752371E+03  0.27187357148E+03  0.00000000000E+00 0. -1.
</event>
<event>
 7    1  0.5137842E-006  0.1129103E+03  0.7561462E-02  0.1255273E+00
         -2   -1    0    0    0  501 -0.00000000000E+00  0.00000000000E+00  0.20105566119E+03  0.20105566119E+03  0.00000000000E+00 0.  1.
          2   -1    0    0  501    0  0.00000000000E+00 -0.00000000000E+00 -0.65793193204E+02  0.65793193204E+02  0.00000000000E+00 0. -1.
         23    2    1    2    0    0 -0.27745798649E+02 -0.25328335387E+02  0.64874241186E+02  0.11847492350E+03  0.91740320534E+02 0.  0.
          5    1    1    2  502    0  0.49870411064E+02 -0.37761172607E+02  0.42901353148E+02  0.75966851707E+02  0.41800000000E+01 0. -1.
         -5    1    1    2    0  502 -0.22124612415E+02  0.63089507995E+02  0.27486873650E+02  0.72407079188E+02  0.41800000000E+01 0. -1.
        -11    1    3    3    0    0  0.26914809512E+02  0.12490709309E+02  0.73445299016E+01  0.30567415814E+02  0.00000000000E+00 0. -1.
         11    1    3    3    0    0 -0.54660608161E+02 -0.37819044696E+02  0.57529711284E+02  0.87907507681E+02  0.00000000000E+00 0.  1.
</event>
<event>
 7    1  0.5137842E-006  0.1539561E+03  0.7561462E-02  0.1195694E+00
          3   -1    0    0  501    0  0.00000000000E+00  0.00000000000E+00  0.95564231600E+02  0.95564231600E+02  0.00000000000E+00 0. -1.
         -3   -1    0    0    0  501 -0.00000000000E+00 -0.00000000000E+00 -0.31333445076E+03  0.31333445076E+03  0.00000000000E+00 0.  1.
         23    2    1    2    0    0  0.11179291914E+03 -0.70983184232E+02 -0.74622247732E+02  0.17721926605E+03  0.91114868089E+02 0.  0.
          5    1    1    2  502    0 -0.55805614640E+00 -0.23803426228E+02  0.37061997923E+01  0.24456550119E+02  0.41800000000E+01 0. -1.
         -5    1    1    2    0  502 -0.11123486300E+03  0.94786610459E+02 -0.14685417122E+03  0.20722286619E+03  0.41800000000E+01 0. -1.
        -11    1    3    3    0    0  0.35631400931E+02 -0.35435351845E+01  0.17610755710E+02  0.39903534813E+02  0.00000000000E+00 0. -1.
         11    1    3    3    0    0  0.76161518214E+02 -0.67439649047E+02 -0.92233003442E+02  0.13731573123E+03  0.00000000000E+00 0.  1.
</event>
<event>
 7    1  0.5137842E-006  0.6735334E+02  0.7561462E-02  0.1369332E+00
          1   -1    0    0  501    0  0.00000000000E+00  0.00000000000E+00  0.28273127726E+03  0.28273127726E+03  0.00000000000E+00 0. -1.
         -1   -1    0    0    0  501 -0.00000000000E+00 -0.00000000000E+00 -0.51244620564E+02  0.51244620564E+02  0.00000000000E+00 0.  1.
         23    2    1    2    0    0  0.43683721858E+02  0.11257619660E+01  0.14056235826E+03  0.17327530915E+03  0.91416745210E+02 0.  0.
          5    1    1    2  502    0 -0.51196860942E+02 -0.91038877593E+01  0.11918531015E+03  0.13010230550E+03  0.41800000000E+01 0. -1.
         -5    1    1    2    0  502  0.75131390839E+01  0.79781257932E+01 -0.28261011713E+02  0.30598283172E+02  0.41800000000E+01 0. -1.
        -11    1    3    3    0    0  0.46135500559E+02 -0.19465036559E+02  0.14381723604E+03  0.15228515832E+03  0.00000000000E+00 0. -1.
         11    1    3    3    0    0 -0.24517787008E+01  0.20590798525E+02 -0.32548777794E+01  0.20990150834E+02  0.00000000000E+00 0.  1.
</event>
<event>
 7    1  0.5137842E-006  0.1175051E+03  0.7561462E-02  0.1247271E+00
         -2   -1    0    0    0  501 -0.00000000000E+00  0.00000000000E+00  0.28886069816E+02  0.28886069816E+02  0.00000000000E+00 0.  1.
          2   -1    0    0  501    0  0.00000000000E+00 -0.00000000000E+00 -0.56157511515E+03  0.56157511515E+03  0.00000000000E+00 0. -1.
         23    2    1    2    0    0  0.28301547738E+02  0.62426412141E+02 -0.26230754934E+03  0.28476262563E+03  0.87100332801E+02 0.  0.
          5    1    1    2  502    0  0.25809499046E+02 -0.73585892430E+02 -0.10217301907E+03  0.12859942470E+03  0.41800000000E+01 0. -1.
         -5    1    1    2    0  502 -0.54111046783E+02  0.11159480289E+02 -0.16820847692E+03  0.17709913464E+03  0.41800000000E+01 0. -1.
        -11    1    3    3    0    0  0.26492247871E+02 -0.10546484849E+02 -0.13530784534E+03  0.13827971851E+03  0.00000000000E+00 0. -1.
         11    1    3    3    0    0  0.18092998660E+01  0.72972896990E+02 -0.12699970401E+03  0.14648290712E+03  0.00000000000E+00 0.  1.
</event>
<event>
 7    1  0.5137842E-006  0.8201301E+02  0.7561462E-02  0.1323434E+00
         -4   -1    0    0    0  501 -0.00000000000E+00  0.00000000000E+00  0.30705545749E+03  0.30705545749E+03  0.00000000000E+00 0.  1.
          4   -1    0    0  501    0  0.00000000000E+00 -0.00000000000E+00 -0.47293587744E+02  0.47293587744E+02  0.00000000000E+00 0. -1.
         23    2    1    2    0    0  0.34002472837E+02  0.40682009816E+02  0.11403214743E+03  0.15511352254E+03  0.90805727501E+02 0.  0.
          5    1    1    2  502    0 -0.66932414333E+02 -0.33122574651E+02  0.14724974445E+03  0.16515753897E+03  0.41800000000E+01 0. -1.
         -5    1    1    2    0  502  0.32929941496E+02 -0.75594351646E+01 -0.15200221305E+01  0.34077983717E+02  0.41800000000E+01 0. -1.
        -11    1    3    3    0    0  0.12293484362E+02  0.26615588562E+02  0.12397971211E+03  0.12739893378E+03  0.00000000000E+00 0.  1.
         11    1    3    3    0    0  0.21708988475E+02  0.14066421254E+02 -0.99475646814E+01  0.27714588768E+02  0.00000000000E+00 0. -1.
</event>
<event>
 7    1  0.5137842E-006  0.1463540E+03  0.7561462E-02  0.1205026E+00
         -2   -1    0    0    0  501 -0.00000000000E+00  0.00000000000E+00  0.14496472570E+03  0.14496472570E+03  0.00000000000E+00 0.  1.
          2   -1    0    0  501    0  0.00000000000E+00 -0.00000000000E+00 -0.15500488281E+03  0.15500488281E+03  0.00000000000E+00 0. -1.
         23    2    1    2    0    0 -0.89151657023E+02  0.48125337710E+02 -0.24286144799E+02  0.13837086977E+03  0.91063794625E+02 0.  0.
          5    1    1    2  502    0  0.97920076979E+02 -0.78401685573E+02 -0.27606877564E+01  0.12553987244E+03  0.41800000000E+01 0.  1.
         -5    1    1    2    0  502 -0.87684199559E+01  0.30276347863E+02  0.17006675445E+02  0.36058866290E+02  0.41800000000E+01 0.  1.
        -11    1    3    3    0    0  0.63459663781E+01 -0.18105428301E+02  0.17772825736E+01  0.19267500008E+02  0.00000000000E+00 0.  1.
         11    1    3    3    0    0 -0.95497623401E+02  0.66230766010E+02 -0.26063427372E+02  0.11910336976E+03  0.00000000000E+00 0. -1.
</event>
<event>
 6    1  0.5137842E-006  0.2044782E+03  0.7561462E-02  0.1146015E+00
          1   -1    0    0  501    0  0.00000000000E+00  0.00000000000E+00  0.93424142808E+03  0.93424142808E+03  0.00000000000E+00 0. -1.
         -1   -1    0    0    0  501 -0.00000000000E+00 -0.00000000000E+00 -0.61703346574E+02  0.61703346574E+02  0.00000000000E+00 0.  1.
          5    1    1    2  502    0  0.12649987106E+03 -0.81967168455E+01  0.25744002242E+03  0.28698822465E+03  0.41800000000E+01 0. -1.
         -5    1    1    2    0  502 -0.15377328497E+03  0.47051807249E+02  0.13683446519E+03  0.21119005422E+03  0.41800000000E+01 0.  1.
        -11    1    1    2    0    0  0.20339581476E+02 -0.78458172458E+02  0.41476080503E+03  0.42260609176E+03  0.00000000000E+00 0. -1.
         11    1    1    2    0    0  0.69338324365E+01  0.39603082055E+02  0.63502788857E+02  0.75160404024E+02  0.00000000000E+00 0.  1.
</event>
<event>
 7    1  0.5137842E-006  0.1505516E+03  0.7561462E-02  0.1199797E+00
         -1   -1    0    0    0  501 -0.00000000000E+00  0.00000000000E+00  0.29439565641E+03  0.29439565641E+03  0.00000000000E+00 0.  1.
          1   -1    0    0  501    0  0.00000000000E+00 -0.00000000000E+00 -0.23365317254E+03  0.23365317254E+03  0.00000000000E+00 0. -1.
         23    2    1    2    0    0  0.50383573550E+02 -0.99026833025E+02 -0.18306099856E+03  0.23235828824E+03  0.90189948329E+02 0.  0.
          5    1    1    2  502    0 -0.52450297670E+02  0.12315751848E+03  0.23320551598E+03  0.26892581350E+03  0.41800000000E+01 0.  1.
         -5    1    1    2    0  502  0.20667241201E+01 -0.24130685454E+02  0.10597966444E+02  0.26764727195E+02  0.41800000000E+01 0.  1.
        -11    1    3    3    0    0  0.33479743559E+01 -0.95362862886E+02 -0.11309468417E+03  0.14797193023E+03  0.00000000000E+00 0.  1.
         11    1    3    3    0    0  0.47035599194E+02 -0.36639701391E+01 -0.69966314392E+02  0.84386358011E+02  0.00000000000E+00 0. -1.
</event>
<event>
 7    1  0.5137842E-006  0.1409492E+03  0.7561462E-02  0.1212057E+00
         -2   -1    0    0    0  501 -0.00000000000E+00  0.00000000000E+00  0.84940379271E+02  0.84940379271E+02  0.00000000000E+00 0.  1.
          2   -1    0    0  501    0  0.00000000000E+00 -0.00000000000E+00 -0.26868133763E+03  0.26868133763E+03  0.00000000000E+00 0. -1.
         23    2    1    2    0    0 -0.97539997876E+02  0.35557457809E+02 -0.95965230983E+02  0.16887802055E+03  0.92369238788E+02 0.  0.
          5    1    1    2  502    0  0.54301774127E+02 -0.81169110504E+02 -0.66648630457E+02  0.11830730964E+03  0.41800000000E+01 0.  1.
         -5    1    1    2    0  502  0.43238223749E+02  0.45611652696E+02 -0.21127096916E+02  0.66436386707E+02  0.41800000000E+01 0.  1.
        -11    1    3    3    0    0 -0.95906003587E+02  0.48946993917E+02 -0.45938342429E+02  0.11706451658E+03  0.00000000000E+00 0.  1.
         11    1    3    3    0    0 -0.16339942891E+01 -0.13389536109E+02 -0.50026888554E+02  0.51813503963E+02  0.00000000000E+00 0. -1.
</event>
<event>
 7    1  0.5137842E-006  0.8301763E+02  0.7561462E-02  0.1320700E+00
          4   -1    0    0  501    0  0.00000000000E+00  0.00000000000E+00  0.37202513501E+02  0.37202513501E+02  0.00000000000E+00 0.  1.
         -4   -1    0    0    0  501 -0.00000000000E+00 -0.00000000000E+00 -0.41005404527E+03  0.41005404527E+03  0.00000000000E+00 0. -1.
         23    2    1    2    0    0 -0.15111455655E+02 -0.34766473842E+02 -0.83787529675E+02  0.13001380066E+03  0.91903070890E+02 0.  0.
          5    1    1    2  502    0  0.51690871877E+02  0.60789057189E+02 -0.22608016118E+03  0.23978525265E+03  0.41800000000E+01 0.  1.
         -5    1    1    2    0  502 -0.36579416222E+02 -0.26022583347E+02 -0.62983840913E+02  0.77457505455E+02  0.41800000000E+01 0.  1.
        -11    1    3    3    0    0 -0.16271928994E+02 -0.18102076103E+02  0.15810447332E+02  0.29024663258E+02  0.00000000000E+00 0.  1.
         11    1    3    3    0    0  0.11604733390E+01 -0.16664397739E+02 -0.99597977007E+02  0.10098913741E+03  0.00000000000E+00 0. -1.
</event>
<event>
 7    1  0.5137842E-006  0.1037663E+03  0.7561462E-02  0.1272569E+00
         -1   -1    0    0    0  501 -0.00000000000E+00  0.00000000000E+00  0.64024327539E+02  0.64024327539E+02  0.00000000000E+00 0.  1.
          1   -1    0    0  501    0  0.00000000000E+00 -0.00000000000E+00 -0.17204836149E+03  0.17204836149E+03  0.00000000000E+00 0. -1.
         23    2    1    2    0    0 -0.18057878608E+02 -0.22020997065E+02 -0.39577056308E+02  0.10288244077E+03  0.90594933310E+02 0.  0.
          5    1    1    2  502    0 -0.95749505453E+01 -0.42220727010E+02 -0.33502059041E+02  0.54901091311E+02  0.41800000000E+01 0. -1.
         -5    1    1    2    0  502  0.27632829153E+02  0.64241724075E+02 -0.34944918598E+02  0.78289156943E+02  0.41800000000E+01 0.  1.
        -11    1    3    3    0    0 -0.38497157650E+02  0.22784077231E+02 -0.26237349682E+02  0.51860812187E+02  0.00000000000E+00 0. -1.
         11    1    3    3    0    0  0.20439279042E+02 -0.44805074296E+02 -0.13339706627E+02  0.51021628584E+02  0.00000000000E+00 0.  1.
</event>
<event>
 7    1  0.5137842E-006  0.1281931E+03  0.7561462E-02  0.1230162E+00
         -1   -1    0    0    0  501 -0.00000000000E+00  0.00000000000E+00  0.34951994457E+03  0.34951994457E+03  0.00000000000E+00 0.  1.
          1   -1    0    0  501    0  0.00000000000E+00 -0.00000000000E+00 -0.54628691465E+02  0.54628691465E+02  0.00000000000E+00 0. -1.
         23    2    1    2    0    0 -0.80468112367E+01 -0.70314370044E+02  0.65799873714E+02  0.13370556481E+03  0.92405047888E+02 0.  0.
          5    1    1    2  502    0 -0.52704411179E+02  0.30176279653E+01  0.82884766070E+02  0.98357602059E+02  0.41800000000E+01 0. -1.
         -5    1    1    2    0  502  0.60751222415E+02  0.67296742078E+02  0.14620661332E+03  0.17208546917E+03  0.41800000000E+01 0. -1.
        -11    1    3    3    0    0 -0.43210935055E+02 -0.63572056089E+02  0.28443105250E+02  0.81960975226E+02  0.00000000000E+00 0.  1.
         11    1    3    3    0    0  0.35164123818E+02 -0.67423139542E+01  0.37356768463E+02  0.51744589585E+02  0.00000000000E+00 0. -1.
</event>
<event>
 7    1  0.5137842E-006  0.1379550E+03  0.7561462E-02  0.1216107E+00
         -2   -1    0    0    0  501 -0.00000000000E+00  0.00000000000E+00  0.74307781141E+02  0.74307781141E+02  0.00000000000E+00 0.  1.
          2   -1    0    0  501    0  0.00000000000E+00 -0.00000000000E+00 -0.28943675481E+03  0.28943675481E+03  0.00000000000E+00 0. -1.
         23    2    1    2    0    0  0.94916426604E+02 -0.18145139742E+02 -0.11431452008E+03  0.17618157622E+03  0.92918050782E+02 0.  0.
          5    1    1    2  502    0 -0.51933284592E+02 -0.49708860587E+02 -0.72785757208E+02  0.10238786902E+03  0.41800000000E+01 0. -1.
         -5    1    1    2    0  502 -0.42983142012E+02  0.67854000329E+02 -0.28028696376E+02  0.85175090716E+02  0.41800000000E+01 0.  1.
        -11    1    3    3    0    0 -0.12364056848E+02 -0.99587094133E+01  0.38871779625E+01  0.16344905856E+02  0.00000000000E+00 0.  1.
         11    1    3    3    0    0  0.10728048345E+03 -0.81864303285E+01 -0.11820169805E+03  0.15983667036E+03  0.00000000000E+00 0. -1.
</event>
<event>
 7    1  0.5137842E-006  0.1474643E+03  0.7561462E-02  0.1203624E+00
          2   -1    0    0  501    0  0.00000000000E+00  0.00000000000E+00  0.39597937164E+03  0.39597937164E+03  0.00000000000E+00 0. -1.
         -2   -1    0    0    0  501 -0.00000000000E+00 -0.00000000000E+00 -0.74387595709E+02  0.74387595709E+02  0.00000000000E+00 0.  1.
         23    2    1    2    0    0 -0.12590071772E+03  0.14891168403E+02  0.21550108558E+03  0.26273155469E+03  0.80711921833E+02 0.  0.
          5    1    1    2  502    0  0.16749590188E+02  0.25848301934E+02  0.83215670663E+02  0.88831321775E+02  0.41800000000E+01 0. -1.
         -5    1    1    2    0  502  0.10915112753E+03 -0.40739470338E+02  0.22875019689E+02  0.11880409088E+03  0.41800000000E+01 0.  1.
        -11    1    3    3    0    0  0.20331364181E+00 -0.17151877490E+02  0.11095716464E+02  0.20428978479E+02  0.00000000000E+00 0.  1.
         11    1    3    3    0    0 -0.12610403136E+03  0.32043045893E+02  0.20440536912E+03  0.24230257621E+03  0.00000000000E+00 0. -1.
</event>
<event>
 7    1  0.5137842E-006  0.2138244E+03  0.7561462E-02  0.1138573E+00
          2   -1    0    0  501    0  0.00000000000E+00  0.00000000000E+00  0.77229225100E+02  0.77229225100E+02  0.00000000000E+00 0. -1.
         -2   -1    0    0    0  501 -0.00000000000E+00 -0.00000000000E+00 -0.64152709577E+03  0.64152709577E+03  0.00000000000E+00 0.  1.
         23    2    1    2    0    0 -0.13326712957E+03  0.14121293619E+03 -0.25353513278E+03  0.33155765815E+03  0.89158263499E+02 0.  0.
          5    1    1    2  502    0  0.11608331562E+03 -0.51253998040E+02 -0.23952643107E+03  0.27109535603E+03  0.41800000000E+01 0. -1.
         -5    1    1    2    0  502  0.17183813949E+02 -0.89958938151E+02 -0.71236306821E+02  0.11610330669E+03  0.41800000000E+01 0. -1.
        -11    1    3    3    0    0 -0.27543754805E+02  0.84822102232E+02 -0.14304602737E+03  0.16856931334E+03  0.00000000000E+00 0.  1.
         11    1    3    3    0    0 -0.10572337477E+03  0.56390833959E+02 -0.11048910541E+03  0.16298834480E+03  0.00000000000E+00 0. -1.
</event>
<event>
 7    1  0.5137842E-006  0.1655310E+03  0.7561462E-02  0.1182590E+00
         -2   -1    0    0    0  501 -0.00000000000E+00  0.00000000000E+00  0.12094114045E+03  0.12094114045E+03  0.00000000000E+00 0.  1.
          2   -1    0    0  501    0  0.00000000000E+00 -0.00000000000E+00 -0.35581231875E+03  0.35581231875E+03  0.00000000000E+00 0. -1.
         23    2    1    2    0    0 -0.73743344398E+02 -0.12895719297E+03 -0.22320175592E+03  0.28220146736E+03  0.88037525377E+02 0.  0.
          5    1    1    2  502    0  0.63936322707E+02  0.13405674162E+03 -0.48162856405E+02  0.15619281825E+03  0.41800000000E+01 0. -1.
         -5    1    1    2    0  502  0.98070216917E+01 -0.50995486520E+01  0.36493434026E+02  0.38359173583E+02  0.41800000000E+01 0. -1.
        -11    1    3    3    0    0 -0.54272705462E+02 -0.16778860825E+02 -0.54861298359E+02  0.78973532189E+02  0.00000000000E+00 0.  1.
         11    1    3    3    0    0 -0.19470638936E+02 -0.11217833215E+03 -0.16834045756E+03  0.20322793517E+03  0.00000000000E+00 0. -1.
</event>
<event>
 7    1  0.5137842E-006  0.2188626E+03  0.7561462E-02  0.1134734E+00
         -1   -1    0    0    0  501 -0.00000000000E+00  0.00000000000E+00  0.83464834074E+03  0.83464834074E+03  0.00000000000E+00 0.  1.
          1   -1    0    0  501    0  0.00000000000E+00 -0.00000000000E+00 -0.90722488570E+02  0.90722488570E+02  0.00000000000E+00 0. -1.
         23    2    1    2    0    0  0.88561630971E+02  0.19694440455E+03  0.14149102809E+03  0.27331218171E+03  0.89719433103E+02 0.  0.
          5    1    1    2  502    0 -0.21462844013E+01 -0.67338277612E+01 -0.50494743858E+01  0.96395313486E+01  0.41800000000E+01 0.  1.
         -5    1    1    2    0  502 -0.86415346570E+02 -0.19021057679E+03  0.60748429846E+03  0.64241911625E+03  0.41800000000E+01 0.  1.
        -11    1    3    3    0    0  0.57245453386E+02  0.73309040007E+02  0.10580131412E+03  0.14087290495E+03  0.00000000000E+00 0. -1.
         11    1    3    3    0    0  0.31316177585E+02  0.12363536454E+03  0.35689713969E+02  0.13243927676E+03  0.00000000000E+00 0.  1.
</event>
<event>
 7    1  0.5137842E-006  0.1120656E+03  0.7561462E-02  0.1256792E+00
          2   -1    0    0  501    0  0.00000000000E+00  0.00000000000E+00  0.14247799004E+03  0.14247799004E+03  0.00000000000E+00 0. -1.
         -2   -1    0    0    0  501 -0.00000000000E+00 -0.00000000000E+00 -0.12016331991E+03  0.12016331991E+03  0.00000000000E+00 0.  1.
         23    2    1    2    0    0 -0.14975837441E+01 -0.43980628372E+02  0.68270389422E+02  0.12230016654E+03  0.91432741585E+02 0.  0.
          5    1    1    2  502    0  0.52108000660E+01  0.83334069540E+02 -0.57421213895E+01  0.83798352857E+02  0.41800000000E+01 0.  1.
         -5    1    1    2    0  502 -0.37132163220E+01 -0.39353441169E+02 -0.40213597902E+02  0.56542790553E+02  0.41800000000E+01 0.  1.
        -11    1    3    3    0    0  0.43925030869E+02 -0.13032991977E+02  0.38172127395E+02  0.59635379823E+02  0.00000000000E+00 0. -1.
         11    1    3    3    0    0 -0.45422614613E+02 -0.30947636394E+02  0.30098262027E+02  0.62664786713E+02  0.00000000000E+00 0.  1.
</event>
<event>
 7    1  0.5137842E-006  0.1304855E+03  0.7561462E-02  0.1226737E+00
         -1   -1    0    0    0  501 -0.00000000000E+00  0.00000000000E+00  0.52099288981E+03  0.52099288981E+03  0.00000000000E+00 0.  1.
          1   -1    0    0  501    0  0.00000000000E+00 -0.00000000000E+00 -0.10350423872E+03  0.10350423872E+03  0.00000000000E+00 0. -1.
         23    2    1    2    0    0  0.18026939446E+02 -0.11664130700E+02 -0.41341307487E+02  0.10301938175E+03  0.91885073985E+02 0.  0.
          5    1    1    2  502    0  0.44235639246E+02 -0.66327786352E+02  0.37016063423E+02  0.87999024842E+02  0.41800000000E+01 0. -1.
         -5    1    1    2    0  502 -0.62262578692E+02  0.77991917051E+02  0.42181389515E+03  0.43347872194E+03  0.41800000000E+01 0.  1.
        -11    1    3    3    0    0 -0.20701738522E+02  0.21803510524E+02  0.88399560820E+01  0.31338472722E+02  0.00000000000E+00 0. -1.
         11    1    3    3    0    0  0.38728677968E+02 -0.33467641223E+02 -0.50181263569E+02  0.71680909031E+02  0.00000000000E+00 0.  1.
</event>
<event>
 7    1  0.5137842E-006  0.1178792E+03  0.7561462E-02  0.1246637E+00
         -1   -1    0    0    0  501 -0.00000000000E+00  0.00000000000E+00  0.31637751351E+02  0.31637751351E+02  0.00000000000E+00 0.  1.
          1   -1    0    0  501    0  0.00000000000E+00 -0.00000000000E+00 -0.89669469519E+03  0.89669469519E+03  0.00000000000E+00 0. -1.
         23    2    1    2    0    0 -0.98082919765E+01  0.97392864052E+02 -0.63341102545E+03  0.64746338924E+03  0.91748246214E+02 0.  0.
          5    1    1    2  502    0 -0.76256908332E+01 -0.41195955023E+01  0.14290960778E+02  0.17228644396E+02  0.41800000000E+01 0. -1.
         -5    1    1    2    0  502  0.17433982810E+02 -0.93273268550E+02 -0.24593687916E+03  0.26364041290E+03  0.41800000000E+01 0. -1.
        -11    1    3    3    0    0  0.29838404002E+02  0.45265027656E+01 -0.95439875787E+02  0.10009789943E+03  0.00000000000E+00 0.  1.
         11    1    3    3    0    0 -0.39646695979E+02  0.92866361286E+02 -0.53797114966E+03  0.54736548981E+03  0.00000000000E+00 0. -1.
</event>
<event>
 7    1  0.5137842E-006  0.1330968E+03  0.7561462E-02  0.1222932E+00
          2   -1    0    0  501    0  0.00000000000E+00  0.00000000000E+00  0.23904162193E+03  0.23904162193E+03  0.00000000000E+00 0. -1.
         -2   -1    0    0    0  501 -0.00000000000E+00 -0.00000000000E+00 -0.10795939307E+03  0.10795939307E+03  0.00000000000E+00 0.  1.
         23    2    1    2    0    0 -0.69668634859E+02 -0.79874337837E+02  0.11828806032E+03  0.18254868271E+03  0.89990709617E+02 0.  0.
          5    1    1    2  502    0  0.10276785273E+03  0.70832155203E+02  0.25799986474E+02  0.12752073348E+03  0.41800000000E+01 0. -1.
         -5    1    1    2    0  502 -0.33099217872E+02  0.90421826343E+01 -0.13005817938E+02  0.36931598812E+02  0.41800000000E+01 0. -1.
        -11    1    3    3    0    0 -0.35743450673E+02 -0.31394169695E+02 -0.29263395318E+01  0.47662895631E+02  0.00000000000E+00 0.  1.
         11    1    3    3    0    0 -0.33925184185E+02 -0.48480168142E+02  0.12121439985E+03  0.13488578708E+03  0.00000000000E+00 0. -1.
</event>
<event>
 7    1  0.5137842E-006  0.1065139E+03  0.7561462E-02  0.1267165E+00
          1   -1    0    0  501    0  0.00000000000E+00  0.00000000000E+00  0.59445116541E+02  0.59445116541E+02  0.00000000000E+00 0. -1.
         -1   -1    0    0    0  501 -0.00000000000E+00 -0.00000000000E+00 -0.24045702857E+03  0.24045702857E+03  0.00000000000E+00 0.  1.
         23    2    1    2    0    0  0.32990874462E+02  0.27932464182E+02 -0.47756912747E+02  0.11209402895E+03  0.91737278454E+02 0.  0.
          5    1    1    2  502    0  0.26086373759E+02 -0.44983535194E+02 -0.11034808407E+03  0.12205813940E+03  0.41800000000E+01 0.  1.
         -5    1    1    2    0  502 -0.59077248221E+02  0.17051071012E+02 -0.22906915208E+02  0.65749976763E+02  0.41800000000E+01 0.  1.
        -11    1    3    3    0    0  0.53823283141E+02  0.46647799591E+02 -0.44298391037E+02  0.83876757586E+02  0.00000000000E+00 0.  1.
         11    1    3    3    0    0 -0.20832408679E+02 -0.18715335408E+02 -0.34585217101E+01  0.28217271364E+02  0.00000000000E+00 0. -1.
</event>
<event>
 7    1  0.5137842E-006  0.5562865E+02  0.7561462E-02  0.1417149E+00
         -1   -1    0    0    0  501 -0.00000000000E+00  0.00000000000E+00  0.39329752840E+02  0.39329752840E+02  0.00000000000E+00 0.  1.
          1   -1    0    0  501    0  0.00000000000E+00 -0.00000000000E+00 -0.30563751568E+03  0.30563751568E+03  0.00000000000E+00 0. -1.
         23    2    1    2    0    0 -0.32351702168E+01  0.24659573902E+01 -0.92688216806E+02  0.13094056038E+03  0.92400094949E+02 0.  0.
          5    1    1    2  502    0 -0.73378002856E+01 -0.22863800337E+02  0.11843912246E+02  0.27098843816E+02  0.41800000000E+01 0.  1.
         -5    1    1    2    0  502  0.10572970502E+02  0.20397842947E+02 -0.18546345828E+03  0.18692786432E+03  0.41800000000E+01 0.  1.
        -11    1    3    3    0    0 -0.29369000433E+02 -0.14111441130E+02 -0.94479908404E+02  0.99940602605E+02  0.00000000000E+00 0. -1.
         11    1    3    3    0    0  0.26133830216E+02  0.16577398520E+02  0.17916915977E+01  0.30999957778E+02  0.00000000000E+00 0.  1.
</event>
<event>
 7    1  0.5137842E-006  0.7781947E+02  0.7561462E-02  0.1335356E+00
          2   -1    0    0  501    0  0.00000000000E+00  0.00000000000E+00  0.25727985673E+03  0.25727985673E+03  0.00000000000E+00 0. -1.
         -2   -1    0    0    0  501 -0.00000000000E+00 -0.00000000000E+00 -0.60927757258E+02  0.60927757258E+02  0.00000000000E+00 0.  1.
         23    2    1    2    0    0 -0.55304233173E+02  0.24533729321E+02  0.96348376072E+02  0.14701215334E+03  0.93108010264E+02 0.  0.
          5    1    1    2  502    0  0.85526204613E+01  0.22906417488E+02  0.10145475394E+03  0.10444324189E+03  0.41800000000E+01 0.  1.
         -5    1    1    2    0  502  0.46751612712E+02 -0.47440146809E+02 -0.14510305410E+01  0.66752218765E+02  0.41800000000E+01 0.  1.
        -11    1    3    3    0    0 -0.19239801121E+02  0.19994213644E+02  0.10586253057E+03  0.10943863077E+03  0.00000000000E+00 0. -1.
         11    1    3    3    0    0 -0.36064432052E+02  0.45395156771E+01 -0.95141545006E+01  0.37573522562E+02  0.00000000000E+00 0.  1.
</event>
<event>
 7    1  0.5137842E-006  0.6520656E+02  0.7561462E-02  0.1377196E+00
         -3   -1    0    0    0  501 -0.00000000000E+00  0.00000000000E+00  0.90391976257E+02  0.90391976257E+02  0.00000000000E+00 0.  1.
          3   -1    0    0  501    0  0.00000000000E+00 -0.00000000000E+00 -0.16599182472E+03  0.16599182472E+03  0.00000000000E+00 0. -1.
         23    2    1    2    0    0  0.66600982842E+01  0.24530268218E+02 -0.91962873232E+02  0.13184547401E+03  0.90994329474E+02 0.  0.
          5    1    1    2  502    0 -0.15873567054E+02 -0.16580081188E+02 -0.50933416635E+02  0.56022803869E+02  0.41800000000E+01 0. -1.
         -5    1    1    2    0  502  0.92134687697E+01 -0.79501870306E+01  0.67296441399E+02  0.68515523100E+02  0.41800000000E+01 0.  1.
        -11    1    3    3    0    0  0.45522883177E+02 -0.44446820444E+01 -0.49567638779E+02  0.67446563333E+02  0.00000000000E+00 0.  1.
         11    1    3    3    0    0 -0.38862784893E+02  0.28974950263E+02 -0.42395234453E+02  0.64398910679E+02  0.00000000000E+00 0. -1.
</event>
<event>
 7    1  0.5137842E-006  0.2574934E+03  0.7561462E-02  0.1108659E+00
          4   -1    0    0  501    0  0.00000000000E+00  0.00000000000E+00  0.19795201625E+03  0.19795201625E+03  0.00000000000E+00 0. -1.
         -4   -1    0    0    0  501 -0.00000000000E+00 -0.00000000000E+00 -0.34259452827E+03  0.34259452827E+03  0.00000000000E+00 0.  1.
         23    2    1    2    0    0  0.15345008955E+03 -0.17904054467E+03 -0.76949992186E+02  0.26516851563E+03  0.93758166384E+02 0.  0.
          5    1    1    2  502    0 -0.10720980652E+03  0.33196688066E+02 -0.14005285311E+02  0.11317942892E+03  0.41800000000E+01 0.  1.
         -5    1    1    2    0  502 -0.46240283028E+02  0.14584385660E+03 -0.53687234525E+02  0.16219859998E+03  0.41800000000E+01 0.  1.
        -11    1    3    3    0    0  0.79762329969E+02 -0.33543230494E+02 -0.43254976293E+01  0.86636525345E+02  0.00000000000E+00 0.  1.
         11    1    3    3    0    0  0.73687759581E+02 -0.14549731418E+03 -0.72624494557E+02  0.17853199028E+03  0.00000000000E+00 0. -1.
</event>
<event>
 7    1  0.5137842E-006  0.1169473E+03  0.7561462E-02  0.1248220E+00
          2   -1    0    0  501    0  0.00000000000E+00  0.00000000000E+00  0.12104993656E+03  0.12104993656E+03  0.00000000000E+00 0. -1.
         -2   -1    0    0    0  501 -0.00000000000E+00 -0.00000000000E+00 -0.19864636199E+03  0.19864636199E+03  0.00000000000E+00 0.  1.
         23    2    1    2    0    0  0.10161328968E+03 -0.40547383637E+02 -0.22296458336E+02  0.14455364601E+03  0.91811075372E+02 0.  0.
          5    1    1    2  502    0 -0.56714437680E+01 -0.12749569188E+02 -0.63363120441E+02  0.65015953588E+02  0.41800000000E+01 0.  1.
         -5    1    1    2    0  502 -0.95941845916E+02  0.53296952825E+02  0.80631533449E+01  0.11012669894E+03  0.41800000000E+01 0.  1.
        -11    1    3    3    0    0  0.91938422722E+02 -0.35231771231E+02  0.20318148859E+02  0.10053247460E+03  0.00000000000E+00 0. -1.
         11    1    3    3    0    0  0.96748669626E+01 -0.53156124059E+01 -0.42614607194E+02  0.44021171410E+02  0.00000000000E+00 0.  1.
</event>
<event>
 7    1  0.5137842E-006  0.9522859E+02  0.7561462E-02  0.1290662E+00
          4   -1    0    0  501    0  0.00000000000E+00  0.00000000000E+00  0.96345182902E+02  0.96345182902E+02  0.00000000000E+00 0. -1.
         -4   -1    0    0    0  501 -0.00000000000E+00 -0.00000000000E+00 -0.14777803875E+03  0.14777803875E+03  0.00000000000E+00 0.  1.
         23    2    1    2    0    0  0.47404091636E+00  0.49955368418E+02 -0.28828063669E+02  0.10752742735E+03  0.90748701524E+02 0.  0.
          5    1    1    2  502    0  0.47509736274E+02 -0.24248980362E+02 -0.51982227298E+02  0.74597670502E+02  0.41800000000E+01 0.  1.
         -5    1    1    2    0  502 -0.47983777190E+02 -0.25706388056E+02  0.29377435123E+02  0.61998123800E+02  0.41800000000E+01 0.  1.
        -11    1    3    3    0    0  0.31832900808E+02  0.14369368942E+02  0.19342789061E+02  0.39924376342E+02  0.00000000000E+00 0. -1.
         11    1    3    3    0    0 -0.31358859892E+02  0.35585999475E+02 -0.48170852729E+02  0.67603051004E+02  0.00000000000E+00 0.  1.
</event>
<event>
 7    1  0.5137842E-006  0.1164082E+03  0.7561462E-02  0.1249143E+00
         -3   -1    0    0    0  501 -0.00000000000E+00  0.00000000000E+00  0.53323070612E+02  0.53323070612E+02  0.00000000000E+00 0.  1.
          3   -1    0    0  501    0  0.00000000000E+00 -0.00000000000E+00 -0.29607712464E+03  0.29607712464E+03  0.00000000000E+00 0. -1.
         23    2    1    2    0    0  0.35361396457E+02 -0.43857757773E+02 -0.14639524189E+03  0.18174991351E+03  0.91801595501E+02 0.  0.
          5    1    1    2  502    0 -0.70259537312E+02 -0.19272554801E+01 -0.22510633145E+02  0.73921024760E+02  0.41800000000E+01 0. -1.
         -5    1    1    2    0  502  0.34898140855E+02  0.45785013253E+02 -0.73848178987E+02  0.93729256977E+02  0.41800000000E+01 0. -1.
        -11    1    3    3    0    0  0.45325237910E+02 -0.66196002426E+02 -0.91738651236E+02  0.12186988167E+03  0.00000000000E+00 0.  1.
         11    1    3    3    0    0 -0.99638414530E+01  0.22338244653E+02 -0.54656590656E+02  0.59880031837E+02  0.00000000000E+00 0. -1.
</event>
<event>
 7    1  0.5137842E-006  0.1421386E+03  0.7561462E-02  0.1210480E+00
          2   -1    0    0  501    0  0.00000000000E+00  0.00000000000E+00  0.34884407788E+02  0.34884407788E+02  0.00000000000E+00 0.  1.
         -2   -1    0    0    0  501 -0.00000000000E+00 -0.00000000000E+00 -0.80377165514E+03  0.80377165514E+03  0.00000000000E+00 0. -1.
         23    2    1    2    0    0  0.11225477588E+03  0.35851113830E+02 -0.23532185341E+03  0.27809856532E+03  0.89866569255E+02 0.  0.
          5    1    1    2  502    0 -0.51304693679E+02  0.35879377615E+02 -0.10998332295E+03  0.12662268777E+03  0.41800000000E+01 0.  1.
         -5    1    1    2    0  502 -0.60950082199E+02 -0.71730491445E+02 -0.42358207099E+03  0.43393480983E+03  0.41800000000E+01 0.  1.
        -11    1    3    3    0    0  0.52964057858E+02  0.42146098063E+02 -0.19423011862E+03  0.20568622702E+03  0.00000000000E+00 0. -1.
         11    1    3    3    0    0  0.59290718020E+02 -0.62949842327E+01 -0.41091734791E+02  0.72412338299E+02  0.00000000000E+00 0.  1.
</event>
<event>
 7    1  0.5137842E-006  0.1051277E+03  0.7561462E-02  0.1269868E+00
          2   -1    0    0  501    0  0.00000000000E+00  0.00000000000E+00  0.76029664341E+02  0.76029664341E+02  0.00000000000E+00 0. -1.
         -2   -1    0    0    0  501 -0.00000000000E+00 -0.00000000000E+00 -0.21855911760E+03  0.21855911760E+03  0.00000000000E+00 0.  1.
         23    2    1    2    0    0  0.28697382631E+02 -0.51789696983E+01  0.63848789018E+01  0.97932295488E+02  0.93271680182E+02 0.  0.
          5    1    1    2  502    0 -0.27357913705E+02  0.63723958098E+02 -0.86941400439E+02  0.11129006150E+03  0.41800000000E+01 0. -1.
         -5    1    1    2    0  502 -0.13394689256E+01 -0.58544988400E+02 -0.61972931726E+02  0.85366424960E+02  0.41800000000E+01 0. -1.
        -11    1    3    3    0    0 -0.65617643724E+00  0.33505235425E+02  0.29043436285E+02  0.44345829112E+02  0.00000000000E+00 0. -1.
         11    1    3    3    0    0  0.29353559068E+02 -0.38684205124E+02 -0.22658557383E+02  0.53586466376E+02  0.00000000000E+00 0.  1.
</event>
<event>
 7    1  0.5137842E-006  0.1531275E+03  0.7561462E-02  0.1196682E+00
         -2   -1    0    0    0  501 -0.00000000000E+00  0.00000000000E+00  0.80736001973E+02  0.80736001973E+02  0.00000000000E+00 0.  1.
          2   -1    0    0  501    0  0.00000000000E+00 -0.00000000000E+00 -0.36982272850E+03  0.36982272850E+03  0.00000000000E+00 0. -1.
         23    2    1    2    0    0  0.72452817413E+01 -0.13151545717E+03 -0.17349426355E+03  0.23525201781E+03  0.88850677071E+02 0.  0.
          5    1    1    2  502    0 -0.54280713028E+02  0.35358554450E+02 -0.78672258416E+02  0.10199715596E+03  0.41800000000E+01 0. -1.
         -5    1    1    2    0  502  0.47035431286E+02  0.96156902718E+02 -0.36920204561E+02  0.11330955671E+03  0.41800000000E+01 0. -1.
        -11    1    3    3    0    0 -0.97102831009E+01 -0.53813639054E+02 -0.13746360990E+03  0.14794066849E+03  0.00000000000E+00 0. -1.
         11    1    3    3    0    0  0.16955564842E+02 -0.77701818114E+02 -0.36030653651E+02  0.87311349318E+02  0.00000000000E+00 0.  1.
</event>
<event>
 7    1  0.5137842E-006  0.1513534E+03  0.7561462E-02  0.1198820E+00
         -2   -1    0    0    0  501 -0.00000000000E+00  0.00000000000E+00  0.36035879570E+02  0.36035879570E+02  0.00000000000E+00 0.  1.
          2   -1    0    0  501    0  0.00000000000E+00 -0.00000000000E+00 -0.70231997313E+03  0.70231997313E+03  0.00000000000E+00 0. -1.
         23    2    1    2    0    0 -0.10710457611E+03  0.33280423232E+02 -0.38130875610E+03  0.40754276258E+03  0.90087507769E+02 0.  0.
          5    1    1    2  502    0  0.12894421649E+03 -0.13604192206E+02 -0.18104772991E+03  0.22272727251E+03  0.41800000000E+01 0. -1.
         -5    1    1    2    0  502 -0.21839640386E+02 -0.19676231026E+02 -0.10392760755E+03  0.10808581762E+03  0.41800000000E+01 0. -1.
        -11    1    3    3    0    0 -0.93883397458E+02 -0.13342407293E+02 -0.23472488746E+03  0.25315585109E+03  0.00000000000E+00 0.  1.
         11    1    3    3    0    0 -0.13221178647E+02  0.46622830524E+02 -0.14658386864E+03  0.15438691148E+03  0.00000000000E+00 0. -1.
</event>
<event>
 7    1  0.5137842E-006  0.1186091E+03  0.7561462E-02  0.1245409E+00
         -2   -1    0    0    0  501 -0.00000000000E+00  0.00000000000E+00  0.14766176624E+02  0.14766176624E+02  0.00000000000E+00 0.  1.
          2   -1    0    0  501    0  0.00000000000E+00 -0.00000000000E+00 -0.99203141824E+03  0.99203141824E+03  0.00000000000E+00 0. -1.
         23    2    1    2    0    0  0.32255822554E+02  0.37399045117E+02 -0.37889902234E+03  0.39307815631E+03  0.92232538545E+02 0.  0.
          5    1    1    2  502    0  0.47066341373E+02 -0.75004629632E+01 -0.15185288328E+03  0.15921139405E+03  0.41800000000E+01 0. -1.
         -5    1    1    2    0  502 -0.79322163927E+02 -0.29898582154E+02 -0.44651333599E+03  0.45450804451E+03  0.41800000000E+01 0.  1.
        -11    1    3    3    0    0  0.64113873287E+02  0.33696635797E+02 -0.25372925540E+03  0.26386471356E+03  0.00000000000E+00 0. -1.
         11    1    3    3    0    0 -0.31858050733E+02  0.37024093204E+01 -0.12516976694E+03  0.12921344275E+03  0.00000000000E+00 0.  1.
</event>
<event>
 7    1  0.5137842E-006  0.1183488E+03  0.7561462E-02  0.1245846E+00
         -2   -1    0    0    0  501 -0.00000000000E+00  0.00000000000E+00  0.10366805313E+03  0.10366805313E+03  0.00000000000E+00 0.  1.
          2   -1    0    0  501    0  0.00000000000E+00 -0.00000000000E+00 -0.18578362315E+03  0.18578362315E+03  0.00000000000E+00 0. -1.
         23    2    1    2    0    0  0.23610880793E+02 -0.68679358505E+02 -0.85545683691E+02  0.14476924444E+03  0.91464431132E+02 0.  0.
          5    1    1    2  502    0 -0.30193428500E+02 -0.16342287720E+02 -0.36625538207E+02  0.50374755002E+02  0.41800000000E+01 0.  1.
         -5    1    1    2    0  502  0.65825477074E+01  0.85021646226E+02  0.40055651878E+02  0.94307676827E+02  0.41800000000E+01 0.  1.
        -11    1    3    3    0    0 -0.34001086395E+02 -0.12392127585E+02 -0.28636131000E+02  0.46148312004E+02  0.00000000000E+00 0. -1.
         11    1    3    3    0    0  0.57611967188E+02 -0.56287230920E+02 -0.56909552691E+02  0.98620932440E+02  0.00000000000E+00 0.  1.
</event>
<event>
 7    1  0.5137842E-006  0.7671941E+02  0.7561462E-02  0.1338628E+00
          1   -1    0    0  501    0  0.00000000000E+00  0.00000000000E+00  0.44726448503E+03  0.44726448503E+03  0.00000000000E+00 0. -1.
         -1   -1    0    0    0  501 -0.00000000000E+00 -0.00000000000E+00 -0.38253250988E+02  0.38253250988E+02  0.00000000000E+00 0.  1.
         23    2    1    2    0    0  0.64541489426E+02  0.14331803023E+02  0.23740262975E+03  0.26310594685E+03  0.92161413939E+02 0.  0.
          5    1    1    2  502    0 -0.31899759987E+02 -0.58211811455E+01  0.18350827787E+03  0.18639807210E+03  0.41800000000E+01 0.  1.
         -5    1    1    2    0  502 -0.32641729439E+02 -0.85106218780E+01 -0.11899673579E+02  0.36013717065E+02  0.41800000000E+01 0.  1.
        -11    1    3    3    0    0  0.35375828519E+02 -0.20842976374E+02  0.19966649556E+03  0.20384452006E+03  0.00000000000E+00 0.  1.
         11    1    3    3    0    0  0.29165660906E+02  0.35174779398E+02  0.37736134190E+02  0.59261426792E+02  0.00000000000E+00 0. -1.
</event>
<event>
 7    1  0.5137842E-006  0.1063136E+03  0.7561462E-02  0.1267553E+00
          1   -1    0    0  501    0  0.00000000000E+00  0.00000000000E+00  0.33425671205E+03  0.33425671205E+03  0.00000000000E+00 0. -1.
         -1   -1    0    0    0  501 -0.00000000000E+00 -0.00000000000E+00 -0.38990790633E+02  0.38990790633E+02  0.00000000000E+00 0.  1.
         23    2    1    2    0    0  0.38688734713E+01  0.20838835331E+01  0.18858880172E+03  0.20878897215E+03  0.89486244783E+02 0.  0.
          5    1    1    2  502    0 -0.57633278274E+02 -0.27748921088E+02  0.43184280859E+02  0.77291344273E+02  0.41800000000E+01 0.  1.
         -5    1    1    2    0  502  0.53764404803E+02  0.25665037555E+02  0.63492838841E+02  0.87167186261E+02  0.41800000000E+01 0.  1.
        -11    1    3    3    0    0  0.17683740131E+02  0.42531236143E+02  0.83921049846E+02  0.95730681185E+02  0.00000000000E+00 0. -1.
         11    1    3    3    0    0 -0.13814866659E+02 -0.40447352610E+02  0.10466775187E+03  0.11305829096E+03  0.00000000000E+00 0.  1.
</event>
<event>
 7    1  0.5137842E-006  0.1857779E+03  0.7561462E-02  0.1162325E+00
          4   -1    0    0  501    0  0.00000000000E+00  0.00000000000E+00  0.46862214289E+02  0.46862214289E+02  0.00000000000E+00 0.  1.
         -4   -1    0    0    0  501 -0.00000000000E+00 -0.00000000000E+00 -0.11804210797E+04  0.11804210797E+04  0.00000000000E+00 0. -1.
         23    2    1    2    0    0  0.15546252646E+03 -0.80136776093E+02 -0.25630852425E+03  0.32406308369E+03  0.93446897170E+02 0.  0.
          5    1    1    2  502    0 -0.77208663851E+02  0.35548481662E+02 -0.69178960561E+03  0.69700444987E+03  0.41800000000E+01 0.  1.
         -5    1    1    2    0  502 -0.78253862614E+02  0.44588294431E+02 -0.18546073556E+03  0.20621576043E+03  0.41800000000E+01 0.  1.
        -11    1    3    3    0    0  0.59737359306E+02 -0.80897677494E+02 -0.15424251816E+03  0.18412968454E+03  0.00000000000E+00 0. -1.
         11    1    3    3    0    0  0.95725167159E+02  0.76090140175E+00 -0.10206600609E+03  0.13993339915E+03  0.00000000000E+00 0.  1.
</event>
<event>
 7    1  0.5137842E-006  0.6983263E+02  0.7561462E-02  0.1360663E+00
          1   -1    0    0  501    0  0.00000000000E+00  0.00000000000E+00  0.79882870705E+02  0.79882870705E+02  0.00000000000E+00 0. -1.
         -1   -1    0    0    0  501 -0.00000000000E+00 -0.00000000000E+00 -0.15700972587E+03  0.15700972587E+03  0.00000000000E+00 0.  1.
         23    2    1    2    0    0 -0.26795026966E+02 -0.19756865541E+02 -0.14967379813E+02  0.93300704165E+02  0.85864379886E+02 0.  0.
          5    1    1    2  502    0 -0.37575433714E+01  0.30623140263E+02 -0.93349845253E+02  0.98405090623E+02  0.41800000000E+01 0. -1.
         -5    1    1    2    0  502  0.30552570338E+02 -0.10866274722E+02  0.31190369904E+02  0.45186801782E+02  0.41800000000E+01 0. -1.
        -11    1    3    3    0    0  0.40806686852E+01 -0.39157756177E+02 -0.34132708007E+02  0.52105887207E+02  0.00000000000E+00 0.  1.
         11    1    3    3    0    0 -0.30875695652E+02  0.19400890636E+02  0.19165328195E+02  0.41194816958E+02  0.00000000000E+00 0. -1.
</event>
<event>
 7    1  0.5137842E-006  0.1849095E+03  0.7561462E-02  0.1163134E+00
         -1   -1    0    0    0  501 -0.00000000000E+00  0.00000000000E+00  0.15462485054E+03  0.15462485054E+03  0.00000000000E+00 0.  1.
          1   -1    0    0  501    0  0.00000000000E+00 -0.00000000000E+00 -0.40389493608E+03  0.40389493608E+03  0.00000000000E+00 0. -1.
         23    2    1    2    0    0  0.74158338329E+01 -0.16080992564E+03 -0.29768003468E+03  0.34898217949E+03  0.85207580539E+02 0.  0.
          5    1    1    2  502    0 -0.57460381231E+02  0.13587875689E+03  0.30771473322E+02  0.15076169260E+03  0.41800000000E+01 0. -1.
         -5    1    1    2    0  502  0.50044547398E+02  0.24931168751E+02  0.17638475820E+02  0.58775914529E+02  0.41800000000E+01 0. -1.
        -11    1    3    3    0    0  0.23355116050E+02 -0.65694005125E+02 -0.58230053454E+02  0.90839985031E+02  0.00000000000E+00 0.  1.
         11    1    3    3    0    0 -0.15939282217E+02 -0.95115920512E+02 -0.23944998123E+03  0.25814219446E+03  0.00000000000E+00 0. -1.
</event>
<event>
 7    1  0.5137842E-006  0.1904954E+03  0.7561462E-02  0.1158015E+00
          2   -1    0    0  501    0  0.00000000000E+00  0.00000000000E+00  0.73207677057E+03  0.73207677057E+03  0.00000000000E+00 0. -1.
         -2   -1    0    0    0  501 -0.00000000000E+00 -0.00000000000E+00 -0.83231216834E+02  0.83231216834E+02  0.00000000000E+00 0.  1.
         23    2    1    2    0    0 -0.34222050293E+02 -0.17752421929E+03  0.52670848499E+03  0.56381184130E+03  0.88181444004E+02 0.  0.
          5    1    1    2  502    0  0.20853288142E+02  0.35734838553E+02 -0.23490888975E+02  0.47761203687E+02  0.41800000000E+01 0.  1.
         -5    1    1    2    0  502  0.13368762152E+02  0.14178938074E+03  0.14562795772E+03  0.20373494241E+03  0.41800000000E+01 0.  1.
        -11    1    3    3    0    0 -0.38971757394E+02 -0.29631761079E+02  0.18648081806E+03  0.19280024544E+03  0.00000000000E+00 0. -1.
         11    1    3    3    0    0  0.47497071010E+01 -0.14789245821E+03  0.34022766694E+03  0.37101159586E+03  0.00000000000E+00 0.  1.
</event>
<event>
 7    1  0.5137842E-006  0.8949559E+02  0.7561462E-02  0.1304078E+00
         -1   -1    0    0    0  501 -0.00000000000E+00  0.00000000000E+00  0.34636952927E+02  0.34636952927E+02  0.00000000000E+00 0.  1.
          1   -1    0    0  501    0  0.00000000000E+00 -0.00000000000E+00 -0.39222057572E+03  0.39222057572E+03  0.00000000000E+00 0. -1.
         23    2    1    2    0    0 -0.65113442560E+01  0.17030502748E+02 -0.22364996704E+03  0.24268884530E+03  0.92445293284E+02 0.  0.
          5    1    1    2  502    0  0.44822340402E+02  0.10048339276E+01 -0.14842866273E+01  0.45052496014E+02  0.41800000000E+01 0.  1.
         -5    1    1    2    0  502 -0.38310996146E+02 -0.18035336676E+02 -0.13244936913E+03  0.13911618733E+03  0.41800000000E+01 0.  1.
        -11    1    3    3    0    0 -0.25716853853E+02  0.48298395389E+02 -0.16145965260E+03  0.17047964977E+03  0.00000000000E+00 0.  1.
         11    1    3    3    0    0  0.19205509597E+02 -0.31267892641E+02 -0.62190314440E+02  0.72209195531E+02  0.00000000000E+00 0. -1.
</event>
<event>
 7    1  0.5137842E-006  0.7627299E+02  0.7561462E-02  0.1339974E+00
         -1   -1    0    0    0  501 -0.00000000000E+00  0.00000000000E+00  0.77577850406E+02  0.77577850406E+02  0.00000000000E+00 0.  1.
          1   -1    0    0  501    0  0.00000000000E+00 -0.00000000000E+00 -0.16020614848E+03  0.16020614848E+03  0.00000000000E+00 0. -1.
         23    2    1    2    0    0  0.57419638795E+00  0.98350202113E+01 -0.62516059444E+02  0.11070754283E+03  0.90834162230E+02 0.  0.
          5    1    1    2  502    0 -0.40979325494E+02 -0.47637732976E+02 -0.31522583404E+02  0.70425878663E+02  0.41800000000E+01 0. -1.
         -5    1    1    2    0  502  0.40405129106E+02  0.37802712764E+02  0.11410344774E+02  0.56650577387E+02  0.41800000000E+01 0. -1.
        -11    1    3    3    0    0 -0.15498137866E+02  0.52910488842E+00  0.20463284653E+02  0.25675245823E+02  0.00000000000E+00 0.  1.
         11    1    3    3    0    0  0.16072334254E+02  0.93059153229E+01 -0.82979344097E+02  0.85032297012E+02  0.00000000000E+00 0. -1.
</event>
<event>
 6    1  0.5137842E-006  0.2867582E+03  0.7561462E-02  0.1092054E+00
         -1   -1    0    0    0  501 -0.00000000000E+00  0.00000000000E+00  0.10438566887E+03  0.10438566887E+03  0.00000000000E+00 0.  1.
          1   -1    0    0  501    0  0.00000000000E+00 -0.00000000000E+00 -0.14777594558E+04  0.14777594558E+04  0.00000000000E+00 0. -1.
          5    1    1    2  502    0  0.11149619550E+03 -0.91272116307E+02 -0.52609924037E+02  0.15345122135E+03  0.41800000000E+01 0.  1.
         -5    1    1    2    0  502 -0.39920562971E+01 -0.12818653173E+03 -0.82236722786E+02  0.15240759300E+03  0.41800000000E+01 0.  1.
        -11    1    1    2    0    0 -0.15579890092E+03  0.14864078059E+03 -0.99731623667E+03  0.10202975326E+04  0.00000000000E+00 0.  1.
         11    1    1    2    0    0  0.48294761713E+02  0.70817867440E+02 -0.24121090340E+03  0.25598877764E+03  0.00000000000E+00 0. -1.
</event>
<event>
 6    1  0.5137842E-006  0.1245928E+03  0.7561462E-02  0.1235707E+00
          1   -1    0    0  501    0  0.00000000000E+00  0.00000000000E+00  0.43798035434E+03  0.43798035434E+03  0.00000000000E+00 0. -1.
         -1   -1    0    0    0  501 -0.00000000000E+00 -0.00000000000E+00 -0.59216948926E+02  0.59216948926E+02  0.00000000000E+00 0.  1.
          5    1    1    2  502    0  0.79269166377E+02  0.53924287268E+01  0.25507562049E+02  0.83551105004E+02  0.41800000000E+01 0.  1.
         -5    1    1    2    0  502 -0.30383543002E+02  0.51222775026E+02  0.63827403828E+02  0.87397610071E+02  0.41800000000E+01 0.  1.
        -11    1    1    2    0    0  0.27597202654E+01 -0.58186046477E+02  0.26070230193E+03  0.26713090853E+03  0.00000000000E+00 0. -1.
         11    1    1    2    0    0 -0.51645343641E+02  0.15708427246E+01  0.28726137608E+02  0.59117679661E+02  0.00000000000E+00 0.  1.
</event>
<event>
 7    1  0.5137842E-006  0.8881003E+02  0.7561462E-02  0.1305759E+00
         -2   -1    0    0    0  501 -0.00000000000E+00  0.00000000000E+00  0.31480514397E+02  0.31480514397E+02  0.00000000000E+00 0.  1.
          2   -1    0    0  501    0  0.00000000000E+00 -0.00000000000E+00 -0.43418885702E+03  0.43418885702E+03  0.00000000000E+00 0. -1.
         23    2    1    2    0    0 -0.14814949909E+02  0.36916440811E+02 -0.15896095621E+03  0.18882877637E+03  0.93837171968E+02 0.  0.
          5    1    1    2  502    0  0.39392499167E+02 -0.72190996055E+02 -0.11808332248E+03  0.14395989841E+03  0.41800000000E+01 0.  1.
         -5    1    1    2    0  502 -0.24577549258E+02  0.35274555244E+02 -0.12566406393E+03  0.13288069663E+03  0.41800000000E+01 0.  1.
        -11    1    3    3    0    0 -0.19960182663E+02  0.61506828884E+01  0.53682750189E+01  0.21565207363E+02  0.00000000000E+00 0.  1.
         11    1    3    3    0    0  0.51452327535E+01  0.30765757922E+02 -0.16432923123E+03  0.16726356901E+03  0.00000000000E+00 0. -1.
</event>
<event>
 7    1  0.5137842E-006  0.9609315E+02  0.7561462E-02  0.1288733E+00
          3   -1    0    0  501    0  0.00000000000E+00  0.00000000000E+00  0.48535126522E+02  0.48535126522E+02  0.00000000000E+00 0. -1.
         -3   -1    0    0    0  501 -0.00000000000E+00 -0.00000000000E+00 -0.35203130080E+03  0.35203130080E+03  0.00000000000E+00 0.  1.
         23    2    1    2    0    0  0.15856792273E+02  0.20216882843E+02 -0.29896105769E+02  0.98631744556E+02  0.90411745260E+02 0.  0.
          5    1    1    2  502    0  0.95055230757E+01 -0.56625275126E+02 -0.23808648531E+03  0.24494779778E+03  0.41800000000E+01 0.  1.
         -5    1    1    2    0  502 -0.25362315349E+02  0.36408392283E+02 -0.35513583202E+02  0.56986884986E+02  0.41800000000E+01 0.  1.
        -11    1    3    3    0    0 -0.24818460550E+02 -0.20727016877E+02  0.25274238624E+01  0.32433826233E+02  0.00000000000E+00 0.  1.
         11    1    3    3    0    0  0.40675252824E+02  0.40943899720E+02 -0.32423529631E+02  0.66197918323E+02  0.00000000000E+00 0. -1.
</event>
<event>
 7    1  0.2010627E-005  0.4484385E+03  0.7561462E-02  0.1028189E+00
          1   -1    0    0  501    0  0.00000000000E+00  0.00000000000E+00  0.96300330803E+03  0.96300330803E+03  0.00000000000E+00 0. -1.
         -1   -1    0    0    0  501 -0.00000000000E+00 -0.00000000000E+00 -0.22224696934E+03  0.22224696934E+03  0.00000000000E+00 0.  1.
         23    2    1    2    0    0 -0.32521194803E+03 -0.29890538975E+03  0.47329285321E+03  0.65393850221E+03  0.92315744077E+02 0.  0.
          5    1    1    2  502    0  0.33049554904E+03  0.27438588434E+03  0.26717811521E+03  0.50588194187E+03  0.41800000000E+01 0. -1.
         -5    1    1    2    0  502 -0.52836010146E+01  0.24519505408E+02  0.28537027233E+00  0.25429833293E+02  0.41800000000E+01 0. -1.
        -11    1    3    3    0    0 -0.27876009488E+03 -0.25028720840E+03  0.34595495105E+03  0.50993696213E+03  0.00000000000E+00 0.  1.
         11    1    3    3    0    0 -0.46451853152E+02 -0.48618181345E+02  0.12733790216E+03  0.14400154008E+03  0.00000000000E+00 0. -1.
</event>
<event>
 7    1  0.5137842E-006  0.1488817E+03  0.7561462E-02  0.1201854E+00
         -2   -1    0    0    0  501 -0.00000000000E+00  0.00000000000E+00  0.61467034111E+02  0.61467034111E+02  0.00000000000E+00 0.  1.
          2   -1    0    0  501    0  0.00000000000E+00 -0.00000000000E+00 -0.56890466782E+03  0.56890466782E+03  0.00000000000E+00 0. -1.
         23    2    1    2    0    0  0.75272536580E+02 -0.93267169720E+02 -0.40909703623E+03  0.43117922694E+03  0.64733461037E+02 0.  0.
          5    1    1    2  502    0 -0.78499300576E+02  0.57014265245E+00 -0.59303162891E+02  0.98472345267E+02  0.41800000000E+01 0. -1.
         -5    1    1    2    0  502  0.32267639953E+01  0.92697027067E+02 -0.39037434585E+02  0.10072012973E+03  0.41800000000E+01 0. -1.
        -11    1    3    3    0    0  0.65687598195E+02 -0.51552218151E+02 -0.18416268586E+03  0.20220876988E+03  0.00000000000E+00 0.  1.
         11    1    3    3    0    0  0.95849383856E+01 -0.41714951569E+02 -0.22493435037E+03  0.22897045706E+03  0.00000000000E+00 0. -1.
</event>
<event>
 7    1  0.5137842E-006  0.9537460E+02  0.7561462E-02  0.1290335E+00
          2   -1    0    0  501    0  0.00000000000E+00  0.00000000000E+00  0.98207565692E+02  0.98207565692E+02  0.00000000000E+00 0.  1.
         -2   -1    0    0    0  501 -0.00000000000E+00 -0.00000000000E+00 -0.51540796909E+03  0.51540796909E+03  0.00000000000E+00 0. -1.
         23    2    1    2    0    0 -0.36398946811E+01  0.52221702741E+02  0.57691254561E+02  0.11974377944E+03  0.90939192821E+02 0.  0.
          5    1    1    2  502    0 -0.29773878719E+02 -0.44499267453E+02 -0.44487585301E+03  0.44810564117E+03  0.41800000000E+01 0.  1.
         -5    1    1    2    0  502  0.33413773400E+02 -0.77224352883E+01 -0.30015804950E+02  0.45766114172E+02  0.41800000000E+01 0.  1.
        -11    1    3    3    0    0 -0.41543250223E+02  0.49316333295E+02  0.23548491022E+02  0.68647460246E+02  0.00000000000E+00 0.  1.
         11    1    3    3    0    0  0.37903355542E+02  0.29053694462E+01  0.34142763539E+02  0.51096319193E+02  0.00000000000E+00 0. -1.
</event>
<event>
 7    1  0.5137842E-006  0.8809750E+02  0.7561462E-02  0.1307525E+00
          3   -1    0    0  501    0  0.00000000000E+00  0.00000000000E+00  0.23495511073E+03  0.23495511073E+03  0.00000000000E+00 0. -1.
         -3   -1    0    0    0  501 -0.00000000000E+00 -0.00000000000E+00 -0.62154317740E+02  0.62154317740E+02  0.00000000000E+00 0.  1.
         23    2    1    2    0    0 -0.17659595401E+02  0.41255955204E+02  0.96194906062E+02  0.14371682304E+03  0.96887306308E+02 0.  0.
          5    1    1    2  502    0 -0.30164593192E+02  0.30802796831E+02  0.41416814647E+02  0.59929457786E+02  0.41800000000E+01 0. -1.
         -5    1    1    2    0  502  0.47824188593E+02 -0.72058752036E+02  0.35189072286E+02  0.93463147646E+02  0.41800000000E+01 0. -1.
        -11    1    3    3    0    0 -0.13146134487E+02  0.16334967642E+02  0.11194545977E+03  0.11389222091E+03  0.00000000000E+00 0. -1.
         11    1    3    3    0    0 -0.45134609137E+01  0.24920987562E+02 -0.15750553708E+02  0.29824602137E+02  0.00000000000E+00 0.  1.
</event>
<event>
 7    1  0.5137842E-006  0.6110545E+02  0.7561462E-02  0.1393250E+00
         -2   -1    0    0    0  501 -0.00000000000E+00  0.00000000000E+00  0.42076273397E+02  0.42076273397E+02  0.00000000000E+00 0.  1.
          2   -1    0    0  501    0  0.00000000000E+00 -0.00000000000E+00 -0.28570665754E+03  0.28570665754E+03  0.00000000000E+00 0. -1.
         23    2    1    2    0    0 -0.17285206976E+01 -0.62907419014E+01 -0.12711676102E+03  0.15671295540E+03  0.91420556989E+02 0.  0.
          5    1    1    2  502    0 -0.48266944950E+01 -0.14609453736E+02 -0.13870019407E+03  0.13961357152E+03  0.41800000000E+01 0.  1.
         -5    1    1    2    0  502  0.65552151925E+01  0.20900195638E+02  0.22186570940E+02  0.31456404022E+02  0.41800000000E+01 0.  1.
        -11    1    3    3    0    0  0.40766702084E+02  0.13595281996E+01 -0.93438410052E+02  0.10195346384E+03  0.00000000000E+00 0. -1.
         11    1    3    3    0    0 -0.42495222782E+02 -0.76502701010E+01 -0.33678350964E+02  0.54759491557E+02  0.00000000000E+00 0.  1.
</event>
<event>
 7    1  0.5137842E-006  0.1930238E+03  0.7561462E-02  0.1155762E+00
         -1   -1    0    0    0  501 -0.00000000000E+00  0.00000000000E+00  0.11222613735E+03  0.11222613735E+03  0.00000000000E+00 0.  1.
          1   -1    0    0  501    0  0.00000000000E+00 -0.00000000000E+00 -0.36155687688E+03  0.36155687688E+03  0.00000000000E+00 0. -1.
         23    2    1    2    0    0 -0.42655058021E+02 -0.15372333310E+03 -0.18586148966E+03  0.26135267997E+03  0.91161465937E+02 0.  0.
          5    1    1    2  502    0  0.82960260942E+02  0.66080692132E+02 -0.34948343099E+02  0.11174937071E+03  0.41800000000E+01 0.  1.
         -5    1    1    2    0  502 -0.40305202922E+02  0.87642640971E+02 -0.28520906774E+02  0.10068096355E+03  0.41800000000E+01 0.  1.
        -11    1    3    3    0    0 -0.70165287630E+02 -0.91437340674E+02 -0.10846693180E+03  0.15826885402E+03  0.00000000000E+00 0.  1.
         11    1    3    3    0    0  0.27510229609E+02 -0.62285992429E+02 -0.77394557857E+02  0.10308382595E+03  0.00000000000E+00 0. -1.
</event>
<event>
 7    1  0.5137842E-006  0.1051526E+03  0.7561462E-02  0.1269819E+00
         -2   -1    0    0    0  501 -0.00000000000E+00  0.00000000000E+00  0.75519305713E+03  0.75519305713E+03  0.00000000000E+00 0.  1.
          2   -1    0    0  501    0  0.00000000000E+00 -0.00000000000E+00 -0.24884978289E+02  0.24884978289E+02  0.00000000000E+00 0. -1.
         23    2    1    2    0    0  0.71366904232E+02 -0.45816947414E+02  0.21419839253E+03  0.24229691763E+03  0.75062755335E+02 0.  0.
          5    1    1    2  502    0  0.84509689085E+00 -0.22168683564E+02  0.15403465300E+02  0.27329541945E+02  0.41800000000E+01 0. -1.
         -5    1    1    2    0  502 -0.72212001123E+02  0.67985630977E+02  0.50070622101E+03  0.51045157584E+03  0.41800000000E+01 0. -1.
        -11    1    3    3    0    0  0.45929404598E+02 -0.42917120336E+02  0.63181324491E+02  0.89125019995E+02  0.00000000000E+00 0. -1.
         11    1    3    3    0    0  0.25437499634E+02 -0.28998270780E+01  0.15101706804E+03  0.15317189763E+03  0.00000000000E+00 0.  1.
</event>
<event>
 7    1  0.5137842E-006  0.1023620E+03  0.7561462E-02  0.1275406E+00
          1   -1    0    0  501    0  0.00000000000E+00  0.00000000000E+00  0.75917040495E+02  0.75917040495E+02  0.00000000000E+00 0. -1.
         -1   -1    0    0    0  501 -0.00000000000E+00 -0.00000000000E+00 -0.23616413102E+03  0.23616413102E+03  0.00000000000E+00 0.  1.
         23    2    1    2    0    0 -0.74925100395E+02 -0.24115349685E+02 -0.74584878976E+02  0.14125217379E+03  0.90520448896E+02 0.  0.
          5    1    1    2  502    0  0.27796296791E+02  0.26231051844E+02 -0.11074991813E+03  0.11723360850E+03  0.41800000000E+01 0.  1.
         -5    1    1    2    0  502  0.47128803604E+02 -0.21157021593E+01  0.25087706582E+02  0.53595389226E+02  0.41800000000E+01 0.  1.
        -11    1    3    3    0    0 -0.60704119821E+02  0.26576638373E+02 -0.50706576572E+02  0.83441385284E+02  0.00000000000E+00 0.  1.
         11    1    3    3    0    0 -0.14220980574E+02 -0.50691988058E+02 -0.23878302404E+02  0.57810788504E+02  0.00000000000E+00 0. -1.
</event>
<event>
 7    1  0.5137842E-006  0.1575014E+03  0.7561462E-02  0.1191547E+00
          2   -1    0    0  501    0  0.00000000000E+00  0.00000000000E+00  0.43970773824E+03  0.43970773824E+03  0.00000000000E+00 0. -1.
         -2   -1    0    0    0  501 -0.00000000000E+00 -0.00000000000E+00 -0.63596621780E+02  0.63596621780E+02  0.00000000000E+00 0.  1.
         23    2    1    2    0    0 -0.70734480316E+02 -0.10233424476E+03  0.13667352117E+03  0.20589294864E+03  0.90755664037E+02 0.  0.
          5    1    1    2  502    0 -0.29123965311E+02  0.94165426208E+00  0.71024950607E+02  0.76883730899E+02  0.41800000000E+01 0.  1.
         -5    1    1    2    0  502  0.99858445627E+02  0.10139259049E+03  0.16841264468E+03  0.22052768048E+03  0.41800000000E+01 0.  1.
        -11    1    3    3    0    0 -0.62402493771E+02 -0.11334400148E+03  0.91013443750E+02  0.15819096322E+03  0.00000000000E+00 0.  1.
         11    1    3    3    0    0 -0.83319865456E+01  0.11009756726E+02  0.45660077423E+02  0.47701985422E+02  0.00000000000E+00 0. -1.
</event>
<event>
 7    1  0.5137842E-006  0.2079079E+03  0.7561462E-02  0.1143234E+00
          2   -1    0    0  501    0  0.00000000000E+00  0.00000000000E+00  0.94968057869E+03  0.94968057869E+03  0.00000000000E+00 0. -1.
         -2   -1    0    0    0  501 -0.00000000000E+00 -0.00000000000E+00 -0.56777809925E+02  0.56777809925E+02  0.00000000000E+00 0.  1.
         23    2    1    2    0    0 -0.90417080873E+02  0.18368156449E+03  0.42179237599E+03  0.47777645590E+03  0.91909562735E+02 0.  0.
          5    1    1    2  502    0  0.54607368039E+02 -0.62491818514E+02  0.32502268245E+03  0.33547639042E+03  0.41800000000E+01 0.  1.
         -5    1    1    2    0  502  0.35809712834E+02 -0.12118974598E+03  0.14608771033E+03  0.19320554229E+03  0.41800000000E+01 0.  1.
        -11    1    3    3    0    0 -0.66981622541E+02  0.10827708574E+03  0.16081146627E+03  0.20511165920E+03  0.00000000000E+00 0.  1.
         11    1    3    3    0    0 -0.23435458332E+02  0.75404478751E+02  0.26098090972E+03  0.27266479670E+03  0.00000000000E+00 0. -1.
</event>
<event>
 7    1  0.5137842E-006  0.9941047E+02  0.7561462E-02  0.1281541E+00
         -2   -1    0    0    0  501 -0.00000000000E+00  0.00000000000E+00  0.29608478469E+03  0.29608478469E+03  0.00000000000E+00 0.  1.
          2   -1    0    0  501    0  0.00000000000E+00 -0.00000000000E+00 -0.66427892790E+02  0.66427892790E+02  0.00000000000E+00 0. -1.
         23    2    1    2    0    0  0.57924541564E+01  0.79930177087E+02  0.73032804846E+02  0.14663999287E+03  0.98727459160E+02 0.  0.
          5    1    1    2  502    0 -0.21610376759E+02 -0.33103935674E+02  0.16122859310E+03  0.16605725089E+03  0.41800000000E+01 0. -1.
         -5    1    1    2    0  502  0.15817922603E+02 -0.46826241413E+02 -0.46045060449E+01  0.49815433715E+02  0.41800000000E+01 0. -1.
        -11    1    3    3    0    0 -0.17228046164E+02  0.84292401457E+02  0.19518524941E+02  0.88221240832E+02  0.00000000000E+00 0. -1.
         11    1    3    3    0    0  0.23020500320E+02 -0.43622243703E+01  0.53514279905E+02  0.58418752043E+02  0.00000000000E+00 0.  1.
</event>
<event>
 7    1  0.5137842E-006  0.1137903E+03  0.7561462E-02  0.1253708E+00
         -3   -1    0    0    0  501 -0.00000000000E+00  0.00000000000E+00  0.44270996009E+02  0.44270996009E+02  0.00000000000E+00 0.  1.
          3   -1    0    0  501    0  0.00000000000E+00 -0.00000000000E+00 -0.38571779910E+03  0.38571779910E+03  0.00000000000E+00 0. -1.
         23    2    1    2    0    0  0.51398196533E+02 -0.48526202614E+02 -0.12689921430E+03  0.17177394958E+03  0.91685943404E+02 0.  0.
          5    1    1    2  502    0 -0.90030408477E+02  0.19899487544E+02 -0.16490396750E+03  0.18897686354E+03  0.41800000000E+01 0. -1.
         -5    1    1    2    0  502  0.38632211944E+02  0.28626715071E+02 -0.49643621286E+02  0.69237981988E+02  0.41800000000E+01 0. -1.
        -11    1    3    3    0    0 -0.10094109299E+02 -0.11230262516E+02 -0.89399719659E+02  0.90665978811E+02  0.00000000000E+00 0. -1.
         11    1    3    3    0    0  0.61492305832E+02 -0.37295940098E+02 -0.37499494645E+02  0.81107970773E+02  0.00000000000E+00 0.  1.
</event>
<event>
 7    1  0.5137842E-006  0.1090826E+03  0.7561462E-02  0.1262278E+00
          1   -1    0    0  501    0  0.00000000000E+00  0.00000000000E+00  0.80133203311E+03  0.80133203311E+03  0.00000000000E+00 0. -1.
         -1   -1    0    0    0  501 -0.00000000000E+00 -0.00000000000E+00 -0.29765452419E+02  0.29765452419E+02  0.00000000000E+00 0.  1.
         23    2    1    2    0    0 -0.45704756006E+02 -0.76466581706E+02  0.52722914418E+03  0.54250694551E+03  0.91690526259E+02 0.  0.
          5    1    1    2  502    0  0.19397298766E+02  0.10264362891E+02 -0.99676324989E+01  0.24463001504E+02  0.41800000000E+01 0.  1.
         -5    1    1    2    0  502  0.26307457240E+02  0.66202218815E+02  0.25430506900E+03  0.26412753852E+03  0.41800000000E+01 0.  1.
        -11    1    3    3    0    0  0.23522260192E+02 -0.39532798521E+02  0.25833854230E+03  0.26240225098E+03  0.00000000000E+00 0. -1.
         11    1    3    3    0    0 -0.69227016198E+02 -0.36933783185E+02  0.26889060189E+03  0.28010469452E+03  0.00000000000E+00 0.  1.
</event>
<event>
 7    1  0.5137842E-006  0.1490021E+03  0.7561462E-02  0.1201705E+00
          2   -1    0    0  501    0  0.00000000000E+00  0.00000000000E+00  0.25794172379E+03  0.25794172379E+03  0.00000000000E+00 0. -1.
         -2   -1    0    0    0  501 -0.00000000000E+00 -0.00000000000E+00 -0.97330545413E+02  0.97330545413E+02  0.00000000000E+00 0.  1.
         23    2    1    2    0    0 -0.87539300442E+02  0.73237819147E+02  0.93951964232E+02  0.17328876629E+03  0.90416357272E+02 0.  0.
          5    1    1    2  502    0  0.64692210962E+01 -0.85026626924E+02  0.47682035763E+02  0.97787663037E+02  0.41800000000E+01 0.  1.
         -5    1    1    2    0  502  0.81070079346E+02  0.11788807777E+02  0.18977178382E+02  0.84195839881E+02  0.41800000000E+01 0.  1.
        -11    1    3    3    0    0 -0.10635611500E+02 -0.11840417929E+02 -0.97554044708E+01  0.18667609518E+02  0.00000000000E+00 0.  1.
         11    1    3    3    0    0 -0.76903688942E+02  0.85078237077E+02  0.10370736870E+03  0.15462115677E+03  0.00000000000E+00 0. -1.
</event>
<event>
 7    1  0.5137842E-006  0.1393280E+03  0.7561462E-02  0.1214236E+00
         -1   -1    0    0    0  501 -0.00000000000E+00  0.00000000000E+00  0.74205912328E+02  0.74205912328E+02  0.00000000000E+00 0.  1.
          1   -1    0    0  501    0  0.00000000000E+00 -0.00000000000E+00 -0.34481348880E+03  0.34481348880E+03  0.00000000000E+00 0. -1.
         23    2    1    2    0    0 -0.15259829128E+02 -0.11282683278E+03 -0.16270088308E+03  0.21838805553E+03  0.90879089243E+02 0.  0.
          5    1    1    2  502    0 -0.45206632961E+02  0.13877145252E+02 -0.93440915301E+01  0.48383874076E+02  0.41800000000E+01 0. -1.
         -5    1    1    2    0  502  0.60466462089E+02  0.98949687531E+02 -0.98562601865E+02  0.15224747153E+03  0.41800000000E+01 0. -1.
        -11    1    3    3    0    0  0.94332726069E+00 -0.57175873190E+02 -0.14118982264E+02  0.58900899836E+02  0.00000000000E+00 0.  1.
         11    1    3    3    0    0 -0.16203156388E+02 -0.55650959593E+02 -0.14858190082E+03  0.15948715569E+03  0.00000000000E+00 0. -1.
</event>
<event>
 7    1  0.5137842E-006  0.1251604E+03  0.7561462E-02  0.1234819E+00
         -3   -1    0    0    0  501 -0.00000000000E+00  0.00000000000E+00  0.61007933193E+02  0.61007933193E+02  0.00000000000E+00 0.  1.
          3   -1    0    0  501    0  0.00000000000E+00 -0.00000000000E+00 -0.29198520069E+03  0.29198520069E+03  0.00000000000E+00 0. -1.
         23    2    1    2    0    0 -0.65155802151E+02 -0.25998906215E+02 -0.14713063024E+03  0.18685973474E+03  0.91366932929E+02 0.  0.
          5    1    1    2  502    0  0.24852448352E+01  0.67791419936E+02 -0.38589529291E+02  0.78156747820E+02  0.41800000000E+01 0.  1.
         -5    1    1    2    0  502  0.62670557316E+02 -0.41792513721E+02 -0.45257107968E+02  0.87976651329E+02  0.41800000000E+01 0.  1.
        -11    1    3    3    0    0 -0.19998765007E+02  0.29326980527E+02 -0.19227634706E+02  0.40369844253E+02  0.00000000000E+00 0.  1.
         11    1    3    3    0    0 -0.45157037144E+02 -0.55325886742E+02 -0.12790299554E+03  0.14648989049E+03  0.00000000000E+00 0. -1.
</event>
<event>
 7    1  0.5137842E-006  0.1705036E+03  0.7561462E-02  0.1177324E+00
          1   -1    0    0  501    0  0.00000000000E+00  0.00000000000E+00  0.47879405496E+03  0.47879405496E+03  0.00000000000E+00 0. -1.
         -1   -1    0    0    0  501 -0.00000000000E+00 -0.00000000000E+00 -0.77160930953E+02  0.77160930953E+02  0.00000000000E+00 0.  1.
         23    2    1    2    0    0 -0.15624824206E+03 -0.19596588791E+02  0.17188637083E+03  0.25062163722E+03  0.92025763398E+02 0.  0.
          5    1    1    2  502    0  0.90873531184E+02 -0.39887696404E+01  0.21593949432E+03  0.23435282494E+03  0.41800000000E+01 0.  1.
         -5    1    1    2    0  502  0.65374710874E+02  0.23585358431E+02  0.13807258862E+02  0.70980523747E+02  0.41800000000E+01 0.  1.
        -11    1    3    3    0    0 -0.94684533562E+02  0.32055564838E+02  0.11376907723E+03  0.15144676645E+03  0.00000000000E+00 0. -1.
         11    1    3    3    0    0 -0.61563708496E+02 -0.51652153629E+02  0.58117293595E+02  0.99174870774E+02  0.00000000000E+00 0.  1.
</event>
<event>
 7    1  0.5137842E-006  0.1986935E+03  0.7561462E-02  0.1150846E+00
         -2   -1    0    0    0  501 -0.00000000000E+00  0.00000000000E+00  0.13582083424E+03  0.13582083424E+03  0.00000000000E+00 0.  1.
          2   -1    0    0  501    0  0.00000000000E+00 -0.00000000000E+00 -0.30379430888E+03  0.30379430888E+03  0.00000000000E+00 0. -1.
         23    2    1    2    0    0  0.11735318677E+03 -0.12387738520E+03 -0.83721076668E+02  0.21189872533E+03  0.93672162923E+02 0.  0.
          5    1    1    2  502    0 -0.13542033684E+03  0.12474731355E+03 -0.53477548694E+02  0.19177559929E+03  0.41800000000E+01 0. -1.
         -5    1    1    2    0  502  0.18067150072E+02 -0.86992834504E+00 -0.30774849276E+02  0.35940818508E+02  0.41800000000E+01 0. -1.
        -11    1    3    3    0    0 -0.14749328571E+02 -0.27243171891E+02 -0.13854417446E+02  0.33936381521E+02  0.00000000000E+00 0.  1.
         11    1    3    3    0    0  0.13210251534E+03 -0.96634213312E+02 -0.69866659222E+02  0.17796234381E+03  0.00000000000E+00 0. -1.
</event>
<event>
 7    1  0.5137843E-006  0.1472141E+03  0.7561462E-02  0.1203939E+00
          2   -1    0    0  501    0  0.00000000000E+00  0.00000000000E+00  0.81981811696E+02  0.81981811696E+02  0.00000000000E+00 0. -1.
         -2   -1    0    0    0  501 -0.00000000000E+00 -0.00000000000E+00 -0.31389258700E+03  0.31389258700E+03  0.00000000000E+00 0.  1.
         23    2    1    2    0    0 -0.89455813383E+02  0.51219579465E+02 -0.37438238716E+02  0.14270878492E+03  0.91314772664E+02 0.  0.
          5    1    1    2  502    0 -0.30530157324E+02  0.10655564198E+01 -0.31165944552E+02  0.43840784853E+02  0.41800000000E+01 0. -1.
         -5    1    1    2    0  502  0.11998597071E+03 -0.52285135885E+02 -0.16330659203E+03  0.20932482892E+03  0.41800000000E+01 0. -1.
        -11    1    3    3    0    0 -0.87940857209E+02  0.68040708406E+01 -0.42629787630E+02  0.97965241489E+02  0.00000000000E+00 0. -1.
         11    1    3    3    0    0 -0.15149561734E+01  0.44415508625E+02  0.51915489141E+01  0.44743543431E+02  0.00000000000E+00 0.  1.
</event>
<event>
 7    1  0.5137842E-006  0.8966963E+02  0.7561462E-02  0.1303654E+00
         -1   -1    0    0    0  501 -0.00000000000E+00  0.00000000000E+00  0.50947290002E+02  0.50947290002E+02  0.00000000000E+00 0.  1.
          1   -1    0    0  501    0  0.00000000000E+00 -0.00000000000E+00 -0.24079101908E+03  0.24079101908E+03  0.00000000000E+00 0. -1.
         23    2    1    2    0    0  0.93343141937E+01 -0.23537587691E+02 -0.94376023963E+02  0.13235519115E+03  0.89274381931E+02 0.  0.
          5    1    1    2  502    0  0.29018707348E+02  0.38707060894E+02 -0.10601592222E+03  0.11660690418E+03  0.41800000000E+01 0.  1.
         -5    1    1    2    0  502 -0.38353021542E+02 -0.15169473202E+02  0.10548217104E+02  0.42776213749E+02  0.41800000000E+01 0.  1.
        -11    1    3    3    0    0  0.35510651662E+02  0.18320333433E+02 -0.60414083554E+02  0.72432744600E+02  0.00000000000E+00 0.  1.
         11    1    3    3    0    0 -0.26176337468E+02 -0.41857921124E+02 -0.33961940409E+02  0.59922446549E+02  0.00000000000E+00 0. -1.
</event>
<event>
 7    1  0.5137842E-006  0.1209965E+03  0.7561462E-02  0.1241462E+00
          1   -1    0    0  501    0  0.00000000000E+00  0.00000000000E+00  0.58249789670E+03  0.58249789670E+03  0.00000000000E+00 0. -1.
         -1   -1    0    0    0  501 -0.00000000000E+00 -0.00000000000E+00 -0.39693499469E+02  0.39693499469E+02  0.00000000000E+00 0.  1.
         23    2    1    2    0    0 -0.80593631625E+02  0.50804104308E+02  0.34822359554E+03  0.37202012132E+03  0.89793695251E+02 0.  0.
          5    1    1    2  502    0 -0.17918900185E+02 -0.91725965013E+01 -0.71818748545E+01  0.21777861163E+02  0.41800000000E+01 0.  1.
         -5    1    1    2    0  502  0.98512531810E+02 -0.41631507807E+02  0.20176267654E+03  0.22839341368E+03  0.41800000000E+01 0.  1.
        -11    1    3    3    0    0 -0.39341844801E+02  0.60369570442E+02  0.29671482142E+03  0.30533907552E+03  0.00000000000E+00 0. -1.
         11    1    3    3    0    0 -0.41251786824E+02 -0.95654661344E+01  0.51508774117E+02  0.66681045805E+02  0.00000000000E+00 0.  1.
</event>
<event>
 7    1  0.5137842E-006  0.1038525E+03  0.7561462E-02  0.1272397E+00
          2   -1    0    0  501    0  0.00000000000E+00  0.00000000000E+00  0.25855707829E+03  0.25855707829E+03  0.00000000000E+00 0.  1.
         -2   -1    0    0    0  501 -0.00000000000E+00 -0.00000000000E+00 -0.62004016865E+02  0.62004016865E+02  0.00000000000E+00 0. -1.
         23    2    1    2    0    0 -0.51603446408E+02  0.18676959525E+02  0.11658676127E+03  0.16227817912E+03  0.98640711766E+02 0.  0.
          5    1    1    2  502    0  0.74576275294E+02 -0.19931114760E+02  0.10075415039E+03  0.12699504475E+03  0.41800000000E+01 0. -1.
         -5    1    1    2    0  502 -0.22972828886E+02  0.12541552353E+01 -0.20787850225E+02  0.31287871282E+02  0.41800000000E+01 0. -1.
        -11    1    3    3    0    0 -0.71100486142E+02  0.37093313500E+02  0.10717089154E+03  0.13385362539E+03  0.00000000000E+00 0.  1.
         11    1    3    3    0    0  0.19497039735E+02 -0.18416353975E+02  0.94158697268E+01  0.28424553732E+02  0.00000000000E+00 0. -1.
</event>
<event>
 7    1  0.5137842E-006  0.1114494E+03  0.7561462E-02  0.1257909E+00
         -2   -1    0    0    0  501 -0.00000000000E+00  0.00000000000E+00  0.28451714482E+03  0.28451714482E+03  0.00000000000E+00 0.  1.
          2   -1    0    0  501    0  0.00000000000E+00 -0.00000000000E+00 -0.46618798172E+02  0.46618798172E+02  0.00000000000E+00 0. -1.
         23    2    1    2    0    0 -0.35528726532E+02  0.15365512971E+02  0.11401974399E+03  0.15088114833E+03  0.90918807208E+02 0.  0.
          5    1    1    2  502    0 -0.49463422242E+01 -0.64615700858E+02  0.78574044802E+02  0.10193629391E+03  0.41800000000E+01 0. -1.
         -5    1    1    2    0  502  0.40475068756E+02  0.49250187887E+02  0.45304557852E+02  0.78318500751E+02  0.41800000000E+01 0. -1.
        -11    1    3    3    0    0 -0.26456421333E+02 -0.34451617503E+02  0.30028870996E+02  0.52807094898E+02  0.00000000000E+00 0. -1.
         11    1    3    3    0    0 -0.90723051994E+01  0.49817130474E+02  0.83990872996E+02  0.98074053433E+02  0.00000000000E+00 0.  1.
</event>
<event>
 7    1  0.5137842E-006  0.1577517E+03  0.7561462E-02  0.1191259E+00
         -1   -1    0    0    0  501 -0.00000000000E+00  0.00000000000E+00  0.88250640010E+03  0.88250640010E+03  0.00000000000E+00 0.  1.
          1   -1    0    0  501    0  0.00000000000E+00 -0.00000000000E+00 -0.32653165927E+02  0.32653165927E+02  0.00000000000E+00 0. -1.
         23    2    1    2    0    0 -0.65047523485E+02  0.11074290913E+03  0.35771460231E+03  0.39138070810E+03  0.93402086343E+02 0.  0.
          5    1    1    2  502    0  0.71952064848E+02 -0.96696732934E+01  0.26949928339E+03  0.27913784832E+03  0.41800000000E+01 0. -1.
         -5    1    1    2    0  502 -0.69045413630E+01 -0.10107323583E+03  0.22263934848E+03  0.24464100961E+03  0.41800000000E+01 0. -1.
        -11    1    3    3    0    0 -0.40886596299E+02  0.16486312949E+02  0.41543758957E+02  0.60575541103E+02  0.00000000000E+00 0.  1.
         11    1    3    3    0    0 -0.24160927186E+02  0.94256596178E+02  0.31617084335E+03  0.33080516699E+03  0.00000000000E+00 0. -1.
</event>
<event>
 7    1  0.5137842E-006  0.9002840E+02  0.7561462E-02  0.1302783E+00
          1   -1    0    0  501    0  0.00000000000E+00  0.00000000000E+00  0.26289121362E+03  0.26289121362E+03  0.00000000000E+00 0. -1.
         -1   -1    0    0    0  501 -0.00000000000E+00 -0.00000000000E+00 -0.60346534318E+02  0.60346534318E+02  0.00000000000E+00 0.  1.
         23    2    1    2    0    0 -0.32045109083E+02 -0.13741059792E+02  0.15885302885E+03  0.18622669521E+03  0.90721505141E+02 0.  0.
          5    1    1    2  502    0  0.12885900267E+02 -0.50950011699E+02 -0.60754333872E+01  0.53069138005E+02  0.41800000000E+01 0. -1.
         -5    1    1    2    0  502  0.19159208817E+02  0.64691071490E+02  0.49767083841E+02  0.83941914721E+02  0.41800000000E+01 0. -1.
        -11    1    3    3    0    0 -0.26215675116E+02 -0.31538124471E+02  0.16211087783E+03  0.16721797638E+03  0.00000000000E+00 0. -1.
         11    1    3    3    0    0 -0.58294339670E+01  0.17797064679E+02 -0.32578489754E+01  0.19008718829E+02  0.00000000000E+00 0.  1.
</event>
<event>
 6    1  0.5137842E-006  0.1289599E+03  0.7561462E-02  0.1229007E+00
         -2   -1    0    0    0  501 -0.00000000000E+00  0.00000000000E+00  0.35588507483E+02  0.35588507483E+02  0.00000000000E+00 0.  1.
          2   -1    0    0  501    0  0.00000000000E+00 -0.00000000000E+00 -0.55067501506E+03  0.55067501506E+03  0.00000000000E+00 0. -1.
          5    1    1    2  502    0 -0.72498755603E+02  0.10030241103E+03 -0.25592404662E+03  0.28430834187E+03  0.41800000000E+01 0. -1.
         -5    1    1    2    0  502  0.36781115085E+02 -0.19033984928E+02 -0.21424316845E+02  0.46814706678E+02  0.41800000000E+01 0.  1.
        -11    1    1    2    0    0  0.17318025861E+02 -0.12715514798E+02 -0.49325047030E+02  0.53801102227E+02  0.00000000000E+00 0. -1.
         11    1    1    2    0    0  0.18399614657E+02 -0.68552911308E+02 -0.18841309708E+03  0.20133937176E+03  0.00000000000E+00 0.  1.
</event>
<event>
 7    1  0.5137842E-006  0.1007116E+03  0.7561462E-02  0.1278807E+00
         -1   -1    0    0    0  501 -0.00000000000E+00  0.00000000000E+00  0.25862671971E+03  0.25862671971E+03  0.00000000000E+00 0.  1.
          1   -1    0    0  501    0  0.00000000000E+00 -0.00000000000E+00 -0.64798525896E+02  0.64798525896E+02  0.00000000000E+00 0. -1.
         23    2    1    2    0    0  0.36069420881E+02  0.51699114600E+00  0.11973022925E+02  0.99773772269E+02  0.92250647435E+02 0.  0.
          5    1    1    2  502    0  0.23468344529E+01  0.55248687042E+02  0.47010852433E+02  0.72700878250E+02  0.41800000000E+01 0. -1.
         -5    1    1    2    0  502 -0.38416255334E+02 -0.55765678188E+02  0.13484431846E+03  0.15095059509E+03  0.41800000000E+01 0. -1.
        -11    1    3    3    0    0 -0.20784472463E+02 -0.36982727458E+01 -0.24310154995E+02  0.32197129573E+02  0.00000000000E+00 0. -1.
         11    1    3    3    0    0  0.56853893344E+02  0.42152638918E+01  0.36283177920E+02  0.67576642695E+02  0.00000000000E+00 0.  1.
</event>
<event>
 7    1  0.5137842E-006  0.1343595E+03  0.7561462E-02  0.1221127E+00
         -1   -1    0    0    0  501 -0.00000000000E+00  0.00000000000E+00  0.29420767767E+02  0.29420767767E+02  0.00000000000E+00 0.  1.
          1   -1    0    0  501    0  0.00000000000E+00 -0.00000000000E+00 -0.91928337788E+03  0.91928337788E+03  0.00000000000E+00 0. -1.
         23    2    1    2    0    0 -0.10101409746E+03  0.33441578597E+01 -0.57759050820E+03  0.59745326625E+03  0.11456255455E+03 0.  0.
          5    1    1    2  502    0  0.52522665743E+01  0.27099252542E+02 -0.19400560077E+03  0.19600408497E+03  0.41800000000E+01 0.  1.
         -5    1    1    2    0  502  0.95761830882E+02 -0.30443410401E+02 -0.11826650113E+03  0.15524679443E+03  0.41800000000E+01 0.  1.
        -11    1    3    3    0    0 -0.81983905956E+02 -0.41226667098E+02 -0.47761238416E+03  0.48634821725E+03  0.00000000000E+00 0. -1.
         11    1    3    3    0    0 -0.19030191500E+02  0.44570824958E+02 -0.99978124041E+02  0.11110504900E+03  0.00000000000E+00 0.  1.
</event>
<event>
 7    1  0.5137842E-006  0.1495414E+03  0.7561462E-02  0.1201038E+00
          2   -1    0    0  501    0  0.00000000000E+00  0.00000000000E+00  0.71434232699E+03  0.71434232699E+03  0.00000000000E+00 0. -1.
         -2   -1    0    0    0  501 -0.00000000000E+00 -0.00000000000E+00 -0.38737175725E+02  0.38737175725E+02  0.00000000000E+00 0.  1.
         23    2    1    2    0    0  0.10875793964E+03 -0.18004166024E+02  0.45117813214E+03  0.47349966258E+03  0.92129170759E+02 0.  0.
          5    1    1    2  502    0  0.19747927709E+02  0.17844519906E+02  0.88356496746E+02  0.92372888104E+02  0.41800000000E+01 0.  1.
         -5    1    1    2    0  502 -0.12850586735E+03  0.15964611736E+00  0.13607052238E+03  0.18720695204E+03  0.41800000000E+01 0.  1.
        -11    1    3    3    0    0  0.76889734200E+01 -0.39496397230E+02  0.11864330747E+03  0.12528096469E+03  0.00000000000E+00 0. -1.
         11    1    3    3    0    0  0.10106896622E+03  0.21492231207E+02  0.33253482467E+03  0.34821869788E+03  0.00000000000E+00 0.  1.
</event>
<event>
 7    1  0.5137842E-006  0.9191053E+02  0.7561462E-02  0.1298290E+00
          2   -1    0    0  501    0  0.00000000000E+00  0.00000000000E+00  0.16577714546E+03  0.16577714546E+03  0.00000000000E+00 0. -1.
         -2   -1    0    0    0  501 -0.00000000000E+00 -0.00000000000E+00 -0.85651122167E+02  0.85651122167E+02  0.00000000000E+00 0.  1.
         23    2    1    2    0    0  0.41497099656E+02 -0.27011824647E+02  0.70383692516E+02  0.11654604129E+03  0.78596867728E+02 0.  0.
          5    1    1    2  502    0 -0.70300249841E+02  0.32863982120E+02 -0.31676500620E+02  0.83922818947E+02  0.41800000000E+01 0. -1.
         -5    1    1    2    0  502  0.28803150185E+02 -0.58521574733E+01  0.41418831402E+02  0.50959407398E+02  0.41800000000E+01 0. -1.
        -11    1    3    3    0    0  0.53413376335E+02 -0.33301471386E+02  0.22567383495E+02  0.66867507548E+02  0.00000000000E+00 0.  1.
         11    1    3    3    0    0 -0.11916276678E+02  0.62896467388E+01  0.47816309020E+02  0.49678533737E+02  0.00000000000E+00 0. -1.
</event>
<event>
 7    1  0.5137842E-006  0.2102937E+03  0.7561462E-02  0.1141334E+00
          1   -1    0    0  501    0  0.00000000000E+00  0.00000000000E+00  0.20427384705E+03  0.20427384705E+03  0.00000000000E+00 0. -1.
         -1   -1    0    0    0  501 -0.00000000000E+00 -0.00000000000E+00 -0.27305093268E+03  0.27305093268E+03  0.00000000000E+00 0.  1.
         23    2    1    2    0    0  0.16870427295E+03  0.91648782887E+02 -0.11746670665E+03  0.24306376780E+03  0.91765663132E+02 0.  0.
          5    1    1    2  502    0  0.56346019407E+01  0.16885094082E+02 -0.97270737790E+01  0.20710951342E+02  0.41800000000E+01 0. -1.
         -5    1    1    2    0  502 -0.17433887489E+03 -0.10853387697E+03  0.58416694797E+02  0.21355006059E+03  0.41800000000E+01 0. -1.
        -11    1    3    3    0    0  0.13176510322E+03  0.49258505210E+02 -0.12260564202E+03  0.18660274975E+03  0.00000000000E+00 0.  1.
         11    1    3    3    0    0  0.36939169734E+02  0.42390277677E+02  0.51389353680E+01  0.56461018047E+02  0.00000000000E+00 0. -1.
</event>
<event>
 7    1  0.5137842E-006  0.1013297E+03  0.7561462E-02  0.1277524E+00
          1   -1    0    0  501    0  0.00000000000E+00  0.00000000000E+00  0.48674766691E+02  0.48674766691E+02  0.00000000000E+00 0. -1.
         -1   -1    0    0    0  501 -0.00000000000E+00 -0.00000000000E+00 -0.33372394774E+03  0.33372394774E+03  0.00000000000E+00 0.  1.
         23    2    1    2    0    0 -0.76372904703E+01 -0.51395119703E+02 -0.57953345544E+02  0.11797544760E+03  0.88655679125E+02 0.  0.
          5    1    1    2  502    0 -0.44790388708E+02  0.48508404281E+02 -0.60322109824E+02  0.89529177032E+02  0.41800000000E+01 0. -1.
         -5    1    1    2    0  502  0.52427679178E+02  0.28867154221E+01 -0.16677372568E+03  0.17489408981E+03  0.41800000000E+01 0. -1.
        -11    1    3    3    0    0  0.29187835511E+02 -0.26083341624E+02 -0.61768680945E+02  0.73127562504E+02  0.00000000000E+00 0.  1.
         11    1    3    3    0    0 -0.36825125982E+02 -0.25311778079E+02  0.38153354018E+01  0.44847885093E+02  0.00000000000E+00 0. -1.
</event>
<event>
 7    1  0.5137842E-006  0.1405019E+03  0.7561462E-02  0.1212655E+00
          4   -1    0    0  501    0  0.00000000000E+00  0.00000000000E+00  0.13167005913E+03  0.13167005913E+03  0.00000000000E+00 0. -1.
         -4   -1    0    0    0  501 -0.00000000000E+00 -0.00000000000E+00 -0.23378444798E+03  0.23378444798E+03  0.00000000000E+00 0.  1.
         23    2    1    2    0    0 -0.75376686507E+02  0.93642007261E+02  0.20902318415E+02  0.15277747118E+03  0.91943343378E+02 0.  0.
          5    1    1    2  502    0  0.60386589328E+01  0.16856078233E+02  0.14251556030E+02  0.23263104358E+02  0.41800000000E+01 0.  1.
         -5    1    1    2    0  502  0.69338027574E+02 -0.11049808549E+03 -0.13726826330E+03  0.18941393158E+03  0.41800000000E+01 0.  1.
        -11    1    3    3    0    0  0.88088116228E+01  0.66102690063E+01  0.29398991638E+02  0.31394132062E+02  0.00000000000E+00 0. -1.
         11    1    3    3    0    0 -0.84185498129E+02  0.87031738255E+02 -0.84966732235E+01  0.12138333912E+03  0.00000000000E+00 0.  1.
</event>
<event>
 7    1  0.5137842E-006  0.9213572E+02  0.7561462E-02  0.1297761E+00
          1   -1    0    0  501    0  0.00000000000E+00  0.00000000000E+00  0.75205462612E+02  0.75205462612E+02  0.00000000000E+00 0. -1.
         -1   -1    0    0    0  501 -0.00000000000E+00 -0.00000000000E+00 -0.20310538899E+03  0.20310538899E+03  0.00000000000E+00 0.  1.
         23    2    1    2    0    0 -0.46409365440E+02  0.12374979895E+02 -0.20929747177E+02  0.10685819204E+03  0.93132430233E+02 0.  0.
          5    1    1    2  502    0  0.36888772409E+02 -0.43783185360E+02 -0.12221486108E+03  0.13502478853E+03  0.41800000000E+01 0. -1.
         -5    1    1    2    0  502  0.95205930305E+01  0.31408205465E+02  0.15244681877E+02  0.36427871029E+02  0.41800000000E+01 0. -1.
        -11    1    3    3    0    0  0.15468272167E+02 -0.18922572516E+02 -0.27988227580E+02  0.37157396001E+02  0.00000000000E+00 0. -1.
         11    1    3    3    0    0 -0.61877637607E+02  0.31297552411E+02  0.70584804037E+01  0.69700796039E+02  0.00000000000E+00 0.  1.
</event>
<event>
 7    1  0.5137842E-006  0.9967347E+02  0.7561462E-02  0.1280984E+00
          1   -1    0    0  501    0  0.00000000000E+00  0.00000000000E+00  0.40705161754E+02  0.40705161754E+02  0.00000000000E+00 0.  1.
         -1   -1    0    0    0  501 -0.00000000000E+00 -0.00000000000E+00 -0.29973244239E+03  0.29973244239E+03  0.00000000000E+00 0. -1.
         23    2    1    2    0    0 -0.10908452816E+02  0.86037180213E+01 -0.10479017925E+03  0.14136494370E+03  0.93861852383E+02 0.  0.
          5    1    1    2  502    0  0.42087125349E+02 -0.43539933177E+02 -0.33112189998E+02  0.69144352102E+02  0.41800000000E+01 0. -1.
         -5    1    1    2    0  502 -0.31178672532E+02  0.34936215155E+02 -0.12112491139E+03  0.12992830835E+03  0.41800000000E+01 0. -1.
        -11    1    3    3    0    0  0.35898101566E+02 -0.15364965408E+02 -0.27022671334E+02  0.47486636268E+02  0.00000000000E+00 0.  1.
         11    1    3    3    0    0 -0.46806554382E+02  0.23968683430E+02 -0.77767507912E+02  0.93878307427E+02  0.00000000000E+00 0. -1.
</event>
<event>
 7    1  0.5137842E-006  0.1114355E+03  0.7561462E-02  0.1257935E+00
          2   -1    0    0  501    0  0.00000000000E+00  0.00000000000E+00  0.19807085941E+03  0.19807085941E+03  0.00000000000E+00 0. -1.
         -2   -1    0    0    0  501 -0.00000000000E+00 -0.00000000000E+00 -0.15171392475E+03  0.15171392475E+03  0.00000000000E+00 0.  1.
         23    2    1    2    0    0 -0.91928655812E+02  0.11168421730E+02  0.12011342805E+03  0.17736428883E+03  0.91952400461E+02 0.  0.
          5    1    1    2  502    0  0.10504910801E+03  0.11995190767E+01 -0.96765527021E+02  0.14289084491E+03  0.41800000000E+01 0. -1.
         -5    1    1    2    0  502 -0.13120452197E+02 -0.12367940807E+02  0.23009033633E+02  0.29529650428E+02  0.41800000000E+01 0. -1.
        -11    1    3    3    0    0 -0.71208146251E+02  0.23650632509E+02  0.24794035406E+02  0.79023393387E+02  0.00000000000E+00 0.  1.
         11    1    3    3    0    0 -0.20720509560E+02 -0.12482210779E+02  0.95319392642E+02  0.98340895441E+02  0.00000000000E+00 0. -1.
</event>
<event>
 7    1  0.5137842E-006  0.9073033E+02  0.7561462E-02  0.1301093E+00
          1   -1    0    0  501    0  0.00000000000E+00  0.00000000000E+00  0.22957834592E+03  0.22957834592E+03  0.00000000000E+00 0. -1.
         -1   -1    0    0    0  501 -0.00000000000E+00 -0.00000000000E+00 -0.78158422158E+02  0.78158422158E+02  0.00000000000E+00 0.  1.
         23    2    1    2    0    0 -0.61551798717E+01 -0.23316146927E+02  0.15280195610E+03  0.18033398903E+03  0.92684307541E+02 0.  0.
          5    1    1    2  502    0 -0.51990095334E+02  0.14941100914E+02 -0.29920166158E+02  0.61958819003E+02  0.41800000000E+01 0. -1.
         -5    1    1    2    0  502  0.58145275205E+02  0.83750460133E+01  0.28538133819E+02  0.65443960044E+02  0.41800000000E+01 0. -1.
        -11    1    3    3    0    0  0.22878070245E+01  0.22048806791E+02  0.15742524283E+01  0.22223010880E+02  0.00000000000E+00 0.  1.
         11    1    3    3    0    0 -0.84429868962E+01 -0.45364953718E+02  0.15122770367E+03  0.15811097815E+03  0.00000000000E+00 0. -1.
</event>
<event>
 7    1  0.5137842E-006  0.1168475E+03  0.7561462E-02  0.1248390E+00
          1   -1    0    0  501    0  0.00000000000E+00  0.00000000000E+00  0.10754534640E+03  0.10754534640E+03  0.00000000000E+00 0. -1.
         -1   -1    0    0    0  501 -0.00000000000E+00 -0.00000000000E+00 -0.19579097556E+03  0.19579097556E+03  0.00000000000E+00 0.  1.
         23    2    1    2    0    0  0.54027131992E+02 -0.80653387525E+02 -0.30276522622E+02  0.13471921198E+03  0.88366839610E+02 0.  0.
          5    1    1    2  502    0 -0.52445149963E+02  0.74703787708E+01 -0.76356423988E+02  0.93027287383E+02  0.41800000000E+01 0. -1.
         -5    1    1    2    0  502 -0.15819820293E+01  0.73183008754E+02  0.18387317450E+02  0.75589822599E+02  0.41800000000E+01 0. -1.
        -11    1    3    3    0    0 -0.83205514463E+01 -0.99125782959E+01 -0.37966273292E+02  0.40111453383E+02  0.00000000000E+00 0.  1.
         11    1    3    3    0    0  0.62347683439E+02 -0.70740809229E+02  0.76897506696E+01  0.94607758593E+02  0.00000000000E+00 0. -1.
</event>
<event>
 7    1  0.5137842E-006  0.1054308E+03  0.7561462E-02  0.1269273E+00
         -2   -1    0    0    0  501 -0.00000000000E+00  0.00000000000E+00  0.53290167941E+02  0.53290167941E+02  0.00000000000E+00 0.  1.
          2   -1    0    0  501    0  0.00000000000E+00 -0.00000000000E+00 -0.29961549892E+03  0.29961549892E+03  0.00000000000E+00 0. -1.
         23    2    1    2    0    0  0.10310247876E+01 -0.63396283988E+02 -0.10010616898E+03  0.15030420367E+03  0.92465976114E+02 0.  0.
          5    1    1    2  502    0 -0.10811602841E+02 -0.23567458432E+02  0.60268783094E+01  0.26946456448E+02  0.41800000000E+01 0. -1.
         -5    1    1    2    0  502  0.97805780537E+01  0.86963742420E+02 -0.15224604031E+03  0.17565500674E+03  0.41800000000E+01 0. -1.
        -11    1    3    3    0    0  0.26745658964E+01 -0.80128563655E+02 -0.43417028893E+02  0.91174439478E+02  0.00000000000E+00 0. -1.
         11    1    3    3    0    0 -0.16435411087E+01  0.16732279668E+02 -0.56689140083E+02  0.59129764194E+02  0.00000000000E+00 0.  1.
</event>
<event>
 7    1  0.5137842E-006  0.1028848E+03  0.7561462E-02  0.1274344E+00
         -1   -1    0    0    0  501 -0.00000000000E+00  0.00000000000E+00  0.38922103196E+03  0.38922103196E+03  0.00000000000E+00 0.  1.
          1   -1    0    0  501    0  0.00000000000E+00 -0.00000000000E+00 -0.10381934892E+03  0.10381934892E+03  0.00000000000E+00 0. -1.
         23    2    1    2    0    0 -0.26875286425E+02 -0.78439335356E+02 -0.44213243517E+02  0.13087275623E+03  0.91092574178E+02 0.  0.
          5    1    1    2  502    0 -0.70721510758E+01 -0.16793075839E+02  0.18341730302E+03  0.18436757352E+03  0.41800000000E+01 0.  1.
         -5    1    1    2    0  502  0.33947437501E+02  0.95232411195E+02  0.14619762353E+03  0.17780005113E+03  0.41800000000E+01 0.  1.
        -11    1    3    3    0    0 -0.19283087017E+02 -0.23380991509E+02 -0.64852794787E+02  0.71584867119E+02  0.00000000000E+00 0. -1.
         11    1    3    3    0    0 -0.75921994079E+01 -0.55058343847E+02  0.20639551270E+02  0.59287889114E+02  0.00000000000E+00 0.  1.
</event>
<event>
 7    1  0.5137842E-006  0.1699958E+03  0.7561462E-02  0.1177852E+00
         -2   -1    0    0    0  501 -0.00000000000E+00  0.00000000000E+00  0.17802156388E+03  0.17802156388E+03  0.00000000000E+00 0.  1.
          2   -1    0    0  501    0  0.00000000000E+00 -0.00000000000E+00 -0.16677682480E+03  0.16677682480E+03  0.00000000000E+00 0. -1.
         23    2    1    2    0    0 -0.13496540577E+02 -0.13245310655E+03  0.89921651700E+01  0.16210684951E+03  0.92042324941E+02 0.  0.
          5    1    1    2  502    0  0.50159698053E+02  0.13309921734E+03  0.16242744661E+02  0.14322254055E+03  0.41800000000E+01 0. -1.
         -5    1    1    2    0  502 -0.36663157475E+02 -0.64611079727E+00 -0.13990170753E+02  0.39468998631E+02  0.41800000000E+01 0. -1.
        -11    1    3    3    0    0  0.35665224248E+02 -0.86199796720E+02 -0.39803527469E+01  0.93371603730E+02  0.00000000000E+00 0. -1.
         11    1    3    3    0    0 -0.49161764825E+02 -0.46253309828E+02  0.12972517917E+02  0.68735245776E+02  0.00000000000E+00 0.  1.
</event>
<event>
 7    1  0.5137842E-006  0.1637140E+03  0.7561462E-02  0.1184566E+00
          1   -1    0    0  501    0  0.00000000000E+00  0.00000000000E+00  0.18284718050E+03  0.18284718050E+03  0.00000000000E+00 0. -1.
         -1   -1    0    0    0  501 -0.00000000000E+00 -0.00000000000E+00 -0.16160384035E+03  0.16160384035E+03  0.00000000000E+00 0.  1.
         23    2    1    2    0    0  0.12691884192E+03  0.35520647711E+02  0.22274597497E+02  0.16273956302E+03  0.92832638824E+02 0.  0.
          5    1    1    2  502    0 -0.13665087859E+03 -0.52697556215E+02  0.25142998298E+02  0.14866115099E+03  0.41800000000E+01 0. -1.
         -5    1    1    2    0  502  0.97320366680E+01  0.17176908504E+02 -0.26174255645E+02  0.33050306837E+02  0.41800000000E+01 0. -1.
        -11    1    3    3    0    0  0.71187761762E+02 -0.27756932329E+02  0.16855059938E+02  0.78244729934E+02  0.00000000000E+00 0.  1.
         11    1    3    3    0    0  0.55731080156E+02  0.63277580040E+02  0.54195375590E+01  0.84494833087E+02  0.00000000000E+00 0. -1.
</event>
<event>
 7    1  0.5137842E-006  0.1106662E+03  0.7561462E-02  0.1259341E+00
         -1   -1    0    0    0  501 -0.00000000000E+00  0.00000000000E+00  0.60426255920E+02  0.60426255920E+02  0.00000000000E+00 0.  1.
          1   -1    0    0  501    0  0.00000000000E+00 -0.00000000000E+00 -0.31679667101E+03  0.31679667101E+03  0.00000000000E+00 0. -1.
         23    2    1    2    0    0 -0.11161006722E+02 -0.63714313148E+02 -0.19267515904E+03  0.22272199522E+03  0.91089453148E+02 0.  0.
          5    1    1    2  502    0 -0.51265664215E+02  0.50001180421E+02 -0.53849785948E+02  0.89697035723E+02  0.41800000000E+01 0. -1.
         -5    1    1    2    0  502  0.62426670937E+02  0.13713132727E+02 -0.98454701074E+01  0.64803895987E+02  0.41800000000E+01 0. -1.
        -11    1    3    3    0    0 -0.34093418005E+02 -0.39996115591E+02 -0.17977241687E+03  0.18729701621E+03  0.00000000000E+00 0. -1.
         11    1    3    3    0    0  0.22932411283E+02 -0.23718197557E+02 -0.12902742167E+02  0.35424979012E+02  0.00000000000E+00 0.  1.
</event>
<event>
 7    1  0.5137842E-006  0.1409023E+03  0.7561462E-02  0.1212120E+00
          4   -1    0    0  501    0  0.00000000000E+00  0.00000000000E+00  0.60112246497E+02  0.60112246497E+02  0.00000000000E+00 0. -1.
         -4   -1    0    0    0  501 -0.00000000000E+00 -0.00000000000E+00 -0.52168215812E+03  0.52168215812E+03  0.00000000000E+00 0.  1.
         23    2    1    2    0    0  0.58364754548E+02 -0.11096254284E+03 -0.11445575489E+03  0.19210874286E+03  0.89925073081E+02 0.  0.
          5    1    1    2  502    0 -0.72448686695E+02  0.11876088521E+03 -0.21232805685E+03  0.25387720690E+03  0.41800000000E+01 0. -1.
         -5    1    1    2    0  502  0.14083932146E+02 -0.77983423750E+01 -0.13478609988E+03  0.13580845485E+03  0.41800000000E+01 0. -1.
        -11    1    3    3    0    0  0.22811362755E+02 -0.31041605129E+02  0.10176866525E+02  0.39843545676E+02  0.00000000000E+00 0. -1.
         11    1    3    3    0    0  0.35553391793E+02 -0.79920937707E+02 -0.12463262142E+03  0.15226519718E+03  0.00000000000E+00 0.  1.
</event>
<event>
 7    1  0.5137842E-006  0.1055627E+03  0.7561462E-02  0.1269015E+00
         -2   -1    0    0    0  501 -0.00000000000E+00  0.00000000000E+00  0.11009200931E+03  0.11009200931E+03  0.00000000000E+00 0.  1.
          2   -1    0    0  501    0  0.00000000000E+00 -0.00000000000E+00 -0.11516355554E+03  0.11516355554E+03  0.00000000000E+00 0. -1.
         23    2    1    2    0    0  0.19412185465E+02 -0.30385166077E+02 -0.24025956677E+02  0.93692494442E+02  0.83071930630E+02 0.  0.
          5    1    1    2  502    0  0.32732656076E+01 -0.43476165394E+02  0.30436637232E+02  0.53336221379E+02  0.41800000000E+01 0.  1.
         -5    1    1    2    0  502 -0.22685451073E+02  0.73861331470E+02 -0.11482226793E+02  0.78226849029E+02  0.41800000000E+01 0.  1.
        -11    1    3    3    0    0 -0.29818252276E+02  0.37306061113E+01 -0.13217926230E+02  0.32829242522E+02  0.00000000000E+00 0. -1.
         11    1    3    3    0    0  0.49230437741E+02 -0.34115772188E+02 -0.10808030447E+02  0.60863251920E+02  0.00000000000E+00 0.  1.
</event>
<event>
 7    1  0.5137842E-006  0.1161924E+03  0.7561462E-02  0.1249514E+00
         -1   -1    0    0    0  501 -0.00000000000E+00  0.00000000000E+00  0.55553708563E+02  0.55553708563E+02  0.00000000000E+00 0.  1.
          1   -1    0    0  501    0  0.00000000000E+00 -0.00000000000E+00 -0.33776604008E+03  0.33776604008E+03  0.00000000000E+00 0. -1.
         23    2    1    2    0    0 -0.98250340327E+01 -0.82117905979E+02 -0.13528406057E+03  0.18337805722E+03  0.92118690005E+02 0.  0.
          5    1    1    2  502    0 -0.35791539200E+02  0.85144552098E+02 -0.13297930082E+03  0.16196171115E+03  0.41800000000E+01 0. -1.
         -5    1    1    2    0  502  0.45616573233E+02 -0.30266461187E+01 -0.13948970129E+02  0.47979980283E+02  0.41800000000E+01 0. -1.
        -11    1    3    3    0    0  0.15002403815E+02 -0.56045994676E+02 -0.18082742195E+02  0.60771796130E+02  0.00000000000E+00 0.  1.
         11    1    3    3    0    0 -0.24827437848E+02 -0.26071911303E+02 -0.11720131837E+03  0.12260626109E+03  0.00000000000E+00 0. -1.
</event>
<event>
 7    1  0.5137842E-006  0.1336481E+03  0.7561462E-02  0.1222141E+00
         -2   -1    0    0    0  501 -0.00000000000E+00  0.00000000000E+00  0.10621047403E+03  0.10621047403E+03  0.00000000000E+00 0.  1.
          2   -1    0    0  501    0  0.00000000000E+00 -0.00000000000E+00 -0.20953594470E+03  0.20953594470E+03  0.00000000000E+00 0. -1.
         23    2    1    2    0    0  0.44832068622E+02  0.86661105425E+02 -0.99106171365E+02  0.16492913811E+03  0.88653966777E+02 0.  0.
          5    1    1    2  502    0 -0.71995138996E+01  0.25161838215E+02 -0.17879198224E+02  0.31970130308E+02  0.41800000000E+01 0. -1.
         -5    1    1    2    0  502 -0.37632554722E+02 -0.11182294364E+03  0.13659898916E+02  0.11884715031E+03  0.41800000000E+01 0.  1.
        -11    1    3    3    0    0  0.65646844999E+02  0.60234134611E+02 -0.41647249031E+02  0.98347102563E+02  0.00000000000E+00 0.  1.
         11    1    3    3    0    0 -0.20814776377E+02  0.26426970814E+02 -0.57458922334E+02  0.66582035549E+02  0.00000000000E+00 0. -1.
</event>
<event>
 7    1  0.5137842E-006  0.1067566E+03  0.7561462E-02  0.1266697E+00
          1   -1    0    0  501    0  0.00000000000E+00  0.00000000000E+00  0.89972451078E+03  0.89972451078E+03  0.00000000000E+00 0. -1.
         -1   -1    0    0    0  501 -0.00000000000E+00 -0.00000000000E+00 -0.13538814215E+02  0.13538814215E+02  0.00000000000E+00 0.  1.
         23    2    1    2    0    0 -0.97070732714E+01 -0.18228464820E+02  0.37339369210E+03  0.38503557323E+03  0.91668092314E+02 0.  0.
          5    1    1    2  502    0 -0.51324082819E+02  0.36259163036E+02  0.25178615651E+03  0.25954311663E+03  0.41800000000E+01 0.  1.
         -5    1    1    2    0  502  0.61031156090E+02 -0.18030698216E+02  0.26100584796E+03  0.26868463514E+03  0.41800000000E+01 0.  1.
        -11    1    3    3    0    0 -0.26730120006E+02  0.27266115812E+02  0.94142420012E+02  0.10159102142E+03  0.00000000000E+00 0.  1.
         11    1    3    3    0    0  0.17023046735E+02 -0.45494580633E+02  0.27925127209E+03  0.28344455181E+03  0.00000000000E+00 0. -1.
</event>
<event>
 7    1  0.5137842E-006  0.9793114E+02  0.7561462E-02  0.1284708E+00
         -2   -1    0    0    0  501 -0.00000000000E+00  0.00000000000E+00  0.27162100713E+02  0.27162100713E+02  0.00000000000E+00 0.  1.
          2   -1    0    0  501    0  0.00000000000E+00 -0.00000000000E+00 -0.47061899007E+03  0.47061899007E+03  0.00000000000E+00 0. -1.
         23    2    1    2    0    0  0.17843213939E+02 -0.22930706615E+02 -0.22746872782E+03  0.24649912917E+03  0.90419029853E+02 0.  0.
          5    1    1    2  502    0  0.39258985633E+02 -0.74709121512E+00 -0.16891789361E+03  0.17347205331E+03  0.41800000000E+01 0.  1.
         -5    1    1    2    0  502 -0.57102199572E+02  0.23677797830E+02 -0.47070267925E+02  0.77809908293E+02  0.41800000000E+01 0.  1.
        -11    1    3    3    0    0 -0.21417174238E+02 -0.44670190056E+02 -0.10598214751E+03  0.11698861835E+03  0.00000000000E+00 0.  1.
         11    1    3    3    0    0  0.39260388177E+02  0.21739483441E+02 -0.12148658031E+03  0.12951051083E+03  0.00000000000E+00 0. -1.
</event>
<event>
 7    1  0.5137842E-006  0.9177320E+02  0.7561462E-02  0.1298614E+00
         -3   -1    0    0    0  501 -0.00000000000E+00  0.00000000000E+00  0.12234189724E+04  0.12234189724E+04  0.00000000000E+00 0.  1.
          3   -1    0    0  501    0  0.00000000000E+00 -0.00000000000E+00 -0.13308273454E+02  0.13308273454E+02  0.00000000000E+00 0. -1.
         23    2    1    2    0    0 -0.33542457373E+02 -0.47715106162E+02  0.33341721675E+03  0.34923587895E+03  0.86004830787E+02 0.  0.
          5    1    1    2  502    0  0.18712483386E+02  0.72070218446E+02  0.82453207935E+03  0.82789787758E+03  0.41800000000E+01 0. -1.
         -5    1    1    2    0  502  0.14829973987E+02 -0.24355112284E+02  0.52161402827E+02  0.59593489306E+02  0.41800000000E+01 0. -1.
        -11    1    3    3    0    0 -0.97336947505E+01 -0.54524295368E+02  0.31080619306E+03  0.31570260253E+03  0.00000000000E+00 0.  1.
         11    1    3    3    0    0 -0.23808762622E+02  0.68091892067E+01  0.22611023687E+02  0.33533276419E+02  0.00000000000E+00 0. -1.
</event>
<event>
 7    1  0.5137842E-006  0.1271028E+03  0.7561462E-02  0.1231819E+00
          2   -1    0    0  501    0  0.00000000000E+00  0.00000000000E+00  0.18408383806E+03  0.18408383806E+03  0.00000000000E+00 0. -1.
         -2   -1    0    0    0  501 -0.00000000000E+00 -0.00000000000E+00 -0.89327266381E+02  0.89327266381E+02  0.00000000000E+00 0.  1.
         23    2    1    2    0    0 -0.66443866772E+02 -0.45094765318E+01  0.38834038604E+02  0.12106471738E+03  0.93345918122E+02 0.  0.
          5    1    1    2  502    0  0.10183216177E+03 -0.11538767380E+02  0.42479844812E+02  0.11101775506E+03  0.41800000000E+01 0. -1.
         -5    1    1    2    0  502 -0.35388294997E+02  0.16048243912E+02  0.13442688263E+02  0.41328632002E+02  0.41800000000E+01 0. -1.
        -11    1    3    3    0    0 -0.76210658006E+02  0.25997588053E+02  0.37956336939E+02  0.89020348753E+02  0.00000000000E+00 0. -1.
         11    1    3    3    0    0  0.97667912337E+01 -0.30507064584E+02  0.87770166454E+00  0.32044368628E+02  0.00000000000E+00 0.  1.
</event>
<event>
 7    1  0.5137842E-006  0.8041479E+02  0.7561462E-02  0.1327878E+00
         -2   -1    0    0    0  501 -0.00000000000E+00  0.00000000000E+00  0.53688695609E+02  0.53688695609E+02  0.00000000000E+00 0.  1.
          2   -1    0    0  501    0  0.00000000000E+00 -0.00000000000E+00 -0.38307346358E+03  0.38307346358E+03  0.00000000000E+00 0. -1.
         23    2    1    2    0    0 -0.18446904998E+02 -0.59145317989E+02 -0.25256763836E+03  0.27743162672E+03  0.96640770956E+02 0.  0.
          5    1    1    2  502    0 -0.19022559226E+01  0.14448136788E+02 -0.10259406196E+03  0.10370815389E+03  0.41800000000E+01 0.  1.
         -5    1    1    2    0  502  0.20349160921E+02  0.44697181201E+02  0.25776932351E+02  0.55622378580E+02  0.41800000000E+01 0.  1.
        -11    1    3    3    0    0 -0.45675359072E+02 -0.23036292717E+02 -0.56508330827E+02  0.76224016304E+02  0.00000000000E+00 0.  1.
         11    1    3    3    0    0  0.27228454074E+02 -0.36109025271E+02 -0.19605930753E+03  0.20120761041E+03  0.00000000000E+00 0. -1.
</event>
<event>
 7    1  0.5137842E-006  0.8140729E+02  0.7561462E-02  0.1325105E+00
          2   -1    0    0  501    0  0.00000000000E+00  0.00000000000E+00  0.27576047613E+03  0.27576047613E+03  0.00000000000E+00 0. -1.
         -2   -1    0    0    0  501 -0.00000000000E+00 -0.00000000000E+00 -0.53137701926E+02  0.53137701926E+02  0.00000000000E+00 0.  1.
         23    2    1    2    0    0 -0.40378383917E+02 -0.68360548818E+01  0.14393391505E+03  0.17554689146E+03  0.91774689678E+02 0.  0.
          5    1    1    2  502    0  0.32813735122E+02  0.26755435220E+02  0.10845827771E+03  0.11650435585E+03  0.41800000000E+01 0. -1.
         -5    1    1    2    0  502  0.75646487949E+01 -0.19919380338E+02 -0.29769418559E+02  0.36846930751E+02  0.41800000000E+01 0. -1.
        -11    1    3    3    0    0 -0.68551683867E+02 -0.12856294587E+02  0.85036479548E+02  0.10998100075E+03  0.00000000000E+00 0. -1.
         11    1    3    3    0    0  0.28173299950E+02  0.60202397049E+01  0.58897435500E+02  0.65565890711E+02  0.00000000000E+00 0.  1.
</event>
<event>
 7    1  0.5137842E-006  0.8548362E+02  0.7561462E-02  0.1314173E+00
          2   -1    0    0  501    0  0.00000000000E+00  0.00000000000E+00  0.38002998033E+02  0.38002998033E+02  0.00000000000E+00 0. -1.
         -2   -1    0    0    0  501 -0.00000000000E+00 -0.00000000000E+00 -0.43534616182E+03  0.43534616182E+03  0.00000000000E+00 0.  1.
         23    2    1    2    0    0  0.60239236235E+02  0.28575358960E+02 -0.14230428980E+03  0.18156492435E+03  0.90939508115E+02 0.  0.
          5    1    1    2  502    0 -0.85293627764E+01 -0.13909146788E+02 -0.23289278951E+03  0.23350104539E+03  0.41800000000E+01 0.  1.
         -5    1    1    2    0  502 -0.51709873458E+02 -0.14666212173E+02 -0.22146084486E+02  0.58283190121E+02  0.41800000000E+01 0.  1.
        -11    1    3    3    0    0  0.77274529149E+02  0.15686287303E+02 -0.67583618307E+02  0.10385065203E+03  0.00000000000E+00 0. -1.
         11    1    3    3    0    0 -0.17035292915E+02  0.12889071657E+02 -0.74720671490E+02  0.77714272311E+02  0.00000000000E+00 0.  1.
</event>
<event>
 6    1  0.5137842E-006  0.1105880E+03  0.7561462E-02  0.1259485E+00
          2   -1    0    0  501    0  0.00000000000E+00  0.00000000000E+00  0.74047880941E+03  0.74047880941E+03  0.00000000000E+00 0. -1.
         -2   -1    0    0    0  501 -0.00000000000E+00 -0.00000000000E+00 -0.18339804143E+02  0.18339804143E+02  0.00000000000E+00 0.  1.
          5    1    1    2  502    0 -0.57278814771E+02  0.67689262581E+01  0.22873189211E+03  0.23592887032E+03  0.41800000000E+01 0. -1.
         -5    1    1    2    0  502  0.77380858437E+02  0.53939348212E+02  0.19850367000E+03  0.21981453532E+03  0.41800000000E+01 0.  1.
        -11    1    1    2    0    0 -0.14541740690E+02 -0.93876490712E+01  0.98048204119E+02  0.99564253165E+02  0.00000000000E+00 0.  1.
         11    1    1    2    0    0 -0.55603029760E+01 -0.51320625399E+02  0.19685523904E+03  0.20351095474E+03  0.00000000000E+00 0. -1.
</event>
<event>
 7    1  0.5137842E-006  0.1002175E+03  0.7561462E-02  0.1279839E+00
          2   -1    0    0  501    0  0.00000000000E+00  0.00000000000E+00  0.45960680259E+02  0.45960680259E+02  0.00000000000E+00 0. -1.
         -2   -1    0    0    0  501 -0.00000000000E+00 -0.00000000000E+00 -0.43093100566E+03  0.43093100566E+03  0.00000000000E+00 0.  1.
         23    2    1    2    0    0  0.64357468017E+02 -0.62508110671E+01 -0.80682236299E+02  0.14160054424E+03  0.96747788327E+02 0.  0.
          5    1    1    2  502    0 -0.84563491835E+02  0.33175384505E+02 -0.27764490749E+03  0.29215707649E+03  0.41800000000E+01 0. -1.
         -5    1    1    2    0  502  0.20206023818E+02 -0.26924573438E+02 -0.26643181613E+02  0.43134065190E+02  0.41800000000E+01 0. -1.
        -11    1    3    3    0    0  0.52474903173E+02 -0.21102143363E+02  0.21627103983E+01  0.56600293584E+02  0.00000000000E+00 0. -1.
         11    1    3    3    0    0  0.11882564844E+02  0.14851332296E+02 -0.82844946698E+02  0.85000250656E+02  0.00000000000E+00 0.  1.
</event>
<event>
 7    1  0.5137842E-006  0.2688377E+03  0.7561462E-02  0.1101947E+00
          1   -1    0    0  501    0  0.00000000000E+00  0.00000000000E+00  0.14997399736E+04  0.14997399736E+04  0.00000000000E+00 0. -1.
         -1   -1    0    0    0  501 -0.00000000000E+00 -0.00000000000E+00 -0.56549174260E+02  0.56549174260E+02  0.00000000000E+00 0.  1.
         23    2    1    2    0    0 -0.25108724117E+03 -0.88407809096E+02  0.82091407152E+03  0.86800399958E+03  0.93114376324E+02 0.  0.
          5    1    1    2  502    0  0.22030492845E+03  0.58458240100E+02  0.59514804112E+03  0.63731490692E+03  0.41800000000E+01 0.  1.
         -5    1    1    2    0  502  0.30782312729E+02  0.29949568996E+02  0.27128686648E+02  0.50970241310E+02  0.41800000000E+01 0.  1.
        -11    1    3    3    0    0 -0.59915304846E+02 -0.27430741696E+02  0.34953727879E+03  0.35569452991E+03  0.00000000000E+00 0. -1.
         11    1    3    3    0    0 -0.19117193633E+03 -0.60977067400E+02  0.47137679273E+03  0.51230946967E+03  0.00000000000E+00 0.  1.
</event>
<event>
 7    1  0.5137842E-006  0.8073155E+02  0.7561462E-02  0.1326988E+00
         -1   -1    0    0    0  501 -0.00000000000E+00  0.00000000000E+00  0.56176785098E+02  0.56176785098E+02  0.00000000000E+00 0.  1.
          1   -1    0    0  501    0  0.00000000000E+00 -0.00000000000E+00 -0.23264899572E+03  0.23264899572E+03  0.00000000000E+00 0. -1.
         23    2    1    2    0    0  0.75083707055E+01 -0.34686942560E+02 -0.12994399598E+03  0.16260849760E+03  0.91085244607E+02 0.  0.
          5    1    1    2  502    0 -0.30270926825E+02  0.28784124946E+02 -0.76880078836E+02  0.87594941530E+02  0.41800000000E+01 0. -1.
         -5    1    1    2    0  502  0.22762556120E+02  0.59028176138E+01  0.30351864199E+02  0.38622341685E+02  0.41800000000E+01 0.  1.
        -11    1    3    3    0    0  0.43358568656E+02  0.31531049698E+01 -0.42431982790E+02  0.60748503770E+02  0.00000000000E+00 0.  1.
         11    1    3    3    0    0 -0.35850197950E+02 -0.37840047529E+02 -0.87512013191E+02  0.10185999383E+03  0.00000000000E+00 0. -1.
</event>
<event>
 7    1  0.5137842E-006  0.1154577E+03  0.7561462E-02  0.1250784E+00
         -2   -1    0    0    0  501 -0.00000000000E+00  0.00000000000E+00  0.24150896694E+02  0.24150896694E+02  0.00000000000E+00 0.  1.
          2   -1    0    0  501    0  0.00000000000E+00 -0.00000000000E+00 -0.71194379071E+03  0.71194379071E+03  0.00000000000E+00 0. -1.
         23    2    1    2    0    0  0.57283230760E+02  0.13562343240E+02 -0.44128226070E+03  0.45346364817E+03  0.86220304598E+02 0.  0.
          5    1    1    2  502    0 -0.93801492520E+02 -0.44035000651E+01 -0.20973422558E+03  0.22983478542E+03  0.41800000000E+01 0. -1.
         -5    1    1    2    0  502  0.36518261761E+02 -0.91588431745E+01 -0.36776407749E+02  0.52796253818E+02  0.41800000000E+01 0. -1.
        -11    1    3    3    0    0  0.43067568751E+02 -0.30476844067E+02 -0.30523271685E+03  0.30975904335E+03  0.00000000000E+00 0.  1.
         11    1    3    3    0    0  0.14215662008E+02  0.44039187306E+02 -0.13604954385E+03  0.14370460482E+03  0.00000000000E+00 0. -1.
</event>
<event>
 7    1  0.5137842E-006  0.8484743E+02  0.7561462E-02  0.1315832E+00
         -2   -1    0    0    0  501 -0.00000000000E+00  0.00000000000E+00  0.71755374324E+02  0.71755374324E+02  0.00000000000E+00 0.  1.
          2   -1    0    0  501    0  0.00000000000E+00 -0.00000000000E+00 -0.20084842730E+03  0.20084842730E+03  0.00000000000E+00 0. -1.
         23    2    1    2    0    0  0.70099932870E+00  0.49715506122E+02 -0.69597733116E+02  0.12543344777E+03  0.91747383702E+02 0.  0.
          5    1    1    2  502    0 -0.34136433055E+02 -0.40441998096E+02  0.22788437349E+02  0.57772281836E+02  0.41800000000E+01 0. -1.
         -5    1    1    2    0  502  0.33435433726E+02 -0.92735080259E+01 -0.82283757206E+02  0.89398072013E+02  0.41800000000E+01 0. -1.
        -11    1    3    3    0    0  0.29989165322E+02  0.41570709713E+02 -0.19807478576E+01  0.51297147142E+02  0.00000000000E+00 0.  1.
         11    1    3    3    0    0 -0.29288165993E+02  0.81447964081E+01 -0.67616985258E+02  0.74136300630E+02  0.00000000000E+00 0. -1.
</event>
<event>
 7    1  0.5137842E-006  0.1176983E+03  0.7561462E-02  0.1246943E+00
         -2   -1    0    0    0  501 -0.00000000000E+00  0.00000000000E+00  0.10723551363E+03  0.10723551363E+03  0.00000000000E+00 0.  1.
          2   -1    0    0  501    0  0.00000000000E+00 -0.00000000000E+00 -0.19501141954E+03  0.19501141954E+03  0.00000000000E+00 0. -1.
         23    2    1    2    0    0 -0.92879109910E+02 -0.48155940831E+01 -0.40223824390E+02  0.13928257655E+03  0.95561294871E+02 0.  0.
          5    1    1    2  502    0 -0.87078801536E+00 -0.24058171796E+02 -0.59245118184E+02  0.64085960479E+02  0.41800000000E+01 0. -1.
         -5    1    1    2    0  502  0.93749897926E+02  0.28873765879E+02  0.11693036656E+02  0.98878396140E+02  0.41800000000E+01 0. -1.
        -11    1    3    3    0    0 -0.33178722487E+02  0.29086461520E+02  0.19543103191E+02  0.48257463173E+02  0.00000000000E+00 0.  1.
         11    1    3    3    0    0 -0.59700387423E+02 -0.33902055603E+02 -0.59766927581E+02  0.91025113376E+02  0.00000000000E+00 0. -1.
</event>
<event>
 7    1  0.5137842E-006  0.1047259E+03  0.7561462E-02  0.1270661E+00
          2   -1    0    0  501    0  0.00000000000E+00  0.00000000000E+00  0.47657267357E+03  0.47657267357E+03  0.00000000000E+00 0. -1.
         -2   -1    0    0    0  501 -0.00000000000E+00 -0.00000000000E+00 -0.27692797757E+02  0.27692797757E+02  0.00000000000E+00 0.  1.
         23    2    1    2    0    0  0.43439743506E+00 -0.74981868939E-01  0.27826405128E+03  0.29270481254E+03  0.90802151541E+02 0.  0.
          5    1    1    2  502    0  0.33521003870E+02 -0.52341867424E+02  0.91126601055E+02  0.11038504702E+03  0.41800000000E+01 0.  1.
         -5    1    1    2    0  502 -0.33955401305E+02  0.52416849293E+02  0.79489223476E+02  0.10117561177E+03  0.41800000000E+01 0.  1.
        -11    1    3    3    0    0  0.17649437083E+02 -0.38557222832E+02  0.19280641433E+03  0.19741447634E+03  0.00000000000E+00 0.  1.
         11    1    3    3    0    0 -0.17215039648E+02  0.38482240963E+02  0.85457636951E+02  0.95290336199E+02  0.00000000000E+00 0. -1.
</event>
<event>
 7    1  0.5137842E-006  0.1150968E+03  0.7561462E-02  0.1251412E+00
          1   -1    0    0  501    0  0.00000000000E+00  0.00000000000E+00  0.50855419298E+02  0.50855419298E+02  0.00000000000E+00 0.  1.
         -1   -1    0    0    0  501 -0.00000000000E+00 -0.00000000000E+00 -0.35482842956E+03  0.35482842956E+03  0.00000000000E+00 0. -1.
         23    2    1    2    0    0 -0.37410282722E+02  0.16915468079E+02 -0.32630005267E+02  0.10409045072E+03  0.89913527198E+02 0.  0.
          5    1    1    2  502    0  0.74928356079E+02 -0.42259207226E+02 -0.17338716254E+03  0.19359927602E+03  0.41800000000E+01 0.  1.
         -5    1    1    2    0  502 -0.37518073358E+02  0.25343739147E+02 -0.97955842459E+02  0.10799412213E+03  0.41800000000E+01 0.  1.
        -11    1    3    3    0    0  0.26749793606E+02 -0.10619646832E+02 -0.62324824746E+01  0.29447787601E+02  0.00000000000E+00 0.  1.
         11    1    3    3    0    0 -0.64160076327E+02  0.27535114911E+02 -0.26397522792E+02  0.74642663116E+02  0.00000000000E+00 0. -1.
</event>
<event>
 7    1  0.5137842E-006  0.1179247E+03  0.7561462E-02  0.1246560E+00
          1   -1    0    0  501    0  0.00000000000E+00  0.00000000000E+00  0.30493150238E+03  0.30493150238E+03  0.00000000000E+00 0. -1.
         -1   -1    0    0    0  501 -0.00000000000E+00 -0.00000000000E+00 -0.55948005122E+02  0.55948005122E+02  0.00000000000E+00 0.  1.
         23    2    1    2    0    0  0.13929601196E+00 -0.58639669516E+02  0.16827620660E+03  0.20088759234E+03  0.92737871464E+02 0.  0.
          5    1    1    2  502    0  0.39920233984E+01 -0.38502849302E+02  0.35481767772E+02  0.52676692183E+02  0.41800000000E+01 0. -1.
         -5    1    1    2    0  502 -0.41313194104E+01  0.97142518818E+02  0.45225522881E+02  0.10731522298E+03  0.41800000000E+01 0. -1.
        -11    1    3    3    0    0  0.36824557014E+02 -0.49665568096E+02  0.14200762880E+03  0.15488345067E+03  0.00000000000E+00 0. -1.
         11    1    3    3    0    0 -0.36685261002E+02 -0.89741014198E+01  0.26268577796E+02  0.46004141667E+02  0.00000000000E+00 0.  1.
</event>
<event>
 7    1  0.5137842E-006  0.1884875E+03  0.7561462E-02  0.1159833E+00
          2   -1    0    0  501    0  0.00000000000E+00  0.00000000000E+00  0.91897458139E+03  0.91897458139E+03  0.00000000000E+00 0. -1.
         -2   -1    0    0    0  501 -0.00000000000E+00 -0.00000000000E+00 -0.58441108654E+02  0.58441108654E+02  0.00000000000E+00 0.  1.
         23    2    1    2    0    0  0.18329326405E+03  0.39016513640E+02  0.58849000130E+03  0.62418027262E+03  0.90342803345E+02 0.  0.
          5    1    1    2  502    0 -0.15832883067E+02 -0.25322035261E+01  0.12870847177E+03  0.12977070296E+03  0.41800000000E+01 0.  1.
         -5    1    1    2    0  502 -0.16746038098E+03 -0.36484310113E+02  0.14333499967E+03  0.22346471447E+03  0.41800000000E+01 0.  1.
        -11    1    3    3    0    0  0.95484058543E+02  0.79177359220E+01  0.42819330429E+03  0.43878172457E+03  0.00000000000E+00 0.  1.
         11    1    3    3    0    0  0.87809205505E+02  0.31098777718E+02  0.16029669701E+03  0.18539854805E+03  0.00000000000E+00 0. -1.
</event>
<event>
 7    1  0.5137842E-006  0.2057839E+03  0.7561462E-02  0.1144949E+00
          1   -1    0    0  501    0  0.00000000000E+00  0.00000000000E+00  0.27939945510E+03  0.27939945510E+03  0.00000000000E+00 0. -1.
         -1   -1    0    0    0  501 -0.00000000000E+00 -0.00000000000E+00 -0.18151423162E+03  0.18151423162E+03  0.00000000000E+00 0.  1.
         23    2    1    2    0    0  0.19298487955E+03 -0.39200834044E+01  0.86436452587E+02  0.23061660976E+03  0.91946884529E+02 0.  0.
          5    1    1    2  502    0 -0.11476812085E+03 -0.45022723791E+02 -0.33150384656E+02  0.12773091883E+03  0.41800000000E+01 0.  1.
         -5    1    1    2    0  502 -0.78216758697E+02  0.48942807195E+02  0.44599155554E+02  0.10256615813E+03  0.41800000000E+01 0.  1.
        -11    1    3    3    0    0  0.38193559266E+02 -0.14131114970E+02  0.61108335912E+02  0.73434767635E+02  0.00000000000E+00 0.  1.
         11    1    3    3    0    0  0.15479132028E+03  0.10211031565E+02  0.25328116675E+02  0.15718184213E+03  0.00000000000E+00 0. -1.
</event>
<event>
 7    1  0.5137842E-006  0.1238709E+03  0.7561462E-02  0.1236844E+00
          1   -1    0    0  501    0  0.00000000000E+00  0.00000000000E+00  0.84122961042E+02  0.84122961042E+02  0.00000000000E+00 0. -1.
         -1   -1    0    0    0  501 -0.00000000000E+00 -0.00000000000E+00 -0.23532310821E+03  0.23532310821E+03  0.00000000000E+00 0.  1.
         23    2    1    2    0    0 -0.83713987024E+02 -0.11680611205E+02 -0.25850236241E+02  0.12955939578E+03  0.94725572157E+02 0.  0.
          5    1    1    2  502    0  0.10853663134E+03 -0.49672573657E+01 -0.11428021674E+03  0.15774128922E+03  0.41800000000E+01 0. -1.
         -5    1    1    2    0  502 -0.24822644316E+02  0.16647868571E+02 -0.11069694189E+02  0.32145384244E+02  0.41800000000E+01 0.  1.
        -11    1    3    3    0    0 -0.97188501323E+01  0.24578711685E+02 -0.37978307842E+02  0.46270087341E+02  0.00000000000E+00 0.  1.
         11    1    3    3    0    0 -0.73995136892E+02 -0.36259322890E+02  0.12128071601E+02  0.83289308442E+02  0.00000000000E+00 0. -1.
</event>
<event>
 7    1  0.5137842E-006  0.2560200E+03  0.7561462E-02  0.1109558E+00
         -1   -1    0    0    0  501 -0.00000000000E+00  0.00000000000E+00  0.68351023668E+03  0.68351023668E+03  0.00000000000E+00 0.  1.
          1   -1    0    0  501    0  0.00000000000E+00 -0.00000000000E+00 -0.11111427960E+03  0.11111427960E+03  0.00000000000E+00 0. -1.
         23    2    1    2    0    0  0.56277177660E+02  0.23351519582E+03  0.16378437272E+03  0.30441328338E+03  0.90253304379E+02 0.  0.
          5    1    1    2  502    0 -0.39560015979E+02 -0.17529564463E+02  0.13118170218E+03  0.13819693152E+03  0.41800000000E+01 0. -1.
         -5    1    1    2    0  502 -0.16717161681E+02 -0.21598563136E+03  0.27742988219E+03  0.35201430138E+03  0.41800000000E+01 0. -1.
        -11    1    3    3    0    0  0.31331599737E+02  0.22238420855E+03  0.12514922901E+03  0.25709674226E+03  0.00000000000E+00 0.  1.
         11    1    3    3    0    0  0.24945577923E+02  0.11130987265E+02  0.38635143702E+02  0.47316541127E+02  0.00000000000E+00 0. -1.
</event>
<event>
 7    1  0.5137842E-006  0.1867115E+03  0.7561462E-02  0.1161461E+00
         -1   -1    0    0    0  501 -0.00000000000E+00  0.00000000000E+00  0.22326099935E+03  0.22326099935E+03  0.00000000000E+00 0.  1.
          1   -1    0    0  501    0  0.00000000000E+00 -0.00000000000E+00 -0.23157097356E+03  0.23157097356E+03  0.00000000000E+00 0. -1.
         23    2    1    2    0    0 -0.45599161527E+02  0.15755312911E+03 -0.11659384148E+03  0.22186124738E+03  0.93413153205E+02 0.  0.
          5    1    1    2  502    0  0.84472829570E+02 -0.98035018250E+02  0.43184454775E+02  0.13648770374E+03  0.41800000000E+01 0.  1.
         -5    1    1    2    0  502 -0.38873668043E+02 -0.59518110857E+02  0.65099412501E+02  0.96483021797E+02  0.41800000000E+01 0.  1.
        -11    1    3    3    0    0 -0.53829130279E+02  0.91403898816E+02 -0.25702342707E+02  0.10914604164E+03  0.00000000000E+00 0.  1.
         11    1    3    3    0    0  0.82299687515E+01  0.66149230291E+02 -0.90891498777E+02  0.11271520573E+03  0.00000000000E+00 0. -1.
</event>
<event>
 7    1  0.5137842E-006  0.1095362E+03  0.7561462E-02  0.1261431E+00
          1   -1    0    0  501    0  0.00000000000E+00  0.00000000000E+00  0.49110055351E+02  0.49110055351E+02  0.00000000000E+00 0. -1.
         -1   -1    0    0    0  501 -0.00000000000E+00 -0.00000000000E+00 -0.29055238638E+03  0.29055238638E+03  0.00000000000E+00 0.  1.
         23    2    1    2    0    0 -0.26867527862E+02  0.55260107326E+01 -0.36797195122E+02  0.98250913901E+02  0.86872364221E+02 0.  0.
          5    1    1    2  502    0  0.20493251888E+02 -0.64869682449E+02 -0.10491152146E+03  0.12510774880E+03  0.41800000000E+01 0.  1.
         -5    1    1    2    0  502  0.63742759739E+01  0.59343671716E+02 -0.99733614448E+02  0.11630377903E+03  0.41800000000E+01 0.  1.
        -11    1    3    3    0    0  0.27381907944E+02  0.21183432161E+02 -0.14902981219E+02  0.37690921055E+02  0.00000000000E+00 0. -1.
         11    1    3    3    0    0 -0.54249435805E+02 -0.15657421429E+02 -0.21894213903E+02  0.60559992845E+02  0.00000000000E+00 0.  1.
</event>
<event>
 7    1  0.5137842E-006  0.1081754E+03  0.7561462E-02  0.1263987E+00
         -2   -1    0    0    0  501 -0.00000000000E+00  0.00000000000E+00  0.30022661360E+03  0.30022661360E+03  0.00000000000E+00 0.  1.
          2   -1    0    0  501    0  0.00000000000E+00 -0.00000000000E+00 -0.42872853713E+02  0.42872853713E+02  0.00000000000E+00 0. -1.
         23    2    1    2    0    0  0.15179756785E+02  0.21184690311E+02  0.10619052919E+03  0.14515613680E+03  0.95470725560E+02 0.  0.
          5    1    1    2  502    0  0.17672418903E+02 -0.62637128285E+02  0.44923002145E+02  0.79191367909E+02  0.41800000000E+01 0. -1.
         -5    1    1    2    0  502 -0.32852175688E+02  0.41452437974E+02  0.10624022854E+03  0.11875196260E+03  0.41800000000E+01 0. -1.
        -11    1    3    3    0    0 -0.40002530012E+02  0.14231678333E+02  0.36490449816E+02  0.55984783676E+02  0.00000000000E+00 0.  1.
         11    1    3    3    0    0  0.55182286797E+02  0.69530119782E+01  0.69700079378E+02  0.89171353119E+02  0.00000000000E+00 0. -1.
</event>
<event>
 7    1  0.5137842E-006  0.1284893E+03  0.7561462E-02  0.1229715E+00
          2   -1    0    0  501    0  0.00000000000E+00  0.00000000000E+00  0.28741287570E+03  0.28741287570E+03  0.00000000000E+00 0. -1.
         -2   -1    0    0    0  501 -0.00000000000E+00 -0.00000000000E+00 -0.78370862618E+02  0.78370862618E+02  0.00000000000E+00 0.  1.
         23    2    1    2    0    0  0.84671212444E+02 -0.48723463745E+02  0.14223077917E+03  0.19357920382E+03  0.87750347419E+02 0.  0.
          5    1    1    2  502    0 -0.38793304227E+02  0.78462731203E+02  0.76738438142E+02  0.11647995935E+03  0.41800000000E+01 0.  1.
         -5    1    1    2    0  502 -0.45877908217E+02 -0.29739267458E+02 -0.99272042367E+01  0.55724575146E+02  0.41800000000E+01 0.  1.
        -11    1    3    3    0    0 -0.84856846914E+01 -0.11282094725E+02  0.66069670771E+02  0.67561038342E+02  0.00000000000E+00 0. -1.
         11    1    3    3    0    0  0.93156897135E+02 -0.37441369020E+02  0.76161108402E+02  0.12601816548E+03  0.00000000000E+00 0.  1.
</event>
<event>
 7    1  0.5137842E-006  0.9702600E+02  0.7561462E-02  0.1286677E+00
          1   -1    0    0  501    0  0.00000000000E+00  0.00000000000E+00  0.26668289549E+03  0.26668289549E+03  0.00000000000E+00 0. -1.
         -1   -1    0    0    0  501 -0.00000000000E+00 -0.00000000000E+00 -0.45938209813E+02  0.45938209813E+02  0.00000000000E+00 0.  1.
         23    2    1    2    0    0 -0.54693047531E+01 -0.16459755987E+02  0.89920711480E+02  0.13078864693E+03  0.93376115521E+02 0.  0.
          5    1    1    2  502    0 -0.49488992572E+02  0.16334874451E+01  0.13707101832E+02  0.51547897218E+02  0.41800000000E+01 0. -1.
         -5    1    1    2    0  502  0.54958297325E+02  0.14826268542E+02  0.11711687237E+03  0.13028456116E+03  0.41800000000E+01 0. -1.
        -11    1    3    3    0    0 -0.45563568928E+02 -0.10380861345E+02  0.73371092377E+02  0.86989184916E+02  0.00000000000E+00 0. -1.
         11    1    3    3    0    0  0.40094264175E+02 -0.60788946420E+01  0.16549619103E+02  0.43799462009E+02  0.00000000000E+00 0.  1.
</event>
<event>
 7    1  0.5137842E-006  0.1187141E+03  0.7561462E-02  0.1245234E+00
          1   -1    0    0  501    0  0.00000000000E+00  0.00000000000E+00  0.24796884875E+03  0.24796884875E+03  0.00000000000E+00 0. -1.
         -1   -1    0    0    0  501 -0.00000000000E+00 -0.00000000000E+00 -0.97521544366E+02  0.97521544366E+02  0.00000000000E+00 0.  1.
         23    2    1    2    0    0  0.41535094996E+02 -0.63102869560E+02  0.16032551696E+03  0.19902506843E+03  0.90551478247E+02 0.  0.
          5    1    1    2  502    0  0.21300352685E+02  0.76159472698E+02  0.83154928657E+01  0.79627822573E+02  0.41800000000E+01 0.  1.
         -5    1    1    2    0  502 -0.62835447682E+02 -0.13056603139E+02 -0.18193705441E+02  0.66837502112E+02  0.41800000000E+01 0.  1.
        -11    1    3    3    0    0  0.35733247123E+02 -0.56500778643E+01  0.93247085870E+01  0.37359584046E+02  0.00000000000E+00 0.  1.
         11    1    3    3    0    0  0.58018478733E+01 -0.57452791695E+02  0.15100080838E+03  0.16166548439E+03  0.00000000000E+00 0. -1.
</event>
<event>
 7    1  0.5137842E-006  0.1182858E+03  0.7561462E-02  0.1245952E+00
         -3   -1    0    0    0  501 -0.00000000000E+00  0.00000000000E+00  0.21141651917E+03  0.21141651917E+03  0.00000000000E+00 0. -1.
          3   -1    0    0  501    0  0.00000000000E+00 -0.00000000000E+00 -0.76771442605E+02  0.76771442605E+02  0.00000000000E+00 0.  1.
         23    2    1    2    0    0 -0.65415514396E+02 -0.65353324889E+00  0.48271296367E+02  0.12269646888E+03  0.91894987861E+02 0.  0.
          5    1    1    2  502    0  0.90175571174E+02  0.28058928753E+02  0.86772788262E+02  0.12831962555E+03  0.41800000000E+01 0.  1.
         -5    1    1    2    0  502 -0.24760056777E+02 -0.27405395504E+02 -0.39900806106E+00  0.37171867343E+02  0.41800000000E+01 0.  1.
        -11    1    3    3    0    0 -0.77014149057E+02  0.21417008063E+02  0.54807562354E+02  0.96921289099E+02  0.00000000000E+00 0. -1.
         11    1    3    3    0    0  0.11598634661E+02 -0.22070541312E+02 -0.65362659871E+01  0.25775179784E+02  0.00000000000E+00 0.  1.
</event>
<event>
 7    1  0.5137842E-006  0.1210788E+03  0.7561462E-02  0.1241328E+00
          3   -1    0    0  501    0  0.00000000000E+00  0.00000000000E+00  0.11229116295E+03  0.11229116295E+03  0.00000000000E+00 0. -1.
         -3   -1    0    0    0  501 -0.00000000000E+00 -0.00000000000E+00 -0.16056342084E+03  0.16056342084E+03  0.00000000000E+00 0.  1.
         23    2    1    2    0    0  0.44706486079E+02  0.62909089211E+02 -0.94020771323E+01  0.12081969258E+03  0.92481217865E+02 0.  0.
          5    1    1    2  502    0 -0.73375829839E+01  0.35865750303E+02  0.57859894638E+01  0.37298019290E+02  0.41800000000E+01 0. -1.
         -5    1    1    2    0  502 -0.37368903095E+02 -0.98774839514E+02 -0.44656170218E+02  0.11473687192E+03  0.41800000000E+01 0. -1.
        -11    1    3    3    0    0  0.40306706276E+02  0.39520188414E+01 -0.37649781161E+02  0.55296971393E+02  0.00000000000E+00 0.  1.
         11    1    3    3    0    0  0.43997798032E+01  0.58957070370E+02  0.28247704028E+02  0.65522721187E+02  0.00000000000E+00 0. -1.
</event>
<event>
 7    1  0.5137842E-006  0.1181691E+03  0.7561462E-02  0.1246148E+00
         -2   -1    0    0    0  501 -0.00000000000E+00  0.00000000000E+00  0.58621209053E+02  0.58621209053E+02  0.00000000000E+00 0.  1.
          2   -1    0    0  501    0  0.00000000000E+00 -0.00000000000E+00 -0.35060244290E+03  0.35060244290E+03  0.00000000000E+00 0. -1.
         23    2    1    2    0    0  0.32838131716E+02  0.68625962030E+02 -0.20805181343E+03  0.24046445561E+03  0.93540000967E+02 0.  0.
          5    1    1    2  502    0 -0.70488049880E+02 -0.55149835692E+02 -0.91259100418E+02  0.12788966089E+03  0.41800000000E+01 0.  1.
         -5    1    1    2    0  502  0.37649918165E+02 -0.13476126338E+02  0.73296800078E+01  0.40869535450E+02  0.41800000000E+01 0.  1.
        -11    1    3    3    0    0 -0.69178679447E+01  0.66354157779E+02 -0.17941164866E+03  0.19141387313E+03  0.00000000000E+00 0. -1.
         11    1    3    3    0    0  0.39755999660E+02  0.22718042512E+01 -0.28640164770E+02  0.49050582480E+02  0.00000000000E+00 0.  1.
</event>
<event>
 7    1  0.5137842E-006  0.1508206E+03  0.7561462E-02  0.1199468E+00
         -3   -1    0    0    0  501 -0.00000000000E+00  0.00000000000E+00  0.73216627347E+02  0.73216627347E+02  0.00000000000E+00 0.  1.
          3   -1    0    0  501    0  0.00000000000E+00 -0.00000000000E+00 -0.32692858537E+03  0.32692858537E+03  0.00000000000E+00 0. -1.
         23    2    1    2    0    0  0.96871383318E+02 -0.55207043810E+02 -0.13587683231E+03  0.19529240816E+03  0.85115971103E+02 0.  0.
          5    1    1    2  502    0 -0.29184413007E+02  0.86303898305E+02 -0.79437453514E+02  0.12094574919E+03  0.41800000000E+01 0. -1.
         -5    1    1    2    0  502 -0.67686970311E+02 -0.31096854496E+02 -0.38397672199E+02  0.83907055363E+02  0.41800000000E+01 0. -1.
        -11    1    3    3    0    0  0.28841452861E+02 -0.61084970876E+02 -0.91963748247E+02  0.11410755480E+03  0.00000000000E+00 0. -1.
         11    1    3    3    0    0  0.68029930458E+02  0.58779270666E+01 -0.43913084060E+02  0.81184853368E+02  0.00000000000E+00 0.  1.
</event>
<event>
 7    1  0.5137842E-006  0.7390510E+02  0.7561462E-02  0.1347295E+00
         -2   -1    0    0    0  501 -0.00000000000E+00  0.00000000000E+00  0.20614177553E+02  0.20614177553E+02  0.00000000000E+00 0.  1.
          2   -1    0    0  501    0  0.00000000000E+00 -0.00000000000E+00 -0.69983773348E+03  0.69983773348E+03  0.00000000000E+00 0. -1.
         23    2    1    2    0    0 -0.16703882847E+02  0.39064708642E+02 -0.37942394442E+03  0.39283327603E+03  0.92468275631E+02 0.  0.
          5    1    1    2  502    0  0.18030072476E+02 -0.14070013797E+01  0.59773291653E+01  0.19500359749E+02  0.41800000000E+01 0.  1.
         -5    1    1    2    0  502 -0.13261896289E+01 -0.37657707262E+02 -0.30577694068E+03  0.30811827525E+03  0.41800000000E+01 0.  1.
        -11    1    3    3    0    0 -0.54238645480E+01 -0.25359008244E+02 -0.43843264604E+02  0.50938486991E+02  0.00000000000E+00 0.  1.
         11    1    3    3    0    0 -0.11280018299E+02  0.64423716887E+02 -0.33558067981E+03  0.34189478904E+03  0.00000000000E+00 0. -1.
</event>
<event>
 7    1  0.5137842E-006  0.1059877E+03  0.7561462E-02  0.1268186E+00
         -4   -1    0    0    0  501 -0.00000000000E+00  0.00000000000E+00  0.21340276081E+03  0.21340276081E+03  0.00000000000E+00 0. -1.
          4   -1    0    0  501    0  0.00000000000E+00 -0.00000000000E+00 -0.67342434542E+02  0.67342434542E+02  0.00000000000E+00 0.  1.
         23    2    1    2    0    0  0.24004966452E+02 -0.19966017738E+02  0.16903502494E+02  0.98251351442E+02  0.91611786278E+02 0.  0.
          5    1    1    2  502    0 -0.33898170319E+02  0.63303909205E+02  0.11502137192E+03  0.13566082437E+03  0.41800000000E+01 0.  1.
         -5    1    1    2    0  502  0.98932038673E+01 -0.43337891468E+02  0.14135451857E+02  0.46833019536E+02  0.41800000000E+01 0.  1.
        -11    1    3    3    0    0  0.21410848963E+02 -0.55645632639E+02  0.18544188335E+02  0.62439953604E+02  0.00000000000E+00 0. -1.
         11    1    3    3    0    0  0.25941174895E+01  0.35679614902E+02 -0.16406858413E+01  0.35811397838E+02  0.00000000000E+00 0.  1.
</event>
<event>
 7    1  0.5137842E-006  0.1129815E+03  0.7561462E-02  0.1255146E+00
          1   -1    0    0  501    0  0.00000000000E+00  0.00000000000E+00  0.44964914822E+02  0.44964914822E+02  0.00000000000E+00 0. -1.
         -1   -1    0    0    0  501 -0.00000000000E+00 -0.00000000000E+00 -0.29173691809E+03  0.29173691809E+03  0.00000000000E+00 0.  1.
         23    2    1    2    0    0 -0.14011793026E+02  0.34633511700E+02 -0.10318102147E+03  0.14263246363E+03  0.91114686041E+02 0.  0.
          5    1    1    2  502    0 -0.54193147936E+02 -0.16136645875E+02 -0.85003477616E+02  0.10217804182E+03  0.41800000000E+01 0. -1.
         -5    1    1    2    0  502  0.68204940962E+02 -0.18496865825E+02 -0.58587504185E+02  0.91891327467E+02  0.41800000000E+01 0. -1.
        -11    1    3    3    0    0  0.37456535221E+02  0.27596840631E+02 -0.49448646661E+02  0.67895112491E+02  0.00000000000E+00 0.  1.
         11    1    3    3    0    0 -0.51468328247E+02  0.70366710690E+01 -0.53732374808E+02  0.74737351135E+02  0.00000000000E+00 0. -1.
</event>
<event>
 7    1  0.5137842E-006  0.1068267E+03  0.7561462E-02  0.1266562E+00
         -2   -1    0    0    0  501 -0.00000000000E+00  0.00000000000E+00  0.31983872970E+03  0.31983872970E+03  0.00000000000E+00 0. -1.
          2   -1    0    0  501    0  0.00000000000E+00 -0.00000000000E+00 -0.50734602910E+02  0.50734602910E+02  0.00000000000E+00 0.  1.
         23    2    1    2    0    0 -0.56521551363E+01  0.29768338198E+02  0.34656890732E+02  0.10312945885E+03  0.92284800434E+02 0.  0.
          5    1    1    2  502    0  0.29369979211E+02  0.39703539235E+02  0.13467201500E+03  0.14350258092E+03  0.41800000000E+01 0.  1.
         -5    1    1    2    0  502 -0.23717824075E+02 -0.69471877434E+02  0.99775221054E+02  0.12394129283E+03  0.41800000000E+01 0.  1.
        -11    1    3    3    0    0  0.26386697942E+02  0.47210509907E+02  0.19250845947E+01  0.54118352013E+02  0.00000000000E+00 0.  1.
         11    1    3    3    0    0 -0.32038853079E+02 -0.17442171708E+02  0.32731806137E+02  0.49011106838E+02  0.00000000000E+00 0. -1.
</event>
<event>
 7    1  0.5137842E-006  0.1519890E+03  0.7561462E-02  0.1198050E+00
         -1   -1    0    0    0  501 -0.00000000000E+00  0.00000000000E+00  0.48790410088E+02  0.48790410088E+02  0.00000000000E+00 0.  1.
          1   -1    0    0  501    0  0.00000000000E+00 -0.00000000000E+00 -0.70673131669E+03  0.70673131669E+03  0.00000000000E+00 0. -1.
         23    2    1    2    0    0  0.69838988513E+02 -0.12386807013E+03 -0.41096271090E+03  0.44428699033E+03  0.90993389362E+02 0.  0.
          5    1    1    2  502    0  0.10630500920E+02  0.51901221546E+02 -0.14822678348E+02  0.55171809297E+02  0.41800000000E+01 0.  1.
         -5    1    1    2    0  502 -0.80469489433E+02  0.71966848586E+02 -0.23215551735E+03  0.25606292715E+03  0.41800000000E+01 0.  1.
        -11    1    3    3    0    0  0.18831897301E+02 -0.22670739046E+02 -0.16306566747E+02  0.33682441775E+02  0.00000000000E+00 0.  1.
         11    1    3    3    0    0  0.51007091212E+02 -0.10119733109E+03 -0.39465614416E+03  0.41060454855E+03  0.00000000000E+00 0. -1.
</event>
<event>
 7    1  0.5137842E-006  0.1048883E+03  0.7561462E-02  0.1270340E+00
          1   -1    0    0  501    0  0.00000000000E+00  0.00000000000E+00  0.32267703877E+02  0.32267703877E+02  0.00000000000E+00 0. -1.
         -1   -1    0    0    0  501 -0.00000000000E+00 -0.00000000000E+00 -0.49610783009E+03  0.49610783009E+03  0.00000000000E+00 0.  1.
         23    2    1    2    0    0 -0.10348981186E+02  0.50516342414E+02 -0.12090865859E+03  0.16040776048E+03  0.91938803778E+02 0.  0.
          5    1    1    2  502    0 -0.36571788305E+02  0.50287051009E+00 -0.30188829415E+02  0.47608679881E+02  0.41800000000E+01 0. -1.
         -5    1    1    2    0  502  0.46920769491E+02 -0.51019212924E+02 -0.31274263821E+03  0.32035909360E+03  0.41800000000E+01 0.  1.
        -11    1    3    3    0    0 -0.33916856516E+02 -0.12575193791E+02 -0.28453602573E+02  0.46022778645E+02  0.00000000000E+00 0.  1.
         11    1    3    3    0    0  0.23567875330E+02  0.63091536205E+02 -0.92455056012E+02  0.11438498184E+03  0.00000000000E+00 0. -1.
</event>
<event>
 7    1  0.5137842E-006  0.8699789E+02  0.7561462E-02  0.1310289E+00
          3   -1    0    0  501    0  0.00000000000E+00  0.00000000000E+00  0.18346332377E+03  0.18346332377E+03  0.00000000000E+00 0. -1.
         -3   -1    0    0    0  501 -0.00000000000E+00 -0.00000000000E+00 -0.68785365393E+02  0.68785365393E+02  0.00000000000E+00 0.  1.
         23    2    1    2    0    0 -0.23040351365E+02 -0.11191374215E+02  0.66728740668E+02  0.11585326920E+03  0.91176480005E+02 0.  0.
          5    1    1    2  502    0  0.69498907974E+02  0.94859454282E+01  0.11206865934E+01  0.70276665464E+02  0.41800000000E+01 0. -1.
         -5    1    1    2    0  502 -0.46458556609E+02  0.17054287870E+01  0.46828531119E+02  0.66118754497E+02  0.41800000000E+01 0. -1.
        -11    1    3    3    0    0  0.15805582464E+02 -0.88956480619E+01 -0.16155378451E+02  0.24288788450E+02  0.00000000000E+00 0.  1.
         11    1    3    3    0    0 -0.38845933829E+02 -0.22957261533E+01  0.82884119119E+02  0.91564480754E+02  0.00000000000E+00 0. -1.
</event>
<event>
 7    1  0.5137842E-006  0.1342708E+03  0.7561462E-02  0.1221253E+00
         -1   -1    0    0    0  501 -0.00000000000E+00  0.00000000000E+00  0.12118026772E+03  0.12118026772E+03  0.00000000000E+00 0.  1.
          1   -1    0    0  501    0  0.00000000000E+00 -0.00000000000E+00 -0.23475043773E+03  0.23475043773E+03  0.00000000000E+00 0. -1.
         23    2    1    2    0    0 -0.10247897929E+03 -0.73511211941E+02 -0.23307577237E+02  0.15667986593E+03  0.89997209701E+02 0.  0.
          5    1    1    2  502    0  0.19653758382E+02  0.44967964976E+02  0.24339831847E+02  0.54938947086E+02  0.41800000000E+01 0.  1.
         -5    1    1    2    0  502  0.82825220911E+02  0.28543246966E+02 -0.11460242463E+03  0.14431189243E+03  0.41800000000E+01 0.  1.
        -11    1    3    3    0    0 -0.39248270308E+02 -0.71003964097E+01 -0.47322773606E+02  0.61889314532E+02  0.00000000000E+00 0.  1.
         11    1    3    3    0    0 -0.63230708984E+02 -0.66410815532E+02  0.24015196370E+02  0.94790551401E+02  0.00000000000E+00 0. -1.
</event>
<event>
 7    1  0.5137842E-006  0.8971045E+02  0.7561462E-02  0.1303554E+00
         -3   -1    0    0    0  501 -0.00000000000E+00  0.00000000000E+00  0.77790589996E+02  0.77790589996E+02  0.00000000000E+00 0.  1.
          3   -1    0    0  501    0  0.00000000000E+00 -0.00000000000E+00 -0.16300596575E+03  0.16300596575E+03  0.00000000000E+00 0. -1.
         23    2    1    2    0    0 -0.86799848814E+01  0.15054216252E+01 -0.66934528196E+02  0.11407229881E+03  0.91949169976E+02 0.  0.
          5    1    1    2  502    0 -0.21126321939E+02 -0.57657474552E+02 -0.11983889154E+02  0.62704001863E+02  0.41800000000E+01 0. -1.
         -5    1    1    2    0  502  0.29806306820E+02  0.56152052927E+02 -0.62969584017E+01  0.64020255070E+02  0.41800000000E+01 0. -1.
        -11    1    3    3    0    0  0.21214115670E+02 -0.81835832543E+01  0.14375412227E+02  0.26900970526E+02  0.00000000000E+00 0.  1.
         11    1    3    3    0    0 -0.29894100551E+02  0.96890048795E+01 -0.81309940423E+02  0.87171328285E+02  0.00000000000E+00 0. -1.
</event>
<event>
 7    1  0.5137842E-006  0.1878634E+03  0.7561462E-02  0.1160403E+00
          2   -1    0    0  501    0  0.00000000000E+00  0.00000000000E+00  0.10049187290E+04  0.10049187290E+04  0.00000000000E+00 0. -1.
         -2   -1    0    0    0  501 -0.00000000000E+00 -0.00000000000E+00 -0.46471822411E+02  0.46471822411E+02  0.00000000000E+00 0.  1.
         23    2    1    2    0    0  0.17721994799E+03 -0.42617153968E+01  0.60337539000E+03  0.63528159874E+03  0.89976531726E+02 0.  0.
          5    1    1    2  502    0 -0.13900095144E+03  0.83249936660E+01  0.35050881096E+03  0.37717962430E+03  0.41800000000E+01 0.  1.
         -5    1    1    2    0  502 -0.38218996547E+02 -0.40632782692E+01  0.45627056649E+01  0.38929328409E+02  0.41800000000E+01 0.  1.
        -11    1    3    3    0    0  0.66261454851E+02 -0.44395697144E+02  0.21204528824E+03  0.22654969121E+03  0.00000000000E+00 0.  1.
         11    1    3    3    0    0  0.11095849314E+03  0.40133981747E+02  0.39133010176E+03  0.40873190753E+03  0.00000000000E+00 0. -1.
</event>
<event>
 7    1  0.5137842E-006  0.1034782E+03  0.7561462E-02  0.1273147E+00
          1   -1    0    0  501    0  0.00000000000E+00  0.00000000000E+00  0.38826964217E+02  0.38826964217E+02  0.00000000000E+00 0. -1.
         -1   -1    0    0    0  501 -0.00000000000E+00 -0.00000000000E+00 -0.34722930344E+03  0.34722930344E+03  0.00000000000E+00 0.  1.
         23    2    1    2    0    0  0.10730701217E+02 -0.13245667947E+02 -0.72478094201E+02  0.11848893886E+03  0.92173525615E+02 0.  0.
          5    1    1    2  502    0 -0.56694774058E+02  0.41913237965E+02 -0.11433790897E+03  0.13439362615E+03  0.41800000000E+01 0.  1.
         -5    1    1    2    0  502  0.45964072841E+02 -0.28667570018E+02 -0.12158633605E+03  0.13317370265E+03  0.41800000000E+01 0.  1.
        -11    1    3    3    0    0 -0.22423930764E+02  0.23514091847E+02 -0.58719623915E+02  0.67109905521E+02  0.00000000000E+00 0.  1.
         11    1    3    3    0    0  0.33154631981E+02 -0.36759759794E+02 -0.13758470287E+02  0.51379033336E+02  0.00000000000E+00 0. -1.
</event>
<event>
 7    1  0.5137842E-006  0.8263411E+02  0.7561462E-02  0.1321738E+00
         -2   -1    0    0    0  501 -0.00000000000E+00  0.00000000000E+00  0.43445463282E+02  0.43445463282E+02  0.00000000000E+00 0. -1.
          2   -1    0    0  501    0  0.00000000000E+00 -0.00000000000E+00 -0.37438973052E+03  0.37438973052E+03  0.00000000000E+00 0.  1.
         23    2    1    2    0    0  0.16864254374E+02 -0.46198112845E+01 -0.25134312491E+03  0.26854111952E+03  0.92925888224E+02 0.  0.
          5    1    1    2  502    0 -0.40974147654E+02  0.28441356469E+02  0.12053978227E+02  0.51483612197E+02  0.41800000000E+01 0. -1.
         -5    1    1    2    0  502  0.24109893280E+02 -0.23821545185E+02 -0.91655120553E+02  0.97810462081E+02  0.41800000000E+01 0. -1.
        -11    1    3    3    0    0 -0.28920644257E+02  0.13384774029E+02 -0.17387415164E+03  0.17677040603E+03  0.00000000000E+00 0.  1.
         11    1    3    3    0    0  0.45784898631E+02 -0.18004585313E+02 -0.77468973276E+02  0.91770713495E+02  0.00000000000E+00 0. -1.
</event>
<event>
 7    1  0.5137842E-006  0.1016915E+03  0.7561462E-02  0.1276779E+00
         -1   -1    0    0    0  501 -0.00000000000E+00  0.00000000000E+00  0.53295971406E+02  0.53295971406E+02  0.00000000000E+00 0.  1.
          1   -1    0    0  501    0  0.00000000000E+00 -0.00000000000E+00 -0.22246313794E+03  0.22246313794E+03  0.00000000000E+00 0. -1.
         23    2    1    2    0    0  0.31368922037E+01 -0.16300728263E+02 -0.99985064601E+02  0.13185380194E+03  0.84337762049E+02 0.  0.
          5    1    1    2  502    0 -0.20309403573E+02  0.64423588653E+02 -0.15013096232E+02  0.69323416728E+02  0.41800000000E+01 0.  1.
         -5    1    1    2    0  502  0.17172511369E+02 -0.48122860390E+02 -0.54169005700E+02  0.74581890680E+02  0.41800000000E+01 0.  1.
        -11    1    3    3    0    0  0.22498840420E+02 -0.44714285498E+02 -0.46822618757E+02  0.68541394610E+02  0.00000000000E+00 0.  1.
         11    1    3    3    0    0 -0.19361948216E+02  0.28413557235E+02 -0.53162445844E+02  0.63312407327E+02  0.00000000000E+00 0. -1.
</event>
<event>
 7    1  0.5137842E-006  0.1150669E+03  0.7561462E-02  0.1251464E+00
          2   -1    0    0  501    0  0.00000000000E+00  0.00000000000E+00  0.15103431206E+03  0.15103431206E+03  0.00000000000E+00 0.  1.
         -2   -1    0    0    0  501 -0.00000000000E+00 -0.00000000000E+00 -0.10170444858E+03  0.10170444858E+03  0.00000000000E+00 0. -1.
         23    2    1    2    0    0 -0.28037634596E+02  0.50852541921E+02  0.26726965963E+01  0.10714702622E+03  0.90006954998E+02 0.  0.
          5    1    1    2  502    0 -0.46041077258E+02 -0.12754059366E+02  0.39038956393E+02  0.61838170588E+02  0.41800000000E+01 0. -1.
         -5    1    1    2    0  502  0.74078711854E+02 -0.38098482554E+02  0.76182104937E+01  0.83753563829E+02  0.41800000000E+01 0. -1.
        -11    1    3    3    0    0 -0.37321655307E+02 -0.88445539176E+01  0.21367958834E+02  0.43905828242E+02  0.00000000000E+00 0.  1.
         11    1    3    3    0    0  0.92840207114E+01  0.59697095838E+02 -0.18695262237E+02  0.63241197982E+02  0.00000000000E+00 0. -1.
</event>
<event>
 7    1  0.5137842E-006  0.9713216E+02  0.7561462E-02  0.1286445E+00
         -1   -1    0    0    0  501 -0.00000000000E+00  0.00000000000E+00  0.42607693378E+02  0.42607693378E+02  0.00000000000E+00 0.  1.
          1   -1    0    0  501    0  0.00000000000E+00 -0.00000000000E+00 -0.32071674901E+03  0.32071674901E+03  0.00000000000E+00 0. -1.
         23    2    1    2    0    0 -0.27856505413E+02  0.11024448332E+02 -0.16841233136E+03  0.19427180081E+03  0.92093951383E+02 0.  0.
          5    1    1    2  502    0  0.67499767129E+02  0.23902253267E+02 -0.42153965579E+02  0.83198350271E+02  0.41800000000E+01 0.  1.
         -5    1    1    2    0  502 -0.39643261716E+02 -0.34926701598E+02 -0.67542758692E+02  0.85854291306E+02  0.41800000000E+01 0.  1.
        -11    1    3    3    0    0 -0.46637428285E+02 -0.20012234167E+01 -0.33549314551E+02  0.57485747095E+02  0.00000000000E+00 0.  1.
         11    1    3    3    0    0  0.18780922872E+02  0.13025671749E+02 -0.13486301681E+03  0.13678605371E+03  0.00000000000E+00 0. -1.
</event>
<event>
 7    1  0.5137842E-006  0.9210232E+02  0.7561462E-02  0.1297839E+00
          2   -1    0    0  501    0  0.00000000000E+00  0.00000000000E+00  0.51386735007E+02  0.51386735007E+02  0.00000000000E+00 0. -1.
         -2   -1    0    0    0  501 -0.00000000000E+00 -0.00000000000E+00 -0.50470024840E+03  0.50470024840E+03  0.00000000000E+00 0.  1.
         23    2    1    2    0    0  0.13625020992E+01 -0.15712464789E+02 -0.83995003867E+01  0.93652843377E+02  0.91932396380E+02 0.  0.
          5    1    1    2  502    0 -0.29466296564E+02 -0.27262752273E+02 -0.50392752198E+02  0.64563319066E+02  0.41800000000E+01 0.  1.
         -5    1    1    2    0  502  0.28103794465E+02  0.42975217062E+02 -0.39452126081E+03  0.39787082097E+03  0.41800000000E+01 0.  1.
        -11    1    3    3    0    0 -0.44666208553E+02 -0.40978651696E+01 -0.10747136392E+02  0.46123352286E+02  0.00000000000E+00 0.  1.
         11    1    3    3    0    0  0.46028710652E+02 -0.11614599619E+02  0.23476360056E+01  0.47529491092E+02  0.00000000000E+00 0. -1.
</event>
<event>
 7    1  0.5137842E-006  0.1326274E+03  0.7561462E-02  0.1223608E+00
          2   -1    0    0  501    0  0.00000000000E+00  0.00000000000E+00  0.20803471400E+03  0.20803471400E+03  0.00000000000E+00 0. -1.
         -2   -1    0    0    0  501 -0.00000000000E+00 -0.00000000000E+00 -0.14788109408E+03  0.14788109408E+03  0.00000000000E+00 0.  1.
         23    2    1    2    0    0 -0.16824139489E+02  0.13105162643E+03  0.66885792919E+02  0.17384329221E+03  0.91050538136E+02 0.  0.
          5    1    1    2  502    0  0.91920568171E+01 -0.61900822378E+02 -0.65661414544E+02  0.90802530138E+02  0.41800000000E+01 0. -1.
         -5    1    1    2    0  502  0.76320826717E+01 -0.69150804050E+02  0.58929241546E+02  0.91269985734E+02  0.41800000000E+01 0. -1.
        -11    1    3    3    0    0 -0.17866068335E+02  0.89022492808E+02 -0.45967656758E+01  0.90913865159E+02  0.00000000000E+00 0.  1.
         11    1    3    3    0    0  0.10419288463E+01  0.42029133620E+02  0.71482558595E+02  0.82929427056E+02  0.00000000000E+00 0. -1.
</event>
<event>
 7    1  0.5137842E-006  0.2745087E+03  0.7561462E-02  0.1098727E+00
          1   -1    0    0  501    0  0.00000000000E+00  0.00000000000E+00  0.34228807673E+03  0.34228807673E+03  0.00000000000E+00 0. -1.
         -1   -1    0    0    0  501 -0.00000000000E+00 -0.00000000000E+00 -0.29742634128E+03  0.29742634128E+03  0.00000000000E+00 0.  1.
         23    2    1    2    0    0  0.12958215460E+03 -0.22833289819E+03  0.16712334194E+03  0.32423843029E+03  0.90955489479E+02 0.  0.
          5    1    1    2  502    0 -0.12186467223E+03  0.12206323028E+03 -0.31368083689E+02  0.17536208142E+03  0.41800000000E+01 0. -1.
         -5    1    1    2    0  502 -0.77174823692E+01  0.10626966791E+03 -0.90893522805E+02  0.14011390630E+03  0.41800000000E+01 0. -1.
        -11    1    3    3    0    0  0.34034927166E+02 -0.12308018225E+03  0.40775766715E+02  0.13405137329E+03  0.00000000000E+00 0.  1.
         11    1    3    3    0    0  0.95547227438E+02 -0.10525271594E+03  0.12634757523E+03  0.19018705700E+03  0.00000000000E+00 0. -1.
</event>
<event>
 7    1  0.5137842E-006  0.1258147E+03  0.7561462E-02  0.1233801E+00
          2   -1    0    0  501    0  0.00000000000E+00  0.00000000000E+00  0.61650437396E+03  0.61650437396E+03  0.00000000000E+00 0. -1.
         -2   -1    0    0    0  501 -0.00000000000E+00 -0.00000000000E+00 -0.32449448039E+02  0.32449448039E+02  0.00000000000E+00 0.  1.
         23    2    1    2    0    0 -0.84972308627E+02 -0.25272513519E+02  0.29685795631E+03  0.32339711534E+03  0.92747263089E+02 0.  0.
          5    1    1    2  502    0  0.78032104933E+02 -0.17465473932E+02  0.26477729272E+03  0.27661984621E+03  0.41800000000E+01 0. -1.
         -5    1    1    2    0  502  0.69402036950E+01  0.42737987451E+02  0.22419676893E+02  0.48936860450E+02  0.41800000000E+01 0. -1.
        -11    1    3    3    0    0 -0.38922553915E+01  0.29793668492E+02  0.61526171756E+02  0.68471031431E+02  0.00000000000E+00 0.  1.
         11    1    3    3    0    0 -0.81080053236E+02 -0.55066182012E+02  0.23533178456E+03  0.25492608391E+03  0.00000000000E+00 0. -1.
</event>
<event>
 7    1  0.5137842E-006  0.1025046E+03  0.7561462E-02  0.1275116E+00
          1   -1    0    0  501    0  0.00000000000E+00  0.00000000000E+00  0.83544881734E+02  0.83544881734E+02  0.00000000000E+00 0.  1.
         -1   -1    0    0    0  501 -0.00000000000E+00 -0.00000000000E+00 -0.24085344808E+03  0.24085344808E+03  0.00000000000E+00 0. -1.
         23    2    1    2    0    0 -0.72353489208E+02  0.10623372810E+02 -0.89040480889E+01  0.11698448191E+03  0.90874658107E+02 0.  0.
          5    1    1    2  502    0 -0.12156703677E+02 -0.15452567662E+02  0.13814298304E+02  0.24390049800E+02  0.41800000000E+01 0. -1.
         -5    1    1    2    0  502  0.84510192884E+02  0.48291948516E+01 -0.16221881656E+03  0.18302379810E+03  0.41800000000E+01 0. -1.
        -11    1    3    3    0    0 -0.38250643254E+02 -0.28910244785E+02  0.25648661754E+02  0.54376169529E+02  0.00000000000E+00 0.  1.
         11    1    3    3    0    0 -0.34102845954E+02  0.39533617595E+02 -0.34552709843E+02  0.62608312386E+02  0.00000000000E+00 0. -1.
</event>
<event>
 7    1  0.5137842E-006  0.1567810E+03  0.7561462E-02  0.1192380E+00
          1   -1    0    0  501    0  0.00000000000E+00  0.00000000000E+00  0.17161014717E+03  0.17161014717E+03  0.00000000000E+00 0. -1.
         -1   -1    0    0    0  501 -0.00000000000E+00 -0.00000000000E+00 -0.17652265122E+03  0.17652265122E+03  0.00000000000E+00 0.  1.
         23    2    1    2    0    0 -0.11474615580E+03  0.67199629576E+02  0.24768403442E+02  0.16317524078E+03  0.91270011005E+02 0.  0.
          5    1    1    2  502    0  0.33030621407E+02  0.34225318568E+02 -0.26489756361E+02  0.54603790836E+02  0.41800000000E+01 0. -1.
         -5    1    1    2    0  502  0.81715534391E+02 -0.10142494814E+03 -0.31911511304E+01  0.13035376677E+03  0.41800000000E+01 0. -1.
        -11    1    3    3    0    0 -0.50068783561E+02  0.14658710643E+02 -0.33044456327E+02  0.61755137267E+02  0.00000000000E+00 0.  1.
         11    1    3    3    0    0 -0.64677372236E+02  0.52540918933E+02  0.57812859769E+02  0.10142010351E+03  0.00000000000E+00 0. -1.
</event>
<event>
 7    1  0.5137842E-006  0.2787966E+03  0.7561462E-02  0.1096348E+00
         -1   -1    0    0    0  501 -0.00000000000E+00  0.00000000000E+00  0.23289966844E+03  0.23289966844E+03  0.00000000000E+00 0.  1.
          1   -1    0    0  501    0  0.00000000000E+00 -0.00000000000E+00 -0.44492161036E+03  0.44492161036E+03  0.00000000000E+00 0. -1.
         23    2    1    2    0    0 -0.24889217815E+03  0.10706619182E+03 -0.24871265707E+03  0.37886746166E+03  0.90950986490E+02 0.  0.
          5    1    1    2  502    0  0.18521596062E+03 -0.62805248430E+02 -0.28339810914E+02  0.19766149999E+03  0.41800000000E+01 0. -1.
         -5    1    1    2    0  502  0.63676217537E+02 -0.44260943395E+02  0.65030526066E+02  0.10129231713E+03  0.41800000000E+01 0.  1.
        -11    1    3    3    0    0 -0.24965520532E+03  0.87219955774E+02 -0.22023955073E+03  0.34415185882E+03  0.00000000000E+00 0. -1.
         11    1    3    3    0    0  0.76302716284E+00  0.19846236051E+02 -0.28473106345E+02  0.34715602843E+02  0.00000000000E+00 0.  1.
</event>
<event>
 7    1  0.5137842E-006  0.8339117E+02  0.7561462E-02  0.1319694E+00
          1   -1    0    0  501    0  0.00000000000E+00  0.00000000000E+00  0.27128515372E+02  0.27128515372E+02  0.00000000000E+00 0. -1.
         -1   -1    0    0    0  501 -0.00000000000E+00 -0.00000000000E+00 -0.51500349002E+03  0.51500349002E+03  0.00000000000E+00 0.  1.
         23    2    1    2    0    0 -0.10719007520E+02  0.62960689609E+01 -0.10757239065E+03  0.14159077473E+03  0.91222752926E+02 0.  0.
          5    1    1    2  502    0 -0.12665980805E+02 -0.51390714281E+02 -0.80468439383E+02  0.96405781573E+02  0.41800000000E+01 0. -1.
         -5    1    1    2    0  502  0.23384988325E+02  0.45094645320E+02 -0.29983414462E+03  0.30413544910E+03  0.41800000000E+01 0. -1.
        -11    1    3    3    0    0 -0.28189956189E+02  0.24601395354E+02 -0.72306748332E+01  0.38107544422E+02  0.00000000000E+00 0.  1.
         11    1    3    3    0    0  0.17470948670E+02 -0.18305326393E+02 -0.10034171581E+03  0.10348323030E+03  0.00000000000E+00 0. -1.
</event>
<event>
 7    1  0.5137842E-006  0.2574555E+03  0.7561462E-02  0.1108682E+00
          2   -1    0    0  501    0  0.00000000000E+00  0.00000000000E+00  0.61794149757E+03  0.61794149757E+03  0.00000000000E+00 0. -1.
         -2   -1    0    0    0  501 -0.00000000000E+00 -0.00000000000E+00 -0.13064165228E+03  0.13064165228E+03  0.00000000000E+00 0.  1.
         23    2    1    2    0    0  0.25319630989E+03 -0.36777754199E+02  0.31576748094E+03  0.41611911159E+03  0.89359042445E+02 0.  0.
          5    1    1    2  502    0 -0.49708338943E+02  0.23364373249E+02  0.10385153535E+03  0.11755605766E+03  0.41800000000E+01 0. -1.
         -5    1    1    2    0  502 -0.20348797095E+03  0.13413380950E+02  0.67680829000E+02  0.21490798060E+03  0.41800000000E+01 0. -1.
        -11    1    3    3    0    0  0.22845344323E+03 -0.33377366313E+02  0.31573460161E+03  0.39114366026E+03  0.00000000000E+00 0. -1.
         11    1    3    3    0    0  0.24742866658E+02 -0.34003878866E+01  0.32879330129E-01  0.24975451333E+02  0.00000000000E+00 0.  1.
</event>
<event>
 7    1  0.5137842E-006  0.1120348E+03  0.7561462E-02  0.1256847E+00
         -1   -1    0    0    0  501 -0.00000000000E+00  0.00000000000E+00  0.60508696433E+02  0.60508696433E+02  0.00000000000E+00 0.  1.
          1   -1    0    0  501    0  0.00000000000E+00 -0.00000000000E+00 -0.28595170528E+03  0.28595170528E+03  0.00000000000E+00 0. -1.
         23    2    1    2    0    0 -0.18215403580E+01  0.72257943008E+02 -0.12866930040E+03  0.17257112773E+03  0.89445385143E+02 0.  0.
          5    1    1    2  502    0 -0.72082394868E+01  0.17656755212E+02  0.18811369424E+02  0.27111985186E+02  0.41800000000E+01 0. -1.
         -5    1    1    2    0  502  0.90297798447E+01 -0.89914698220E+02 -0.11558507787E+03  0.14677728879E+03  0.41800000000E+01 0. -1.
        -11    1    3    3    0    0 -0.24111302337E+00 -0.20904568624E+02 -0.32691713761E+02  0.38804732617E+02  0.00000000000E+00 0.  1.
         11    1    3    3    0    0 -0.15804273346E+01  0.93162511633E+02 -0.95977586640E+02  0.13376639511E+03  0.00000000000E+00 0. -1.
</event>
<event>
 7    1  0.5137842E-006  0.1250909E+03  0.7561462E-02  0.1234927E+00
          2   -1    0    0  501    0  0.00000000000E+00  0.00000000000E+00  0.43864846134E+03  0.43864846134E+03  0.00000000000E+00 0.  1.
         -2   -1    0    0    0  501 -0.00000000000E+00 -0.00000000000E+00 -0.55399534353E+02  0.55399534353E+02  0.00000000000E+00 0. -1.
         23    2    1    2    0    0  0.62796128742E+02  0.12247917464E+02  0.32221240422E+03  0.34086074535E+03  0.90949706023E+02 0.  0.
          5    1    1    2  502    0  0.69076786229E+00  0.49878085534E+02  0.11372218651E+02  0.51333228360E+02  0.41800000000E+01 0. -1.
         -5    1    1    2    0  502 -0.63486896604E+02 -0.62126002998E+02  0.49664304117E+02  0.10185402197E+03  0.41800000000E+01 0. -1.
        -11    1    3    3    0    0 -0.13765409593E+02  0.29645569602E+02  0.94871205888E+02  0.10034386880E+03  0.00000000000E+00 0. -1.
         11    1    3    3    0    0  0.76561538335E+02 -0.17397652138E+02  0.22734119833E+03  0.24051687656E+03  0.00000000000E+00 0.  1.
</event>
<event>
 7    1  0.5137842E-006  0.1370255E+03  0.7561462E-02  0.1217388E+00
          2   -1    0    0  501    0  0.00000000000E+00  0.00000000000E+00  0.56123836445E+03  0.56123836445E+03  0.00000000000E+00 0. -1.
         -2   -1    0    0    0  501 -0.00000000000E+00 -0.00000000000E+00 -0.50666271315E+02  0.50666271315E+02  0.00000000000E+00 0.  1.
         23    2    1    2    0    0  0.50329520452E+02 -0.89100952688E+02  0.38043064211E+03  0.40440732303E+03  0.91355180849E+02 0.  0.
          5    1    1    2  502    0  0.52161983869E+01 -0.16844738925E+02  0.72339420055E+02  0.74574915682E+02  0.41800000000E+01 0. -1.
         -5    1    1    2    0  502 -0.55545718839E+02  0.10594569161E+03  0.57802030969E+02  0.13292239705E+03  0.41800000000E+01 0. -1.
        -11    1    3    3    0    0  0.56752914898E+02 -0.10484944226E+03  0.31516149087E+03  0.33695854970E+03  0.00000000000E+00 0.  1.
         11    1    3    3    0    0 -0.64233944453E+01  0.15748489572E+02  0.65269151243E+02  0.67448773332E+02  0.00000000000E+00 0. -1.
</event>
<event>
 7    1  0.5137842E-006  0.1191160E+03  0.7561462E-02  0.1244563E+00
          2   -1    0    0  501    0  0.00000000000E+00  0.00000000000E+00  0.61520390452E+03  0.61520390452E+03  0.00000000000E+00 0. -1.
         -2   -1    0    0    0  501 -0.00000000000E+00 -0.00000000000E+00 -0.24494044182E+02  0.24494044182E+02  0.00000000000E+00 0.  1.
         23    2    1    2    0    0 -0.45870679069E+02 -0.13612118981E+02  0.20655927409E+03  0.23037022489E+03  0.90079397325E+02 0.  0.
          5    1    1    2  502    0 -0.36881892697E+02 -0.25275668574E+02  0.18137482053E+03  0.18685136166E+03  0.41800000000E+01 0. -1.
         -5    1    1    2    0  502  0.82752571765E+02  0.38887787555E+02  0.20277576571E+03  0.22247636215E+03  0.41800000000E+01 0.  1.
        -11    1    3    3    0    0 -0.96755535733E+01 -0.49729975359E+02  0.95539723052E+02  0.10814122927E+03  0.00000000000E+00 0. -1.
         11    1    3    3    0    0 -0.36195125495E+02  0.36117856378E+02  0.11101955104E+03  0.12222899563E+03  0.00000000000E+00 0.  1.
</event>
<event>
 7    1  0.5137842E-006  0.1963398E+03  0.7561462E-02  0.1152864E+00
         -2   -1    0    0    0  501 -0.00000000000E+00  0.00000000000E+00  0.87749694901E+02  0.87749694901E+02  0.00000000000E+00 0.  1.
          2   -1    0    0  501    0  0.00000000000E+00 -0.00000000000E+00 -0.55402228419E+03  0.55402228419E+03  0.00000000000E+00 0. -1.
         23    2    1    2    0    0  0.15421298863E+03  0.11206605451E+03 -0.25790961857E+03  0.33289720675E+03  0.89234144129E+02 0.  0.
          5    1    1    2  502    0 -0.63119475192E+02 -0.14658593692E+02 -0.14958655604E+03  0.16307223143E+03  0.41800000000E+01 0.  1.
         -5    1    1    2    0  502 -0.91093513435E+02 -0.97407460813E+02 -0.58776414683E+02  0.14580254091E+03  0.41800000000E+01 0.  1.
        -11    1    3    3    0    0  0.28579131025E+02  0.40989893367E+02 -0.18391762645E+02  0.53246549386E+02  0.00000000000E+00 0. -1.
         11    1    3    3    0    0  0.12563385760E+03  0.71076161138E+02 -0.23951785592E+03  0.27965065736E+03  0.00000000000E+00 0.  1.
</event>
<event>
 7    1  0.5137842E-006  0.2968258E+03  0.7561462E-02  0.1086838E+00
          2   -1    0    0  501    0  0.00000000000E+00  0.00000000000E+00  0.72026396013E+03  0.72026396013E+03  0.00000000000E+00 0. -1.
         -2   -1    0    0    0  501 -0.00000000000E+00 -0.00000000000E+00 -0.23913578863E+03  0.23913578863E+03  0.00000000000E+00 0.  1.
         23    2    1    2    0    0 -0.30112924355E+02 -0.95185542367E+02  0.40556365513E+03  0.42765230986E+03  0.91856105316E+02 0.  0.
          5    1    1    2  502    0 -0.15230560197E+03  0.19713194368E+03  0.17078551582E+03  0.30206483480E+03  0.41800000000E+01 0. -1.
         -5    1    1    2    0  502  0.18241852633E+03 -0.10194640131E+03 -0.95220999449E+02  0.22968260410E+03  0.41800000000E+01 0.  1.
        -11    1    3    3    0    0 -0.62858356907E+02 -0.70681806594E+02  0.29292895538E+03  0.30782213000E+03  0.00000000000E+00 0. -1.
         11    1    3    3    0    0  0.32745432552E+02 -0.24503735773E+02  0.11263469975E+03  0.11983017987E+03  0.00000000000E+00 0.  1.
</event>
<event>
 7    1  0.5137842E-006  0.1210620E+03  0.7561462E-02  0.1241355E+00
          2   -1    0    0  501    0  0.00000000000E+00  0.00000000000E+00  0.34355701574E+03  0.34355701574E+03  0.00000000000E+00 0. -1.
         -2   -1    0    0    0  501 -0.00000000000E+00 -0.00000000000E+00 -0.58619040936E+02  0.58619040936E+02  0.00000000000E+00 0.  1.
         23    2    1    2    0    0  0.85304577461E+02 -0.35172715584E+01  0.16027303785E+03  0.20601627454E+03  0.97293455996E+02 0.  0.
          5    1    1    2  502    0 -0.73548926613E+02  0.56393232664E+02  0.10027027274E+03  0.13660615393E+03  0.41800000000E+01 0. -1.
         -5    1    1    2    0  502 -0.11755650848E+02 -0.52875961106E+02  0.24394664208E+02  0.59553628198E+02  0.41800000000E+01 0. -1.
        -11    1    3    3    0    0  0.34837043586E+02 -0.22083728681E+02  0.48229857459E+01  0.41527964912E+02  0.00000000000E+00 0.  1.
         11    1    3    3    0    0  0.50467533875E+02  0.18566457123E+02  0.15545005211E+03  0.16448830963E+03  0.00000000000E+00 0. -1.
</event>
<event>
 7    1  0.5137842E-006  0.1375659E+03  0.7561462E-02  0.1216642E+00
          1   -1    0    0  501    0  0.00000000000E+00  0.00000000000E+00  0.19925298151E+03  0.19925298151E+03  0.00000000000E+00 0. -1.
         -1   -1    0    0    0  501 -0.00000000000E+00 -0.00000000000E+00 -0.16632375348E+03  0.16632375348E+03  0.00000000000E+00 0.  1.
         23    2    1    2    0    0  0.36570118498E+02 -0.96113315391E+02  0.12027765455E+03  0.18158961977E+03  0.89067013321E+02 0.  0.
          5    1    1    2  502    0 -0.59933040187E+02  0.10155029432E+03 -0.30091194064E+02  0.12176774590E+03  0.41800000000E+01 0. -1.
         -5    1    1    2    0  502  0.23362921689E+02 -0.54369789263E+01 -0.57257232460E+02  0.62219369320E+02  0.41800000000E+01 0. -1.
        -11    1    3    3    0    0 -0.28034612563E+01  0.14817668933E+02  0.28809620634E+02  0.32517948101E+02  0.00000000000E+00 0.  1.
         11    1    3    3    0    0  0.39373579755E+02 -0.11093098432E+03  0.91468033916E+02  0.14907167167E+03  0.00000000000E+00 0. -1.
</event>
<event>
 7    1  0.5137842E-006  0.1265874E+03  0.7561462E-02  0.1232609E+00
         -3   -1    0    0    0  501 -0.00000000000E+00  0.00000000000E+00  0.67194381040E+03  0.67194381040E+03  0.00000000000E+00 0.  1.
          3   -1    0    0  501    0  0.00000000000E+00 -0.00000000000E+00 -0.74358256745E+02  0.74358256745E+02  0.00000000000E+00 0. -1.
         23    2    1    2    0    0  0.39744025240E+02  0.20073629796E+01 -0.23572436131E+02  0.10225316052E+03  0.91194473755E+02 0.  0.
          5    1    1    2  502    0  0.57069988951E+02  0.11466892088E+02  0.12010440994E+03  0.13353282346E+03  0.41800000000E+01 0. -1.
         -5    1    1    2    0  502 -0.96814014191E+02 -0.13474255068E+02  0.50105357985E+03  0.51051608317E+03  0.41800000000E+01 0.  1.
        -11    1    3    3    0    0  0.17647278592E+01 -0.40176910910E+02 -0.21152974065E+02  0.45439484443E+02  0.00000000000E+00 0.  1.
         11    1    3    3    0    0  0.37979297381E+02  0.42184273889E+02 -0.24194620660E+01  0.56813676081E+02  0.00000000000E+00 0. -1.
</event>
<event>
 7    1  0.5137842E-006  0.1735314E+03  0.7561462E-02  0.1174214E+00
          1   -1    0    0  501    0  0.00000000000E+00  0.00000000000E+00  0.43742167589E+03  0.43742167589E+03  0.00000000000E+00 0. -1.
         -1   -1    0    0    0  501 -0.00000000000E+00 -0.00000000000E+00 -0.71529537301E+02  0.71529537301E+02  0.00000000000E+00 0.  1.
         23    2    1    2    0    0 -0.12530513639E+03  0.62403125662E+02  0.19809837850E+03  0.25716202871E+03  0.85403829820E+02 0.  0.
          5    1    1    2  502    0 -0.92200309165E+01 -0.49277511557E+02  0.29265840886E+02  0.58200034004E+02  0.41800000000E+01 0. -1.
         -5    1    1    2    0  502  0.13452516730E+03 -0.13125614105E+02  0.13852791921E+03  0.19358915048E+03  0.41800000000E+01 0. -1.
        -11    1    3    3    0    0 -0.49323043995E+02 -0.16478840528E+02  0.44078517635E+02  0.68170599022E+02  0.00000000000E+00 0.  1.
         11    1    3    3    0    0 -0.75982092393E+02  0.78881966190E+02  0.15401986086E+03  0.18899142968E+03  0.00000000000E+00 0. -1.
</event>
<event>
 7    1  0.5137842E-006  0.1115829E+03  0.7561462E-02  0.1257666E+00
         -2   -1    0    0    0  501 -0.00000000000E+00  0.00000000000E+00  0.73093851602E+02  0.73093851602E+02  0.00000000000E+00 0.  1.
          2   -1    0    0  501    0  0.00000000000E+00 -0.00000000000E+00 -0.21307488007E+03  0.21307488007E+03  0.00000000000E+00 0. -1.
         23    2    1    2    0    0  0.52580416763E+02 -0.24126413239E+02 -0.89211534386E+02  0.13929575892E+03  0.89987924427E+02 0.  0.
          5    1    1    2  502    0 -0.38779627099E+02 -0.49180266149E+02 -0.18069477156E+02  0.65318729788E+02  0.41800000000E+01 0.  1.
         -5    1    1    2    0  502 -0.13800789664E+02  0.73306679388E+02 -0.32700016921E+02  0.81554242960E+02  0.41800000000E+01 0.  1.
        -11    1    3    3    0    0  0.33678638326E+01  0.19578987329E+02  0.83980664503E+01  0.21568652525E+02  0.00000000000E+00 0.  1.
         11    1    3    3    0    0  0.49212552930E+02 -0.43705400568E+02 -0.97609600836E+02  0.11772710639E+03  0.00000000000E+00 0. -1.
</event>
<event>
 7    1  0.5137842E-006  0.7841029E+02  0.7561462E-02  0.1333624E+00
          2   -1    0    0  501    0  0.00000000000E+00  0.00000000000E+00  0.38319867229E+03  0.38319867229E+03  0.00000000000E+00 0.  1.
         -2   -1    0    0    0  501 -0.00000000000E+00 -0.00000000000E+00 -0.36360171382E+02  0.36360171382E+02  0.00000000000E+00 0. -1.
         23    2    1    2    0    0 -0.27983945339E+02  0.37384439172E+02  0.15431379577E+03  0.18526681175E+03  0.91270731782E+02 0.  0.
          5    1    1    2  502    0 -0.64156264600E+01 -0.99393933547E+00 -0.17082021656E+02  0.18746094050E+02  0.41800000000E+01 0. -1.
         -5    1    1    2    0  502  0.34399571799E+02 -0.36390499837E+02  0.20960672679E+03  0.21554593788E+03  0.41800000000E+01 0. -1.
        -11    1    3    3    0    0  0.36553415038E+01 -0.26928150122E+02  0.67009802139E+02  0.72310444427E+02  0.00000000000E+00 0.  1.
         11    1    3    3    0    0 -0.31639286843E+02  0.64312589294E+02  0.87303993634E+02  0.11295636732E+03  0.00000000000E+00 0. -1.
</event>
<event>
 7    1  0.5137842E-006  0.1118537E+03  0.7561462E-02  0.1257175E+00
          2   -1    0    0  501    0  0.00000000000E+00  0.00000000000E+00  0.37045654217E+03  0.37045654217E+03  0.00000000000E+00 0. -1.
         -2   -1    0    0    0  501 -0.00000000000E+00 -0.00000000000E+00 -0.48153328570E+02  0.48153328570E+02  0.00000000000E+00 0.  1.
         23    2    1    2    0    0 -0.18565890674E+02  0.31188609383E+02  0.25062585516E+03  0.26994228852E+03  0.93477795253E+02 0.  0.
          5    1    1    2  502    0  0.44173404320E+02  0.34101817729E+02  0.13792464133E+02  0.57636169967E+02  0.41800000000E+01 0. -1.
         -5    1    1    2    0  502 -0.25607513646E+02 -0.65290427111E+02  0.57884894306E+02  0.91031412251E+02  0.41800000000E+01 0. -1.
        -11    1    3    3    0    0 -0.26322109599E+02 -0.27629955904E+02  0.68701828799E+02  0.78588861790E+02  0.00000000000E+00 0.  1.
         11    1    3    3    0    0  0.77562189250E+01  0.58818565287E+02  0.18192402636E+03  0.19135342673E+03  0.00000000000E+00 0. -1.
</event>
<event>
 7    1  0.5137842E-006  0.2513241E+03  0.7561462E-02  0.1112471E+00
          2   -1    0    0  501    0  0.00000000000E+00  0.00000000000E+00  0.21292670256E+03  0.21292670256E+03  0.00000000000E+00 0. -1.
         -2   -1    0    0    0  501 -0.00000000000E+00 -0.00000000000E+00 -0.32558008869E+03  0.32558008869E+03  0.00000000000E+00 0.  1.
         23    2    1    2    0    0 -0.97314254502E+02 -0.21290374901E+03 -0.36181725881E+01  0.25156552951E+03  0.92054625045E+02 0.  0.
          5    1    1    2  502    0  0.21797095237E+02  0.15326576684E+03 -0.11111261386E+03  0.19060166318E+03  0.41800000000E+01 0. -1.
         -5    1    1    2    0  502  0.75517159265E+02  0.59637982165E+02  0.20774003230E+01  0.96339598568E+02  0.41800000000E+01 0. -1.
        -11    1    3    3    0    0 -0.85902587739E+02 -0.77846583781E+02 -0.46868625802E+01  0.11602289372E+03  0.00000000000E+00 0.  1.
         11    1    3    3    0    0 -0.11411666764E+02 -0.13505716523E+03  0.10686899920E+01  0.13554263578E+03  0.00000000000E+00 0. -1.
</event>
<event>
 6    1  0.5137842E-006  0.1423207E+03  0.7561462E-02  0.1210240E+00
          2   -1    0    0  501    0  0.00000000000E+00  0.00000000000E+00  0.37340009630E+03  0.37340009630E+03  0.00000000000E+00 0. -1.
         -2   -1    0    0    0  501 -0.00000000000E+00 -0.00000000000E+00 -0.73406425501E+02  0.73406425501E+02  0.00000000000E+00 0.  1.
          5    1    1    2  502    0 -0.72006854863E+01  0.11937312371E+03  0.29171453967E+02  0.12316752276E+03  0.41800000000E+01 0.  1.
         -5    1    1    2    0  502  0.21511375816E+02  0.16048068118E+02  0.96885853693E+02  0.10062117484E+03  0.41800000000E+01 0.  1.
        -11    1    1    2    0    0  0.56275957376E+01 -0.32028625077E+02  0.27111934433E+02  0.42338630668E+02  0.00000000000E+00 0. -1.
         11    1    1    2    0    0 -0.19938286067E+02 -0.10339256675E+03  0.14682442871E+03  0.18067919354E+03  0.00000000000E+00 0.  1.
</event>
<event>
 7    1  0.5137842E-006  0.9416647E+02  0.7561462E-02  0.1293065E+00
          2   -1    0    0  501    0  0.00000000000E+00  0.00000000000E+00  0.84938072101E+02  0.84938072101E+02  0.00000000000E+00 0. -1.
         -2   -1    0    0    0  501 -0.00000000000E+00 -0.00000000000E+00 -0.17030511073E+03  0.17030511073E+03  0.00000000000E+00 0.  1.
         23    2    1    2    0    0 -0.29449063282E+02 -0.21164584083E+02  0.20453975638E+01  0.98385001814E+02  0.91434337003E+02 0.  0.
          5    1    1    2  502    0 -0.58864538037E+01  0.54430112198E+02  0.21040226632E+01  0.54947126982E+02  0.41800000000E+01 0. -1.
         -5    1    1    2    0  502  0.35335517086E+02 -0.33265528115E+02 -0.89516458859E+02  0.10191105404E+03  0.41800000000E+01 0. -1.
        -11    1    3    3    0    0  0.18577341669E+02 -0.30575053806E+02 -0.23868764318E+02  0.43007783584E+02  0.00000000000E+00 0.  1.
         11    1    3    3    0    0 -0.48026404951E+02  0.94104697232E+01  0.25914161881E+02  0.55377218230E+02  0.00000000000E+00 0. -1.
</event>
<event>
 7    1  0.5137842E-006  0.1461383E+03  0.7561462E-02  0.1205300E+00
          1   -1    0    0  501    0  0.00000000000E+00  0.00000000000E+00  0.76721283074E+03  0.76721283074E+03  0.00000000000E+00 0. -1.
         -1   -1    0    0    0  501 -0.00000000000E+00 -0.00000000000E+00 -0.36799654427E+02  0.36799654427E+02  0.00000000000E+00 0.  1.
         23    2    1    2    0    0  0.10676682680E+03 -0.56517811583E+02  0.43853443298E+03  0.46425598616E+03  0.92885700933E+02 0.  0.
          5    1    1    2  502    0 -0.78080106977E+02  0.76011307383E+02  0.11125801561E+03  0.15578844756E+03  0.41800000000E+01 0.  1.
         -5    1    1    2    0  502 -0.28686719825E+02 -0.19493495801E+02  0.18062072772E+03  0.18396805146E+03  0.41800000000E+01 0.  1.
        -11    1    3    3    0    0  0.10814238809E+03 -0.17855449139E+02  0.36586448535E+03  0.38192985587E+03  0.00000000000E+00 0.  1.
         11    1    3    3    0    0 -0.13755612855E+01 -0.38662362443E+02  0.72669947630E+02  0.82326130282E+02  0.00000000000E+00 0. -1.
</event>
<event>
 7    1  0.5137842E-006  0.1074282E+03  0.7561462E-02  0.1265408E+00
         -1   -1    0    0    0  501 -0.00000000000E+00  0.00000000000E+00  0.39230170671E+02  0.39230170671E+02  0.00000000000E+00 0.  1.
          1   -1    0    0  501    0  0.00000000000E+00 -0.00000000000E+00 -0.43014688318E+03  0.43014688318E+03  0.00000000000E+00 0. -1.
         23    2    1    2    0    0 -0.67486418682E-01  0.11694987889E+02 -0.30083596865E+03  0.31476885310E+03  0.91871505673E+02 0.  0.
          5    1    1    2  502    0  0.37823303511E+02 -0.55320188929E+02 -0.40437782436E+02  0.78381198255E+02  0.41800000000E+01 0.  1.
         -5    1    1    2    0  502 -0.37755817092E+02  0.43625201040E+02 -0.49642961423E+02  0.76227002492E+02  0.41800000000E+01 0.  1.
        -11    1    3    3    0    0 -0.19259682350E+02  0.46382977782E+02 -0.12929324920E+03  0.13870493965E+03  0.00000000000E+00 0.  1.
         11    1    3    3    0    0  0.19192195932E+02 -0.34687989894E+02 -0.17154271945E+03  0.17606391346E+03  0.00000000000E+00 0. -1.
</event>
<event>
 7    1  0.5137842E-006  0.7360146E+02  0.7561462E-02  0.1348257E+00
          2   -1    0    0  501    0  0.00000000000E+00  0.00000000000E+00  0.37393937763E+02  0.37393937763E+02  0.00000000000E+00 0. -1.
         -2   -1    0    0    0  501 -0.00000000000E+00 -0.00000000000E+00 -0.47496825416E+03  0.47496825416E+03  0.00000000000E+00 0.  1.
         23    2    1    2    0    0  0.18763520562E+02  0.12878445591E+01 -0.41998840622E+02  0.97053946472E+02  0.85450790895E+02 0.  0.
          5    1    1    2  502    0 -0.47895474658E+02  0.12107145271E+02 -0.37200456405E+03  0.37529378829E+03  0.41800000000E+01 0. -1.
         -5    1    1    2    0  502  0.29131954096E+02 -0.13394989830E+02 -0.23570911725E+02  0.40014457156E+02  0.41800000000E+01 0. -1.
        -11    1    3    3    0    0  0.17810683491E+02 -0.29514464179E+02 -0.53931553814E+02  0.64007316292E+02  0.00000000000E+00 0.  1.
         11    1    3    3    0    0  0.95283707091E+00  0.30802308738E+02  0.11932713192E+02  0.33046630179E+02  0.00000000000E+00 0. -1.
</event>
<event>
 7    1  0.5137842E-006  0.1536326E+03  0.7561462E-02  0.1196079E+00
          2   -1    0    0  501    0  0.00000000000E+00  0.00000000000E+00  0.10148961720E+03  0.10148961720E+03  0.00000000000E+00 0. -1.
         -2   -1    0    0    0  501 -0.00000000000E+00 -0.00000000000E+00 -0.27505794344E+03  0.27505794344E+03  0.00000000000E+00 0.  1.
         23    2    1    2    0    0 -0.10524839197E+03  0.62899556252E+02 -0.45290257045E+02  0.15943488352E+03  0.91294559049E+02 0.  0.
          5    1    1    2  502    0  0.12882012215E+03 -0.28652688502E+02 -0.85420730996E+02  0.15725703200E+03  0.41800000000E+01 0.  1.
         -5    1    1    2    0  502 -0.23571730184E+02 -0.34246867750E+02 -0.42857338203E+02  0.59855645117E+02  0.41800000000E+01 0.  1.
        -11    1    3    3    0    0  0.30479430527E+01  0.14517221736E+02 -0.37776523284E+02  0.40584546261E+02  0.00000000000E+00 0.  1.
         11    1    3    3    0    0 -0.10829633502E+03  0.48382334516E+02 -0.75137337614E+01  0.11885033726E+03  0.00000000000E+00 0. -1.
</event>
<event>
 7    1  0.5137842E-006  0.7550338E+02  0.7561462E-02  0.1342319E+00
          2   -1    0    0  501    0  0.00000000000E+00  0.00000000000E+00  0.24076003691E+03  0.24076003691E+03  0.00000000000E+00 0. -1.
         -2   -1    0    0    0  501 -0.00000000000E+00 -0.00000000000E+00 -0.60138271623E+02  0.60138271623E+02  0.00000000000E+00 0.  1.
         23    2    1    2    0    0 -0.37178238728E+02  0.12621729777E+02  0.11342117496E+03  0.15357086704E+03  0.95802498799E+02 0.  0.
          5    1    1    2  502    0  0.10880370906E+02 -0.26822042597E+02 -0.32169583491E+02  0.43475958208E+02  0.41800000000E+01 0. -1.
         -5    1    1    2    0  502  0.26297867822E+02  0.14200312820E+02  0.99370173821E+02  0.10385148329E+03  0.41800000000E+01 0. -1.
        -11    1    3    3    0    0 -0.25723784780E+02 -0.34531276261E+02  0.18298393255E+02  0.46786251606E+02  0.00000000000E+00 0.  1.
         11    1    3    3    0    0 -0.11454453948E+02  0.47153006039E+02  0.95122781705E+02  0.10678461543E+03  0.00000000000E+00 0. -1.
</event>
<event>
 7    1  0.5137842E-006  0.1044323E+03  0.7561462E-02  0.1271242E+00
          2   -1    0    0  501    0  0.00000000000E+00  0.00000000000E+00  0.38517567452E+03  0.38517567452E+03  0.00000000000E+00 0. -1.
         -2   -1    0    0    0  501 -0.00000000000E+00 -0.00000000000E+00 -0.33086716972E+02  0.33086716972E+02  0.00000000000E+00 0.  1.
         23    2    1    2    0    0  0.15120624195E+02  0.30826717134E+02  0.16036171854E+03  0.18678064684E+03  0.89399158238E+02 0.  0.
          5    1    1    2  502    0 -0.59786353624E+02  0.15043251454E+02  0.12181490907E+03  0.13659081948E+03  0.41800000000E+01 0. -1.
         -5    1    1    2    0  502  0.44665729429E+02 -0.45869968588E+02  0.69912329935E+02  0.94890925176E+02  0.41800000000E+01 0. -1.
        -11    1    3    3    0    0  0.39875044492E+02 -0.41194874333E+01  0.12491102755E+03  0.13118595258E+03  0.00000000000E+00 0. -1.
         11    1    3    3    0    0 -0.24754420298E+02  0.34946204568E+02  0.35450690991E+02  0.55594694258E+02  0.00000000000E+00 0.  1.
</event>
<event>
 7    1  0.5137842E-006  0.8742380E+02  0.7561462E-02  0.1309213E+00
          2   -1    0    0  501    0  0.00000000000E+00  0.00000000000E+00  0.36065290856E+03  0.36065290856E+03  0.00000000000E+00 0. -1.
         -2   -1    0    0    0  501 -0.00000000000E+00 -0.00000000000E+00 -0.50500606646E+02  0.50500606646E+02  0.00000000000E+00 0.  1.
         23    2    1    2    0    0  0.15339346040E+02 -0.78634671723E+02  0.16442820028E+03  0.20306356439E+03  0.88201309525E+02 0.  0.
          5    1    1    2  502    0  0.25938297441E-01  0.56227437077E+02  0.16509767166E+03  0.17445984908E+03  0.41800000000E+01 0.  1.
         -5    1    1    2    0  502 -0.15365284337E+02  0.22407234646E+02 -0.19373570027E+02  0.33630101737E+02  0.41800000000E+01 0.  1.
        -11    1    3    3    0    0 -0.14683679013E+02 -0.35542974449E+02  0.13991751374E+03  0.14510625112E+03  0.00000000000E+00 0. -1.
         11    1    3    3    0    0  0.30023025053E+02 -0.43091697274E+02  0.24510686541E+02  0.57957313275E+02  0.00000000000E+00 0.  1.
</event>
<event>
 7    1  0.5137842E-006  0.1229412E+03  0.7561462E-02  0.1238322E+00
         -4   -1    0    0    0  501 -0.00000000000E+00  0.00000000000E+00  0.13257315156E+03  0.13257315156E+03  0.00000000000E+00 0. -1.
          4   -1    0    0  501    0  0.00000000000E+00 -0.00000000000E+00 -0.20814977593E+03  0.20814977593E+03  0.00000000000E+00 0.  1.
         23    2    1    2    0    0 -0.90411007616E+01  0.65856960401E+02 -0.14603108922E+03  0.18251050774E+03  0.86983479344E+02 0.  0.
          5    1    1    2  502    0 -0.41700783257E+01  0.36930354895E+02  0.24911940508E+02  0.44936820602E+02  0.41800000000E+01 0.  1.
         -5    1    1    2    0  502  0.13211179087E+02 -0.10278731530E+03  0.45542524346E+02  0.11327559915E+03  0.41800000000E+01 0.  1.
        -11    1    3    3    0    0 -0.26309228415E+02  0.78870810229E+02 -0.90378691077E+02  0.12280508136E+03  0.00000000000E+00 0.  1.
         11    1    3    3    0    0  0.17268127654E+02 -0.13013849828E+02 -0.55652398147E+02  0.59705426382E+02  0.00000000000E+00 0. -1.
</event>
<event>
 7    1  0.5137842E-006  0.1056891E+03  0.7561462E-02  0.1268768E+00
          1   -1    0    0  501    0  0.00000000000E+00  0.00000000000E+00  0.97561643802E+03  0.97561643802E+03  0.00000000000E+00 0. -1.
         -1   -1    0    0    0  501 -0.00000000000E+00 -0.00000000000E+00 -0.13757353673E+02  0.13757353673E+02  0.00000000000E+00 0.  1.
         23    2    1    2    0    0 -0.13180824236E+02 -0.39709726079E+02  0.45144345131E+03  0.46219240825E+03  0.89833379325E+02 0.  0.
          5    1    1    2  502    0  0.54214121047E+02 -0.35069973428E+01  0.37808190012E+03  0.38198804373E+03  0.41800000000E+01 0. -1.
         -5    1    1    2    0  502 -0.41033296811E+02  0.43216723422E+02  0.13233373292E+03  0.14519333972E+03  0.41800000000E+01 0. -1.
        -11    1    3    3    0    0  0.29912709543E+02  0.98333762403E+01  0.10660154744E+03  0.11115464631E+03  0.00000000000E+00 0.  1.
         11    1    3    3    0    0 -0.43093533779E+02 -0.49543102320E+02  0.34484190387E+03  0.35103776193E+03  0.00000000000E+00 0. -1.
</event>
<event>
 7    1  0.5137842E-006  0.2399593E+03  0.7561462E-02  0.1119820E+00
         -1   -1    0    0    0  501 -0.00000000000E+00  0.00000000000E+00  0.20721249809E+03  0.20721249809E+03  0.00000000000E+00 0.  1.
          1   -1    0    0  501    0  0.00000000000E+00 -0.00000000000E+00 -0.32054540515E+03  0.32054540515E+03  0.00000000000E+00 0. -1.
         23    2    1    2    0    0 -0.86541857795E+02 -0.21057208200E+03 -0.10765666572E+03  0.26792124497E+03  0.91442555540E+02 0.  0.
          5    1    1    2  502    0 -0.22810309519E+02  0.23396955666E+02  0.24329312681E+02  0.40952601997E+02  0.41800000000E+01 0.  1.
         -5    1    1    2    0  502  0.10935216731E+03  0.18717512634E+03 -0.30005554015E+02  0.21888405627E+03  0.41800000000E+01 0.  1.
        -11    1    3    3    0    0 -0.15924865127E+02 -0.81406901774E+02  0.41702211281E+01  0.83054655077E+02  0.00000000000E+00 0. -1.
         11    1    3    3    0    0 -0.70616992668E+02 -0.12916518023E+03 -0.11182688685E+03  0.18486658990E+03  0.00000000000E+00 0.  1.
</event>
<event>
 7    1  0.5137842E-006  0.1097073E+03  0.7561462E-02  0.1261113E+00
          3   -1    0    0  501    0  0.00000000000E+00  0.00000000000E+00  0.16057484468E+03  0.16057484468E+03  0.00000000000E+00 0. -1.
         -3   -1    0    0    0  501 -0.00000000000E+00 -0.00000000000E+00 -0.11559057092E+03  0.11559057092E+03  0.00000000000E+00 0.  1.
         23    2    1    2    0    0 -0.48413285802E+02  0.29021823543E+02  0.84348282012E+02  0.13339493505E+03  0.86564793858E+02 0.  0.
          5    1    1    2  502    0 -0.31075657812E+02  0.11383224840E+01 -0.47858342497E+02  0.57226616474E+02  0.41800000000E+01 0. -1.
         -5    1    1    2    0  502  0.79488943614E+02 -0.30160146027E+02  0.84943342459E+01  0.85543864067E+02  0.41800000000E+01 0. -1.
        -11    1    3    3    0    0 -0.72990272566E+02  0.14647365899E+02  0.55449579689E+02  0.92826618513E+02  0.00000000000E+00 0.  1.
         11    1    3    3    0    0  0.24576986763E+02  0.14374457644E+02  0.28898702324E+02  0.40568316540E+02  0.00000000000E+00 0. -1.
</event>
<event>
 7    1  0.5137842E-006  0.1077688E+03  0.7561462E-02  0.1264758E+00
         -2   -1    0    0    0  501 -0.00000000000E+00  0.00000000000E+00  0.68705276918E+02  0.68705276918E+02  0.00000000000E+00 0.  1.
          2   -1    0    0  501    0  0.00000000000E+00 -0.00000000000E+00 -0.22799814092E+03  0.22799814092E+03  0.00000000000E+00 0. -1.
         23    2    1    2    0    0  0.18392715872E+02  0.21796641523E+02 -0.13665158858E+03  0.16642174750E+03  0.90604391725E+02 0.  0.
          5    1    1    2  502    0  0.42892787484E+02  0.26061484853E+02 -0.68608786716E+01  0.50828498572E+02  0.41800000000E+01 0. -1.
         -5    1    1    2    0  502 -0.61285503356E+02 -0.47858126376E+02 -0.15780396744E+02  0.79453171763E+02  0.41800000000E+01 0. -1.
        -11    1    3    3    0    0 -0.23045056219E+02  0.36642715020E+02 -0.35059812822E+02  0.55704161920E+02  0.00000000000E+00 0.  1.
         11    1    3    3    0    0  0.41437772091E+02 -0.14846073497E+02 -0.10159177576E+03  0.11071758558E+03  0.00000000000E+00 0. -1.
</event>
<event>
 7    1  0.5137842E-006  0.9409862E+02  0.7561462E-02  0.1293219E+00
          1   -1    0    0  501    0  0.00000000000E+00  0.00000000000E+00  0.17237100192E+03  0.17237100192E+03  0.00000000000E+00 0. -1.
         -1   -1    0    0    0  501 -0.00000000000E+00 -0.00000000000E+00 -0.10580196383E+03  0.10580196383E+03  0.00000000000E+00 0.  1.
         23    2    1    2    0    0 -0.53523348094E+02  0.29817464511E+02  0.85277183575E+02  0.13763538559E+03  0.88980173892E+02 0.  0.
          5    1    1    2  502    0  0.65052070699E+02 -0.46373675968E+02  0.31724056505E+02  0.86059153413E+02  0.41800000000E+01 0.  1.
         -5    1    1    2    0  502 -0.11528722605E+02  0.16556211458E+02 -0.50432201990E+02  0.54478426742E+02  0.41800000000E+01 0.  1.
        -11    1    3    3    0    0  0.73089626682E+01  0.25593568353E+02 -0.65449530615E+01  0.27409634928E+02  0.00000000000E+00 0. -1.
         11    1    3    3    0    0 -0.60832310763E+02  0.42238961574E+01  0.91822136636E+02  0.11022575066E+03  0.00000000000E+00 0.  1.
</event>
<event>
 7    1  0.5137842E-006  0.1190179E+03  0.7561462E-02  0.1244726E+00
          1   -1    0    0  501    0  0.00000000000E+00  0.00000000000E+00  0.14417430457E+03  0.14417430457E+03  0.00000000000E+00 0. -1.
         -1   -1    0    0    0  501 -0.00000000000E+00 -0.00000000000E+00 -0.13285747139E+03  0.13285747139E+03  0.00000000000E+00 0.  1.
         23    2    1    2    0    0  0.37236378689E+02  0.58684510060E+02  0.51332669198E+02  0.12843215093E+03  0.95022917478E+02 0.  0.
          5    1    1    2  502    0 -0.36580786711E+02  0.20484420903E+02  0.22380702717E+02  0.47708843104E+02  0.41800000000E+01 0. -1.
         -5    1    1    2    0  502 -0.65559197758E+00 -0.79168930963E+02 -0.62396538738E+02  0.10089078192E+03  0.41800000000E+01 0. -1.
        -11    1    3    3    0    0  0.68927124284E+02  0.37103680058E+02  0.26025804568E+02  0.82492266542E+02  0.00000000000E+00 0. -1.
         11    1    3    3    0    0 -0.31690745595E+02  0.21580830002E+02  0.25306864631E+02  0.45939884385E+02  0.00000000000E+00 0.  1.
</event>
<event>
 7    1  0.5137842E-006  0.1070190E+03  0.7561462E-02  0.1266192E+00
          1   -1    0    0  501    0  0.00000000000E+00  0.00000000000E+00  0.42987374263E+02  0.42987374263E+02  0.00000000000E+00 0.  1.
         -1   -1    0    0    0  501 -0.00000000000E+00 -0.00000000000E+00 -0.39545323225E+03  0.39545323225E+03  0.00000000000E+00 0. -1.
         23    2    1    2    0    0  0.10969028223E+02 -0.23688765389E+01 -0.37270655233E+02  0.99144545647E+02  0.91184472548E+02 0.  0.
          5    1    1    2  502    0 -0.33379121839E+02 -0.53779105152E+02 -0.18776545534E+03  0.19819106071E+03  0.41800000000E+01 0.  1.
         -5    1    1    2    0  502  0.22410093616E+02  0.56147981691E+02 -0.12742974742E+03  0.14110500016E+03  0.41800000000E+01 0.  1.
        -11    1    3    3    0    0 -0.39484096465E+02 -0.23146109261E+01 -0.65953745009E+01  0.40098008208E+02  0.00000000000E+00 0. -1.
         11    1    3    3    0    0  0.50453124688E+02 -0.54265612810E-01 -0.30675280732E+02  0.59046537439E+02  0.00000000000E+00 0.  1.
</event>
<event>
 7    1  0.5137842E-006  0.1220718E+03  0.7561462E-02  0.1239718E+00
         -2   -1    0    0    0  501 -0.00000000000E+00  0.00000000000E+00  0.14854237913E+03  0.14854237913E+03  0.00000000000E+00 0.  1.
          2   -1    0    0  501    0  0.00000000000E+00 -0.00000000000E+00 -0.14156770616E+03  0.14156770616E+03  0.00000000000E+00 0. -1.
         23    2    1    2    0    0  0.62650469751E+02  0.66748752993E+02 -0.26875388394E+02  0.13144766765E+03  0.90419718215E+02 0.  0.
          5    1    1    2  502    0  0.21941830148E+02 -0.14495192179E+02  0.51137163586E+02  0.57654456950E+02  0.41800000000E+01 0.  1.
         -5    1    1    2    0  502 -0.84592299899E+02 -0.52253560815E+02 -0.17287102230E+02  0.10100796069E+03  0.41800000000E+01 0.  1.
        -11    1    3    3    0    0  0.79881700871E+02  0.51987782768E+02 -0.42027762358E+02  0.10416404610E+03  0.00000000000E+00 0. -1.
         11    1    3    3    0    0 -0.17231231120E+02  0.14760970225E+02  0.15152373964E+02  0.27283621546E+02  0.00000000000E+00 0.  1.
</event>
<event>
 7    1  0.5137842E-006  0.1192381E+03  0.7561462E-02  0.1244359E+00
         -2   -1    0    0    0  501 -0.00000000000E+00  0.00000000000E+00  0.59709613818E+02  0.59709613818E+02  0.00000000000E+00 0.  1.
          2   -1    0    0  501    0  0.00000000000E+00 -0.00000000000E+00 -0.37776927390E+03  0.37776927390E+03  0.00000000000E+00 0. -1.
         23    2    1    2    0    0 -0.46579269683E+02  0.12075710340E+02 -0.25616084972E+03  0.27563141021E+03  0.89659590790E+02 0.  0.
          5    1    1    2  502    0 -0.46600345954E+02 -0.18662418805E+02 -0.12351311642E+01  0.50387260966E+02  0.41800000000E+01 0. -1.
         -5    1    1    2    0  502  0.93179615636E+02  0.65867084651E+01 -0.60663679206E+02  0.11146021655E+03  0.41800000000E+01 0.  1.
        -11    1    3    3    0    0  0.11660249343E+02 -0.23583882100E+02 -0.32704563637E+02  0.41973198500E+02  0.00000000000E+00 0.  1.
         11    1    3    3    0    0 -0.58239519025E+02  0.35659592440E+02 -0.22345628608E+03  0.23365821171E+03  0.00000000000E+00 0. -1.
</event>
<event>
 7    1  0.5137842E-006  0.1113249E+03  0.7561462E-02  0.1258136E+00
          2   -1    0    0  501    0  0.00000000000E+00  0.00000000000E+00  0.28670039354E+03  0.28670039354E+03  0.00000000000E+00 0. -1.
         -2   -1    0    0    0  501 -0.00000000000E+00 -0.00000000000E+00 -0.45501103805E+02  0.45501103805E+02  0.00000000000E+00 0.  1.
         23    2    1    2    0    0  0.32259854634E+02 -0.15719251710E+02  0.87737152535E+02  0.13099049988E+03  0.90404148286E+02 0.  0.
          5    1    1    2  502    0 -0.42417012084E+02 -0.47405614033E+02  0.57660121811E+02  0.85957298720E+02  0.41800000000E+01 0. -1.
         -5    1    1    2    0  502  0.10157157450E+02  0.63124865743E+02  0.95802015385E+02  0.11525369874E+03  0.41800000000E+01 0. -1.
        -11    1    3    3    0    0 -0.30626982450E+02 -0.49032486751E+01  0.43170790724E+02  0.53157982216E+02  0.00000000000E+00 0.  1.
         11    1    3    3    0    0  0.62886837084E+02 -0.10816003035E+02  0.44566361811E+02  0.77832517659E+02  0.00000000000E+00 0. -1.
</event>
<event>
 6    1  0.5137842E-006  0.1103004E+03  0.7561462E-02  0.1260015E+00
         -4   -1    0    0    0  501 -0.00000000000E+00  0.00000000000E+00  0.56879074031E+03  0.56879074031E+03  0.00000000000E+00 0.  1.
          4   -1    0    0  501    0  0.00000000000E+00 -0.00000000000E+00 -0.13485749166E+03  0.13485749166E+03  0.00000000000E+00 0. -1.
          5    1    1    2  502    0 -0.78852619365E+01  0.18942593177E+02 -0.51712925179E+01  0.21568816805E+02  0.41800000000E+01 0. -1.
         -5    1    1    2    0  502 -0.54773570148E+02  0.68952865717E+02  0.52808309844E+03  0.53539132692E+03  0.41800000000E+01 0.  1.
        -11    1    1    2    0    0  0.24232030684E+02 -0.57859203873E+02 -0.28243642230E+02  0.68793765054E+02  0.00000000000E+00 0. -1.
         11    1    1    2    0    0  0.38426801401E+02 -0.30036255021E+02 -0.60734915041E+02  0.77894323199E+02  0.00000000000E+00 0.  1.
</event>
<event>
 7    1  0.5137842E-006  0.9724324E+02  0.7561462E-02  0.1286202E+00
          1   -1    0    0  501    0  0.00000000000E+00  0.00000000000E+00  0.34776461618E+02  0.34776461618E+02  0.00000000000E+00 0. -1.
         -1   -1    0    0    0  501 -0.00000000000E+00 -0.00000000000E+00 -0.41921560761E+03  0.41921560761E+03  0.00000000000E+00 0.  1.
         23    2    1    2    0    0 -0.15079252903E+01 -0.12784741105E+02 -0.17832370220E+03  0.21254436255E+03  0.11493493743E+03 0.  0.
          5    1    1    2  502    0  0.57727442647E+02 -0.19072629757E+02 -0.10359710650E+03  0.12019174562E+03  0.41800000000E+01 0.  1.
         -5    1    1    2    0  502 -0.56219517357E+02  0.31857370862E+02 -0.10251833730E+03  0.12125596106E+03  0.41800000000E+01 0.  1.
        -11    1    3    3    0    0 -0.13416007433E+02 -0.38329189788E+02 -0.17979326949E+03  0.18432236923E+03  0.00000000000E+00 0.  1.
         11    1    3    3    0    0  0.11908082142E+02  0.25544448683E+02  0.14695672935E+01  0.28221993318E+02  0.00000000000E+00 0. -1.
</event>
<event>
 7    1  0.5137842E-006  0.1643093E+03  0.7561462E-02  0.1183916E+00
         -1   -1    0    0    0  501 -0.00000000000E+00  0.00000000000E+00  0.44795498526E+02  0.44795498526E+02  0.00000000000E+00 0.  1.
          1   -1    0    0  501    0  0.00000000000E+00 -0.00000000000E+00 -0.87795708807E+03  0.87795708807E+03  0.00000000000E+00 0. -1.
         23    2    1    2    0    0  0.10907181771E+03  0.10874051427E+03 -0.52890606053E+03  0.55951970063E+03  0.97977107842E+02 0.  0.
          5    1    1    2  502    0 -0.38932563685E+02 -0.66602375615E+02 -0.40880954491E+02  0.87409071570E+02  0.41800000000E+01 0.  1.
         -5    1    1    2    0  502 -0.70139254026E+02 -0.42138138655E+02 -0.26337457452E+03  0.27582381439E+03  0.41800000000E+01 0.  1.
        -11    1    3    3    0    0 -0.99439784000E+01  0.34571037813E+01 -0.42922274323E+01  0.11369146375E+02  0.00000000000E+00 0.  1.
         11    1    3    3    0    0  0.11901579611E+03  0.10528341049E+03 -0.52461383310E+03  0.54815055425E+03  0.00000000000E+00 0. -1.
</event>
<event>
 7    1  0.5137842E-006  0.9574283E+02  0.7561462E-02  0.1289512E+00
         -3   -1    0    0    0  501 -0.00000000000E+00  0.00000000000E+00  0.12140290808E+04  0.12140290808E+04  0.00000000000E+00 0.  1.
          3   -1    0    0  501    0  0.00000000000E+00 -0.00000000000E+00 -0.13272102812E+02  0.13272102812E+02  0.00000000000E+00 0. -1.
         23    2    1    2    0    0 -0.46999314562E+02 -0.41565792975E+01  0.33796245312E+03  0.35420966627E+03  0.94971865515E+02 0.  0.
          5    1    1    2  502    0  0.73834237677E+02 -0.18119730761E+01  0.27916147078E+03  0.28879642842E+03  0.41800000000E+01 0. -1.
         -5    1    1    2    0  502 -0.26834923116E+02  0.59685523736E+01  0.58363305406E+03  0.58429508889E+03  0.41800000000E+01 0. -1.
        -11    1    3    3    0    0 -0.44339826349E+02 -0.36390421686E+02  0.29449488898E+03  0.30002920295E+03  0.00000000000E+00 0.  1.
         11    1    3    3    0    0 -0.26594882130E+01  0.32233842389E+02  0.43467564142E+02  0.54180463316E+02  0.00000000000E+00 0. -1.
</event>
<event>
 7    1  0.5137842E-006  0.7963232E+02  0.7561462E-02  0.1330098E+00
          2   -1    0    0  501    0  0.00000000000E+00  0.00000000000E+00  0.12659080110E+03  0.12659080110E+03  0.00000000000E+00 0. -1.
         -2   -1    0    0    0  501 -0.00000000000E+00 -0.00000000000E+00 -0.10046304201E+03  0.10046304201E+03  0.00000000000E+00 0.  1.
         23    2    1    2    0    0  0.26406733277E+02 -0.96210716756E+01  0.28993544376E+02  0.98808275754E+02  0.90180758255E+02 0.  0.
          5    1    1    2  502    0 -0.25570652989E+02  0.34322135479E+02  0.52265607108E+02  0.67683331511E+02  0.41800000000E+01 0.  1.
         -5    1    1    2    0  502 -0.83608028858E+00 -0.24701063803E+02 -0.55131392394E+02  0.60562235845E+02  0.41800000000E+01 0.  1.
        -11    1    3    3    0    0 -0.32123489931E+02 -0.45662514438E+01 -0.17665567613E+01  0.32494460765E+02  0.00000000000E+00 0. -1.
         11    1    3    3    0    0  0.58530223209E+02 -0.50548202318E+01  0.30760101138E+02  0.66313814989E+02  0.00000000000E+00 0.  1.
</event>
<event>
 7    1  0.5137842E-006  0.1067423E+03  0.7561462E-02  0.1266724E+00
          1   -1    0    0  501    0  0.00000000000E+00  0.00000000000E+00  0.47538986376E+03  0.47538986376E+03  0.00000000000E+00 0. -1.
         -1   -1    0    0    0  501 -0.00000000000E+00 -0.00000000000E+00 -0.25096022453E+02  0.25096022453E+02  0.00000000000E+00 0.  1.
         23    2    1    2    0    0 -0.11854551939E+02  0.22379163968E+01  0.17174760258E+03  0.19490401251E+03  0.91349857304E+02 0.  0.
          5    1    1    2  502    0  0.64489438621E+02  0.18949284355E+02  0.12783095053E+03  0.14448594182E+03  0.41800000000E+01 0. -1.
         -5    1    1    2    0  502 -0.52634886682E+02 -0.21187200751E+02  0.15071528820E+03  0.16109593188E+03  0.41800000000E+01 0. -1.
        -11    1    3    3    0    0  0.38322200416E+02 -0.46323478076E+01  0.99038357355E+02  0.10629508887E+03  0.00000000000E+00 0.  1.
         11    1    3    3    0    0 -0.50176752355E+02  0.68702642044E+01  0.72709245225E+02  0.88608923638E+02  0.00000000000E+00 0. -1.
</event>
<event>
 7    1  0.5137842E-006  0.1376338E+03  0.7561462E-02  0.1216549E+00
          2   -1    0    0  501    0  0.00000000000E+00  0.00000000000E+00  0.15926612394E+03  0.15926612394E+03  0.00000000000E+00 0. -1.
         -2   -1    0    0    0  501 -0.00000000000E+00 -0.00000000000E+00 -0.14367148364E+03  0.14367148364E+03  0.00000000000E+00 0.  1.
         23    2    1    2    0    0  0.10582645126E+03  0.31150958603E+01  0.81792943694E+01  0.13889060557E+03  0.89525179994E+02 0.  0.
          5    1    1    2  502    0 -0.48419058578E+02 -0.52892102420E+02  0.38908199911E+02  0.81690269630E+02  0.41800000000E+01 0. -1.
         -5    1    1    2    0  502 -0.57407392677E+02  0.49777006560E+02 -0.31492853985E+02  0.82356732379E+02  0.41800000000E+01 0. -1.
        -11    1    3    3    0    0  0.75569404704E+02  0.35090448842E+02  0.31498101611E+02  0.89074154121E+02  0.00000000000E+00 0. -1.
         11    1    3    3    0    0  0.30257046551E+02 -0.31975352981E+02 -0.23318807242E+02  0.49816451454E+02  0.00000000000E+00 0.  1.
</event>
<event>
 7    1  0.5137842E-006  0.2116919E+03  0.7561462E-02  0.1140233E+00
         -2   -1    0    0    0  501 -0.00000000000E+00  0.00000000000E+00  0.21536908500E+03  0.21536908500E+03  0.00000000000E+00 0.  1.
          2   -1    0    0  501    0  0.00000000000E+00 -0.00000000000E+00 -0.25543377493E+03  0.25543377493E+03  0.00000000000E+00 0. -1.
         23    2    1    2    0    0  0.48500506548E+02 -0.19353816342E+03 -0.76869951719E+02  0.23245227458E+03  0.91190737691E+02 0.  0.
          5    1    1    2  502    0 -0.21779029962E+02  0.16102179815E+03 -0.23977565134E+02  0.16430076584E+03  0.41800000000E+01 0. -1.
         -5    1    1    2    0  502 -0.26721476586E+02  0.32516365270E+02  0.60782826917E+02  0.74049819509E+02  0.41800000000E+01 0. -1.
        -11    1    3    3    0    0  0.64824174968E+02 -0.76041408691E+02 -0.25126500472E+02  0.10303305548E+03  0.00000000000E+00 0.  1.
         11    1    3    3    0    0 -0.16323668420E+02 -0.11749675473E+03 -0.51743451246E+02  0.12941921909E+03  0.00000000000E+00 0. -1.
</event>
<event>
 7    1  0.5137842E-006  0.9957033E+02  0.7561462E-02  0.1281202E+00
          1   -1    0    0  501    0  0.00000000000E+00  0.00000000000E+00  0.77855323216E+02  0.77855323216E+02  0.00000000000E+00 0. -1.
         -1   -1    0    0    0  501 -0.00000000000E+00 -0.00000000000E+00 -0.22528277018E+03  0.22528277018E+03  0.00000000000E+00 0.  1.
         23    2    1    2    0    0 -0.75445468281E+02 -0.71536880870E+01 -0.63101517023E+02  0.13431755369E+03  0.91193255466E+02 0.  0.
          5    1    1    2  502    0  0.17095518597E+02 -0.20890884388E+02 -0.98668312043E+02  0.10237965622E+03  0.41800000000E+01 0.  1.
         -5    1    1    2    0  502  0.58349949684E+02  0.28044572475E+02  0.14342382101E+02  0.66440883481E+02  0.41800000000E+01 0.  1.
        -11    1    3    3    0    0 -0.83080017934E+02  0.14189300597E+02 -0.21564396604E+02  0.86997981771E+02  0.00000000000E+00 0. -1.
         11    1    3    3    0    0  0.76345496523E+01 -0.21342988684E+02 -0.41537120419E+02  0.47319571924E+02  0.00000000000E+00 0.  1.
</event>
<event>
 7    1  0.5137842E-006  0.2101453E+03  0.7561462E-02  0.1141451E+00
          2   -1    0    0  501    0  0.00000000000E+00  0.00000000000E+00  0.44106754254E+02  0.44106754254E+02  0.00000000000E+00 0. -1.
         -2   -1    0    0    0  501 -0.00000000000E+00 -0.00000000000E+00 -0.11400373509E+04  0.11400373509E+04  0.00000000000E+00 0.  1.
         23    2    1    2    0    0 -0.58497112876E+02  0.18053904310E+03 -0.43049674107E+03  0.48095897873E+03  0.99889122793E+02 0.  0.
          5    1    1    2  502    0  0.96554897700E+02 -0.10722055969E+03 -0.43845398606E+03  0.46160423198E+03  0.41800000000E+01 0.  1.
         -5    1    1    2    0  502 -0.38057784824E+02 -0.73318483407E+02 -0.22697986951E+03  0.24158089443E+03  0.41800000000E+01 0.  1.
        -11    1    3    3    0    0 -0.38892596166E+02  0.62795276511E+02 -0.27605632779E+03  0.28576734751E+03  0.00000000000E+00 0.  1.
         11    1    3    3    0    0 -0.19604516710E+02  0.11774376658E+03 -0.15444041328E+03  0.19519163122E+03  0.00000000000E+00 0. -1.
</event>
<event>
 7    1  0.5137842E-006  0.1114312E+03  0.7561462E-02  0.1257942E+00
         -3   -1    0    0    0  501 -0.00000000000E+00  0.00000000000E+00  0.43878005990E+02  0.43878005990E+02  0.00000000000E+00 0.  1.
          3   -1    0    0  501    0  0.00000000000E+00 -0.00000000000E+00 -0.38516079159E+03  0.38516079159E+03  0.00000000000E+00 0. -1.
         23    2    1    2    0    0  0.62443600279E+02  0.35162290574E+02 -0.16932363422E+03  0.20464395371E+03  0.89850235329E+02 0.  0.
          5    1    1    2  502    0 -0.96141738956E+02 -0.34112920005E+02 -0.91671201981E+02  0.13721518485E+03  0.41800000000E+01 0. -1.
         -5    1    1    2    0  502  0.33698138676E+02 -0.10493705693E+01 -0.80287949400E+02  0.87179659025E+02  0.41800000000E+01 0. -1.
        -11    1    3    3    0    0  0.21334321110E+02 -0.11797081171E+02 -0.20810823926E+00  0.24379657307E+02  0.00000000000E+00 0.  1.
         11    1    3    3    0    0  0.41109279169E+02  0.46959371745E+02 -0.16911552598E+03  0.18026429640E+03  0.00000000000E+00 0. -1.
</event>
<event>
 7    1  0.5137842E-006  0.1195345E+03  0.7561462E-02  0.1243867E+00
         -1   -1    0    0    0  501 -0.00000000000E+00  0.00000000000E+00  0.59509387816E+02  0.59509387816E+02  0.00000000000E+00 0.  1.
          1   -1    0    0  501    0  0.00000000000E+00 -0.00000000000E+00 -0.29099532707E+03  0.29099532707E+03  0.00000000000E+00 0. -1.
         23    2    1    2    0    0 -0.48382441871E+02 -0.52660623291E+02 -0.78816691413E+02  0.14057820338E+03  0.91848562830E+02 0.  0.
          5    1    1    2  502    0  0.74572889759E+02  0.77577368147E+02 -0.11510570735E+03  0.15762664813E+03  0.41800000000E+01 0. -1.
         -5    1    1    2    0  502 -0.26190447888E+02 -0.24916744857E+02 -0.37563540485E+02  0.52299863371E+02  0.41800000000E+01 0. -1.
        -11    1    3    3    0    0 -0.61263684663E+02 -0.28409836763E+02 -0.88623241403E+02  0.11142009155E+03  0.00000000000E+00 0. -1.
         11    1    3    3    0    0  0.12881242792E+02 -0.24250786528E+02  0.98065499899E+01  0.29158111835E+02  0.00000000000E+00 0.  1.
</event>
<event>
 7    1  0.5137842E-006  0.1108342E+03  0.7561462E-02  0.1259033E+00
         -1   -1    0    0    0  501 -0.00000000000E+00  0.00000000000E+00  0.56629560271E+02  0.56629560271E+02  0.00000000000E+00 0.  1.
          1   -1    0    0  501    0  0.00000000000E+00 -0.00000000000E+00 -0.22677114547E+03  0.22677114547E+03  0.00000000000E+00 0. -1.
         23    2    1    2    0    0  0.41822302377E+02  0.64664204476E+01 -0.89485650404E+02  0.12866332744E+03  0.82192765069E+02 0.  0.
          5    1    1    2  502    0 -0.83714599111E+02 -0.20280970538E+02 -0.64040493219E+02  0.10741559031E+03  0.41800000000E+01 0.  1.
         -5    1    1    2    0  502  0.41892296734E+02  0.13814550090E+02 -0.16615441574E+02  0.47321787989E+02  0.41800000000E+01 0.  1.
        -11    1    3    3    0    0  0.54390016325E+02 -0.23026064786E+02 -0.68007441598E+02  0.90074889109E+02  0.00000000000E+00 0.  1.
         11    1    3    3    0    0 -0.12567713947E+02  0.29492485234E+02 -0.21478208806E+02  0.38588438328E+02  0.00000000000E+00 0. -1.
</event>
<event>
 7    1  0.5890599E-006  0.1428065E+03  0.7561462E-02  0.1209602E+00
         -2   -1    0    0    0  501 -0.00000000000E+00  0.00000000000E+00  0.28474213290E+02  0.28474213290E+02  0.00000000000E+00 0. -1.
          2   -1    0    0  501    0  0.00000000000E+00 -0.00000000000E+00 -0.83489149719E+03  0.83489149719E+03  0.00000000000E+00 0.  1.
         23    2    1    2    0    0 -0.37357351605E+02 -0.99744520772E+02 -0.39115590023E+03  0.41678516353E+03  0.96759460097E+02 0.  0.
          5    1    1    2  502    0  0.78606558047E+02  0.53572414545E+02 -0.31099439762E+03  0.32524449622E+03  0.41800000000E+01 0. -1.
         -5    1    1    2    0  502 -0.41249206442E+02  0.46172106227E+02 -0.10426698606E+03  0.12133605073E+03  0.41800000000E+01 0. -1.
        -11    1    3    3    0    0 -0.46960437767E+02 -0.25422670117E+02 -0.26265862132E+03  0.26803198732E+03  0.00000000000E+00 0.  1.
         11    1    3    3    0    0  0.96030861624E+01 -0.74321850655E+02 -0.12849727890E+03  0.14875317621E+03  0.00000000000E+00 0. -1.
</event>
<event>
 7    1  0.5137842E-006  0.1282396E+03  0.7561462E-02  0.1230091E+00
          1   -1    0    0  501    0  0.00000000000E+00  0.00000000000E+00  0.85700183902E+02  0.85700183902E+02  0.00000000000E+00 0. -1.
         -1   -1    0    0    0  501 -0.00000000000E+00 -0.00000000000E+00 -0.34993622328E+03  0.34993622328E+03  0.00000000000E+00 0.  1.
         23    2    1    2    0    0  0.21243938327E+02  0.10400634871E+03 -0.20050568165E+02  0.14145364664E+03  0.91315296512E+02 0.  0.
          5    1    1    2  502    0 -0.50826074070E+02 -0.31889312616E+02 -0.32076709969E+02  0.68166016363E+02  0.41800000000E+01 0.  1.
         -5    1    1    2    0  502  0.29582135742E+02 -0.72117036097E+02 -0.21210876124E+03  0.22601674417E+03  0.41800000000E+01 0.  1.
        -11    1    3    3    0    0 -0.10699606344E+02  0.72911953117E+02  0.25248837883E+02  0.77898256064E+02  0.00000000000E+00 0. -1.
         11    1    3    3    0    0  0.31943544672E+02  0.31094395596E+02 -0.45299406048E+02  0.63555390581E+02  0.00000000000E+00 0.  1.
</event>
<event>
 7    1  0.5137842E-006  0.1301432E+03  0.7561462E-02  0.1227243E+00
          1   -1    0    0  501    0  0.00000000000E+00  0.00000000000E+00  0.66885218342E+02  0.66885218342E+02  0.00000000000E+00 0. -1.
         -1   -1    0    0    0  501 -0.00000000000E+00 -0.00000000000E+00 -0.27816092736E+03  0.27816092736E+03  0.00000000000E+00 0.  1.
         23    2    1    2    0    0  0.57329099918E+02 -0.48673465448E+02 -0.51003714332E+02  0.12827349688E+03  0.90537170209E+02 0.  0.
          5    1    1    2  502    0 -0.41619134827E+02 -0.37828399376E+02 -0.78305941753E+02  0.96500948684E+02  0.41800000000E+01 0.  1.
         -5    1    1    2    0  502 -0.15709965091E+02  0.86501864823E+02 -0.81966052929E+02  0.12027170014E+03  0.41800000000E+01 0.  1.
        -11    1    3    3    0    0  0.76232815216E+01 -0.63536967590E+02 -0.39274455235E+02  0.75083576804E+02  0.00000000000E+00 0.  1.
         11    1    3    3    0    0  0.49705818397E+02  0.14863502143E+02 -0.11729259097E+02  0.53189920073E+02  0.00000000000E+00 0. -1.
</event>
<event>
 7    1  0.5137842E-006  0.9966958E+02  0.7561462E-02  0.1280992E+00
          1   -1    0    0  501    0  0.00000000000E+00  0.00000000000E+00  0.41743369027E+02  0.41743369027E+02  0.00000000000E+00 0. -1.
         -1   -1    0    0    0  501 -0.00000000000E+00 -0.00000000000E+00 -0.29804580722E+03  0.29804580722E+03  0.00000000000E+00 0.  1.
         23    2    1    2    0    0 -0.18101252049E+02  0.10719280348E+02 -0.81736904587E+02  0.12403369539E+03  0.90889370792E+02 0.  0.
          5    1    1    2  502    0 -0.23859250807E+02  0.42327069054E+02 -0.11730222010E+03  0.12703593139E+03  0.41800000000E+01 0. -1.
         -5    1    1    2    0  502  0.41960502856E+02 -0.53046349402E+02 -0.57263313512E+02  0.88719549476E+02  0.41800000000E+01 0. -1.
        -11    1    3    3    0    0  0.22917095623E+02  0.29778764509E+02 -0.94229668079E+01  0.38739648823E+02  0.00000000000E+00 0. -1.
         11    1    3    3    0    0 -0.41018347672E+02 -0.19059484161E+02 -0.72313937779E+02  0.85294046565E+02  0.00000000000E+00 0.  1.
</event>
<event>
 7    1  0.5137842E-006  0.2365393E+03  0.7561462E-02  0.1122120E+00
          2   -1    0    0  501    0  0.00000000000E+00  0.00000000000E+00  0.45851715783E+03  0.45851715783E+03  0.00000000000E+00 0. -1.
         -2   -1    0    0    0  501 -0.00000000000E+00 -0.00000000000E+00 -0.18924149542E+03  0.18924149542E+03  0.00000000000E+00 0.  1.
         23    2    1    2    0    0  0.21600682855E+03 -0.16232630073E+02  0.31055453665E+03  0.39424862179E+03  0.10984264786E+03 0.  0.
          5    1    1    2  502    0  0.13088228947E+02 -0.81401442846E+01 -0.14433261833E+02  0.21525685426E+02  0.41800000000E+01 0.  1.
         -5    1    1    2    0  502 -0.22909505750E+03  0.24372774358E+02 -0.26845612413E+02  0.23198434604E+03  0.41800000000E+01 0.  1.
        -11    1    3    3    0    0  0.18858669333E+03 -0.37130221943E+02  0.19558341190E+03  0.27421973907E+03  0.00000000000E+00 0.  1.
         11    1    3    3    0    0  0.27420135217E+02  0.20897591870E+02  0.11497112474E+03  0.12002888272E+03  0.00000000000E+00 0. -1.
</event>
<event>
 7    1  0.5137842E-006  0.1432462E+03  0.7561462E-02  0.1209026E+00
         -2   -1    0    0    0  501 -0.00000000000E+00  0.00000000000E+00  0.44482313920E+02  0.44482313920E+02  0.00000000000E+00 0.  1.
          2   -1    0    0  501    0  0.00000000000E+00 -0.00000000000E+00 -0.48141722649E+03  0.48141722649E+03  0.00000000000E+00 0. -1.
         23    2    1    2    0    0 -0.87140622233E+02  0.43602597000E+02 -0.17551295938E+03  0.22014748390E+03  0.90362831128E+02 0.  0.
          5    1    1    2  502    0 -0.15404023319E+02  0.25353149393E+02 -0.86515205453E+02  0.91555553043E+02  0.41800000000E+01 0.  1.
         -5    1    1    2    0  502  0.10254464555E+03 -0.68955746393E+02 -0.17490674774E+03  0.21419650347E+03  0.41800000000E+01 0.  1.
        -11    1    3    3    0    0  0.94992164174E+00  0.44781318349E+02 -0.58656449600E+02  0.73802763525E+02  0.00000000000E+00 0.  1.
         11    1    3    3    0    0 -0.88090543875E+02 -0.11787213484E+01 -0.11685650978E+03  0.14634472037E+03  0.00000000000E+00 0. -1.
</event>
<event>
 7    1  0.5137842E-006  0.8803507E+02  0.7561462E-02  0.1307681E+00
         -1   -1    0    0    0  501 -0.00000000000E+00  0.00000000000E+00  0.47825468800E+03  0.47825468800E+03  0.00000000000E+00 0.  1.
          1   -1    0    0  501    0  0.00000000000E+00 -0.00000000000E+00 -0.30806210453E+02  0.30806210453E+02  0.00000000000E+00 0. -1.
         23    2    1    2    0    0 -0.46439275164E+02 -0.30474570810E+02  0.18982014871E+03  0.21733387928E+03  0.90094508606E+02 0.  0.
          5    1    1    2  502    0  0.61801400612E+02  0.15716494461E+02  0.45397832632E+02  0.78389137790E+02  0.41800000000E+01 0.  1.
         -5    1    1    2    0  502 -0.15362125448E+02  0.14758076349E+02  0.21223049621E+03  0.21333788139E+03  0.41800000000E+01 0.  1.
        -11    1    3    3    0    0  0.16289842163E+02 -0.21673277997E+02  0.12015676521E+03  0.12317766909E+03  0.00000000000E+00 0.  1.
         11    1    3    3    0    0 -0.62729117327E+02 -0.88012928133E+01  0.69663383499E+02  0.94156210185E+02  0.00000000000E+00 0. -1.
</event>
<event>
 7    1  0.5137842E-006  0.1274947E+03  0.7561462E-02  0.1231221E+00
         -2   -1    0    0    0  501 -0.00000000000E+00  0.00000000000E+00  0.37274995822E+02  0.37274995822E+02  0.00000000000E+00 0.  1.
          2   -1    0    0  501    0  0.00000000000E+00 -0.00000000000E+00 -0.57934984524E+03  0.57934984524E+03  0.00000000000E+00 0. -1.
         23    2    1    2    0    0 -0.41046974171E+02 -0.88850632654E+02 -0.20608132292E+03  0.24499333104E+03  0.89291273870E+02 0.  0.
          5    1    1    2  502    0  0.60010878636E+02  0.87090471605E+02 -0.33584756364E+03  0.35213223965E+03  0.41800000000E+01 0.  1.
         -5    1    1    2    0  502 -0.18963904465E+02  0.17601610494E+01 -0.14596285636E+00  0.19499270361E+02  0.41800000000E+01 0.  1.
        -11    1    3    3    0    0 -0.65763166043E+02 -0.46269122051E+02 -0.15128922637E+03  0.17133025325E+03  0.00000000000E+00 0. -1.
         11    1    3    3    0    0  0.24716191872E+02 -0.42581510604E+02 -0.54792096542E+02  0.73663077789E+02  0.00000000000E+00 0.  1.
</event>
<event>
 7    1  0.5137842E-006  0.8855702E+02  0.7561462E-02  0.1306384E+00
          3   -1    0    0  501    0  0.00000000000E+00  0.00000000000E+00  0.17369707774E+02  0.17369707774E+02  0.00000000000E+00 0. -1.
         -3   -1    0    0    0  501 -0.00000000000E+00 -0.00000000000E+00 -0.88737978116E+03  0.88737978116E+03  0.00000000000E+00 0.  1.
         23    2    1    2    0    0 -0.54648226407E+02 -0.45604069059E+02 -0.38067712083E+03  0.39809138244E+03  0.92171138005E+02 0.  0.
          5    1    1    2  502    0  0.29524823308E+02  0.47562442046E+01 -0.23286626176E+02  0.38132353834E+02  0.41800000000E+01 0. -1.
         -5    1    1    2    0  502  0.25123403100E+02  0.40847824854E+02 -0.46604632637E+03  0.46852575266E+03  0.41800000000E+01 0.  1.
        -11    1    3    3    0    0 -0.70697593397E+02 -0.42327696702E+02 -0.36870975745E+03  0.37780506727E+03  0.00000000000E+00 0. -1.
         11    1    3    3    0    0  0.16049366990E+02 -0.32763723569E+01 -0.11967363389E+02  0.20286315167E+02  0.00000000000E+00 0.  1.
</event>
<event>
 7    1  0.5137842E-006  0.2075278E+03  0.7561462E-02  0.1143539E+00
          1   -1    0    0  501    0  0.00000000000E+00  0.00000000000E+00  0.20324367436E+03  0.20324367436E+03  0.00000000000E+00 0. -1.
         -1   -1    0    0    0  501 -0.00000000000E+00 -0.00000000000E+00 -0.24985420145E+03  0.24985420145E+03  0.00000000000E+00 0.  1.
         23    2    1    2    0    0 -0.23904943326E+01 -0.19456643735E+03  0.85172580542E+00  0.21697033654E+03  0.95987439251E+02 0.  0.
          5    1    1    2  502    0 -0.13501706257E+02  0.15351959317E+03 -0.86819484777E+02  0.17693404674E+03  0.41800000000E+01 0. -1.
         -5    1    1    2    0  502  0.15892200590E+02  0.41046844175E+02  0.39357231880E+02  0.59193492527E+02  0.41800000000E+01 0. -1.
        -11    1    3    3    0    0  0.37030690767E+02 -0.16004359309E+03  0.54984255117E+01  0.16436379295E+03  0.00000000000E+00 0. -1.
         11    1    3    3    0    0 -0.39421185099E+02 -0.34522844254E+02 -0.46466997063E+01  0.52606543587E+02  0.00000000000E+00 0.  1.
</event>
<event>
 6    1  0.5137842E-006  0.1578657E+03  0.7561462E-02  0.1191128E+00
         -1   -1    0    0    0  501 -0.00000000000E+00  0.00000000000E+00  0.12714386792E+03  0.12714386792E+03  0.00000000000E+00 0.  1.
          1   -1    0    0  501    0  0.00000000000E+00 -0.00000000000E+00 -0.37791290545E+03  0.37791290545E+03  0.00000000000E+00 0. -1.
          5    1    1    2  502    0  0.72194472440E+01  0.74494082329E+02  0.14102943091E+02  0.76274859059E+02  0.41800000000E+01 0. -1.
         -5    1    1    2    0  502  0.70559286673E+02 -0.32963850082E+02  0.94497498648E+01  0.78562067949E+02  0.41800000000E+01 0. -1.
        -11    1    1    2    0    0 -0.78327359617E+01 -0.81730372311E+02 -0.25411871048E+03  0.26705341138E+03  0.00000000000E+00 0. -1.
         11    1    1    2    0    0 -0.69945997955E+02  0.40200140063E+02 -0.20203019996E+02  0.83166434984E+02  0.00000000000E+00 0.  1.
</event>
<event>
 7    1  0.5137842E-006  0.1076319E+03  0.7561462E-02  0.1265019E+00
         -4   -1    0    0    0  501 -0.00000000000E+00  0.00000000000E+00  0.11759834837E+04  0.11759834837E+04  0.00000000000E+00 0.  1.
          4   -1    0    0  501    0  0.00000000000E+00 -0.00000000000E+00 -0.13431579504E+02  0.13431579504E+02  0.00000000000E+00 0. -1.
         23    2    1    2    0    0  0.68923682492E+01  0.53072905493E+02  0.30286348157E+03  0.32035675258E+03  0.89654461226E+02 0.  0.
          5    1    1    2  502    0  0.51160147956E+02 -0.46169462870E+01  0.34664641532E+03  0.35045668290E+03  0.41800000000E+01 0. -1.
         -5    1    1    2    0  502 -0.58052516205E+02 -0.48455959205E+02  0.51304200726E+03  0.51860162768E+03  0.41800000000E+01 0.  1.
        -11    1    3    3    0    0  0.11459018949E+02  0.69758472902E+02  0.29079317610E+03  0.29926280244E+03  0.00000000000E+00 0. -1.
         11    1    3    3    0    0 -0.45666506994E+01 -0.16685567409E+02  0.12070305464E+02  0.21093950137E+02  0.00000000000E+00 0.  1.
</event>
<event>
 7    1  0.5137842E-006  0.8628759E+02  0.7561462E-02  0.1312099E+00
          3   -1    0    0  501    0  0.00000000000E+00  0.00000000000E+00  0.44729208871E+02  0.44729208871E+02  0.00000000000E+00 0. -1.
         -3   -1    0    0    0  501 -0.00000000000E+00 -0.00000000000E+00 -0.26832717186E+03  0.26832717186E+03  0.00000000000E+00 0.  1.
         23    2    1    2    0    0 -0.16486678707E+02  0.12482090288E+02 -0.92670453490E+02  0.13080177296E+03  0.89964869285E+02 0.  0.
          5    1    1    2  502    0  0.32808463841E+02  0.24001218227E+02  0.43864435535E+01  0.41099477649E+02  0.41800000000E+01 0.  1.
         -5    1    1    2    0  502 -0.16321785135E+02 -0.36483308515E+02 -0.13531395305E+03  0.14115513012E+03  0.41800000000E+01 0.  1.
        -11    1    3    3    0    0  0.22545013097E+02  0.38500543981E+02 -0.36678842303E+02  0.57757311010E+02  0.00000000000E+00 0.  1.
         11    1    3    3    0    0 -0.39031691804E+02 -0.26018453693E+02 -0.55991611186E+02  0.73044461946E+02  0.00000000000E+00 0. -1.
</event>
<event>
 7    1  0.5137842E-006  0.2421026E+03  0.7561462E-02  0.1118400E+00
         -1   -1    0    0    0  501 -0.00000000000E+00  0.00000000000E+00  0.69059247337E+02  0.69059247337E+02  0.00000000000E+00 0.  1.
          1   -1    0    0  501    0  0.00000000000E+00 -0.00000000000E+00 -0.93870681412E+03  0.93870681412E+03  0.00000000000E+00 0. -1.
         23    2    1    2    0    0  0.11110790224E+03  0.19604468328E+03 -0.51396134854E+03  0.56851725207E+03  0.90978647641E+02 0.  0.
          5    1    1    2  502    0  0.21822790206E+02 -0.46392752407E+02 -0.11635395409E+03  0.12721728138E+03  0.41800000000E+01 0. -1.
         -5    1    1    2    0  502 -0.13293069245E+03 -0.14965193087E+03 -0.23933226415E+03  0.31203152801E+03  0.41800000000E+01 0. -1.
        -11    1    3    3    0    0  0.11809290502E+03  0.18415350219E+03 -0.50871990762E+03  0.55376384046E+03  0.00000000000E+00 0.  1.
         11    1    3    3    0    0 -0.69850027753E+01  0.11891181082E+02 -0.52414409146E+01  0.14753411610E+02  0.00000000000E+00 0. -1.
</event>
<event>
 7    1  0.5137842E-006  0.9023423E+02  0.7561462E-02  0.1302285E+00
         -1   -1    0    0    0  501 -0.00000000000E+00  0.00000000000E+00  0.35012521129E+02  0.35012521129E+02  0.00000000000E+00 0.  1.
          1   -1    0    0  501    0  0.00000000000E+00 -0.00000000000E+00 -0.38977256841E+03  0.38977256841E+03  0.00000000000E+00 0. -1.
         23    2    1    2    0    0  0.16905191740E+02  0.22462674316E+02 -0.19454753964E+03  0.21958648641E+03  0.97872992125E+02 0.  0.
          5    1    1    2  502    0 -0.55587727322E+02 -0.46835023021E+02 -0.13354972748E+03  0.15210692595E+03  0.41800000000E+01 0.  1.
         -5    1    1    2    0  502  0.38682535582E+02  0.24372348704E+02 -0.26662780155E+02  0.53091677183E+02  0.41800000000E+01 0.  1.
        -11    1    3    3    0    0 -0.70805995958E+00  0.38153946551E+02 -0.19211959833E+03  0.19587282877E+03  0.00000000000E+00 0. -1.
         11    1    3    3    0    0  0.17613251700E+02 -0.15691272235E+02 -0.24279413113E+01  0.23713657643E+02  0.00000000000E+00 0.  1.
</event>
<event>
 7    1  0.5137842E-006  0.8629749E+02  0.7561462E-02  0.1312074E+00
         -3   -1    0    0    0  501 -0.00000000000E+00  0.00000000000E+00  0.74989741204E+03  0.74989741204E+03  0.00000000000E+00 0.  1.
          3   -1    0    0  501    0  0.00000000000E+00 -0.00000000000E+00 -0.18705550041E+03  0.18705550041E+03  0.00000000000E+00 0. -1.
         23    2    1    2    0    0 -0.92471316505E+00 -0.24163184398E+02 -0.17114662975E+03  0.19432285522E+03  0.88800273722E+02 0.  0.
          5    1    1    2  502    0 -0.15658287663E+02 -0.30591516511E+02  0.95703716605E+02  0.10177276958E+03  0.41800000000E+01 0. -1.
         -5    1    1    2    0  502  0.16583000828E+02  0.54754700909E+02  0.63828482478E+03  0.64085728765E+03  0.41800000000E+01 0.  1.
        -11    1    3    3    0    0 -0.37507973865E+02 -0.14178633419E+01 -0.34264698168E+02  0.50822514504E+02  0.00000000000E+00 0.  1.
         11    1    3    3    0    0  0.36583260700E+02 -0.22745321056E+02 -0.13688193158E+03  0.14350034072E+03  0.00000000000E+00 0. -1.
</event>
<event>
 7    1  0.5137842E-006  0.3120655E+03  0.7561462E-02  0.1079360E+00
          1   -1    0    0  501    0  0.00000000000E+00  0.00000000000E+00  0.94110683399E+03  0.94110683399E+03  0.00000000000E+00 0. -1.
         -1   -1    0    0    0  501 -0.00000000000E+00 -0.00000000000E+00 -0.16267205584E+03  0.16267205584E+03  0.00000000000E+00 0.  1.
         23    2    1    2    0    0 -0.54497961767E+02 -0.59048634716E+02  0.52340760867E+03  0.53736796678E+03  0.91389484127E+02 0.  0.
          5    1    1    2  502    0  0.15389353512E+02  0.27894914347E+03  0.11117418580E+03  0.30071020739E+03  0.41800000000E+01 0. -1.
         -5    1    1    2    0  502  0.39108608255E+02 -0.21990050875E+03  0.14385298368E+03  0.26570071566E+03  0.41800000000E+01 0.  1.
        -11    1    3    3    0    0  0.24587860176E+02 -0.38389116625E+01  0.91655816075E+02  0.94974147699E+02  0.00000000000E+00 0.  1.
         11    1    3    3    0    0 -0.79085821943E+02 -0.55209723054E+02  0.43175179260E+03  0.44239381908E+03  0.00000000000E+00 0. -1.
</event>
<event>
 7    1  0.5137842E-006  0.1134774E+03  0.7561462E-02  0.1254262E+00
          3   -1    0    0  501    0  0.00000000000E+00  0.00000000000E+00  0.23097530458E+03  0.23097530458E+03  0.00000000000E+00 0. -1.
         -3   -1    0    0    0  501 -0.00000000000E+00 -0.00000000000E+00 -0.11456716168E+03  0.11456716168E+03  0.00000000000E+00 0.  1.
         23    2    1    2    0    0  0.27668865683E+02  0.77487545446E+02  0.14756994126E+03  0.19260704750E+03  0.92470002454E+02 0.  0.
          5    1    1    2  502    0 -0.41779900939E+02 -0.98395999663E+02  0.67658696475E+01  0.10719413354E+03  0.41800000000E+01 0. -1.
         -5    1    1    2    0  502  0.14111035256E+02  0.20908454217E+02 -0.37927668014E+02  0.45741285232E+02  0.41800000000E+01 0. -1.
        -11    1    3    3    0    0  0.40673167923E+02  0.54636797606E+02  0.15142002101E+03  0.16603466206E+03  0.00000000000E+00 0. -1.
         11    1    3    3    0    0 -0.13004302240E+02  0.22850747840E+02 -0.38500797541E+01  0.26572385435E+02  0.00000000000E+00 0.  1.
</event>
<event>
 7    1  0.5137842E-006  0.1718194E+03  0.7561462E-02  0.1175964E+00
          2   -1    0    0  501    0  0.00000000000E+00  0.00000000000E+00  0.40048071302E+03  0.40048071302E+03  0.00000000000E+00 0. -1.
         -2   -1    0    0    0  501 -0.00000000000E+00 -0.00000000000E+00 -0.95716097453E+02  0.95716097453E+02  0.00000000000E+00 0.  1.
         23    2    1    2    0    0  0.52727986028E+02  0.15260024056E+03  0.16634163332E+03  0.24946749967E+03  0.92181454138E+02 0.  0.
          5    1    1    2  502    0 -0.70910621887E+02 -0.10489627502E+03  0.14779158430E+03  0.19465705639E+03  0.41800000000E+01 0. -1.
         -5    1    1    2    0  502  0.18182635859E+02 -0.47703965535E+02 -0.93686020639E+01  0.52072254409E+02  0.41800000000E+01 0. -1.
        -11    1    3    3    0    0 -0.37598237146E+01  0.35715479650E+02  0.94504317336E+02  0.10109796119E+03  0.00000000000E+00 0. -1.
         11    1    3    3    0    0  0.56487809743E+02  0.11688476091E+03  0.71837315989E+02  0.14836953849E+03  0.00000000000E+00 0.  1.
</event>
<event>
 7    1  0.5137842E-006  0.1890850E+03  0.7561462E-02  0.1159289E+00
          1   -1    0    0  501    0  0.00000000000E+00  0.00000000000E+00  0.29397517384E+03  0.29397517384E+03  0.00000000000E+00 0. -1.
         -1   -1    0    0    0  501 -0.00000000000E+00 -0.00000000000E+00 -0.24382484724E+03  0.24382484724E+03  0.00000000000E+00 0.  1.
         23    2    1    2    0    0  0.20772448491E+02 -0.11587629417E+03  0.19795559684E+03  0.25676371184E+03  0.11350055166E+03 0.  0.
          5    1    1    2  502    0  0.40287976388E+02 -0.34552956867E+02  0.10474296760E+02  0.54260585716E+02  0.41800000000E+01 0. -1.
         -5    1    1    2    0  502 -0.61060424879E+02  0.15042925104E+03 -0.15827956700E+03  0.22677572354E+03  0.41800000000E+01 0.  1.
        -11    1    3    3    0    0  0.35918697798E+02 -0.13410195535E+03  0.15816648062E+03  0.21045218667E+03  0.00000000000E+00 0. -1.
         11    1    3    3    0    0 -0.15146249307E+02  0.18225661183E+02  0.39789116220E+02  0.46311525166E+02  0.00000000000E+00 0.  1.
</event>
<event>
 7    1  0.5137842E-006  0.8739338E+02  0.7561462E-02  0.1309290E+00
          2   -1    0    0  501    0  0.00000000000E+00  0.00000000000E+00  0.30595108711E+03  0.30595108711E+03  0.00000000000E+00 0. -1.
         -2   -1    0    0    0  501 -0.00000000000E+00 -0.00000000000E+00 -0.13621300328E+03  0.13621300328E+03  0.00000000000E+00 0.  1.
         23    2    1    2    0    0  0.37683739418E+02  0.20903021472E+02  0.26235921017E+03  0.28066375315E+03  0.89904319405E+02 0.  0.
          5    1    1    2  502    0 -0.10874195665E+02 -0.40505300259E+02 -0.11416271293E+03  0.12169439142E+03  0.41800000000E+01 0.  1.
         -5    1    1    2    0  502 -0.26809543753E+02  0.19602278787E+02  0.21541586596E+02  0.39805945824E+02  0.41800000000E+01 0.  1.
        -11    1    3    3    0    0  0.44044507218E+02 -0.26457521778E+02  0.15035969252E+03  0.15889605473E+03  0.00000000000E+00 0. -1.
         11    1    3    3    0    0 -0.63607678006E+01  0.47360543250E+02  0.11199951764E+03  0.12176769841E+03  0.00000000000E+00 0.  1.
</event>
<event>
 7    1  0.5137842E-006  0.1575613E+03  0.7561462E-02  0.1191478E+00
         -2   -1    0    0    0  501 -0.00000000000E+00  0.00000000000E+00  0.16863224284E+03  0.16863224284E+03  0.00000000000E+00 0.  1.
          2   -1    0    0  501    0  0.00000000000E+00 -0.00000000000E+00 -0.16451685840E+03  0.16451685840E+03  0.00000000000E+00 0. -1.
         23    2    1    2    0    0  0.11575095794E+03 -0.48168219072E+02 -0.16574202943E+02  0.15483927498E+03  0.89342236811E+02 0.  0.
          5    1    1    2  502    0 -0.41374386080E+02 -0.39409930610E+02  0.26634521995E+02  0.63181109646E+02  0.41800000000E+01 0.  1.
         -5    1    1    2    0  502 -0.74376571864E+02  0.87578149683E+02 -0.59449346159E+01  0.11512871662E+03  0.41800000000E+01 0.  1.
        -11    1    3    3    0    0  0.48884945006E+01 -0.30142644619E+02  0.20247457034E+02  0.36639267452E+02  0.00000000000E+00 0.  1.
         11    1    3    3    0    0  0.11086246344E+03 -0.18025574454E+02 -0.36821659977E+02  0.11820000752E+03  0.00000000000E+00 0. -1.
</event>
<event>
 7    1  0.5137842E-006  0.1601272E+03  0.7561462E-02  0.1188553E+00
         -3   -1    0    0    0  501 -0.00000000000E+00  0.00000000000E+00  0.48465958572E+02  0.48465958572E+02  0.00000000000E+00 0.  1.
          3   -1    0    0  501    0  0.00000000000E+00 -0.00000000000E+00 -0.84181362007E+03  0.84181362007E+03  0.00000000000E+00 0. -1.
         23    2    1    2    0    0  0.96188662992E+02  0.96101277419E+02 -0.60722875869E+03  0.62803059323E+03  0.84899624551E+02 0.  0.
          5    1    1    2  502    0  0.19512434460E+02  0.84245476319E+00  0.30464122994E+01  0.20203906961E+02  0.41800000000E+01 0.  1.
         -5    1    1    2    0  502 -0.11570109745E+03 -0.96943732182E+02 -0.18916531511E+03  0.24204507845E+03  0.41800000000E+01 0.  1.
        -11    1    3    3    0    0  0.43222551104E+02  0.84710313203E+02 -0.48642945279E+03  0.49563861696E+03  0.00000000000E+00 0.  1.
         11    1    3    3    0    0  0.52966111888E+02  0.11390964216E+02 -0.12079930590E+03  0.13239197627E+03  0.00000000000E+00 0. -1.
</event>
<event>
 7    1  0.5137842E-006  0.1077744E+03  0.7561462E-02  0.1264748E+00
         -3   -1    0    0    0  501 -0.00000000000E+00  0.00000000000E+00  0.31624444234E+02  0.31624444234E+02  0.00000000000E+00 0.  1.
          3   -1    0    0  501    0  0.00000000000E+00 -0.00000000000E+00 -0.44475023719E+03  0.44475023719E+03  0.00000000000E+00 0. -1.
         23    2    1    2    0    0 -0.27806534027E+02  0.37881588240E+02 -0.16669556897E+03  0.19604783611E+03  0.91864700885E+02 0.  0.
          5    1    1    2  502    0  0.44860089846E+02 -0.77745860727E+02 -0.15853063870E+03  0.18222591015E+03  0.41800000000E+01 0.  1.
         -5    1    1    2    0  502 -0.17053555820E+02  0.39864272488E+02 -0.87899585287E+02  0.98100935167E+02  0.41800000000E+01 0.  1.
        -11    1    3    3    0    0 -0.50300908359E+02  0.27923172020E+02 -0.48284632929E+02  0.75108526110E+02  0.00000000000E+00 0.  1.
         11    1    3    3    0    0  0.22494374333E+02  0.99584162202E+01 -0.11841093604E+03  0.12093931000E+03  0.00000000000E+00 0. -1.
</event>
<event>
 7    1  0.5137842E-006  0.1175629E+03  0.7561462E-02  0.1247173E+00
         -2   -1    0    0    0  501 -0.00000000000E+00  0.00000000000E+00  0.14225306085E+03  0.14225306085E+03  0.00000000000E+00 0.  1.
          2   -1    0    0  501    0  0.00000000000E+00 -0.00000000000E+00 -0.13889873867E+03  0.13889873867E+03  0.00000000000E+00 0. -1.
         23    2    1    2    0    0  0.48499789426E+01  0.49219366521E+02 -0.60649214868E+02  0.12436549610E+03  0.96655993189E+02 0.  0.
          5    1    1    2  502    0 -0.10239005756E+01 -0.94882521297E+02  0.30113987467E+02  0.99639680155E+02  0.41800000000E+01 0. -1.
         -5    1    1    2    0  502 -0.38260783671E+01  0.45663154776E+02  0.33889549581E+02  0.57146623265E+02  0.41800000000E+01 0.  1.
        -11    1    3    3    0    0 -0.21575958682E+02 -0.13926330124E+02  0.85147300781E+01  0.27054857089E+02  0.00000000000E+00 0.  1.
         11    1    3    3    0    0  0.26425937625E+02  0.63145696645E+02 -0.69163944946E+02  0.97310639011E+02  0.00000000000E+00 0. -1.
</event>
<event>
 7    1  0.5137842E-006  0.1954862E+03  0.7561462E-02  0.1153604E+00
         -1   -1    0    0    0  501 -0.00000000000E+00  0.00000000000E+00  0.42291282834E+02  0.42291282834E+02  0.00000000000E+00 0.  1.
          1   -1    0    0  501    0  0.00000000000E+00 -0.00000000000E+00 -0.97166459001E+03  0.97166459001E+03  0.00000000000E+00 0. -1.
         23    2    1    2    0    0 -0.36219507884E+02 -0.16413093922E+03 -0.52135488936E+03  0.55528227816E+03  0.90976204682E+02 0.  0.
          5    1    1    2  502    0 -0.19167485969E+02 -0.12622311976E+02 -0.33359035607E+02  0.40706423752E+02  0.41800000000E+01 0. -1.
         -5    1    1    2    0  502  0.55386993853E+02  0.17675325120E+03 -0.37465938220E+03  0.41796717092E+03  0.41800000000E+01 0. -1.
        -11    1    3    3    0    0 -0.28616762331E+02 -0.13665997325E+02 -0.40862420755E+02  0.51724423624E+02  0.00000000000E+00 0.  1.
         11    1    3    3    0    0 -0.76027455528E+01 -0.15046494190E+03 -0.48049246861E+03  0.50355785454E+03  0.00000000000E+00 0. -1.
</event>
<event>
 7    1  0.5137842E-006  0.8428787E+02  0.7561462E-02  0.1317305E+00
         -2   -1    0    0    0  501 -0.00000000000E+00  0.00000000000E+00  0.12566133841E+03  0.12566133841E+03  0.00000000000E+00 0.  1.
          2   -1    0    0  501    0  0.00000000000E+00 -0.00000000000E+00 -0.15009940698E+03  0.15009940698E+03  0.00000000000E+00 0. -1.
         23    2    1    2    0    0  0.15491325193E+02 -0.56988904072E+02 -0.73214414223E+02  0.12908283804E+03  0.88398598878E+02 0.  0.
          5    1    1    2  502    0  0.13756947143E+01  0.21343744444E+01  0.80717717080E+02  0.80865755056E+02  0.41800000000E+01 0.  1.
         -5    1    1    2    0  502 -0.16867019907E+02  0.54854529628E+02 -0.31941371420E+02  0.65812152293E+02  0.41800000000E+01 0.  1.
        -11    1    3    3    0    0 -0.25982379608E+02 -0.59159019910E+02 -0.48076099475E+02  0.80536855088E+02  0.00000000000E+00 0.  1.
         11    1    3    3    0    0  0.41473704801E+02  0.21701158373E+01 -0.25138314748E+02  0.48545982954E+02  0.00000000000E+00 0. -1.
</event>
<event>
 7    1  0.5137842E-006  0.6836078E+02  0.7561462E-02  0.1365758E+00
         -3   -1    0    0    0  501 -0.00000000000E+00  0.00000000000E+00  0.24089262840E+03  0.24089262840E+03  0.00000000000E+00 0.  1.
          3   -1    0    0  501    0  0.00000000000E+00 -0.00000000000E+00 -0.57975366480E+02  0.57975366480E+02  0.00000000000E+00 0. -1.
         23    2    1    2    0    0  0.34665656782E+02 -0.36281562480E+01  0.39730756146E+02  0.10556819810E+03  0.91385120169E+02 0.  0.
          5    1    1    2  502    0 -0.37653371322E+02  0.10444099445E+01  0.16574344662E+03  0.17002126239E+03  0.41800000000E+01 0. -1.
         -5    1    1    2    0  502  0.29877145406E+01  0.25837463035E+01 -0.22556940849E+02  0.23278534396E+02  0.41800000000E+01 0. -1.
        -11    1    3    3    0    0 -0.28334012033E+02  0.69893509772E+01  0.28326722191E+02  0.40670264999E+02  0.00000000000E+00 0. -1.
         11    1    3    3    0    0  0.62999668815E+02 -0.10617507225E+02  0.11404033956E+02  0.64897933102E+02  0.00000000000E+00 0.  1.
</event>
<event>
 7    1  0.5137842E-006  0.9815213E+02  0.7561462E-02  0.1284230E+00
          2   -1    0    0  501    0  0.00000000000E+00  0.00000000000E+00  0.21987923320E+03  0.21987923320E+03  0.00000000000E+00 0. -1.
         -2   -1    0    0    0  501 -0.00000000000E+00 -0.00000000000E+00 -0.70871922412E+02  0.70871922412E+02  0.00000000000E+00 0.  1.
         23    2    1    2    0    0 -0.38539265501E+02 -0.36138736449E+02  0.10169059561E+03  0.14695366090E+03  0.91995206181E+02 0.  0.
          5    1    1    2  502    0  0.70674574566E+02  0.61018516284E+02  0.22998891539E+02  0.96252668699E+02  0.41800000000E+01 0. -1.
         -5    1    1    2    0  502 -0.32135309066E+02 -0.24879779835E+02  0.24317823639E+02  0.47544826006E+02  0.41800000000E+01 0. -1.
        -11    1    3    3    0    0 -0.18681955437E+02  0.21973193654E+01  0.10205937275E+03  0.10377841412E+03  0.00000000000E+00 0. -1.
         11    1    3    3    0    0 -0.19857310064E+02 -0.38336055815E+02 -0.36877713951E+00  0.43175246785E+02  0.00000000000E+00 0.  1.
</event>
<event>
 7    1  0.5137842E-006  0.2699824E+03  0.7561462E-02  0.1101290E+00
          1   -1    0    0  501    0  0.00000000000E+00  0.00000000000E+00  0.90135896143E+02  0.90135896143E+02  0.00000000000E+00 0. -1.
         -1   -1    0    0    0  501 -0.00000000000E+00 -0.00000000000E+00 -0.10908091949E+04  0.10908091949E+04  0.00000000000E+00 0.  1.
         23    2    1    2    0    0  0.14890379104E+03 -0.21408575902E+03 -0.23497820343E+03  0.36244569841E+03  0.90261160026E+02 0.  0.
          5    1    1    2  502    0 -0.14426430244E+03  0.16815763958E+03 -0.47520030867E+03  0.52433003582E+03  0.41800000000E+01 0.  1.
         -5    1    1    2    0  502 -0.46394885930E+01  0.45928119435E+02 -0.29049478665E+03  0.29416935680E+03  0.41800000000E+01 0.  1.
        -11    1    3    3    0    0  0.12587326324E+03 -0.21480922888E+03 -0.19477761448E+03  0.31610979471E+03  0.00000000000E+00 0. -1.
         11    1    3    3    0    0  0.23030527794E+02  0.72346986563E+00 -0.40200588953E+02  0.46335903696E+02  0.00000000000E+00 0.  1.
</event>
<event>
 7    1  0.5137842E-006  0.1019995E+03  0.7561462E-02  0.1276147E+00
          2   -1    0    0  501    0  0.00000000000E+00  0.00000000000E+00  0.52485135146E+03  0.52485135146E+03  0.00000000000E+00 0. -1.
         -2   -1    0    0    0  501 -0.00000000000E+00 -0.00000000000E+00 -0.25643105691E+02  0.25643105691E+02  0.00000000000E+00 0.  1.
         23    2    1    2    0    0 -0.55238598342E+01  0.28863102187E+02  0.30696060325E+03  0.31928002056E+03  0.82772748461E+02 0.  0.
          5    1    1    2  502    0 -0.30283214791E+02 -0.61168581941E+02  0.62159789816E+02  0.92412014288E+02  0.41800000000E+01 0.  1.
         -5    1    1    2    0  502  0.35807074625E+02  0.32305479754E+02  0.13008785270E+03  0.13880242230E+03  0.41800000000E+01 0.  1.
        -11    1    3    3    0    0  0.33335177867E+02  0.34465110368E+02  0.18747280651E+03  0.19350744455E+03  0.00000000000E+00 0. -1.
         11    1    3    3    0    0 -0.38859037702E+02 -0.56020081815E+01  0.11948779674E+03  0.12577257601E+03  0.00000000000E+00 0.  1.
</event>
<event>
 7    1  0.5137842E-006  0.9282963E+02  0.7561462E-02  0.1296140E+00
          2   -1    0    0  501    0  0.00000000000E+00  0.00000000000E+00  0.15686833502E+03  0.15686833502E+03  0.00000000000E+00 0. -1.
         -2   -1    0    0    0  501 -0.00000000000E+00 -0.00000000000E+00 -0.10449141838E+03  0.10449141838E+03  0.00000000000E+00 0.  1.
         23    2    1    2    0    0 -0.67818687637E+02 -0.19017796309E+02  0.30714115336E+02  0.11618196182E+03  0.87142644000E+02 0.  0.
          5    1    1    2  502    0  0.68170373942E+02  0.13604619422E+02  0.68594254374E+02  0.97749320643E+02  0.41800000000E+01 0.  1.
         -5    1    1    2    0  502 -0.35168630476E+00  0.54131768866E+01 -0.46931453068E+02  0.47428470925E+02  0.41800000000E+01 0.  1.
        -11    1    3    3    0    0 -0.25174028870E+02 -0.50323496990E+02  0.27314524661E+01  0.56335130348E+02  0.00000000000E+00 0.  1.
         11    1    3    3    0    0 -0.42644658767E+02  0.31305700681E+02  0.27982662870E+02  0.59846831476E+02  0.00000000000E+00 0. -1.
</event>
<event>
 7    1  0.5137842E-006  0.9833619E+02  0.7561462E-02  0.1283834E+00
          1   -1    0    0  501    0  0.00000000000E+00  0.00000000000E+00  0.57205099139E+02  0.57205099139E+02  0.00000000000E+00 0. -1.
         -1   -1    0    0    0  501 -0.00000000000E+00 -0.00000000000E+00 -0.25291898576E+03  0.25291898576E+03  0.00000000000E+00 0.  1.
         23    2    1    2    0    0  0.45042000114E+02  0.18176875580E+02 -0.44788179142E+02  0.10817041637E+03  0.85648569207E+02 0.  0.
          5    1    1    2  502    0 -0.71353788544E+02 -0.99711998207E+01 -0.30508749900E+02  0.78352052851E+02  0.41800000000E+01 0.  1.
         -5    1    1    2    0  502  0.26311788430E+02 -0.82056757588E+01 -0.12041695758E+03  0.12360161568E+03  0.41800000000E+01 0.  1.
        -11    1    3    3    0    0 -0.42260182159E+00 -0.30221091627E+02 -0.23985378608E+02  0.38584859186E+02  0.00000000000E+00 0. -1.
         11    1    3    3    0    0  0.45464601936E+02  0.48397967206E+02 -0.20802800533E+02  0.69585557186E+02  0.00000000000E+00 0.  1.
</event>
<event>
 7    1  0.5137842E-006  0.1267583E+03  0.7561462E-02  0.1232347E+00
         -1   -1    0    0    0  501 -0.00000000000E+00  0.00000000000E+00  0.30626404345E+03  0.30626404345E+03  0.00000000000E+00 0.  1.
          1   -1    0    0  501    0  0.00000000000E+00 -0.00000000000E+00 -0.62437102615E+02  0.62437102615E+02  0.00000000000E+00 0. -1.
         23    2    1    2    0    0 -0.61454227573E+02  0.57841698764E+02  0.13312433125E+03  0.18153661709E+03  0.90062042901E+02 0.  0.
          5    1    1    2  502    0  0.94197534290E+02 -0.42250099748E+02  0.46491211573E+02  0.11330115422E+03  0.41800000000E+01 0.  1.
         -5    1    1    2    0  502 -0.32743306717E+02 -0.15591599016E+02  0.64211398012E+02  0.73863374749E+02  0.41800000000E+01 0.  1.
        -11    1    3    3    0    0  0.15424791568E+02 -0.29159091263E+01 -0.65194987511E+00  0.15711516782E+02  0.00000000000E+00 0. -1.
         11    1    3    3    0    0 -0.76879019142E+02  0.60757607891E+02  0.13377628113E+03  0.16582510031E+03  0.00000000000E+00 0.  1.
</event>
<event>
 7    1  0.5137842E-006  0.6940565E+02  0.7561462E-02  0.1362126E+00
         -2   -1    0    0    0  501 -0.00000000000E+00  0.00000000000E+00  0.23838303777E+02  0.23838303777E+02  0.00000000000E+00 0.  1.
          2   -1    0    0  501    0  0.00000000000E+00 -0.00000000000E+00 -0.56124253903E+03  0.56124253903E+03  0.00000000000E+00 0. -1.
         23    2    1    2    0    0  0.26305356499E+02  0.67076515825E+01 -0.29813205735E+03  0.31372102597E+03  0.93814679827E+02 0.  0.
          5    1    1    2  502    0 -0.37716262925E+01  0.14689891357E+02 -0.23948855459E+03  0.24000470465E+03  0.41800000000E+01 0.  1.
         -5    1    1    2    0  502 -0.22533730206E+02 -0.21397542939E+02  0.21637668954E+00  0.31355112178E+02  0.41800000000E+01 0.  1.
        -11    1    3    3    0    0 -0.32557054282E+02  0.39813935987E+01 -0.16351435772E+03  0.16677157569E+03  0.00000000000E+00 0. -1.
         11    1    3    3    0    0  0.58862410781E+02  0.27262579838E+01 -0.13461769963E+03  0.14694945028E+03  0.00000000000E+00 0.  1.
</event>
<event>
 6    1  0.5331198E-006  0.1493611E+03  0.7561462E-02  0.1201260E+00
          2   -1    0    0  501    0  0.00000000000E+00  0.00000000000E+00  0.68290497283E+02  0.68290497283E+02  0.00000000000E+00 0. -1.
         -2   -1    0    0    0  501 -0.00000000000E+00 -0.00000000000E+00 -0.37286104833E+03  0.37286104833E+03  0.00000000000E+00 0.  1.
          5    1    1    2  502    0  0.10428383585E+03  0.32324008558E+02 -0.13761982778E+03  0.17571752715E+03  0.41800000000E+01 0. -1.
         -5    1    1    2    0  502 -0.14452101956E+03 -0.31687678519E+02 -0.16807979884E+03  0.22396143696E+03  0.41800000000E+01 0.  1.
        -11    1    1    2    0    0  0.18414501747E+02  0.46586479758E+01  0.14641443379E+00  0.18995218154E+02  0.00000000000E+00 0.  1.
         11    1    1    2    0    0  0.21822681961E+02 -0.52949780145E+01  0.98266114742E+00  0.22477363348E+02  0.00000000000E+00 0. -1.
</event>
<event>
 7    1  0.5137842E-006  0.1080486E+03  0.7561462E-02  0.1264227E+00
          1   -1    0    0  501    0  0.00000000000E+00  0.00000000000E+00  0.80052370934E+02  0.80052370934E+02  0.00000000000E+00 0. -1.
         -1   -1    0    0    0  501 -0.00000000000E+00 -0.00000000000E+00 -0.16097350208E+03  0.16097350208E+03  0.00000000000E+00 0.  1.
         23    2    1    2    0    0  0.24999821003E+02  0.25067765476E+02 -0.25167310776E+02  0.99560797256E+02  0.89585573071E+02 0.  0.
          5    1    1    2  502    0 -0.70697661624E+02 -0.20460742141E+02 -0.60140603351E+02  0.95137615587E+02  0.41800000000E+01 0.  1.
         -5    1    1    2    0  502  0.45697840621E+02 -0.46070233349E+01  0.43867829766E+01  0.46327460176E+02  0.41800000000E+01 0.  1.
        -11    1    3    3    0    0 -0.21077552909E+02  0.42143700562E+02 -0.14175933425E+02  0.49206826987E+02  0.00000000000E+00 0.  1.
         11    1    3    3    0    0  0.46077373912E+02 -0.17075935086E+02 -0.10991377351E+02  0.50353970268E+02  0.00000000000E+00 0. -1.
</event>
<event>
 7    1  0.5137842E-006  0.8426776E+02  0.7561462E-02  0.1317359E+00
          2   -1    0    0  501    0  0.00000000000E+00  0.00000000000E+00  0.26927122759E+03  0.26927122759E+03  0.00000000000E+00 0. -1.
         -2   -1    0    0    0  501 -0.00000000000E+00 -0.00000000000E+00 -0.50777163071E+02  0.50777163071E+02  0.00000000000E+00 0.  1.
         23    2    1    2    0    0  0.41204876128E+02  0.17923137345E+02  0.10389492537E+03  0.14455042258E+03  0.89897655588E+02 0.  0.
          5    1    1    2  502    0 -0.65604906642E+02  0.15140934267E+02  0.17073486112E+02  0.69586119262E+02  0.41800000000E+01 0. -1.
         -5    1    1    2    0  502  0.24400030514E+02 -0.33064071613E+02  0.97525653033E+02  0.10591184882E+03  0.41800000000E+01 0. -1.
        -11    1    3    3    0    0  0.12519947008E+02 -0.12685253210E+02 -0.11873665418E+02  0.21416083969E+02  0.00000000000E+00 0.  1.
         11    1    3    3    0    0  0.28684929120E+02  0.30608390556E+02  0.11576859079E+03  0.12313433861E+03  0.00000000000E+00 0. -1.
</event>
<event>
 7    1  0.5137842E-006  0.2150466E+03  0.7561462E-02  0.1137631E+00
         -3   -1    0    0    0  501 -0.00000000000E+00  0.00000000000E+00  0.14788920408E+03  0.14788920408E+03  0.00000000000E+00 0.  1.
          3   -1    0    0  501    0  0.00000000000E+00 -0.00000000000E+00 -0.35091086141E+03  0.35091086141E+03  0.00000000000E+00 0. -1.
         23    2    1    2    0    0 -0.11189943482E+03  0.16269269836E+03 -0.13200775753E+03  0.25450682520E+03  0.91418151454E+02 0.  0.
          5    1    1    2  502    0  0.33491707846E+01 -0.11164027188E+03 -0.49981951578E+02  0.12243543251E+03  0.41800000000E+01 0. -1.
         -5    1    1    2    0  502  0.10855026403E+03 -0.51052426476E+02 -0.21031948228E+02  0.12185780778E+03  0.41800000000E+01 0. -1.
        -11    1    3    3    0    0 -0.23246788534E+01  0.10539010579E+02  0.13416733718E+02  0.17218699702E+02  0.00000000000E+00 0.  1.
         11    1    3    3    0    0 -0.10957475596E+03  0.15215368778E+03 -0.14542449125E+03  0.23728812550E+03  0.00000000000E+00 0. -1.
</event>
<event>
 7    1  0.5137842E-006  0.2412119E+03  0.7561462E-02  0.1118988E+00
         -3   -1    0    0    0  501 -0.00000000000E+00  0.00000000000E+00  0.17267392385E+03  0.17267392385E+03  0.00000000000E+00 0.  1.
          3   -1    0    0  501    0  0.00000000000E+00 -0.00000000000E+00 -0.36550795025E+03  0.36550795025E+03  0.00000000000E+00 0. -1.
         23    2    1    2    0    0  0.15648774542E+03 -0.16041701378E+03 -0.70011852761E+02  0.25197860086E+03  0.91485097084E+02 0.  0.
          5    1    1    2  502    0 -0.14423692603E+03  0.58828706775E+02 -0.80496008414E+02  0.17539152586E+03  0.41800000000E+01 0. -1.
         -5    1    1    2    0  502 -0.12250819386E+02  0.10158830700E+03 -0.42326165221E+02  0.11081174738E+03  0.41800000000E+01 0.  1.
        -11    1    3    3    0    0  0.13214507087E+03 -0.13854217007E+03 -0.20396516223E+02  0.19254160723E+03  0.00000000000E+00 0.  1.
         11    1    3    3    0    0  0.24342674548E+02 -0.21874843712E+02 -0.49615336537E+02  0.59436993626E+02  0.00000000000E+00 0. -1.
</event>
<event>
 7    1  0.5137842E-006  0.9772680E+02  0.7561462E-02  0.1285150E+00
         -1   -1    0    0    0  501 -0.00000000000E+00  0.00000000000E+00  0.16497469291E+03  0.16497469291E+03  0.00000000000E+00 0.  1.
          1   -1    0    0  501    0  0.00000000000E+00 -0.00000000000E+00 -0.92606052592E+02  0.92606052592E+02  0.00000000000E+00 0. -1.
         23    2    1    2    0    0  0.33193081590E+02 -0.43124248660E+02  0.10941750056E+02  0.10797402361E+03  0.92613100543E+02 0.  0.
          5    1    1    2  502    0  0.85110059728E+01  0.46723798570E+02 -0.24744623793E+02  0.53715169013E+02  0.41800000000E+01 0.  1.
         -5    1    1    2    0  502 -0.41704087563E+02 -0.35995499103E+01  0.86171514060E+02  0.95891552884E+02  0.41800000000E+01 0.  1.
        -11    1    3    3    0    0  0.22573227423E+02  0.26768112237E+02 -0.53624419028E+01  0.35423695631E+02  0.00000000000E+00 0. -1.
         11    1    3    3    0    0  0.10619854167E+02 -0.69892360897E+02  0.16304191958E+02  0.72550327977E+02  0.00000000000E+00 0.  1.
</event>
<event>
 7    1  0.5137842E-006  0.1294713E+03  0.7561462E-02  0.1228242E+00
          1   -1    0    0  501    0  0.00000000000E+00  0.00000000000E+00  0.52487497720E+02  0.52487497720E+02  0.00000000000E+00 0. -1.
         -1   -1    0    0    0  501 -0.00000000000E+00 -0.00000000000E+00 -0.88356859631E+03  0.88356859631E+03  0.00000000000E+00 0.  1.
         23    2    1    2    0    0 -0.48041843453E+02  0.78339688037E+02 -0.48114810790E+02  0.13784951101E+03  0.90787263550E+02 0.  0.
          5    1    1    2  502    0  0.53885847300E+02 -0.98105793906E+02 -0.75474182528E+03  0.76300794659E+03  0.41800000000E+01 0. -1.
         -5    1    1    2    0  502 -0.58440038470E+01  0.19766105868E+02 -0.28224462524E+02  0.35198636435E+02  0.41800000000E+01 0. -1.
        -11    1    3    3    0    0 -0.62029875348E+02  0.18908863110E+02 -0.40165957559E+02  0.76279451272E+02  0.00000000000E+00 0.  1.
         11    1    3    3    0    0  0.13988031894E+02  0.59430824928E+02 -0.79488532313E+01  0.61570059733E+02  0.00000000000E+00 0. -1.
</event>
<event>
 6    1  0.5137842E-006  0.2211246E+03  0.7561462E-02  0.1133047E+00
          2   -1    0    0  501    0  0.00000000000E+00  0.00000000000E+00  0.99997926250E+03  0.99997926250E+03  0.00000000000E+00 0. -1.
         -2   -1    0    0    0  501 -0.00000000000E+00 -0.00000000000E+00 -0.60959191990E+02  0.60959191990E+02  0.00000000000E+00 0.  1.
          5    1    1    2  502    0  0.59249278295E+02 -0.18597175832E+02  0.27040417555E+02  0.67860065642E+02  0.41800000000E+01 0. -1.
         -5    1    1    2    0  502  0.35014260711E+02 -0.14347711585E+03  0.23730294203E+03  0.27953861973E+03  0.41800000000E+01 0. -1.
        -11    1    1    2    0    0  0.35330737197E+02  0.48087247495E+02  0.17048519914E+03  0.18062626467E+03  0.00000000000E+00 0. -1.
         11    1    1    2    0    0 -0.12959427620E+03  0.11398704419E+03  0.50419151178E+03  0.53291350444E+03  0.00000000000E+00 0.  1.
</event>
<event>
 7    1  0.5137842E-006  0.1595963E+03  0.7561462E-02  0.1189153E+00
         -1   -1    0    0    0  501 -0.00000000000E+00  0.00000000000E+00  0.98351375894E+02  0.98351375894E+02  0.00000000000E+00 0.  1.
          1   -1    0    0  501    0  0.00000000000E+00 -0.00000000000E+00 -0.26921106825E+03  0.26921106825E+03  0.00000000000E+00 0. -1.
         23    2    1    2    0    0  0.11304542737E+03 -0.30055247927E+02 -0.11469006727E+03  0.18732769992E+03  0.90858511161E+02 0.  0.
          5    1    1    2  502    0  0.22081769280E+02 -0.16745544756E+02 -0.12200479403E+02  0.30567006746E+02  0.41800000000E+01 0.  1.
         -5    1    1    2    0  502 -0.13512719665E+03  0.46800792683E+02 -0.43969145688E+02  0.14966773748E+03  0.41800000000E+01 0.  1.
        -11    1    3    3    0    0  0.72675672537E+00  0.23610451889E+02 -0.19164992036E+02  0.30418391369E+02  0.00000000000E+00 0. -1.
         11    1    3    3    0    0  0.11231867064E+03 -0.53665699816E+02 -0.95525075234E+02  0.15690930855E+03  0.00000000000E+00 0.  1.
</event>
<event>
 7    1  0.5137842E-006  0.1337455E+03  0.7561462E-02  0.1222002E+00
         -1   -1    0    0    0  501 -0.00000000000E+00  0.00000000000E+00  0.40905209423E+03  0.40905209423E+03  0.00000000000E+00 0.  1.
          1   -1    0    0  501    0  0.00000000000E+00 -0.00000000000E+00 -0.63008338031E+02  0.63008338031E+02  0.00000000000E+00 0. -1.
         23    2    1    2    0    0  0.11576624569E+03  0.84091911491E+01  0.10975494789E+03  0.18059424695E+03  0.84235356644E+02 0.  0.
          5    1    1    2  502    0 -0.85565155836E+01 -0.32730773507E+02  0.38468262654E+01  0.34304343247E+02  0.41800000000E+01 0.  1.
         -5    1    1    2    0  502 -0.10720973010E+03  0.24321582357E+02  0.23244198205E+03  0.25716184207E+03  0.41800000000E+01 0.  1.
        -11    1    3    3    0    0  0.79718480260E+02  0.25222881558E+02  0.11312950903E+03  0.14067521339E+03  0.00000000000E+00 0.  1.
         11    1    3    3    0    0  0.36047765427E+02 -0.16813690408E+02 -0.33745611405E+01  0.39919033560E+02  0.00000000000E+00 0. -1.
</event>
<event>
 7    1  0.5137842E-006  0.1497399E+03  0.7561462E-02  0.1200793E+00
         -2   -1    0    0    0  501 -0.00000000000E+00  0.00000000000E+00  0.11012241655E+03  0.11012241655E+03  0.00000000000E+00 0.  1.
          2   -1    0    0  501    0  0.00000000000E+00 -0.00000000000E+00 -0.25805346906E+03  0.25805346906E+03  0.00000000000E+00 0. -1.
         23    2    1    2    0    0 -0.79856292492E+02 -0.73778928340E+02 -0.14492568424E+03  0.20241695100E+03  0.90270761505E+02 0.  0.
          5    1    1    2  502    0  0.47656925778E+02  0.10820868870E+03 -0.46711371908E+01  0.11840436988E+03  0.41800000000E+01 0.  1.
         -5    1    1    2    0  502  0.32199366714E+02 -0.34429760359E+02  0.16657689198E+01  0.47354564735E+02  0.41800000000E+01 0.  1.
        -11    1    3    3    0    0 -0.53807842753E+02 -0.88757891629E+02 -0.13597760221E+03  0.17106477010E+03  0.00000000000E+00 0. -1.
         11    1    3    3    0    0 -0.26048449739E+02  0.14978963289E+02 -0.89480820315E+01  0.31352180898E+02  0.00000000000E+00 0.  1.
</event>
<event>
 7    1  0.5137842E-006  0.9878657E+02  0.7561462E-02  0.1282869E+00
         -1   -1    0    0    0  501 -0.00000000000E+00  0.00000000000E+00  0.37599705373E+02  0.37599705373E+02  0.00000000000E+00 0.  1.
          1   -1    0    0  501    0  0.00000000000E+00 -0.00000000000E+00 -0.51739842049E+03  0.51739842049E+03  0.00000000000E+00 0. -1.
         23    2    1    2    0    0  0.54308773100E+02  0.65107556528E+02 -0.25671876378E+03  0.28555292353E+03  0.91910346032E+02 0.  0.
          5    1    1    2  502    0 -0.30954777894E+02  0.82848060575E+01  0.11333993416E+01  0.32335634832E+02  0.41800000000E+01 0.  1.
         -5    1    1    2    0  502 -0.23353995206E+02 -0.73392362585E+02 -0.22421335068E+03  0.23710956750E+03  0.41800000000E+01 0.  1.
        -11    1    3    3    0    0 -0.89896342848E+00  0.10277053076E+02  0.57383371526E+01  0.11804849362E+02  0.00000000000E+00 0.  1.
         11    1    3    3    0    0  0.55207736529E+02  0.54830503452E+02 -0.26245710093E+03  0.27374807417E+03  0.00000000000E+00 0. -1.
</event>
<event>
 7    1  0.5137842E-006  0.9775001E+02  0.7561462E-02  0.1285100E+00
          3   -1    0    0  501    0  0.00000000000E+00  0.00000000000E+00  0.38213920868E+02  0.38213920868E+02  0.00000000000E+00 0. -1.
         -3   -1    0    0    0  501 -0.00000000000E+00 -0.00000000000E+00 -0.36092254217E+03  0.36092254217E+03  0.00000000000E+00 0.  1.
         23    2    1    2    0    0  0.32100563769E+02  0.38069841246E+02 -0.79686740933E+02  0.12131143375E+03  0.76725017252E+02 0.  0.
          5    1    1    2  502    0 -0.67991450429E+02 -0.35019500617E+02 -0.79749140895E+02  0.11057395999E+03  0.41800000000E+01 0.  1.
         -5    1    1    2    0  502  0.35890886660E+02 -0.30503406286E+01 -0.16327273948E+03  0.16725106929E+03  0.41800000000E+01 0.  1.
        -11    1    3    3    0    0  0.23560087669E+02  0.57108402674E+02 -0.32696170858E+02  0.69896258668E+02  0.00000000000E+00 0. -1.
         11    1    3    3    0    0  0.85404760997E+01 -0.19038561428E+02 -0.46990570075E+02  0.51415175087E+02  0.00000000000E+00 0.  1.
</event>
<event>
 7    1  0.5137842E-006  0.1087090E+03  0.7561462E-02  0.1262980E+00
         -2   -1    0    0    0  501 -0.00000000000E+00  0.00000000000E+00  0.97031788728E+02  0.97031788728E+02  0.00000000000E+00 0.  1.
          2   -1    0    0  501    0  0.00000000000E+00 -0.00000000000E+00 -0.29857706036E+03  0.29857706036E+03  0.00000000000E+00 0. -1.
         23    2    1    2    0    0  0.57546623809E+02 -0.27862419117E+02 -0.22851115743E+03  0.25256101195E+03  0.86497325829E+02 0.  0.
          5    1    1    2  502    0 -0.56227945172E+02 -0.31102730428E+02 -0.20119250683E+02  0.67462717900E+02  0.41800000000E+01 0. -1.
         -5    1    1    2    0  502 -0.13186786368E+01  0.58965149545E+02  0.47085136476E+02  0.75585119244E+02  0.41800000000E+01 0. -1.
        -11    1    3    3    0    0  0.38390217565E+02  0.19317656901E+02 -0.16832056459E+03  0.17372044536E+03  0.00000000000E+00 0.  1.
         11    1    3    3    0    0  0.19156406244E+02 -0.47180076018E+02 -0.60190592837E+02  0.78840566584E+02  0.00000000000E+00 0. -1.
</event>
<event>
 7    1  0.5137842E-006  0.9538797E+02  0.7561462E-02  0.1290305E+00
          4   -1    0    0  501    0  0.00000000000E+00  0.00000000000E+00  0.25440900452E+03  0.25440900452E+03  0.00000000000E+00 0.  1.
         -4   -1    0    0    0  501 -0.00000000000E+00 -0.00000000000E+00 -0.52924498954E+02  0.52924498954E+02  0.00000000000E+00 0. -1.
         23    2    1    2    0    0  0.82688348291E+01  0.26773454406E+02  0.13219260466E+03  0.16161239864E+03  0.88648131262E+02 0.  0.
          5    1    1    2  502    0 -0.26316343723E+02  0.40620227934E+02  0.18811365610E+01  0.48616498631E+02  0.41800000000E+01 0.  1.
         -5    1    1    2    0  502  0.18047508894E+02 -0.67393682340E+02  0.67410764341E+02  0.97104606202E+02  0.41800000000E+01 0.  1.
        -11    1    3    3    0    0  0.36316746688E+02  0.47189317393E+01  0.11741357280E+03  0.12299236352E+03  0.00000000000E+00 0.  1.
         11    1    3    3    0    0 -0.28047911859E+02  0.22054522666E+02  0.14779031860E+02  0.38620035117E+02  0.00000000000E+00 0. -1.
</event>
<event>
 7    1  0.5137842E-006  0.1182783E+03  0.7561462E-02  0.1245965E+00
         -1   -1    0    0    0  501 -0.00000000000E+00  0.00000000000E+00  0.53886841522E+02  0.53886841522E+02  0.00000000000E+00 0.  1.
          1   -1    0    0  501    0  0.00000000000E+00 -0.00000000000E+00 -0.28419062624E+03  0.28419062624E+03  0.00000000000E+00 0. -1.
         23    2    1    2    0    0 -0.17258238941E+02 -0.50481941445E+02 -0.11983934299E+03  0.16287005952E+03  0.96534527165E+02 0.  0.
          5    1    1    2  502    0 -0.46194250807E+02  0.41301191227E+02 -0.86817135975E+02  0.10674448325E+03  0.41800000000E+01 0.  1.
         -5    1    1    2    0  502  0.63452489748E+02  0.91807502185E+01 -0.23647305745E+02  0.68462924994E+02  0.41800000000E+01 0.  1.
        -11    1    3    3    0    0 -0.56610730384E+02 -0.40488902327E+02 -0.78914762948E+02  0.10522198353E+03  0.00000000000E+00 0. -1.
         11    1    3    3    0    0  0.39352491443E+02 -0.99930391180E+01 -0.40924580047E+02  0.57648075992E+02  0.00000000000E+00 0.  1.
</event>
<event>
 7    1  0.5137842E-006  0.1031089E+03  0.7561462E-02  0.1273891E+00
         -2   -1    0    0    0  501 -0.00000000000E+00  0.00000000000E+00  0.23885359753E+02  0.23885359753E+02  0.00000000000E+00 0.  1.
          2   -1    0    0  501    0  0.00000000000E+00 -0.00000000000E+00 -0.76768101658E+03  0.76768101658E+03  0.00000000000E+00 0. -1.
         23    2    1    2    0    0 -0.75825018367E+02 -0.29566259514E+02 -0.30454300929E+03  0.32765370323E+03  0.89369500492E+02 0.  0.
          5    1    1    2  502    0  0.53934493880E+02  0.62248599412E+02 -0.14336838675E+03  0.16539584178E+03  0.41800000000E+01 0.  1.
         -5    1    1    2    0  502  0.21890524487E+02 -0.32682339898E+02 -0.29588426078E+03  0.29851683132E+03  0.41800000000E+01 0.  1.
        -11    1    3    3    0    0 -0.58860941019E+02 -0.32089053342E+02 -0.30311911074E+03  0.31044405779E+03  0.00000000000E+00 0. -1.
         11    1    3    3    0    0 -0.16964077348E+02  0.25227938280E+01 -0.14238985518E+01  0.17209645436E+02  0.00000000000E+00 0.  1.
</event>
<event>
 7    1  0.5137842E-006  0.1908158E+03  0.7561462E-02  0.1157728E+00
         -2   -1    0    0    0  501 -0.00000000000E+00  0.00000000000E+00  0.13925264660E+04  0.13925264660E+04  0.00000000000E+00 0.  1.
          2   -1    0    0  501    0  0.00000000000E+00 -0.00000000000E+00 -0.37856806197E+02  0.37856806197E+02  0.00000000000E+00 0. -1.
         23    2    1    2    0    0 -0.90755693733E+02  0.14289402527E+03  0.31528852888E+03  0.36990428633E+03  0.93632399305E+02 0.  0.
          5    1    1    2  502    0  0.46656607018E+02 -0.69620315983E+01  0.10451207935E+03  0.11474125671E+03  0.41800000000E+01 0. -1.
         -5    1    1    2    0  502  0.44099086715E+02 -0.13593199367E+03  0.93486905156E+03  0.94573772914E+03  0.41800000000E+01 0. -1.
        -11    1    3    3    0    0  0.56726798329E+01  0.70497933570E+02  0.90944862397E+02  0.11520896636E+03  0.00000000000E+00 0.  1.
         11    1    3    3    0    0 -0.96428373566E+02  0.72396091699E+02  0.22434366649E+03  0.25469531997E+03  0.00000000000E+00 0. -1.
</event>
<event>
 7    1  0.5137842E-006  0.9871153E+02  0.7561462E-02  0.1283029E+00
          2   -1    0    0  501    0  0.00000000000E+00  0.00000000000E+00  0.44690283583E+03  0.44690283583E+03  0.00000000000E+00 0. -1.
         -2   -1    0    0    0  501 -0.00000000000E+00 -0.00000000000E+00 -0.31920035088E+02  0.31920035088E+02  0.00000000000E+00 0.  1.
         23    2    1    2    0    0  0.23584033841E+02  0.36362137975E+02  0.22889932980E+03  0.25046495502E+03  0.91974881232E+02 0.  0.
          5    1    1    2  502    0 -0.66891759457E+02 -0.44616216549E+02  0.15364650267E+03  0.17346421661E+03  0.41800000000E+01 0.  1.
         -5    1    1    2    0  502  0.43307725615E+02  0.82540785743E+01  0.32436968274E+02  0.54893699291E+02  0.41800000000E+01 0.  1.
        -11    1    3    3    0    0  0.40921091665E+02  0.11854483781E+02  0.21153946855E+03  0.21578695809E+03  0.00000000000E+00 0. -1.
         11    1    3    3    0    0 -0.17337057824E+02  0.24507654194E+02  0.17359861255E+02  0.34677996927E+02  0.00000000000E+00 0.  1.
</event>
<event>
 7    1  0.5137842E-006  0.1289350E+03  0.7561462E-02  0.1229045E+00
          2   -1    0    0  501    0  0.00000000000E+00  0.00000000000E+00  0.57135166419E+03  0.57135166419E+03  0.00000000000E+00 0. -1.
         -2   -1    0    0    0  501 -0.00000000000E+00 -0.00000000000E+00 -0.34376322309E+02  0.34376322309E+02  0.00000000000E+00 0.  1.
         23    2    1    2    0    0 -0.97638074615E+01  0.76724002381E+02  0.15825459476E+03  0.19945396272E+03  0.93570625754E+02 0.  0.
          5    1    1    2  502    0 -0.56555941139E+02 -0.34348873448E+02  0.14057803565E+03  0.15542868491E+03  0.41800000000E+01 0. -1.
         -5    1    1    2    0  502  0.66319748600E+02 -0.42375128932E+02  0.23814271147E+03  0.25084533887E+03  0.41800000000E+01 0. -1.
        -11    1    3    3    0    0 -0.31575606989E+02  0.84018999626E+02  0.15040676389E+03  0.17515252176E+03  0.00000000000E+00 0. -1.
         11    1    3    3    0    0  0.21811799527E+02 -0.72949972459E+01  0.78478308746E+01  0.24301440963E+02  0.00000000000E+00 0.  1.
</event>
<event>
 7    1  0.5137842E-006  0.1044079E+03  0.7561462E-02  0.1271291E+00
         -1   -1    0    0    0  501 -0.00000000000E+00  0.00000000000E+00  0.91835362964E+02  0.91835362964E+02  0.00000000000E+00 0.  1.
          1   -1    0    0  501    0  0.00000000000E+00 -0.00000000000E+00 -0.15735945674E+03  0.15735945674E+03  0.00000000000E+00 0. -1.
         23    2    1    2    0    0 -0.40954863603E+02 -0.26125534131E+02 -0.48116565218E+02  0.11387800076E+03  0.91066738292E+02 0.  0.
          5    1    1    2  502    0  0.62088005319E+02 -0.11955027152E+02  0.30596042813E+02  0.70366421783E+02  0.41800000000E+01 0. -1.
         -5    1    1    2    0  502 -0.21133141716E+02  0.38080561283E+02 -0.48003571369E+02  0.64950397155E+02  0.41800000000E+01 0. -1.
        -11    1    3    3    0    0  0.28429223373E+02 -0.31245656858E+01 -0.50662533900E+01  0.29045663631E+02  0.00000000000E+00 0. -1.
         11    1    3    3    0    0 -0.69384086977E+02 -0.23000968445E+02 -0.43050311828E+02  0.84832337133E+02  0.00000000000E+00 0.  1.
</event>
<event>
 7    1  0.5137842E-006  0.6185119E+02  0.7561462E-02  0.1390223E+00
          1   -1    0    0  501    0  0.00000000000E+00  0.00000000000E+00  0.16194812661E+03  0.16194812661E+03  0.00000000000E+00 0. -1.
         -1   -1    0    0    0  501 -0.00000000000E+00 -0.00000000000E+00 -0.73672296964E+02  0.73672296964E+02  0.00000000000E+00 0.  1.
         23    2    1    2    0    0  0.12375771172E+02  0.13741597808E+02  0.34299272332E+02  0.98258474253E+02  0.90201421594E+02 0.  0.
          5    1    1    2  502    0 -0.39516293517E+02  0.19541037586E+02 -0.22411261604E+02  0.49629896735E+02  0.41800000000E+01 0. -1.
         -5    1    1    2    0  502  0.27140522344E+02 -0.33282635394E+02  0.76387818922E+02  0.87732052589E+02  0.41800000000E+01 0. -1.
        -11    1    3    3    0    0 -0.38104994023E+00  0.21393074399E+02 -0.27415239054E+02  0.34776488662E+02  0.00000000000E+00 0.  1.
         11    1    3    3    0    0  0.12756821112E+02 -0.76514765912E+01  0.61714511386E+02  0.63481985590E+02  0.00000000000E+00 0. -1.
</event>
<event>
 7    1  0.5137842E-006  0.1875007E+03  0.7561462E-02  0.1160735E+00
          1   -1    0    0  501    0  0.00000000000E+00  0.00000000000E+00  0.69996536060E+03  0.69996536060E+03  0.00000000000E+00 0. -1.
         -1   -1    0    0    0  501 -0.00000000000E+00 -0.00000000000E+00 -0.55214412175E+02  0.55214412175E+02  0.00000000000E+00 0.  1.
         23    2    1    2    0    0 -0.52433558491E+02  0.15038676126E+03  0.37805203863E+03  0.42030287301E+03  0.91464228700E+02 0.  0.
          5    1    1    2  502    0  0.87442190455E+02 -0.13751648078E+03  0.23345808433E+03  0.28474035313E+03  0.41800000000E+01 0.  1.
         -5    1    1    2    0  502 -0.35008631964E+02 -0.12870280479E+02  0.33240825469E+02  0.50136546644E+02  0.41800000000E+01 0.  1.
        -11    1    3    3    0    0  0.12999408714E+02  0.68055254796E+02  0.89506476368E+02  0.11318971528E+03  0.00000000000E+00 0.  1.
         11    1    3    3    0    0 -0.65432967205E+02  0.82331506462E+02  0.28854556226E+03  0.30711315773E+03  0.00000000000E+00 0. -1.
</event>
<event>
 7    1  0.5137842E-006  0.9808838E+02  0.7561462E-02  0.1284368E+00
         -1   -1    0    0    0  501 -0.00000000000E+00  0.00000000000E+00  0.11054226347E+03  0.11054226347E+03  0.00000000000E+00 0.  1.
          1   -1    0    0  501    0  0.00000000000E+00 -0.00000000000E+00 -0.11175516294E+03  0.11175516294E+03  0.00000000000E+00 0. -1.
         23    2    1    2    0    0 -0.36595249449E+01 -0.18628021370E+02 -0.17278922544E+02  0.94755342616E+02  0.91211942677E+02 0.  0.
          5    1    1    2  502    0 -0.11450963172E+02  0.59445357675E+02  0.44618578341E+02  0.75320415823E+02  0.41800000000E+01 0. -1.
         -5    1    1    2    0  502  0.15110488116E+02 -0.40817336304E+02 -0.28552555265E+02  0.52221667976E+02  0.41800000000E+01 0. -1.
        -11    1    3    3    0    0 -0.46135324910E+02 -0.17302540676E+02 -0.11065107332E+01  0.49285601188E+02  0.00000000000E+00 0.  1.
         11    1    3    3    0    0  0.42475799965E+02 -0.13254806940E+01 -0.16172411811E+02  0.45469741428E+02  0.00000000000E+00 0. -1.
</event>
<event>
 7    1  0.5137842E-006  0.1107919E+03  0.7561462E-02  0.1259110E+00
          1   -1    0    0  501    0  0.00000000000E+00  0.00000000000E+00  0.30630627793E+03  0.30630627793E+03  0.00000000000E+00 0. -1.
         -1   -1    0    0    0  501 -0.00000000000E+00 -0.00000000000E+00 -0.55222916393E+02  0.55222916393E+02  0.00000000000E+00 0.  1.
         23    2    1    2    0    0 -0.68279540860E+02  0.43967986454E+01  0.13650885152E+03  0.17861509334E+03  0.92667456471E+02 0.  0.
          5    1    1    2  502    0  0.87565885338E+02  0.25727214354E+02  0.11503094829E+03  0.14689882674E+03  0.41800000000E+01 0. -1.
         -5    1    1    2    0  502 -0.19286344478E+02 -0.30124013000E+02 -0.45643827217E+00  0.36015274238E+02  0.41800000000E+01 0. -1.
        -11    1    3    3    0    0 -0.58748829207E+02  0.30661166667E+02  0.13529007003E+03  0.15064838241E+03  0.00000000000E+00 0. -1.
         11    1    3    3    0    0 -0.95307116527E+01 -0.26264368022E+02  0.12187814922E+01  0.27966710935E+02  0.00000000000E+00 0.  1.
</event>
<event>
 7    1  0.5137842E-006  0.1398037E+03  0.7561462E-02  0.1213593E+00
         -2   -1    0    0    0  501 -0.00000000000E+00  0.00000000000E+00  0.26371350077E+02  0.26371350077E+02  0.00000000000E+00 0. -1.
          2   -1    0    0  501    0  0.00000000000E+00 -0.00000000000E+00 -0.79245471033E+03  0.79245471033E+03  0.00000000000E+00 0.  1.
         23    2    1    2    0    0 -0.83161139237E+02 -0.39798593995E+02 -0.42072352835E+03  0.44012317087E+03  0.90556143189E+02 0.  0.
          5    1    1    2  502    0  0.73890405017E+02  0.82619127846E+02 -0.25978064301E+03  0.28246976320E+03  0.41800000000E+01 0. -1.
         -5    1    1    2    0  502  0.92707342197E+01 -0.42820533851E+02 -0.85579188894E+02  0.96233126334E+02  0.41800000000E+01 0. -1.
        -11    1    3    3    0    0 -0.23260727885E+02 -0.57655404329E+02 -0.15193933646E+03  0.16416689396E+03  0.00000000000E+00 0. -1.
         11    1    3    3    0    0 -0.59900411351E+02  0.17856810334E+02 -0.26878419189E+03  0.27595627691E+03  0.00000000000E+00 0.  1.
</event>
<event>
 7    1  0.5137842E-006  0.1452611E+03  0.7561462E-02  0.1206420E+00
          1   -1    0    0  501    0  0.00000000000E+00  0.00000000000E+00  0.71509909251E+03  0.71509909251E+03  0.00000000000E+00 0. -1.
         -1   -1    0    0    0  501 -0.00000000000E+00 -0.00000000000E+00 -0.31547634681E+02  0.31547634681E+02  0.00000000000E+00 0.  1.
         23    2    1    2    0    0  0.85400975832E+02  0.59611751007E+02  0.29597213523E+03  0.32627629340E+03  0.89497638352E+02 0.  0.
          5    1    1    2  502    0 -0.88878001264E+02 -0.87835811513E+02  0.35765211939E+03  0.37887588970E+03  0.41800000000E+01 0.  1.
         -5    1    1    2    0  502  0.34770254317E+01  0.28224060506E+02  0.29927203205E+02  0.41494544087E+02  0.41800000000E+01 0.  1.
        -11    1    3    3    0    0  0.46225255466E+02 -0.18164466870E+02  0.93562858444E+02  0.10592794995E+03  0.00000000000E+00 0. -1.
         11    1    3    3    0    0  0.39175720366E+02  0.77776217877E+02  0.20240927679E+03  0.22034834345E+03  0.00000000000E+00 0.  1.
</event>
<event>
 7    1  0.5137842E-006  0.1361148E+03  0.7561462E-02  0.1218654E+00
         -1   -1    0    0    0  501 -0.00000000000E+00  0.00000000000E+00  0.79171163230E+02  0.79171163230E+02  0.00000000000E+00 0.  1.
          1   -1    0    0  501    0  0.00000000000E+00 -0.00000000000E+00 -0.27573870388E+03  0.27573870388E+03  0.00000000000E+00 0. -1.
         23    2    1    2    0    0  0.66882765750E+02 -0.65714162760E+02 -0.10140035854E+03  0.17190569994E+03  0.10236152313E+03 0.  0.
          5    1    1    2  502    0 -0.86357260836E+02  0.75790657125E+02 -0.10758522296E+03  0.15746063891E+03  0.41800000000E+01 0. -1.
         -5    1    1    2    0  502  0.19474495086E+02 -0.10076494364E+02  0.12418040848E+02  0.25543528261E+02  0.41800000000E+01 0. -1.
        -11    1    3    3    0    0 -0.24029482656E+02 -0.26933162426E+02 -0.10419340090E+02  0.37568256852E+02  0.00000000000E+00 0.  1.
         11    1    3    3    0    0  0.90912248406E+02 -0.38781000334E+02 -0.90981018448E+02  0.13433744309E+03  0.00000000000E+00 0. -1.
</event>
<event>
 7    1  0.5137842E-006  0.2144510E+03  0.7561462E-02  0.1138089E+00
          1   -1    0    0  501    0  0.00000000000E+00  0.00000000000E+00  0.62172032291E+02  0.62172032291E+02  0.00000000000E+00 0. -1.
         -1   -1    0    0    0  501 -0.00000000000E+00 -0.00000000000E+00 -0.83712136457E+03  0.83712136457E+03  0.00000000000E+00 0.  1.
         23    2    1    2    0    0  0.84975064292E+02 -0.17203383024E+03 -0.26085555864E+03  0.33648260308E+03  0.91424938639E+02 0.  0.
          5    1    1    2  502    0  0.32211862356E+02  0.51397541082E+02 -0.13903925353E+03  0.15175209299E+03  0.41800000000E+01 0.  1.
         -5    1    1    2    0  502 -0.11718692665E+03  0.12063628916E+03 -0.37505452012E+03  0.41105870079E+03  0.41800000000E+01 0.  1.
        -11    1    3    3    0    0  0.15902436358E+02 -0.95317074755E+02 -0.18383323970E+03  0.20768459798E+03  0.00000000000E+00 0. -1.
         11    1    3    3    0    0  0.69072627934E+02 -0.76716755483E+02 -0.77022318938E+02  0.12879800509E+03  0.00000000000E+00 0.  1.
</event>
<event>
 7    1  0.5137842E-006  0.1257563E+03  0.7561462E-02  0.1233892E+00
          1   -1    0    0  501    0  0.00000000000E+00  0.00000000000E+00  0.53857467535E+02  0.53857467535E+02  0.00000000000E+00 0. -1.
         -1   -1    0    0    0  501 -0.00000000000E+00 -0.00000000000E+00 -0.49794624574E+03  0.49794624574E+03  0.00000000000E+00 0.  1.
         23    2    1    2    0    0  0.12676251966E+02  0.12857349245E+02 -0.25016142250E+02  0.10464658170E+03  0.99995504372E+02 0.  0.
          5    1    1    2  502    0 -0.44680950963E+02  0.58015011404E+02 -0.25837726840E+03  0.26858595301E+03  0.41800000000E+01 0. -1.
         -5    1    1    2    0  502  0.32004698997E+02 -0.70872360649E+02 -0.16069536755E+03  0.17857117857E+03  0.41800000000E+01 0.  1.
        -11    1    3    3    0    0  0.19637136198E+02 -0.41277425500E+02 -0.19809732972E+02  0.49818354994E+02  0.00000000000E+00 0.  1.
         11    1    3    3    0    0 -0.69608842316E+01  0.54134774745E+02 -0.52064092781E+01  0.54828226704E+02  0.00000000000E+00 0. -1.
</event>
<event>
 7    1  0.5137842E-006  0.1459466E+03  0.7561462E-02  0.1205544E+00
          1   -1    0    0  501    0  0.00000000000E+00  0.00000000000E+00  0.88129894700E+03  0.88129894700E+03  0.00000000000E+00 0. -1.
         -1   -1    0    0    0  501 -0.00000000000E+00 -0.00000000000E+00 -0.62117016490E+02  0.62117016490E+02  0.00000000000E+00 0.  1.
         23    2    1    2    0    0  0.13204516858E+03  0.45143089206E+02  0.70443222049E+03  0.72366498614E+03  0.89400413097E+02 0.  0.
          5    1    1    2  502    0 -0.10445890060E+03 -0.50632468682E+02  0.13986597938E+03  0.18181109259E+03  0.41800000000E+01 0. -1.
         -5    1    1    2    0  502 -0.27586267980E+02  0.54893794765E+01 -0.25116269365E+02  0.37939884751E+02  0.41800000000E+01 0. -1.
        -11    1    3    3    0    0  0.88798956506E+02  0.52900792886E+02  0.61927082504E+03  0.62783764088E+03  0.00000000000E+00 0. -1.
         11    1    3    3    0    0  0.43246212075E+02 -0.77577036801E+01  0.85161395450E+02  0.95827345264E+02  0.00000000000E+00 0.  1.
</event>
<event>
 7    1  0.5137842E-006  0.1614463E+03  0.7561462E-02  0.1187073E+00
         -2   -1    0    0    0  501 -0.00000000000E+00  0.00000000000E+00  0.62910110379E+02  0.62910110379E+02  0.00000000000E+00 0.  1.
          2   -1    0    0  501    0  0.00000000000E+00 -0.00000000000E+00 -0.42839021115E+03  0.42839021115E+03  0.00000000000E+00 0. -1.
         23    2    1    2    0    0 -0.11567715968E+03 -0.41153109194E+02 -0.19015274232E+03  0.24338668236E+03  0.89466351595E+02 0.  0.
          5    1    1    2  502    0  0.17315742100E+02  0.70041888143E+02 -0.64257460126E+02  0.96706745374E+02  0.41800000000E+01 0.  1.
         -5    1    1    2    0  502  0.98361417584E+02 -0.28888778949E+02 -0.11106989833E+03  0.15120689380E+03  0.41800000000E+01 0.  1.
        -11    1    3    3    0    0  0.55958768805E+00  0.17716691147E+02 -0.44826412535E+02  0.48203750314E+02  0.00000000000E+00 0. -1.
         11    1    3    3    0    0 -0.11623674737E+03 -0.58869800341E+02 -0.14532632979E+03  0.19518293204E+03  0.00000000000E+00 0.  1.
</event>
<event>
 7    1  0.5137842E-006  0.8598182E+02  0.7561462E-02  0.1312885E+00
         -2   -1    0    0    0  501 -0.00000000000E+00  0.00000000000E+00  0.44621105410E+02  0.44621105410E+02  0.00000000000E+00 0.  1.
          2   -1    0    0  501    0  0.00000000000E+00 -0.00000000000E+00 -0.37374076211E+03  0.37374076211E+03  0.00000000000E+00 0. -1.
         23    2    1    2    0    0 -0.43540783402E+02  0.43298040210E+02 -0.18081443896E+03  0.21485447235E+03  0.98478743112E+02 0.  0.
          5    1    1    2  502    0  0.53400664886E+02 -0.14912443206E+02 -0.16121689286E+03  0.17053554150E+03  0.41800000000E+01 0.  1.
         -5    1    1    2    0  502 -0.98598814848E+01 -0.28385597003E+02  0.12911675120E+02  0.32971853671E+02  0.41800000000E+01 0.  1.
        -11    1    3    3    0    0 -0.53082541453E+02  0.13552272812E+02 -0.33393937092E+02  0.64160543483E+02  0.00000000000E+00 0.  1.
         11    1    3    3    0    0  0.95417580517E+01  0.29745767397E+02 -0.14742050187E+03  0.15069392886E+03  0.00000000000E+00 0. -1.
</event>
<event>
 7    1  0.5137842E-006  0.8567743E+02  0.7561462E-02  0.1313670E+00
          2   -1    0    0  501    0  0.00000000000E+00  0.00000000000E+00  0.16394387749E+03  0.16394387749E+03  0.00000000000E+00 0. -1.
         -2   -1    0    0    0  501 -0.00000000000E+00 -0.00000000000E+00 -0.13605713952E+03  0.13605713952E+03  0.00000000000E+00 0.  1.
         23    2    1    2    0    0 -0.52151123766E+02 -0.38077211350E+02  0.98627619173E+02  0.14245494461E+03  0.79977435858E+02 0.  0.
          5    1    1    2  502    0  0.16243014781E+02  0.93843063441E+00 -0.97694465932E+02  0.99128185976E+02  0.41800000000E+01 0.  1.
         -5    1    1    2    0  502  0.35908108986E+02  0.37138780716E+02  0.26953584725E+02  0.58417886418E+02  0.41800000000E+01 0.  1.
        -11    1    3    3    0    0  0.19809429922E+02  0.27393000109E+01  0.21208503361E+02  0.29149920981E+02  0.00000000000E+00 0.  1.
         11    1    3    3    0    0 -0.71960553689E+02 -0.40816511361E+02  0.77419115812E+02  0.11330502363E+03  0.00000000000E+00 0. -1.
</event>
<event>
 7    1  0.5137842E-006  0.7522163E+02  0.7561462E-02  0.1343186E+00
         -2   -1    0    0    0  501 -0.00000000000E+00  0.00000000000E+00  0.31136089053E+03  0.31136089053E+03  0.00000000000E+00 0. -1.
          2   -1    0    0  501    0  0.00000000000E+00 -0.00000000000E+00 -0.43737936536E+02  0.43737936536E+02  0.00000000000E+00 0.  1.
         23    2    1    2    0    0 -0.37649032326E+02 -0.12498777191E+01  0.14776280464E+03  0.17780484822E+03  0.91442363187E+02 0.  0.
          5    1    1    2  502    0  0.20790489391E+02 -0.21224836273E+02 -0.19029706923E+02  0.35529428218E+02  0.41800000000E+01 0. -1.
         -5    1    1    2    0  502  0.16858542935E+02  0.22474713992E+02  0.13888985628E+03  0.14176455063E+03  0.41800000000E+01 0. -1.
        -11    1    3    3    0    0  0.26909253223E+02  0.42527143338E+01  0.77878182742E+02  0.82505786678E+02  0.00000000000E+00 0. -1.
         11    1    3    3    0    0 -0.64558285550E+02 -0.55025920530E+01  0.69884621897E+02  0.95299061538E+02  0.00000000000E+00 0.  1.
</event>
<event>
 7    1  0.5137842E-006  0.1560155E+03  0.7561462E-02  0.1193270E+00
          1   -1    0    0  501    0  0.00000000000E+00  0.00000000000E+00  0.46233916324E+03  0.46233916324E+03  0.00000000000E+00 0. -1.
         -1   -1    0    0    0  501 -0.00000000000E+00 -0.00000000000E+00 -0.79538108805E+02  0.79538108805E+02  0.00000000000E+00 0.  1.
         23    2    1    2    0    0  0.40320828167E+00  0.13422979820E+03  0.29988423133E+03  0.34052628847E+03  0.89497483988E+02 0.  0.
          5    1    1    2  502    0  0.31962045026E+02 -0.92787054706E+02  0.10534210762E+03  0.14403278058E+03  0.41800000000E+01 0. -1.
         -5    1    1    2    0  502 -0.32365253307E+02 -0.41442743490E+02 -0.22425284511E+02  0.57318202999E+02  0.41800000000E+01 0. -1.
        -11    1    3    3    0    0 -0.42912407914E+02  0.86763530748E+02  0.18987304733E+03  0.21312240409E+03  0.00000000000E+00 0. -1.
         11    1    3    3    0    0  0.43315616196E+02  0.47466267448E+02  0.11001118399E+03  0.12740388438E+03  0.00000000000E+00 0.  1.
</event>
<event>
 7    1  0.5137842E-006  0.9252879E+02  0.7561462E-02  0.1296841E+00
         -1   -1    0    0    0  501 -0.00000000000E+00  0.00000000000E+00  0.45255785766E+02  0.45255785766E+02  0.00000000000E+00 0.  1.
          1   -1    0    0  501    0  0.00000000000E+00 -0.00000000000E+00 -0.29469343444E+03  0.29469343444E+03  0.00000000000E+00 0. -1.
         23    2    1    2    0    0 -0.60632726630E+01 -0.32750624861E+02 -0.13560453521E+03  0.16756914980E+03  0.92636187807E+02 0.  0.
          5    1    1    2  502    0 -0.35220250436E+02  0.56354433050E+02 -0.10423281391E+03  0.12368605444E+03  0.41800000000E+01 0. -1.
         -5    1    1    2    0  502  0.41283523099E+02 -0.23603808189E+02 -0.96002995576E+01  0.48694015978E+02  0.41800000000E+01 0. -1.
        -11    1    3    3    0    0 -0.34052973942E+02 -0.12881954674E+02 -0.10573892182E+02  0.37912491166E+02  0.00000000000E+00 0.  1.
         11    1    3    3    0    0  0.27989701279E+02 -0.19868670187E+02 -0.12503064302E+03  0.12965665863E+03  0.00000000000E+00 0. -1.
</event>
<event>
 7    1  0.5137842E-006  0.4260369E+03  0.7561462E-02  0.1035119E+00
          2   -1    0    0  501    0  0.00000000000E+00  0.00000000000E+00  0.78416856328E+03  0.78416856328E+03  0.00000000000E+00 0. -1.
         -2   -1    0    0    0  501 -0.00000000000E+00 -0.00000000000E+00 -0.25683703937E+03  0.25683703937E+03  0.00000000000E+00 0.  1.
         23    2    1    2    0    0  0.41392814431E+03  0.64359095894E+02  0.39583011390E+03  0.58447374746E+03  0.97208438543E+02 0.  0.
          5    1    1    2  502    0 -0.35637023776E+03 -0.92811688443E+02  0.87352019908E+02  0.37849914618E+03  0.41800000000E+01 0. -1.
         -5    1    1    2    0  502 -0.57557906548E+02  0.28452592549E+02  0.44149390103E+02  0.78032709010E+02  0.41800000000E+01 0. -1.
        -11    1    3    3    0    0  0.19494610759E+03  0.41146743695E+02  0.25285875509E+03  0.32192326633E+03  0.00000000000E+00 0. -1.
         11    1    3    3    0    0  0.21898203672E+03  0.23212352199E+02  0.14297135881E+03  0.26255048113E+03  0.00000000000E+00 0.  1.
</event>
<event>
 7    1  0.5137842E-006  0.1073716E+03  0.7561462E-02  0.1265516E+00
          1   -1    0    0  501    0  0.00000000000E+00  0.00000000000E+00  0.60167214676E+02  0.60167214676E+02  0.00000000000E+00 0. -1.
         -1   -1    0    0    0  501 -0.00000000000E+00 -0.00000000000E+00 -0.28952585745E+03  0.28952585745E+03  0.00000000000E+00 0.  1.
         23    2    1    2    0    0  0.14278233219E+02 -0.71255349775E+01 -0.46283606638E+01  0.92000609955E+02  0.90487840714E+02 0.  0.
          5    1    1    2  502    0  0.53148603874E+02  0.15371061435E+02 -0.12709048038E+03  0.13867410077E+03  0.41800000000E+01 0.  1.
         -5    1    1    2    0  502 -0.67426837093E+02 -0.82455264579E+01 -0.97639801733E+02  0.11901836140E+03  0.41800000000E+01 0.  1.
        -11    1    3    3    0    0  0.34652850881E+02  0.31949220201E+02  0.32037988784E+01  0.47242322899E+02  0.00000000000E+00 0. -1.
         11    1    3    3    0    0 -0.20374617662E+02 -0.39074755178E+02 -0.78321595422E+01  0.44758287056E+02  0.00000000000E+00 0.  1.
</event>
<event>
 7    1  0.5137842E-006  0.7696197E+02  0.7561462E-02  0.1337901E+00
          1   -1    0    0  501    0  0.00000000000E+00  0.00000000000E+00  0.62243949437E+03  0.62243949437E+03  0.00000000000E+00 0. -1.
         -1   -1    0    0    0  501 -0.00000000000E+00 -0.00000000000E+00 -0.25435139451E+02  0.25435139451E+02  0.00000000000E+00 0.  1.
         23    2    1    2    0    0 -0.48542043503E+01  0.35810917765E+01  0.40646200534E+03  0.41986234199E+03  0.10505539925E+03 0.  0.
          5    1    1    2  502    0 -0.10669609653E+02  0.19158412243E+02 -0.10767717137E+02  0.24785105652E+02  0.41800000000E+01 0. -1.
         -5    1    1    2    0  502  0.15523814003E+02 -0.22739504020E+02  0.20131006671E+03  0.20322718619E+03  0.41800000000E+01 0. -1.
        -11    1    3    3    0    0  0.45991588721E+02 -0.16812535697E+02  0.15716121506E+03  0.16461328958E+03  0.00000000000E+00 0.  1.
         11    1    3    3    0    0 -0.50845793071E+02  0.20393627473E+02  0.24930079029E+03  0.25524905240E+03  0.00000000000E+00 0. -1.
</event>
<event>
 7    1  0.5137842E-006  0.1089269E+03  0.7561462E-02  0.1262570E+00
         -2   -1    0    0    0  501 -0.00000000000E+00  0.00000000000E+00  0.36779345767E+02  0.36779345767E+02  0.00000000000E+00 0.  1.
          2   -1    0    0  501    0  0.00000000000E+00 -0.00000000000E+00 -0.51240747814E+03  0.51240747814E+03  0.00000000000E+00 0. -1.
         23    2    1    2    0    0 -0.94159695567E+01 -0.60222245019E+02 -0.33038950951E+03  0.34804652084E+03  0.90905299058E+02 0.  0.
          5    1    1    2  502    0 -0.28496026510E+02  0.63912082138E+02 -0.14691602765E+03  0.16278381170E+03  0.41800000000E+01 0. -1.
         -5    1    1    2    0  502  0.37911996067E+02 -0.36898371186E+01  0.16774047831E+01  0.38356491374E+02  0.41800000000E+01 0. -1.
        -11    1    3    3    0    0  0.75528954742E+01  0.23149922766E+02 -0.70999144012E+02  0.75058934209E+02  0.00000000000E+00 0.  1.
         11    1    3    3    0    0 -0.16968865031E+02 -0.83372167785E+02 -0.25939036549E+03  0.27298758663E+03  0.00000000000E+00 0. -1.
</event>
<event>
 7    1  0.5137842E-006  0.8976651E+02  0.7561462E-02  0.1303418E+00
          2   -1    0    0  501    0  0.00000000000E+00  0.00000000000E+00  0.57115472881E+03  0.57115472881E+03  0.00000000000E+00 0. -1.
         -2   -1    0    0    0  501 -0.00000000000E+00 -0.00000000000E+00 -0.28515394004E+02  0.28515394004E+02  0.00000000000E+00 0.  1.
         23    2    1    2    0    0  0.44750527652E+02  0.49620264595E+02  0.26073395716E+03  0.28410257428E+03  0.90924671623E+02 0.  0.
          5    1    1    2  502    0 -0.33396657373E+02 -0.44423619271E+02  0.29305854843E+03  0.29831121313E+03  0.41800000000E+01 0.  1.
         -5    1    1    2    0  502 -0.11353870279E+02 -0.51966453237E+01 -0.11153170788E+02  0.17256335403E+02  0.41800000000E+01 0.  1.
        -11    1    3    3    0    0 -0.18364766438E+02 -0.12387912824E+02  0.77841011127E+02  0.80931749294E+02  0.00000000000E+00 0.  1.
         11    1    3    3    0    0  0.63115294090E+02  0.62008177419E+02  0.18289294604E+03  0.20317082498E+03  0.00000000000E+00 0. -1.
</event>
<event>
 7    1  0.5137842E-006  0.9750192E+02  0.7561462E-02  0.1285639E+00
          2   -1    0    0  501    0  0.00000000000E+00  0.00000000000E+00  0.57030331287E+02  0.57030331287E+02  0.00000000000E+00 0. -1.
         -2   -1    0    0    0  501 -0.00000000000E+00 -0.00000000000E+00 -0.27844649371E+03  0.27844649371E+03  0.00000000000E+00 0.  1.
         23    2    1    2    0    0 -0.63240033071E+01 -0.64009816590E+02 -0.55257539692E+02  0.11777701859E+03  0.81736043313E+02 0.  0.
          5    1    1    2  502    0  0.13584451442E+02  0.96126203448E+02 -0.15450683215E+03  0.18252292429E+03  0.41800000000E+01 0.  1.
         -5    1    1    2    0  502 -0.72604481350E+01 -0.32116386858E+02 -0.11651790578E+02  0.35176882119E+02  0.41800000000E+01 0.  1.
        -11    1    3    3    0    0 -0.72977611727E+01 -0.43449064466E+02 -0.76448170073E+02  0.88234920687E+02  0.00000000000E+00 0.  1.
         11    1    3    3    0    0  0.97375786565E+00 -0.20560752124E+02  0.21190630382E+02  0.29542097899E+02  0.00000000000E+00 0. -1.
</event>
<event>
 7    1  0.5137842E-006  0.1262896E+03  0.7561462E-02  0.1233067E+00
         -2   -1    0    0    0  501 -0.00000000000E+00  0.00000000000E+00  0.18389617576E+03  0.18389617576E+03  0.00000000000E+00 0.  1.
          2   -1    0    0  501    0  0.00000000000E+00 -0.00000000000E+00 -0.12878197073E+03  0.12878197073E+03  0.00000000000E+00 0. -1.
         23    2    1    2    0    0 -0.65797790806E+02 -0.78780700498E+02 -0.99325524860E+01  0.13827903714E+03  0.92123224360E+02 0.  0.
          5    1    1    2  502    0  0.76258934251E+02  0.30744366861E+02  0.87541702441E+02  0.12017347134E+03  0.41800000000E+01 0.  1.
         -5    1    1    2    0  502 -0.10461143445E+02  0.48036333637E+02 -0.22494944923E+02  0.54225638019E+02  0.41800000000E+01 0.  1.
        -11    1    3    3    0    0  0.70009252229E+01 -0.35571908756E+02 -0.34586704849E+02  0.50106025574E+02  0.00000000000E+00 0. -1.
         11    1    3    3    0    0 -0.72798716029E+02 -0.43208791742E+02  0.24654152363E+02  0.88173011562E+02  0.00000000000E+00 0.  1.
</event>
<event>
 7    1  0.5137842E-006  0.8837083E+02  0.7561462E-02  0.1306846E+00
          2   -1    0    0  501    0  0.00000000000E+00  0.00000000000E+00  0.56749786220E+03  0.56749786220E+03  0.00000000000E+00 0. -1.
         -2   -1    0    0    0  501 -0.00000000000E+00 -0.00000000000E+00 -0.21865962849E+02  0.21865962849E+02  0.00000000000E+00 0.  1.
         23    2    1    2    0    0 -0.20586044350E+02 -0.29056195823E+01  0.19049076809E+03  0.21226824714E+03  0.91317293919E+02 0.  0.
          5    1    1    2  502    0 -0.23639676001E+02 -0.27892283014E+02  0.29964847476E+02  0.47457119776E+02  0.41800000000E+01 0. -1.
         -5    1    1    2    0  502  0.44225720351E+02  0.30797902597E+02  0.32517628379E+03  0.32963845814E+03  0.41800000000E+01 0. -1.
        -11    1    3    3    0    0 -0.21678256626E+02 -0.41741564018E+02  0.60719211895E+02  0.76805778885E+02  0.00000000000E+00 0.  1.
         11    1    3    3    0    0  0.10922122765E+01  0.38835944436E+02  0.12977155620E+03  0.13546246825E+03  0.00000000000E+00 0. -1.
</event>
<event>
 7    1  0.5137842E-006  0.1092218E+03  0.7561462E-02  0.1262018E+00
         -2   -1    0    0    0  501 -0.00000000000E+00  0.00000000000E+00  0.30449474891E+03  0.30449474891E+03  0.00000000000E+00 0.  1.
          2   -1    0    0  501    0  0.00000000000E+00 -0.00000000000E+00 -0.68852132185E+02  0.68852132185E+02  0.00000000000E+00 0. -1.
         23    2    1    2    0    0  0.51546262786E+02 -0.66353852740E+02  0.46488652142E+02  0.13150668747E+03  0.89849669398E+02 0.  0.
          5    1    1    2  502    0  0.46695644690E+01  0.24318726415E+02 -0.12661909085E+02  0.28124751171E+02  0.41800000000E+01 0. -1.
         -5    1    1    2    0  502 -0.56215827255E+02  0.42035126325E+02  0.20181587366E+03  0.21371544245E+03  0.41800000000E+01 0. -1.
        -11    1    3    3    0    0 -0.81710171941E+01 -0.62649391957E+02  0.24368336511E+02  0.67716524267E+02  0.00000000000E+00 0. -1.
         11    1    3    3    0    0  0.59717279980E+02 -0.37044607828E+01  0.22120315631E+02  0.63790163203E+02  0.00000000000E+00 0.  1.
</event>
<event>
 7    1  0.5137842E-006  0.5686273E+02  0.7561462E-02  0.1411490E+00
          1   -1    0    0  501    0  0.00000000000E+00  0.00000000000E+00  0.21407877247E+03  0.21407877247E+03  0.00000000000E+00 0. -1.
         -1   -1    0    0    0  501 -0.00000000000E+00 -0.00000000000E+00 -0.71691274177E+02  0.71691274177E+02  0.00000000000E+00 0.  1.
         23    2    1    2    0    0 -0.43306553621E+02  0.19902490805E+02  0.10512300561E+03  0.14682015965E+03  0.90739992535E+02 0.  0.
          5    1    1    2  502    0  0.38411581585E+02 -0.10292450990E+02  0.82810101746E+02  0.91958520532E+02  0.41800000000E+01 0. -1.
         -5    1    1    2    0  502  0.48949720355E+01 -0.96100398153E+01 -0.45545609066E+02  0.46991366459E+02  0.41800000000E+01 0. -1.
        -11    1    3    3    0    0 -0.36918695150E+02 -0.42756215800E+01  0.11429325604E+03  0.12018410613E+03  0.00000000000E+00 0. -1.
         11    1    3    3    0    0 -0.63878584709E+01  0.24178112386E+02 -0.91702504243E+01  0.26636053522E+02  0.00000000000E+00 0.  1.
</event>
<event>
 7    1  0.5137842E-006  0.1032319E+03  0.7561462E-02  0.1273643E+00
          3   -1    0    0  501    0  0.00000000000E+00  0.00000000000E+00  0.16094641345E+03  0.16094641345E+03  0.00000000000E+00 0. -1.
         -3   -1    0    0    0  501 -0.00000000000E+00 -0.00000000000E+00 -0.98617046441E+02  0.98617046441E+02  0.00000000000E+00 0.  1.
         23    2    1    2    0    0 -0.21874093995E+02  0.51371221679E+02  0.62922441206E+02  0.12257480510E+03  0.89150831924E+02 0.  0.
          5    1    1    2  502    0  0.45663656364E+02  0.16781912430E+02 -0.31761722859E+02  0.58250163402E+02  0.41800000000E+01 0.  1.
         -5    1    1    2    0  502 -0.23789562370E+02 -0.68153134109E+02  0.31168648657E+02  0.78738491386E+02  0.41800000000E+01 0.  1.
        -11    1    3    3    0    0  0.20803446395E+01  0.59873312390E+02  0.59683645098E+01  0.60206002569E+02  0.00000000000E+00 0.  1.
         11    1    3    3    0    0 -0.23954438634E+02 -0.85020907108E+01  0.56954076696E+02  0.62368802530E+02  0.00000000000E+00 0. -1.
</event>
<event>
 7    1  0.5137842E-006  0.1267312E+03  0.7561462E-02  0.1232388E+00
         -1   -1    0    0    0  501 -0.00000000000E+00  0.00000000000E+00  0.16202208599E+03  0.16202208599E+03  0.00000000000E+00 0.  1.
          1   -1    0    0  501    0  0.00000000000E+00 -0.00000000000E+00 -0.14553860078E+03  0.14553860078E+03  0.00000000000E+00 0. -1.
         23    2    1    2    0    0 -0.54301179440E+02  0.41118345184E+02 -0.77607161283E+02  0.13685074659E+03  0.89810461303E+02 0.  0.
          5    1    1    2  502    0 -0.20898644108E+02 -0.60799116199E+02  0.46740406311E+02  0.79595375734E+02  0.41800000000E+01 0.  1.
         -5    1    1    2    0  502  0.75199823548E+02  0.19680771015E+02  0.47350240188E+02  0.91114564451E+02  0.41800000000E+01 0.  1.
        -11    1    3    3    0    0  0.53931932651E+01 -0.22978127453E+02 -0.26313330776E+02  0.35347874778E+02  0.00000000000E+00 0. -1.
         11    1    3    3    0    0 -0.59694372705E+02  0.64096472637E+02 -0.51293830507E+02  0.10150287181E+03  0.00000000000E+00 0.  1.
</event>
<event>
 7    1  0.5137842E-006  0.6547865E+02  0.7561462E-02  0.1376180E+00
          1   -1    0    0  501    0  0.00000000000E+00  0.00000000000E+00  0.13352625113E+03  0.13352625113E+03  0.00000000000E+00 0. -1.
         -1   -1    0    0    0  501 -0.00000000000E+00 -0.00000000000E+00 -0.19053131178E+03  0.19053131178E+03  0.00000000000E+00 0.  1.
         23    2    1    2    0    0  0.21313397125E+02  0.29182680786E+02  0.17769435749E+02  0.10028237768E+03  0.91841780643E+02 0.  0.
          5    1    1    2  502    0 -0.32527878437E+02  0.18975183853E+01  0.68878966116E+02  0.76311518297E+02  0.41800000000E+01 0. -1.
         -5    1    1    2    0  502  0.11214481311E+02 -0.31080199171E+02 -0.14365346251E+03  0.14746366693E+03  0.41800000000E+01 0.  1.
        -11    1    3    3    0    0 -0.17948927639E+02  0.47808139058E+01  0.43554463646E+02  0.47349883722E+02  0.00000000000E+00 0. -1.
         11    1    3    3    0    0  0.39262324765E+02  0.24401866880E+02 -0.25785027897E+02  0.52932493959E+02  0.00000000000E+00 0.  1.
</event>
<event>
 7    1  0.5137842E-006  0.1042836E+03  0.7561462E-02  0.1271538E+00
         -2   -1    0    0    0  501 -0.00000000000E+00  0.00000000000E+00  0.16922163468E+03  0.16922163468E+03  0.00000000000E+00 0.  1.
          2   -1    0    0  501    0  0.00000000000E+00 -0.00000000000E+00 -0.11124616835E+03  0.11124616835E+03  0.00000000000E+00 0. -1.
         23    2    1    2    0    0 -0.37834956804E+02 -0.73681323048E+02  0.29965507362E+02  0.12785134136E+03  0.92669372139E+02 0.  0.
          5    1    1    2  502    0 -0.21792622975E+02  0.60129921327E+02 -0.27669234381E+02  0.69811064926E+02  0.41800000000E+01 0.  1.
         -5    1    1    2    0  502  0.59627579779E+02  0.13551401721E+02  0.55679193347E+02  0.82805396748E+02  0.41800000000E+01 0.  1.
        -11    1    3    3    0    0 -0.50585784583E+01 -0.16675540688E+02 -0.32676727571E+02  0.37032842154E+02  0.00000000000E+00 0. -1.
         11    1    3    3    0    0 -0.32776378346E+02 -0.57005782360E+02  0.62642234933E+02  0.90818499202E+02  0.00000000000E+00 0.  1.
</event>
<event>
 7    1  0.5137842E-006  0.1662803E+03  0.7561462E-02  0.1181783E+00
         -2   -1    0    0    0  501 -0.00000000000E+00  0.00000000000E+00  0.74741115766E+02  0.74741115766E+02  0.00000000000E+00 0.  1.
          2   -1    0    0  501    0  0.00000000000E+00 -0.00000000000E+00 -0.57525104103E+03  0.57525104103E+03  0.00000000000E+00 0. -1.
         23    2    1    2    0    0 -0.13755750465E+03  0.69681506529E+02 -0.37384145428E+03  0.41447107693E+03  0.90836453231E+02 0.  0.
          5    1    1    2  502    0  0.13181107905E+03 -0.54612745446E+02 -0.14986409825E+03  0.20696239482E+03  0.41800000000E+01 0.  1.
         -5    1    1    2    0  502  0.57464256043E+01 -0.15068761083E+02  0.23195627261E+02  0.28558685051E+02  0.41800000000E+01 0.  1.
        -11    1    3    3    0    0 -0.44409373726E+02  0.66493144645E+02 -0.12133305395E+03  0.14531084179E+03  0.00000000000E+00 0.  1.
         11    1    3    3    0    0 -0.93148130925E+02  0.31883618842E+01 -0.25250840032E+03  0.26916023514E+03  0.00000000000E+00 0. -1.
</event>
<event>
 6    1  0.5137842E-006  0.1951652E+03  0.7561462E-02  0.1153883E+00
          2   -1    0    0  501    0  0.00000000000E+00  0.00000000000E+00  0.37230039063E+03  0.37230039063E+03  0.00000000000E+00 0. -1.
         -2   -1    0    0    0  501 -0.00000000000E+00 -0.00000000000E+00 -0.12932538142E+03  0.12932538142E+03  0.00000000000E+00 0.  1.
          5    1    1    2  502    0  0.63598382553E+02 -0.83059303004E+02  0.13771014452E+02  0.10559694748E+03  0.41800000000E+01 0. -1.
         -5    1    1    2    0  502  0.72079064574E+02  0.88283752054E+02  0.23621974111E+02  0.11646837548E+03  0.41800000000E+01 0.  1.
        -11    1    1    2    0    0 -0.30488908896E+00  0.31357778580E+02  0.80226628775E+00  0.31369521291E+02  0.00000000000E+00 0.  1.
         11    1    1    2    0    0 -0.13537255804E+03 -0.36582227630E+02  0.20477975436E+03  0.24819092780E+03  0.00000000000E+00 0. -1.
</event>
<event>
 7    1  0.5137842E-006  0.9314042E+02  0.7561462E-02  0.1295420E+00
         -1   -1    0    0    0  501 -0.00000000000E+00  0.00000000000E+00  0.18237732924E+02  0.18237732924E+02  0.00000000000E+00 0.  1.
          1   -1    0    0  501    0  0.00000000000E+00 -0.00000000000E+00 -0.94261750111E+03  0.94261750111E+03  0.00000000000E+00 0. -1.
         23    2    1    2    0    0  0.68992364270E+02 -0.26161749038E+02 -0.31030200964E+03  0.32983737327E+03  0.84029591066E+02 0.  0.
          5    1    1    2  502    0 -0.68463099015E+01  0.57686676472E+01  0.31113081542E+01  0.10358673859E+02  0.41800000000E+01 0.  1.
         -5    1    1    2    0  502 -0.62146054368E+02  0.20393081391E+02 -0.61718906669E+03  0.62065918690E+03  0.41800000000E+01 0.  1.
        -11    1    3    3    0    0  0.33558617019E+02 -0.55500307590E+02 -0.15975382207E+03  0.17241736741E+03  0.00000000000E+00 0. -1.
         11    1    3    3    0    0  0.35433747250E+02  0.29338558553E+02 -0.15054818757E+03  0.15742000585E+03  0.00000000000E+00 0.  1.
</event>
<event>
 7    1  0.5137842E-006  0.1276301E+03  0.7561462E-02  0.1231015E+00
          2   -1    0    0  501    0  0.00000000000E+00  0.00000000000E+00  0.25975727405E+03  0.25975727405E+03  0.00000000000E+00 0. -1.
         -2   -1    0    0    0  501 -0.00000000000E+00 -0.00000000000E+00 -0.85016250561E+02  0.85016250561E+02  0.00000000000E+00 0.  1.
         23    2    1    2    0    0  0.35039623982E+01 -0.91798400007E+02  0.13229713484E+03  0.18387487935E+03  0.88702961475E+02 0.  0.
          5    1    1    2  502    0  0.34638240405E+02  0.69863136236E+01 -0.27079000111E+02  0.44714213886E+02  0.41800000000E+01 0. -1.
         -5    1    1    2    0  502 -0.38142202803E+02  0.84812086384E+02  0.69522888760E+02  0.11618443137E+03  0.41800000000E+01 0. -1.
        -11    1    3    3    0    0  0.23578062914E+02  0.79187007405E+01  0.36352576486E+02  0.44047028156E+02  0.00000000000E+00 0. -1.
         11    1    3    3    0    0 -0.20074100516E+02 -0.99717100748E+02  0.95944558351E+02  0.13982785120E+03  0.00000000000E+00 0.  1.
</event>
<event>
 7    1  0.5137842E-006  0.1134543E+03  0.7561462E-02  0.1254304E+00
         -1   -1    0    0    0  501 -0.00000000000E+00  0.00000000000E+00  0.53769498459E+02  0.53769498459E+02  0.00000000000E+00 0.  1.
          1   -1    0    0  501    0  0.00000000000E+00 -0.00000000000E+00 -0.32595101671E+03  0.32595101671E+03  0.00000000000E+00 0. -1.
         23    2    1    2    0    0 -0.16437737100E+01 -0.36825384548E+02 -0.14251761714E+03  0.17256402104E+03  0.90045872885E+02 0.  0.
          5    1    1    2  502    0  0.41176775570E+01 -0.59382437894E+02 -0.24398871096E+02  0.64467096331E+02  0.41800000000E+01 0. -1.
         -5    1    1    2    0  502 -0.24739038470E+01  0.96207822442E+02 -0.10526503002E+03  0.14268939780E+03  0.41800000000E+01 0.  1.
        -11    1    3    3    0    0  0.16713208531E+02 -0.47024688344E+02 -0.30270006964E+02  0.58368878478E+02  0.00000000000E+00 0.  1.
         11    1    3    3    0    0 -0.18356982241E+02  0.10199303795E+02 -0.11224761017E+03  0.11419514256E+03  0.00000000000E+00 0. -1.
</event>
<event>
 7    1  0.5137842E-006  0.1073662E+03  0.7561462E-02  0.1265526E+00
         -2   -1    0    0    0  501 -0.00000000000E+00  0.00000000000E+00  0.10435299237E+03  0.10435299237E+03  0.00000000000E+00 0.  1.
          2   -1    0    0  501    0  0.00000000000E+00 -0.00000000000E+00 -0.13919890333E+03  0.13919890333E+03  0.00000000000E+00 0. -1.
         23    2    1    2    0    0  0.13183626864E+02 -0.14128289671E+02 -0.69367109262E+02  0.11235572553E+03  0.86247299234E+02 0.  0.
          5    1    1    2  502    0  0.11957481725E+02  0.66795755739E+02  0.20831294188E+02  0.71106044550E+02  0.41800000000E+01 0. -1.
         -5    1    1    2    0  502 -0.25141108590E+02 -0.52667466068E+02  0.13689904111E+02  0.60090125626E+02  0.41800000000E+01 0. -1.
        -11    1    3    3    0    0  0.25925578533E+02  0.31537704826E+02 -0.28849851933E+02  0.49990763192E+02  0.00000000000E+00 0. -1.
         11    1    3    3    0    0 -0.12741951669E+02 -0.45665994496E+02 -0.40517257329E+02  0.62364962336E+02  0.00000000000E+00 0.  1.
</event>
